Membrane in water
40347
    1TMC1    C1    1   3.393   2.406  11.412  0.2478  0.3489  0.0967
    1TMC1    C2    2   3.267   2.445  11.384 -0.4513  0.2653 -0.0365
    1TMC1    C3    3   3.237   2.476  11.259  0.0364 -0.1465 -0.3379
    1TMC1    C4    4   3.496   2.403  11.322  0.0580  0.0896  0.7588
    1TMC1    C5    5   3.463   2.444  11.198 -0.6602  0.5509 -0.7181
    1TMC1    C6    6   3.334   2.467  11.162 -0.2584  0.0245  0.3110
    1TMC1     C    7   3.410   2.335  11.538 -0.7725 -0.1609 -0.2320
    1TMC1     O    8   3.326   2.361  11.622 -1.6417 -0.0838 -0.5601
    1TMC1     H    9   3.187   2.457  11.455 -0.4038 -0.4729  0.1446
    1TMC1    H1   10   3.602   2.400  11.347  0.3660 -1.1006 -0.7042
    1TMC1    H2   11   3.309   2.495  11.060  3.0669  0.5888 -0.3202
    1TMC1    C7   12   3.559   2.427  11.091 -0.2124  0.1832  0.8751
    1TMC1    C8   13   3.118   2.549  11.220  0.9485  0.1643  0.3161
    1TMC1    O1   14   3.646   2.341  11.089 -0.3219  0.6421 -0.2232
    1TMC1    O2   15   3.105   2.611  11.110  1.0482 -0.5891  0.0900
    1TMC1    O3   16   3.521   2.503  10.984  0.9280 -0.5379 -0.4790
    1TMC1    H3   17   3.478   2.588  11.008 -0.6344 -1.4448 -0.0645
    1TMC1    O5   18   3.014   2.521  11.301 -0.3724 -0.3236  0.6072
    1TMC1    H5   19   3.037   2.463  11.377  0.7059  1.8927  1.9778
    2MPD2     C   20   3.639   1.969  11.799 -0.1789 -0.4796  0.1100
    2MPD2    C1   21   3.566   2.070  11.851 -0.2802 -0.0447  0.0545
    2MPD2    C2   22   3.523   2.166  11.761  0.6397  0.1082 -0.2184
    2MPD2    C3   23   3.553   2.155  11.628 -0.1549 -0.6724 -0.4831
    2MPD2    C4   24   3.632   2.053  11.580 -0.2717 -0.5322  0.2274
    2MPD2    C5   25   3.680   1.966  11.668  0.0394  0.0445 -0.1533
    2MPD2     H   26   3.460   2.246  11.798  1.6226 -0.4845  2.7112
    2MPD2    H1   27   3.658   2.042  11.475 -0.1875  0.6041  0.1276
    2MPD2    H2   28   3.676   1.889  11.862  0.4642 -0.3301 -0.0763
    2MPD2    H3   29   3.738   1.879  11.639  1.0926  0.6493  0.1323
    2MPD2     N   30   3.514   2.251  11.532 -1.0995 -0.1273 -0.2622
    2MPD2    H5   31   3.550   2.228  11.440  3.6054  0.9143  1.3473
    2MPD2    N1   32   3.513   2.073  11.981 -0.2034 -0.1790  0.1151
    2MPD2    H7   33   3.444   2.143  12.008  1.0020  0.9327  0.3125
    3TMC1    C1   34   2.339   2.760  10.344  0.2641 -0.5103 -0.2096
    3TMC1    C2   35   2.300   2.872  10.277  0.2058  0.2976 -0.1396
    3TMC1    C3   36   2.247   2.862  10.151  0.5236  0.0276 -0.6462
    3TMC1    C4   37   2.320   2.632  10.289  0.1781  0.1507 -0.0045
    3TMC1    C5   38   2.265   2.628  10.160 -0.8012  0.1035  1.0057
    3TMC1    C6   39   2.242   2.737  10.079  0.4206  0.0985 -1.0765
    3TMC1     C   40   2.372   2.748  10.485 -0.2437  0.3720 -0.0554
    3TMC1     O   41   2.390   2.638  10.536  0.0559 -0.1111 -0.0303
    3TMC1     H   42   2.269   2.963  10.327  0.6385 -0.7558  2.0593
    3TMC1    H1   43   2.342   2.535  10.331 -3.2234 -1.4174 -1.8349
    3TMC1    H2   44   2.185   2.722   9.988 -2.0171  1.5115  0.1965
    3TMC1    C7   45   2.283   2.504  10.096 -0.5643  0.1875  0.4161
    3TMC1    C8   46   2.214   2.983  10.087  0.1384  0.4991 -0.5676
    3TMC1    O1   47   2.186   2.448  10.050 -0.0674 -0.4474 -0.5147
    3TMC1    O2   48   2.256   3.095  10.119 -0.9822 -0.7594  0.2627
    3TMC1    O3   49   2.413   2.472  10.100  0.5505  0.1102 -0.2732
    3TMC1    H3   50   2.472   2.541  10.137  0.8946 -1.4102  2.0185
    3TMC1    O5   51   2.194   2.952   9.956 -0.0864 -0.2894  0.0520
    3TMC1    H5   52   2.112   2.899   9.946  0.4694 -1.2057  0.3194
    4MPD2     C   53   2.405   2.968  10.946 -0.5655 -0.5010 -0.2719
    4MPD2    C1   54   2.391   3.066  10.849 -0.0987  0.1462  0.3082
    4MPD2    C2   55   2.378   3.030  10.718  0.1660 -0.3791  0.0825
    4MPD2    C3   56   2.377   2.897  10.679  0.4756  0.3506  0.0968
    4MPD2    C4   57   2.376   2.800  10.774  0.5061  0.5410  0.2577
    4MPD2    C5   58   2.396   2.835  10.905  0.1030 -0.1324  0.5471
    4MPD2     H   59   2.355   3.100  10.638 -0.2335 -0.0102  0.5209
    4MPD2    H1   60   2.380   2.694  10.751 -1.5078  0.4074  0.5236
    4MPD2    H2   61   2.416   2.987  11.052  0.1625  0.1201 -0.4650
    4MPD2    H3   62   2.393   2.761  10.984  0.3493  1.7786  2.3423
    4MPD2     N   63   2.375   2.874  10.539 -0.4082  0.2363 -0.5720
    4MPD2    H5   64   2.390   2.946  10.469 -1.1086  1.7545  0.8327
    4MPD2    N1   65   2.393   3.204  10.878 -0.6394  0.4849  0.6239
    4MPD2    H7   66   2.412   3.269  10.802 -0.0046 -1.1719 -0.6294
    5TCq1    O1   67   3.115   4.541  11.932  0.6610 -0.8055  0.7016
    5TCq1    C1   68   3.024   4.620  11.991 -0.3266 -0.2568 -0.1628
    5TCq1    O2   69   3.025   4.682  12.098 -0.0316 -0.2645  0.7244
    5TCq1    C2   70   2.901   4.588  11.933  0.3181  0.3830 -0.0751
    5TCq1    C3   71   2.794   4.622  12.011  0.9281 -0.0565 -0.2339
    5TCq1    C4   72   2.673   4.648  11.946  1.0153 -0.1393 -0.3902
    5TCq1    C5   73   2.666   4.634  11.809  0.0844 -0.0363 -0.1101
    5TCq1    C6   74   2.777   4.605  11.738 -0.5828  0.1173  0.4940
    5TCq1    C7   75   2.897   4.578  11.797  0.1291  0.2359  0.0754
    5TCq1    C8   76   2.771   4.565  11.597 -0.0301 -0.3276  0.4057
    5TCq1    O4   77   2.867   4.523  11.537  0.1434  0.5905  0.2913
    5TCq1    C9   78   2.550   4.665  12.028 -0.1987  1.1920  0.2226
    5TCq1    O5   79   2.443   4.684  11.960  0.3516 -1.0074 -0.4208
    5TCq1    O6   80   2.563   4.675  12.152 -0.4291 -0.3107  0.4688
    5TCq1    H1   81   3.083   4.488  11.857 -0.8977  2.7203 -1.1363
    5TCq1    H2   82   2.800   4.643  12.117  0.6120 -3.0094  0.3635
    5TCq1    H3   83   2.567   4.653  11.770  0.2126 -1.9876 -1.3747
    5TCq1    H4   84   2.986   4.581  11.736 -0.3515  0.7593 -0.6075
    6MPD2     C   85   2.477   4.610  11.379 -0.6585 -0.5873  1.3483
    6MPD2    C1   86   2.596   4.557  11.417 -0.1372  0.5811  0.1298
    6MPD2    C2   87   2.670   4.474  11.326  0.5574  0.2445  0.1926
    6MPD2    C3   88   2.626   4.457  11.197 -0.0091 -0.5768 -0.0061
    6MPD2    C4   89   2.510   4.520  11.161  0.1970  0.6828  0.1519
    6MPD2    C5   90   2.433   4.593  11.249  0.5280 -0.1015  0.2046
    6MPD2     H   91   2.760   4.422  11.357  0.2602 -0.8040 -0.6896
    6MPD2    H1   92   2.467   4.497  11.064  1.8344  0.9205 -0.6450
    6MPD2    H2   93   2.433   4.677  11.451 -1.9334 -0.6176  0.5974
    6MPD2    H3   94   2.340   4.645  11.231 -1.1508 -2.1378  2.9334
    6MPD2     N   95   2.695   4.369  11.112 -0.8954  0.2153  0.3692
    6MPD2    H5   96   2.785   4.336  11.147 -0.2100 -0.5872 -2.1043
    6MPD2    N1   97   2.642   4.585  11.546  0.2128 -0.3693  0.5479
    6MPD2    H7   98   2.579   4.636  11.606  2.2290  0.0644  2.3034
    7TCq1    O1   99   0.348   4.177  12.872  0.1143  0.0112 -0.2005
    7TCq1    C1  100   0.478   4.205  12.840 -1.0852 -0.3341  0.7132
    7TCq1    O2  101   0.518   4.199  12.724  0.3070  0.3954  0.0202
    7TCq1    C2  102   0.559   4.258  12.949  0.2242  0.1836 -0.0327
    7TCq1    C3  103   0.669   4.335  12.914  0.1937  0.2986  0.0784
    7TCq1    C4  104   0.761   4.360  13.016  0.0733 -1.3850  0.6597
    7TCq1    C5  105   0.736   4.320  13.141 -0.2799 -0.0006  0.0128
    7TCq1    C6  106   0.624   4.247  13.171 -0.1988  0.0322  0.4775
    7TCq1    C7  107   0.539   4.214  13.074  0.1273 -0.0991  0.3158
    7TCq1    C8  108   0.612   4.162  13.285 -0.4350  0.9702  0.1724
    7TCq1    O4  109   0.505   4.092  13.299  0.0738  0.0240 -0.6882
    7TCq1    C9  110   0.881   4.432  12.985 -0.0872 -1.0859 -0.2803
    7TCq1    O5  111   0.964   4.437  13.081  0.0291 -0.1384  0.0697
    7TCq1    O6  112   0.882   4.497  12.873 -0.0558  0.2158  0.2192
    7TCq1    H1  113   0.322   4.218  12.958 -0.5484 -0.0387 -0.3774
    7TCq1    H2  114   0.688   4.378  12.817  1.0514 -1.6141 -0.5924
    7TCq1    H3  115   0.805   4.344  13.222 -0.6413  1.0728  0.0054
    7TCq1    H4  116   0.454   4.149  13.091 -0.0387 -0.2048 -0.9640
    8MPD2     C  117   0.855   3.964  13.673  0.0707 -0.1434 -0.4550
    8MPD2    C1  118   0.764   3.903  13.588  0.1548  0.2427 -0.1328
    8MPD2    C2  119   0.699   3.983  13.495  0.5867 -0.7070 -0.6944
    8MPD2    C3  120   0.737   4.118  13.488 -0.1764  0.1392 -0.6556
    8MPD2    C4  121   0.818   4.180  13.575  0.0985 -0.1451 -0.7336
    8MPD2    C5  122   0.885   4.098  13.663  0.2428  1.0005  0.7107
    8MPD2     H  123   0.633   3.943  13.419  0.8615 -0.6085 -0.9854
    8MPD2    H1  124   0.864   4.277  13.560  0.4696 -0.1376  0.4835
    8MPD2    H2  125   0.912   3.910  13.748  1.8345  0.6195 -1.2440
    8MPD2    H3  126   0.966   4.130  13.728  1.0134  1.0041 -0.2546
    8MPD2     N  127   0.705   4.196  13.382  0.1970 -0.3347  0.1216
    8MPD2    H5  128   0.757   4.281  13.364 -0.0270 -0.5507 -1.5149
    8MPD2    N1  129   0.725   3.767  13.612 -0.4364 -0.2008 -0.3454
    8MPD2    H7  130   0.775   3.722  13.689 -1.5211  0.4810  0.7571
    9TMC1    C1  131   3.295   2.893  10.945  0.6179  0.1260 -0.7459
    9TMC1    C2  132   3.251   2.801  10.868 -0.2237  0.1097  0.0443
    9TMC1    C3  133   3.164   2.833  10.763 -1.2432 -0.2527 -0.1896
    9TMC1    C4  134   3.229   3.013  10.950 -0.4823 -0.1935  0.4671
    9TMC1    C5  135   3.141   3.047  10.848  0.6731  0.1202 -0.4920
    9TMC1    C6  136   3.108   2.956  10.756  0.4422 -0.7585  0.9570
    9TMC1     C  137   3.367   2.848  11.064  0.1380 -0.2450  0.3177
    9TMC1     O  138   3.434   2.746  11.051  0.2202 -0.3543 -0.1479
    9TMC1     H  139   3.278   2.697  10.880 -0.2900 -0.0496 -1.1920
    9TMC1    H1  140   3.272   3.091  11.012 -1.1462  0.2021  0.4309
    9TMC1    H2  141   3.037   2.980  10.679  0.5007 -0.2921  1.0511
    9TMC1    C7  142   3.111   3.188  10.827  0.0859 -0.4096  0.2355
    9TMC1    C8  143   3.094   2.721  10.702 -0.0134  1.2709  0.0811
    9TMC1    O1  144   3.059   3.236  10.723  0.8270 -0.4262  0.2359
    9TMC1    O2  145   3.075   2.617  10.762  0.0981 -0.1454 -0.3261
    9TMC1    O3  146   3.084   3.234  10.949 -0.0829  0.3876  0.0034
    9TMC1    H3  147   3.091   3.170  11.023  1.3653 -0.3909 -0.8149
    9TMC1    O5  148   3.055   2.749  10.577  0.2475 -0.3074 -0.2202
    9TMC1    H5  149   3.084   2.837  10.545  1.2438 -1.0494 -1.3824
   10MPD2     C  150   3.466   2.774  11.339 -0.5600  0.0675 -0.2305
   10MPD2    C1  151   3.350   2.842  11.314 -0.5603  0.7294  0.0796
   10MPD2    C2  152   3.252   2.865  11.414 -0.0060  0.2613  1.0803
   10MPD2    C3  153   3.280   2.836  11.539  0.3025 -0.3557 -0.1762
   10MPD2    C4  154   3.406   2.778  11.565 -0.2578 -0.6074 -0.6623
   10MPD2    C5  155   3.498   2.752  11.464 -0.0368 -0.1047 -0.4803
   10MPD2     H  156   3.173   2.934  11.389  0.4570  0.4918  0.2429
   10MPD2    H1  157   3.420   2.757  11.671  0.6309  2.2400 -0.2287
   10MPD2    H2  158   3.537   2.764  11.258 -0.4253 -2.0010  0.1501
   10MPD2    H3  159   3.597   2.715  11.487  0.4528  1.2345 -0.4119
   10MPD2     N  160   3.202   2.869  11.652 -0.2858  0.2948 -0.0351
   10MPD2    H5  161   3.227   2.833  11.743 -1.0402 -0.2164 -0.0284
   10MPD2    N1  162   3.309   2.886  11.181 -0.1866 -1.0916  0.5644
   10MPD2    H7  163   3.224   2.940  11.171  1.4760  1.6646  1.1610
   11TCq1    O1  164   4.024   1.671  14.552 -0.0657  0.5804  0.2704
   11TCq1    C1  165   3.964   1.709  14.666 -0.0485  0.0932 -0.6270
   11TCq1    O2  166   4.027   1.728  14.771 -0.4263  0.4069 -0.2684
   11TCq1    C2  167   3.850   1.787  14.623  0.5602  0.7691  0.7198
   11TCq1    C3  168   3.769   1.831  14.717 -0.6355  0.5303 -0.1714
   11TCq1    C4  169   3.704   1.949  14.712  0.5557 -0.0953 -0.2081
   11TCq1    C5  170   3.721   2.022  14.600  0.5591  0.0950  0.3673
   11TCq1    C6  171   3.786   1.971  14.494  0.6315  0.2713  0.5404
   11TCq1    C7  172   3.860   1.852  14.504  0.1596  0.4300  0.2336
   11TCq1    C8  173   3.806   2.049  14.375  0.1907 -0.7822 -0.0720
   11TCq1    O4  174   3.794   2.172  14.379  0.1504  0.2631 -0.0855
   11TCq1    C9  175   3.634   1.998  14.827 -0.0090  0.8356 -1.1252
   11TCq1    O5  176   3.626   2.123  14.836 -0.7641  0.4040 -0.4613
   11TCq1    O6  177   3.571   1.914  14.900 -0.0292  0.3403  0.2105
   11TCq1    H1  178   3.961   1.650  14.480  0.5371  0.8869 -0.3387
   11TCq1    H2  179   3.754   1.767  14.804 -1.7129 -0.5568 -1.1634
   11TCq1    H3  180   3.679   2.122  14.598 -0.0809 -0.2235 -2.2685
   11TCq1    H4  181   3.937   1.840  14.429 -0.1790  0.5123 -0.1278
   12MPD2     C  182   3.838   2.136  14.090  0.1384 -1.1248 -0.5864
   12MPD2    C1  183   3.832   2.004  14.125 -0.0067  0.4831 -0.2428
   12MPD2    C2  184   3.831   1.907  14.026 -0.7069  0.1303  0.5949
   12MPD2    C3  185   3.825   1.940  13.889  0.1323 -0.5141 -0.4262
   12MPD2    C4  186   3.822   2.074  13.852  0.7045 -0.1494  0.2726
   12MPD2    C5  187   3.826   2.169  13.956 -0.2032  0.2896  0.7215
   12MPD2     H  188   3.807   1.805  14.051  0.2918 -0.0943  0.6332
   12MPD2    H1  189   3.826   2.108  13.749 -0.7173  0.4307  0.4083
   12MPD2    H2  190   3.835   2.222  14.155 -0.0346  0.0409 -2.1494
   12MPD2    H3  191   3.814   2.272  13.926 -0.1281 -0.3887 -1.6076
   12MPD2     N  192   3.802   1.848  13.788  0.5770  1.1091  0.3318
   12MPD2    H5  193   3.774   1.885  13.697 -0.9163 -1.2469 -0.1798
   12MPD2    N1  194   3.820   1.966  14.265  0.3966 -0.1433 -0.2176
   12MPD2    H7  195   3.807   1.867  14.283 -0.9078  0.3951  1.8672
   13TCq1    O1  196   4.008   2.752  10.788  0.0533 -0.5052 -0.3212
   13TCq1    C1  197   3.890   2.692  10.812  0.1659  0.3352 -0.2501
   13TCq1    O2  198   3.844   2.659  10.923  0.0245 -0.8230 -0.0930
   13TCq1    C2  199   3.798   2.695  10.693 -0.1404 -0.0847 -0.5800
   13TCq1    C3  200   3.821   2.788  10.596 -0.8849 -0.2141 -0.3821
   13TCq1    C4  201   3.737   2.790  10.485 -0.0680  1.3012 -0.2704
   13TCq1    C5  202   3.625   2.715  10.487  0.1843 -0.1461 -0.1531
   13TCq1    C6  203   3.610   2.624  10.584 -0.6189  0.3818 -0.0147
   13TCq1    C7  204   3.699   2.607  10.691  0.1993 -0.5720  0.1182
   13TCq1    C8  205   3.475   2.566  10.622 -0.2101 -0.1398  0.0184
   13TCq1    O4  206   3.375   2.630  10.609  0.7390  0.1397  0.5539
   13TCq1    C9  207   3.764   2.877  10.375  0.2771 -0.3408  0.2155
   13TCq1    O5  208   3.700   2.864  10.268  0.0543 -0.2502 -0.5414
   13TCq1    O6  209   3.876   2.938  10.380 -0.3303  0.0579 -0.2696
   13TCq1    H1  210   4.033   2.763  10.694 -0.2183 -1.0761 -0.4601
   13TCq1    H2  211   3.911   2.848  10.600  0.0173 -1.5419 -0.7418
   13TCq1    H3  212   3.552   2.739  10.411 -1.4070  0.5187  1.5779
   13TCq1    H4  213   3.685   2.544  10.777  1.1097  0.6759  1.1843
   14MPD2     C  214   3.461   2.209  10.706  0.2671  0.2044  0.0647
   14MPD2    C1  215   3.410   2.337  10.686  0.2524 -0.0863  0.2712
   14MPD2    C2  216   3.284   2.365  10.739 -0.1010  0.4595 -0.0480
   14MPD2    C3  217   3.205   2.268  10.803  0.6563  0.5680 -0.3831
   14MPD2    C4  218   3.262   2.143  10.827  0.6886 -0.5944  1.0987
   14MPD2    C5  219   3.388   2.121  10.781 -0.7976  0.1965  0.3466
   14MPD2     H  220   3.253   2.469  10.743 -0.5763  0.3816 -1.5385
   14MPD2    H1  221   3.208   2.072  10.888 -1.2819 -0.0886 -0.0575
   14MPD2    H2  222   3.561   2.181  10.675  0.3080 -0.4501  0.7936
   14MPD2    H3  223   3.419   2.018  10.791 -0.6868  0.1873 -0.1125
   14MPD2     N  224   3.076   2.312  10.856 -0.8855  0.0895  0.2866
   14MPD2    H5  225   3.057   2.411  10.850 -1.4777 -0.2081 -2.6965
   14MPD2    N1  226   3.500   2.436  10.647  0.1697 -0.4504 -0.0189
   14MPD2    H7  227   3.599   2.415  10.635  0.8571  2.1833  1.0057
   15TCq1    O1  228   0.465   2.642   2.480  0.4722  0.1543  0.3838
   15TCq1    C1  229   0.574   2.611   2.416 -0.5874 -0.3507 -1.0624
   15TCq1    O2  230   0.677   2.591   2.478  0.1944 -0.6289  0.1084
   15TCq1    C2  231   0.559   2.656   2.275  0.1292 -0.0386  0.0032
   15TCq1    C3  232   0.467   2.749   2.242  0.3093  0.8136  0.2624
   15TCq1    C4  233   0.452   2.774   2.105 -0.1803  0.0924 -0.0644
   15TCq1    C5  234   0.510   2.693   2.009 -0.1567 -0.0739 -0.1788
   15TCq1    C6  235   0.596   2.588   2.054 -0.1490 -0.1679 -0.0792
   15TCq1    C7  236   0.634   2.581   2.189  0.6755  0.1088 -0.3786
   15TCq1    C8  237   0.632   2.481   1.966 -0.5971 -0.1332  0.3508
   15TCq1    O4  238   0.739   2.427   1.987 -0.1993  0.1198  0.1619
   15TCq1    C9  239   0.354   2.857   2.047  1.2271 -0.5695  0.2557
   15TCq1    O5  240   0.324   2.845   1.924 -0.2177 -0.0050 -0.1189
   15TCq1    O6  241   0.280   2.912   2.130 -0.3438 -0.6525 -0.1630
   15TCq1    H1  242   0.388   2.622   2.422  1.9005 -3.5650 -0.2386
   15TCq1    H2  243   0.421   2.817   2.313  3.2007  1.2867  1.6934
   15TCq1    H3  244   0.501   2.709   1.902 -0.6906 -0.7589 -0.2331
   15TCq1    H4  245   0.694   2.498   2.223 -1.7855 -0.5716  2.2973
   16MPD2     C  246   0.481   2.375   1.637 -0.3681  0.1050  0.3856
   16MPD2    C1  247   0.570   2.381   1.741 -0.2476  0.0979 -0.4428
   16MPD2    C2  248   0.680   2.301   1.729 -0.3794 -0.1539  0.2973
   16MPD2    C3  249   0.698   2.218   1.622  0.2083 -0.5197  0.2178
   16MPD2    C4  250   0.602   2.210   1.532  0.8521 -0.5666  0.1940
   16MPD2    C5  251   0.489   2.285   1.528 -0.2301 -0.3767 -0.0919
   16MPD2     H  252   0.760   2.307   1.802  1.2087  1.7001 -1.6145
   16MPD2    H1  253   0.593   2.133   1.456  3.5935  0.2252 -0.9238
   16MPD2    H2  254   0.397   2.443   1.635 -0.9527 -0.6280 -0.1431
   16MPD2    H3  255   0.414   2.270   1.451 -0.3270  3.6919 -0.7956
   16MPD2     N  256   0.816   2.147   1.625 -0.1720 -0.0870  0.4089
   16MPD2    H5  257   0.878   2.164   1.703 -0.9624 -0.0664  1.0304
   16MPD2    N1  258   0.552   2.471   1.852  0.6871  0.2959 -0.1749
   16MPD2    H7  259   0.469   2.528   1.843  0.5150 -0.0193 -0.5936
   17TMC1    C1  260   3.201   1.924  11.665  0.3558 -0.3239 -0.8605
   17TMC1    C2  261   3.081   1.930  11.728 -0.4231  0.6412 -0.5170
   17TMC1    C3  262   3.075   1.893  11.863 -0.6318  0.0060  0.2775
   17TMC1    C4  263   3.308   1.869  11.730 -0.5576  0.6925 -0.2406
   17TMC1    C5  264   3.292   1.815  11.862  0.1471  0.8753  0.7784
   17TMC1    C6  265   3.179   1.832  11.937  0.0753  0.1042  0.2911
   17TMC1     C  266   3.219   1.977  11.531 -0.0512 -0.2850 -0.9030
   17TMC1     O  267   3.123   2.035  11.487  0.3546 -0.0270 -0.1945
   17TMC1     H  268   2.995   1.955  11.668 -1.4093 -2.1967 -0.2771
   17TMC1    H1  269   3.409   1.863  11.690 -0.1767  0.6160  0.7139
   17TMC1    H2  270   3.183   1.797  12.039 -0.2282 -1.6445 -0.3000
   17TMC1    C7  271   3.402   1.749  11.923  0.3661 -0.3365  0.4425
   17TMC1    C8  272   2.949   1.917  11.933  0.2555 -0.1065 -0.0682
   17TMC1    O1  273   3.410   1.710  12.041  0.1242  0.7131 -0.3135
   17TMC1    O2  274   2.914   1.843  12.023  0.5425 -0.2422  0.0779
   17TMC1    O3  275   3.444   1.666  11.824  0.3579  0.2227  0.2333
   17TMC1    H3  276   3.373   1.665  11.756  2.2168 -0.7274 -1.6845
   17TMC1    O5  277   2.865   1.977  11.849 -0.2537 -0.2227  0.1488
   17TMC1    H5  278   2.911   2.053  11.807  1.0020 -2.0059 -1.6548
   18MPD2     C  279   3.309   2.069  11.264  0.0369 -0.2403  0.1375
   18MPD2    C1  280   3.375   1.972  11.336 -0.7324 -0.8364  0.0789
   18MPD2    C2  281   3.490   1.907  11.287 -0.5215  0.4973 -0.0595
   18MPD2    C3  282   3.532   1.950  11.159 -0.3760 -0.0954 -0.1335
   18MPD2    C4  283   3.474   2.058  11.093  0.5499 -0.1763  0.3410
   18MPD2    C5  284   3.364   2.115  11.146 -0.0205 -0.6190 -0.1234
   18MPD2     H  285   3.549   1.837  11.346 -1.1808 -1.9955 -2.3744
   18MPD2    H1  286   3.513   2.107  11.004  1.7974 -1.6916  0.0367
   18MPD2    H2  287   3.226   2.130  11.298  1.7538  2.4708 -0.5273
   18MPD2    H3  288   3.304   2.174  11.078 -0.5291  0.4988  1.3019
   18MPD2     N  289   3.627   1.881  11.080  0.0036 -0.7283  0.5858
   18MPD2    H5  290   3.646   1.919  10.988 -0.0614 -1.1245  0.4108
   18MPD2    N1  291   3.331   1.936  11.466  0.1800  0.2989 -0.2637
   18MPD2    H7  292   3.396   1.879  11.519  1.9474 -0.8720 -3.6710
   19TMC2    C1  293   0.248   2.515  14.161 -0.1854  0.4912 -0.5929
   19TMC2    C2  294   0.181   2.615  14.096  0.2454  0.1964 -0.0551
   19TMC2    C3  295   0.066   2.592  14.022 -0.7974 -0.5234 -1.0084
   19TMC2    C4  296   0.219   2.385  14.149  0.2886 -1.0353  0.1609
   19TMC2    C5  297   0.108   2.359  14.069  0.3104 -0.5940 -0.3524
   19TMC2    C6  298   0.034   2.459  14.002 -0.2205  0.0842  0.4598
   19TMC2     C  299   0.362   2.563  14.232 -0.3052  0.3492  0.6159
   19TMC2     O  300   0.395   2.681  14.215  0.1080 -0.2225 -0.0293
   19TMC2     H  301   0.201   2.721  14.104  1.0830 -0.0514  1.0719
   19TMC2    H1  302   0.279   2.305  14.193 -1.2174 -1.0107  2.2480
   19TMC2    H2  303   4.703   2.430  13.922  0.4485 -0.4259  0.0963
   19TMC2    C7  304   0.083   2.218  14.051 -0.4110  0.3706 -0.3211
   19TMC2    C8  305   0.052   2.678  13.907  0.8160 -0.2451 -0.6567
   19TMC2    O1  306   0.159   2.133  14.090 -0.0691  0.4788 -0.1112
   19TMC2    O2  307   0.136   2.766  13.893 -0.1810  0.0927 -0.4833
   19TMC2    O5  308   4.654   2.704  13.919 -0.4001 -0.4638 -0.3709
   19TMC2    H5  309   4.596   2.625  13.911 -1.7147  0.4163  0.5121
   20MPD2     C  310   0.611   2.583  14.405  0.1517 -0.3308 -0.8594
   20MPD2    C1  311   0.541   2.470  14.383  0.6984  0.9542  0.6399
   20MPD2    C2  312   0.605   2.349  14.407 -0.3914  0.8411 -0.5088
   20MPD2    C3  313   0.727   2.349  14.470 -0.1217  0.1025 -0.4470
   20MPD2    C4  314   0.783   2.468  14.515  0.4151 -0.1186 -0.5767
   20MPD2    C5  315   0.726   2.583  14.476  0.7267 -0.1459 -0.0737
   20MPD2     H  316   0.561   2.256  14.373  1.3522 -0.9719  2.2244
   20MPD2    H1  317   0.877   2.468  14.568  0.5704  1.7577 -0.8354
   20MPD2    H2  318   0.564   2.679  14.384 -1.1680 -1.5756 -3.4470
   20MPD2    H3  319   0.762   2.682  14.503 -1.5470  0.8744 -0.7514
   20MPD2     N  320   0.792   2.231  14.514 -0.5071 -0.6526 -0.4592
   20MPD2    H5  321   0.882   2.247  14.559 -0.8422  1.0012 -0.3621
   20MPD2    N1  322   0.421   2.463  14.310  0.6122  0.2352  0.1349
   20MPD2    H7  323   0.387   2.370  14.290 -0.6515  0.9880 -1.2825
   21TMC2    C1  324   2.646   2.964  13.900  0.4935 -0.8410  0.3341
   21TMC2    C2  325   2.562   3.038  13.820  0.1945 -0.2334 -0.3432
   21TMC2    C3  326   2.480   3.126  13.880  1.0713  0.5347  0.0054
   21TMC2    C4  327   2.632   2.959  14.034 -0.0231  0.1535 -0.3594
   21TMC2    C5  328   2.540   3.048  14.090 -0.0127 -0.3326 -0.5883
   21TMC2    C6  329   2.466   3.131  14.015 -0.0005  0.0246  0.1118
   21TMC2     C  330   2.769   2.893  13.842  0.8305 -0.1124  1.1658
   21TMC2     O  331   2.826   2.810  13.915  0.0935 -0.5092 -0.3178
   21TMC2     H  332   2.578   3.037  13.713 -0.8438 -2.6283 -0.4858
   21TMC2    H1  333   2.685   2.882  14.088 -0.0262  0.7686  0.5449
   21TMC2    H2  334   2.419   3.219  14.055 -0.2790 -0.2680  0.4250
   21TMC2    C7  335   2.536   3.048  14.238 -0.9727 -0.1526 -0.6105
   21TMC2    C8  336   2.406   3.224  13.801  0.5587 -0.1263 -0.4765
   21TMC2    O1  337   2.604   2.967  14.299  0.5231 -0.0147 -0.0531
   21TMC2    O2  338   2.443   3.271  13.694  1.0443 -0.7886 -0.0663
   21TMC2    O5  339   2.281   3.236  13.857 -0.2824 -0.1534 -0.1792
   21TMC2    H5  340   2.272   3.170  13.929 -0.9561  1.0318  0.8146
   22MPD2     C  341   3.144   2.824  13.485  0.4432  0.4502  0.5056
   22MPD2    C1  342   3.109   2.760  13.603  0.1382  0.3558  0.4561
   22MPD2    C2  343   3.004   2.801  13.682 -0.8121  0.0117 -0.5096
   22MPD2    C3  344   2.928   2.913  13.649  0.3276  0.5985  0.4704
   22MPD2    C4  345   2.975   2.982  13.539  0.3860 -0.0798 -0.4879
   22MPD2    C5  346   3.069   2.937  13.448 -0.0452 -0.4585  0.0938
   22MPD2     H  347   2.993   2.750  13.776  1.0532 -0.6331 -0.6465
   22MPD2    H1  348   2.919   3.069  13.506 -0.4173 -0.5960 -0.4958
   22MPD2    H2  349   3.222   2.793  13.417  0.0492 -0.1819  0.3428
   22MPD2    H3  350   3.076   3.009  13.367  1.9581 -0.7772 -0.0068
   22MPD2     N  351   2.824   2.958  13.731  0.6000 -0.1416  0.1635
   22MPD2    H5  352   2.782   3.042  13.693 -0.9851 -0.3150  1.5095
   22MPD2    N1  353   3.174   2.646  13.655 -0.1077  0.6109 -0.5378
   22MPD2    H7  354   3.129   2.591  13.728 -0.6468  0.6914 -0.8099
   23TMC2    C1  355   3.603   3.452  14.079  0.6855 -0.2260 -0.0599
   23TMC2    C2  356   3.639   3.519  13.968 -0.1176  0.8391  0.4451
   23TMC2    C3  357   3.543   3.555  13.883  0.0649  0.2533 -0.3042
   23TMC2    C4  358   3.472   3.429  14.107 -0.1695 -0.7829  0.4124
   23TMC2    C5  359   3.374   3.465  14.019  0.3691 -0.3751  0.1151
   23TMC2    C6  360   3.409   3.542  13.911  0.4039  0.2987  0.3500
   23TMC2     C  361   3.692   3.427  14.199  0.0972  0.6426  0.5307
   23TMC2     O  362   3.656   3.358  14.293 -0.0030 -0.3002 -0.3020
   23TMC2     H  363   3.738   3.559  13.950  1.0854 -2.4041 -0.2724
   23TMC2    H1  364   3.449   3.383  14.202  0.1167 -1.1073  0.3274
   23TMC2    H2  365   3.327   3.583  13.853  0.8778 -0.3461 -0.7846
   23TMC2    C7  366   3.244   3.472  14.079 -0.0715  0.1209  0.6860
   23TMC2    C8  367   3.590   3.628  13.771 -0.6915  0.0261 -0.4569
   23TMC2    O1  368   3.171   3.568  14.060 -0.4453 -0.0568  0.6421
   23TMC2    O2  369   3.627   3.743  13.787 -0.9595 -0.2613 -0.5156
   23TMC2    O5  370   3.671   3.539  13.707 -0.2324 -0.1539 -0.1330
   23TMC2    H5  371   3.653   3.443  13.715  1.8959 -0.3872  1.8656
   24MPD2     C  372   4.180   3.436  14.377  0.4489  0.3629 -0.2274
   24MPD2    C1  373   4.068   3.386  14.436  0.5418 -0.0896 -0.5918
   24MPD2    C2  374   3.936   3.405  14.379  0.2733 -0.1538 -0.7318
   24MPD2    C3  375   3.935   3.464  14.251 -0.0731 -0.0665  0.2169
   24MPD2    C4  376   4.045   3.521  14.191  0.2767 -0.0788 -0.8172
   24MPD2    C5  377   4.163   3.509  14.259 -0.0247  0.3568  0.7861
   24MPD2     H  378   3.846   3.355  14.414  1.0512 -1.3000 -0.3674
   24MPD2    H1  379   4.044   3.589  14.106  0.6463  0.0050 -0.7548
   24MPD2    H2  380   4.277   3.429  14.424  0.3279 -1.1963 -0.1911
   24MPD2    H3  381   4.247   3.553  14.207 -1.8889  1.2293 -1.4687
   24MPD2     N  382   3.822   3.474  14.171  0.2367 -0.5950  0.1776
   24MPD2    H5  383   3.842   3.517  14.081  0.3159 -2.4992 -0.7201
   24MPD2    N1  384   4.089   3.330  14.567 -0.3353  0.8987  0.0403
   24MPD2    H7  385   4.185   3.304  14.583 -0.0808  0.9079 -1.4248
   25TMC2    C1  386   3.033   1.582  11.428 -0.0137  0.2955 -0.0739
   25TMC2    C2  387   3.051   1.686  11.341 -0.2640  0.4770 -0.5792
   25TMC2    C3  388   2.962   1.790  11.341 -0.0320  0.1204 -0.1293
   25TMC2    C4  389   2.916   1.582  11.501  0.5100  0.3246  0.2909
   25TMC2    C5  390   2.840   1.692  11.506  0.1162  0.2136 -0.6022
   25TMC2    C6  391   2.854   1.800  11.423  0.4024 -0.8430 -0.1954
   25TMC2     C  392   3.112   1.461  11.402 -0.1088 -1.0872  0.3403
   25TMC2     O  393   3.234   1.472  11.390 -0.0331 -0.2774 -0.3307
   25TMC2     H  394   3.137   1.690  11.276  0.0950  1.4708 -0.0468
   25TMC2    H1  395   2.879   1.495  11.553 -0.3559 -0.0148 -0.8984
   25TMC2    H2  396   2.792   1.889  11.428 -0.9168 -1.8193  0.7456
   25TMC2    C7  397   2.745   1.700  11.616 -0.4483 -0.0248 -0.1293
   25TMC2    C8  398   2.972   1.870  11.221 -1.2507  1.0636 -0.4194
   25TMC2    O1  399   2.776   1.643  11.722  0.4313 -0.0319 -0.4948
   25TMC2    O2  400   3.048   1.838  11.131  0.1183  0.4863  0.2171
   25TMC2    O5  401   2.839   1.877  11.207 -0.5610 -0.0788 -0.2072
   25TMC2    H5  402   2.795   1.945  11.263 -3.2501 -0.4862 -1.8227
   26MPD2     C  403   3.116   0.982  11.237 -0.5156  0.0507  0.1434
   26MPD2    C1  404   3.016   0.998  11.325  0.2939  1.0605  0.1035
   26MPD2    C2  405   3.010   1.112  11.397 -0.0499  0.8086  0.2652
   26MPD2    C3  406   3.083   1.218  11.373  0.7512 -0.1395 -0.4970
   26MPD2    C4  407   3.190   1.205  11.279 -0.2684  0.4558  0.0626
   26MPD2    C5  408   3.198   1.086  11.212  0.4743  0.1825 -0.5419
   26MPD2     H  409   2.924   1.128  11.461 -0.0001  0.5970  0.3859
   26MPD2    H1  410   3.264   1.284  11.266  0.5270 -0.4870 -1.1689
   26MPD2    H2  411   3.139   0.888  11.187  0.8667  1.4515 -1.8574
   26MPD2    H3  412   3.274   1.082  11.135 -0.3928 -0.3651 -1.3722
   26MPD2     N  413   3.051   1.338  11.431 -0.5363 -0.2830 -0.1105
   26MPD2    H5  414   2.965   1.338  11.485  0.1276 -1.3172  0.9664
   26MPD2    N1  415   2.940   0.884  11.339  0.2650 -0.2700 -0.4196
   26MPD2    H7  416   2.954   0.815  11.266 -1.4297 -1.8399  0.7395
   27TMC2    C1  417   1.158   4.218  11.617 -0.4436  0.0670  0.3254
   27TMC2    C2  418   1.147   4.259  11.487  0.3290 -0.3414 -0.0699
   27TMC2    C3  419   1.234   4.204  11.396 -0.6285  0.4506 -0.1302
   27TMC2    C4  420   1.264   4.131  11.657 -0.7497  0.4136  0.5329
   27TMC2    C5  421   1.343   4.081  11.556 -0.2987 -0.2265 -0.3393
   27TMC2    C6  422   1.328   4.109  11.427 -0.7639  0.4795 -0.2983
   27TMC2     C  423   1.082   4.289  11.722  0.1816  0.2540 -1.1276
   27TMC2     O  424   1.024   4.392  11.684  0.0942  0.2980  0.0129
   27TMC2     H  425   1.069   4.321  11.445  1.0010  0.5441  0.0109
   27TMC2    H1  426   1.276   4.101  11.761  0.8402 -1.2509 -0.1434
   27TMC2    H2  427   1.404   4.077  11.356  0.8334 -1.7473  2.4207
   27TMC2    C7  428   1.447   3.981  11.584 -0.0395 -0.7842 -0.6190
   27TMC2    C8  429   1.180   4.213  11.261  0.5077  0.6051 -0.9924
   27TMC2    O1  430   1.518   3.951  11.490  0.5448 -0.8086 -0.6926
   27TMC2    O2  431   1.064   4.240  11.240 -0.6517  0.4073  0.0568
   27TMC2    O5  432   1.269   4.163  11.167 -0.4200 -0.5357 -0.5266
   27TMC2    H5  433   1.364   4.158  11.193 -0.6855 -0.7995  0.4219
   28MPD2     C  434   0.903   4.377  12.179  0.3536  0.6480 -0.2679
   28MPD2    C1  435   0.907   4.238  12.167  0.1550 -0.3408 -0.0998
   28MPD2    C2  436   0.983   4.189  12.060 -0.0691  0.1861  0.2432
   28MPD2    C3  437   1.028   4.276  11.965 -0.6319  0.4884  0.1806
   28MPD2    C4  438   1.012   4.409  11.965  0.2705 -0.9577  0.0589
   28MPD2    C5  439   0.954   4.457  12.075 -0.4468 -0.0457  0.7228
   28MPD2     H  440   1.010   4.085  12.051  0.2615  0.3325 -0.4529
   28MPD2    H1  441   1.062   4.477  11.896 -1.7897  0.7766  0.2752
   28MPD2    H2  442   0.861   4.424  12.267 -0.2640 -1.9402  0.8301
   28MPD2    H3  443   0.938   4.564  12.081 -0.2922  0.1704 -3.0038
   28MPD2     N  444   1.079   4.224  11.844 -0.2832  1.1046  0.4063
   28MPD2    H5  445   1.116   4.130  11.852  1.5707  1.5621 -2.7948
   28MPD2    N1  446   0.854   4.158  12.268  0.5112  0.2720 -0.2803
   28MPD2    H7  447   0.796   4.198  12.340  0.1524 -1.3214  0.3175
   29TMC2    C1  448   1.585   1.088  14.459  0.6476  0.0976  0.2527
   29TMC2    C2  449   1.532   1.074  14.582 -0.2056  0.0087 -0.0004
   29TMC2    C3  450   1.538   1.187  14.663 -0.3365 -0.2205 -0.3091
   29TMC2    C4  451   1.631   1.209  14.415 -0.1957  0.0614  0.7563
   29TMC2    C5  452   1.619   1.319  14.491  0.0834 -0.0692 -0.2502
   29TMC2    C6  453   1.572   1.310  14.622 -0.0719 -0.2671 -0.4138
   29TMC2     C  454   1.568   0.971  14.375  0.1825  0.0180 -0.3785
   29TMC2     O  455   1.506   0.874  14.417  0.7702  0.0753  0.5529
   29TMC2     H  456   1.482   0.985  14.619  0.4030 -0.2049  0.3100
   29TMC2    H1  457   1.684   1.212  14.320 -2.5282 -0.6405 -0.5709
   29TMC2    H2  458   1.567   1.399  14.684 -1.4479 -1.8728  1.7744
   29TMC2    C7  459   1.621   1.448  14.428  0.2824 -0.8847  0.0243
   29TMC2    C8  460   1.446   1.186  14.780  0.1443  0.1665  0.5597
   29TMC2    O1  461   1.589   1.459  14.311  0.4221 -0.3682  0.2724
   29TMC2    O2  462   1.438   1.085  14.845 -0.0791  0.3512 -0.3257
   29TMC2    O5  463   1.343   1.277  14.756 -0.4520 -0.0321  0.3005
   29TMC2    H5  464   1.359   1.341  14.684 -0.6540  0.5505  0.7738
   30MPD2     C  465   1.667   0.653  13.974 -0.3674  0.1853 -0.1484
   30MPD2    C1  466   1.629   0.624  14.103 -0.5870 -0.7683  0.5841
   30MPD2    C2  467   1.605   0.732  14.185 -0.5659  0.2109 -0.2346
   30MPD2    C3  468   1.627   0.864  14.152  0.3979  0.2739  0.0927
   30MPD2    C4  469   1.671   0.886  14.027 -0.0924 -0.1450 -0.5174
   30MPD2    C5  470   1.689   0.782  13.939 -0.4146 -0.0563 -0.3492
   30MPD2     H  471   1.563   0.709  14.283 -0.3485 -0.5344 -0.3145
   30MPD2    H1  472   1.687   0.986  13.989 -1.0193 -0.1225 -0.8532
   30MPD2    H2  473   1.684   0.585  13.891  0.8260 -0.7107  0.8261
   30MPD2    H3  474   1.721   0.806  13.838  2.3004  1.3297  0.8451
   30MPD2     N  475   1.609   0.976  14.240  0.2928 -0.6281 -0.1983
   30MPD2    H5  476   1.618   1.068  14.197  1.0070  0.0417  1.3330
   30MPD2    N1  477   1.589   0.491  14.147 -0.1392 -0.6935 -0.4451
   30MPD2    H7  478   1.542   0.490  14.237 -1.0541  0.7866 -0.9023
   31TMC2    C1  479   3.736   4.069  15.326 -0.0544 -0.0413  0.0848
   31TMC2    C2  480   3.619   4.151  15.324 -0.6448 -0.0501 -0.2477
   31TMC2    C3  481   3.589   4.228  15.434 -0.7767  0.3337 -0.6483
   31TMC2    C4  482   3.808   4.062  15.449 -0.5770  0.0032 -0.4523
   31TMC2    C5  483   3.765   4.139  15.553  0.1755 -0.0456 -0.0734
   31TMC2    C6  484   3.663   4.230  15.544  0.0795 -0.5294 -0.2573
   31TMC2     C  485   3.785   4.010  15.207  0.6771  0.0145 -0.1936
   31TMC2     O  486   3.737   4.060  15.104  0.1251  0.3339  0.1330
   31TMC2     H  487   3.558   4.164  15.235  0.6976  1.5841 -0.9246
   31TMC2    H1  488   3.895   3.999  15.463 -0.8586 -0.2824  0.0164
   31TMC2    H2  489   3.607   4.265  15.630  0.8630  1.1586 -0.4318
   31TMC2    C7  490   3.847   4.140  15.674  0.4936  0.4163 -0.0617
   31TMC2    C8  491   3.455   4.279  15.457  0.2959  0.3616  0.5178
   31TMC2    O1  492   3.877   4.038  15.729 -0.1870 -0.2270  0.5441
   31TMC2    O2  493   3.390   4.273  15.563  0.1723  0.1110  0.0848
   31TMC2    O5  494   3.411   4.312  15.331  0.2316 -0.0661 -0.0874
   31TMC2    H5  495   3.482   4.321  15.264 -0.8205  1.2482 -0.9966
   32MPD2     C  496   4.100   3.732  14.936 -0.2952  0.2484 -0.6651
   32MPD2    C1  497   4.024   3.841  14.901  0.0151  0.6323  0.2011
   32MPD2    C2  498   3.948   3.899  14.995  0.6573  0.8053  0.7658
   32MPD2    C3  499   3.944   3.848  15.127  0.4317  0.3945 -0.2413
   32MPD2    C4  500   4.021   3.730  15.161  0.4654 -0.3417 -0.1768
   32MPD2    C5  501   4.098   3.679  15.065 -0.1396  0.1756 -0.1632
   32MPD2     H  502   3.894   3.989  14.971 -1.7158 -0.9597 -0.5118
   32MPD2    H1  503   4.017   3.687  15.261 -3.4221  0.6398  0.1021
   32MPD2    H2  504   4.173   3.688  14.869  0.6045 -1.2909  1.3342
   32MPD2    H3  505   4.161   3.593  15.085 -0.9858 -0.2641  0.6410
   32MPD2     N  506   3.865   3.902  15.229 -0.2402  0.2052 -0.2271
   32MPD2    H5  507   3.871   3.865  15.324  1.1155  0.2948 -0.2794
   32MPD2    N1  508   4.019   3.893  14.770 -0.1843  0.1608  0.0751
   32MPD2    H7  509   3.966   3.978  14.756 -2.4049 -1.4367 -1.2165
   33TMC2    C1  510   3.269   2.238  10.357 -0.0243  0.4753 -0.4631
   33TMC2    C2  511   3.150   2.220  10.421 -0.1019  0.1301  0.0790
   33TMC2    C3  512   3.068   2.331  10.442 -0.1818  0.2358 -0.1851
   33TMC2    C4  513   3.309   2.359  10.315  0.2614  0.1017  0.3749
   33TMC2    C5  514   3.229   2.468  10.336 -0.1946  0.4124  0.0735
   33TMC2    C6  515   3.108   2.456  10.404 -0.4693 -0.2912  0.1754
   33TMC2     C  516   3.367   2.134  10.387  0.6617 -0.0901 -0.2701
   33TMC2     O  517   3.329   2.054  10.474  0.3045 -0.2172  0.9064
   33TMC2     H  518   3.112   2.121  10.442 -1.7160  0.9692  1.1381
   33TMC2    H1  519   3.397   2.375  10.253 -0.2299 -0.5474 -0.4867
   33TMC2    H2  520   3.039   2.537  10.423 -1.0598 -1.0655  1.3662
   33TMC2    C7  521   3.265   2.589  10.268  0.3865 -0.5648  0.7374
   33TMC2    C8  522   2.929   2.306  10.493  0.3412  0.4731  0.6241
   33TMC2    O1  523   3.368   2.580  10.209  0.3050 -0.1012  0.7029
   33TMC2    O2  524   2.839   2.390  10.498 -0.5451  0.3050 -0.1516
   33TMC2    O5  525   2.934   2.200  10.576 -0.1935  1.1002  0.2777
   33TMC2    H5  526   3.002   2.130  10.563 -1.2760  0.0439  0.2453
   34MPD2     C  527   3.840   1.956  10.395  0.6422  0.2649 -0.6942
   34MPD2    C1  528   3.737   1.922  10.476  0.0256  0.4748 -0.1803
   34MPD2    C2  529   3.618   1.984  10.458  0.6075  0.4867 -0.1675
   34MPD2    C3  530   3.601   2.070  10.356  0.6257  0.3575 -0.0666
   34MPD2    C4  531   3.714   2.107  10.280  0.0520  0.2087  0.0580
   34MPD2    C5  532   3.837   2.044  10.293 -0.5947 -0.1369 -0.4862
   34MPD2     H  533   3.540   1.967  10.531  0.3456  0.2163 -0.5138
   34MPD2    H1  534   3.703   2.165  10.190  1.4241  2.2927  1.2289
   34MPD2    H2  535   3.937   1.910  10.409 -0.4558 -1.7754  0.3292
   34MPD2    H3  536   3.917   2.070  10.224 -0.1086 -0.3137  0.0133
   34MPD2     N  537   3.488   2.143  10.324 -0.5716  0.3992 -0.3568
   34MPD2    H5  538   3.498   2.198  10.239 -2.2469 -1.1453 -1.5641
   34MPD2    N1  539   3.775   1.840  10.587 -0.4143  0.7393 -0.1172
   34MPD2    H7  540   3.874   1.831  10.607 -0.3446 -0.9947 -1.2563
   35TMC2    C1  541   4.129   3.749  11.188  0.7412 -0.0705  0.0760
   35TMC2    C2  542   4.050   3.856  11.217  0.4948 -0.2142 -0.7038
   35TMC2    C3  543   3.914   3.840  11.241  0.3631  0.2810  0.4142
   35TMC2    C4  544   4.079   3.625  11.196  0.2945  0.5639  0.0634
   35TMC2    C5  545   3.943   3.610  11.221 -0.0637  0.0010  0.1962
   35TMC2    C6  546   3.858   3.714  11.239  0.4747 -0.6252  0.6141
   35TMC2     C  547   4.254   3.762  11.116 -0.5885 -0.5074  0.2275
   35TMC2     O  548   4.249   3.836  11.018  0.2453  0.2926 -0.5823
   35TMC2     H  549   4.093   3.954  11.201  2.7832 -0.7400  2.1112
   35TMC2    H1  550   4.146   3.542  11.178 -2.1430 -1.0206 -1.7404
   35TMC2    H2  551   3.753   3.706  11.264  0.5023 -3.7479 -0.2940
   35TMC2    C7  552   3.903   3.473  11.241 -0.6954  0.5998 -0.0182
   35TMC2    C8  553   3.830   3.959  11.249 -0.3170  1.0931 -0.0622
   35TMC2    O1  554   3.981   3.379  11.253  0.8031  0.2818 -0.1610
   35TMC2    O2  555   3.710   3.936  11.229  0.4692 -0.0239 -0.5688
   35TMC2    O5  556   3.878   4.031  11.354 -0.1826  0.1997  0.2629
   35TMC2    H5  557   3.973   4.012  11.366 -0.4061 -0.6758  0.7204
   36MPD2     C  558   0.029   3.799  11.194 -0.1764  0.0788  0.1868
   36MPD2    C1  559   4.706   3.712  11.286  0.1206 -0.3998 -0.1853
   36MPD2    C2  560   4.574   3.680  11.267  0.2268  0.1525 -0.1496
   36MPD2    C3  561   4.490   3.745  11.181  0.7178 -0.6925 -0.0060
   36MPD2    C4  562   4.543   3.828  11.089 -0.1627  0.5209  0.2838
   36MPD2    C5  563   4.679   3.857  11.104 -0.1750  0.5292  0.0075
   36MPD2     H  564   4.526   3.608  11.332 -0.3938 -0.2962 -1.1093
   36MPD2    H1  565   4.481   3.880  11.017  1.6352 -1.3402 -2.5781
   36MPD2    H2  566   0.132   3.831  11.182 -0.8263  2.1819  0.2404
   36MPD2    H3  567   4.710   3.945  11.048  0.3205  1.8455  2.3195
   36MPD2     N  568   4.355   3.699  11.176  0.1559  0.4513  0.7180
   36MPD2    H5  569   4.328   3.629  11.245  0.7214 -0.1480  0.3369
   36MPD2    N1  570   0.058   3.654  11.373  0.7340  0.3600 -0.4640
   36MPD2    H7  571   0.152   3.693  11.377  0.3415  1.2299  0.2966
   37TMC2    C1  572   2.230   3.596  12.064  0.0307 -0.2633 -0.0864
   37TMC2    C2  573   2.167   3.617  11.949 -0.6479  0.0759 -0.1695
   37TMC2    C3  574   2.244   3.629  11.832 -0.2679 -0.0401  0.1966
   37TMC2    C4  575   2.368   3.601  12.074  0.0649  0.1390 -0.0911
   37TMC2    C5  576   2.440   3.613  11.966  0.8558 -1.1783 -0.2673
   37TMC2    C6  577   2.383   3.634  11.844 -0.0242 -0.4010  0.9782
   37TMC2     C  578   2.157   3.613  12.187 -0.2311  1.0365 -0.1476
   37TMC2     O  579   2.045   3.656  12.167  0.1752  0.0706 -0.0724
   37TMC2     H  580   2.063   3.646  11.947 -0.8184 -0.3679  2.7331
   37TMC2    H1  581   2.410   3.560  12.164  1.5515 -0.7327 -1.1834
   37TMC2    H2  582   2.441   3.654  11.755 -0.0902 -1.5521  0.6739
   37TMC2    C7  583   2.582   3.644  11.986 -0.0058  0.2841 -0.1508
   37TMC2    C8  584   2.184   3.647  11.702  0.6374 -0.2783 -0.6917
   37TMC2    O1  585   2.623   3.660  12.101  0.4397  0.0104  0.2947
   37TMC2    O2  586   2.236   3.704  11.608  0.2176  0.3616  0.6989
   37TMC2    O5  587   2.088   3.553  11.700 -0.3407  0.1345  0.5165
   37TMC2    H5  588   2.066   3.504  11.782  1.7872  0.6891  1.4192
   38MPD2     C  589   2.114   3.603  12.695 -0.7392 -0.7184  0.2347
   38MPD2    C1  590   2.247   3.605  12.665  0.1414  0.0606 -0.2254
   38MPD2    C2  591   2.281   3.609  12.535 -0.1459  0.7428  0.3009
   38MPD2    C3  592   2.184   3.610  12.434 -0.8085  0.5437  0.0741
   38MPD2    C4  593   2.049   3.616  12.465  0.0397 -0.1455 -0.3461
   38MPD2    C5  594   2.014   3.600  12.599 -0.7647 -0.5728  0.3296
   38MPD2     H  595   2.384   3.613  12.502 -0.4106  1.0820 -0.4727
   38MPD2    H1  596   1.969   3.631  12.393 -0.5275 -1.4983 -0.0054
   38MPD2    H2  597   2.086   3.592  12.799  0.7190  1.3424  0.8382
   38MPD2    H3  598   1.912   3.590  12.635 -0.3772  1.3437  1.9929
   38MPD2     N  599   2.230   3.615  12.300 -0.3113 -0.5001  0.1929
   38MPD2    H5  600   2.328   3.589  12.286 -0.2579 -0.6820  0.8943
   38MPD2    N1  601   2.349   3.596  12.763  0.2340 -0.4762 -0.5691
   38MPD2    H7  602   2.444   3.575  12.734  0.6514  0.8222 -0.1322
   39TMC2    C1  603   1.400   2.265   1.952 -1.0431  0.8507  1.0557
   39TMC2    C2  604   1.315   2.368   1.940  0.3587 -0.4467  0.3445
   39TMC2    C3  605   1.373   2.492   1.934 -0.4406 -0.3768 -0.3699
   39TMC2    C4  606   1.536   2.286   1.947 -0.2348 -0.2787  0.2713
   39TMC2    C5  607   1.590   2.412   1.948 -0.2245 -0.5453 -0.5583
   39TMC2    C6  608   1.507   2.518   1.940  0.0781  0.2250 -0.1087
   39TMC2     C  609   1.339   2.140   1.930 -0.5083 -0.9665  0.3335
   39TMC2     O  610   1.219   2.135   1.916  0.0307 -0.5355  0.1762
   39TMC2     H  611   1.207   2.372   1.943  0.2951 -0.6657 -1.9519
   39TMC2    H1  612   1.612   2.210   1.932 -1.4503 -1.4299 -0.0057
   39TMC2    H2  613   1.534   2.623   1.945 -0.5643  0.3811  0.1423
   39TMC2    C7  614   1.735   2.434   1.949  0.8930  0.9168  0.0091
   39TMC2    C8  615   1.291   2.607   1.888 -0.2156  0.0964 -0.0481
   39TMC2    O1  616   1.797   2.339   1.910 -0.2035 -0.2638  0.3957
   39TMC2    O2  617   1.310   2.722   1.920 -0.5184 -0.0836 -0.4766
   39TMC2    O5  618   1.230   2.560   1.780 -0.1455  0.7484 -0.0919
   39TMC2    H5  619   1.239   2.465   1.757  1.0985 -0.0092  3.6040
   40MPD2     C  620   1.503   1.820   1.874  1.0281  0.3800 -0.4986
   40MPD2    C1  621   1.396   1.905   1.892 -1.0680  0.4403  0.2246
   40MPD2    C2  622   1.270   1.854   1.862  0.6405  0.3734 -0.2929
   40MPD2    C3  623   1.249   1.730   1.807  0.2399 -0.3943 -0.2483
   40MPD2    C4  624   1.360   1.647   1.781  0.1494  0.0971  0.4954
   40MPD2    C5  625   1.486   1.696   1.816 -0.0447 -0.0696 -0.0932
   40MPD2     H  626   1.184   1.919   1.871  0.9003  0.3666  2.0282
   40MPD2    H1  627   1.362   1.550   1.733  1.3119 -0.2462  1.2489
   40MPD2    H2  628   1.608   1.844   1.886  1.1499 -2.3262  3.7128
   40MPD2    H3  629   1.573   1.647   1.776 -0.8369 -1.6499  0.1352
   40MPD2     N  630   1.122   1.682   1.757  0.5540  0.1919  0.4107
   40MPD2    H5  631   1.123   1.590   1.714 -1.4792  0.3050  0.0920
   40MPD2    N1  632   1.428   2.041   1.928 -0.0956  0.2003 -1.3216
   40MPD2    H7  633   1.526   2.056   1.951 -0.6396 -0.1434  1.2029
   41TMC2    C1  634   0.082   3.812  14.149 -0.3532  0.2528 -0.6513
   41TMC2    C2  635   0.138   3.943  14.148  0.0781 -0.3315  0.1996
   41TMC2    C3  636   0.138   4.015  14.025 -0.0230 -0.0902 -0.6018
   41TMC2    C4  637   0.029   3.767  14.039 -0.2663  0.6195 -0.3871
   41TMC2    C5  638   0.028   3.835  13.922 -0.9657 -0.1430 -0.2765
   41TMC2    C6  639   0.084   3.963  13.907 -0.4026 -0.5274 -0.3326
   41TMC2     C  640   0.089   3.728  14.264  0.0719 -0.0475 -1.3052
   41TMC2     O  641   0.059   3.610  14.248  0.3650 -0.2393 -0.1027
   41TMC2     H  642   0.198   3.980  14.230 -2.5295  1.9792  1.0631
   41TMC2    H1  643   0.009   3.660  14.039  1.0536  0.3573  1.7736
   41TMC2    H2  644   0.088   4.015  13.812  2.0295  1.3556  0.7849
   41TMC2    C7  645   4.667   3.795  13.823  0.2883 -0.3530 -0.7873
   41TMC2    C8  646   0.174   4.154  14.036  0.2922 -0.6364 -0.6050
   41TMC2    O1  647   4.559   3.759  13.867 -0.1848  0.3033  0.6124
   41TMC2    O2  648   0.250   4.198  14.122  0.4339  0.1640  0.0414
   41TMC2    O5  649   0.124   4.224  13.930 -0.6286 -0.2432  0.1591
   41TMC2    H5  650   0.047   4.177  13.891 -0.7014 -0.6891  0.8321
   42MPD2     C  651   0.067   3.609  14.532 -0.9203  0.0483 -0.2233
   42MPD2    C1  652   0.086   3.749  14.516  0.6543  0.2723  0.6514
   42MPD2    C2  653   0.091   3.827  14.629  0.3004  0.6645 -0.4012
   42MPD2    C3  654   0.065   3.780  14.752 -0.1250  0.0058 -0.4334
   42MPD2    C4  655   0.063   3.643  14.775  0.4225 -0.0140 -0.1242
   42MPD2    C5  656   0.064   3.565  14.659 -0.0435  0.6707 -0.4513
   42MPD2     H  657   0.108   3.933  14.610  2.5407 -0.3046 -3.7975
   42MPD2    H1  658   0.065   3.605  14.876 -1.7783  2.4119  0.8326
   42MPD2    H2  659   0.071   3.536  14.453 -0.6200 -1.7251  1.4231
   42MPD2    H3  660   0.063   3.457  14.670 -0.0576  0.3626 -3.3449
   42MPD2     N  661   0.079   3.856  14.871 -0.8526 -0.4205  0.3735
   42MPD2    H5  662   0.113   3.812  14.956  2.1466  1.4373  0.1670
   42MPD2    N1  663   0.116   3.799  14.385 -0.1026 -0.1119 -0.5790
   42MPD2    H7  664   0.133   3.899  14.390 -0.3323 -0.1169  0.3308
   43TMC2    C1  665   1.264   2.596   1.042 -0.5406 -0.3879  0.1202
   43TMC2    C2  666   1.139   2.636   1.081  0.2634  0.4231  0.0586
   43TMC2    C3  667   1.129   2.717   1.193  0.5531 -0.2683 -0.3936
   43TMC2    C4  668   1.373   2.628   1.118 -0.0027 -0.9888  0.0931
   43TMC2    C5  669   1.360   2.705   1.231  0.4362 -0.0658 -0.4432
   43TMC2    C6  670   1.237   2.752   1.263 -0.8218  0.0624  0.0754
   43TMC2     C  671   1.284   2.506   0.932  0.0100  0.1197  0.5018
   43TMC2     O  672   1.399   2.482   0.897  0.3162 -0.1948  0.5958
   43TMC2     H  673   1.050   2.613   1.023  0.5529 -1.0700  0.2045
   43TMC2    H1  674   1.470   2.591   1.087  0.6937  0.0302  1.0348
   43TMC2    H2  675   1.220   2.816   1.349  2.0864  2.5273 -1.2012
   43TMC2    C7  676   1.474   2.739   1.313 -0.4936  0.6741  0.0685
   43TMC2    C8  677   1.000   2.773   1.233 -0.0982 -0.1333 -0.0488
   43TMC2    O1  678   1.578   2.748   1.253  0.2043 -0.6496  0.4240
   43TMC2    O2  679   0.985   2.825   1.341  0.5676 -0.0288 -0.5679
   43TMC2    O5  680   0.899   2.719   1.161  1.0379  0.2275  0.4643
   43TMC2    H5  681   0.914   2.707   1.065  0.0809 -1.3471  0.5271
   44MPD2     C  682   1.141   2.204   0.522  0.0494 -0.1216  0.3043
   44MPD2    C1  683   1.266   2.226   0.574  0.6693  0.0232 -0.2248
   44MPD2    C2  684   1.277   2.313   0.684 -1.0596  0.1105  0.0719
   44MPD2    C3  685   1.168   2.367   0.753 -0.0960 -0.0033  0.7719
   44MPD2    C4  686   1.050   2.349   0.693  0.1572  0.5474  0.1729
   44MPD2    C5  687   1.033   2.268   0.581  0.1162 -0.0981 -0.0585
   44MPD2     H  688   1.374   2.351   0.713 -1.0652  1.8212 -2.1560
   44MPD2    H1  689   0.958   2.391   0.733 -0.9389 -0.2138 -1.5181
   44MPD2    H2  690   1.128   2.147   0.430  0.2567  1.8077 -0.9403
   44MPD2    H3  691   0.938   2.246   0.534  0.5712  0.6261 -1.3297
   44MPD2     N  692   1.169   2.458   0.866 -0.0894  0.3255  0.0420
   44MPD2    H5  693   1.076   2.496   0.884  0.1552  0.6720  0.5888
   44MPD2    N1  694   1.388   2.168   0.529 -0.1070 -0.0899 -0.4469
   44MPD2    H7  695   1.468   2.191   0.586  0.2364  1.0854 -1.3880
   45TMC2    C1  696   1.353   4.682   9.608 -0.4111  0.3434 -0.6208
   45TMC2    C2  697   1.223   4.720   9.634 -0.0908 -0.7861  0.2944
   45TMC2    C3  698   1.203   0.095   9.717  1.0291 -0.5455  0.0126
   45TMC2    C4  699   1.455   0.019   9.657 -0.0819 -0.3323  0.5780
   45TMC2    C5  700   1.433   0.133   9.734 -0.0122 -0.1993 -0.1315
   45TMC2    C6  701   1.305   0.168   9.771  0.2257 -0.8737 -0.1645
   45TMC2     C  702   1.387   4.550   9.553  0.1055  0.3060  0.3156
   45TMC2     O  703   1.505   4.542   9.522 -0.1477  0.6227  0.1577
   45TMC2     H  704   1.136   4.676   9.585 -0.4550 -0.6658  0.8316
   45TMC2    H1  705   1.556   4.715   9.651 -0.3791 -1.0739  0.4692
   45TMC2    H2  706   1.287   0.250   9.839  1.1804 -1.6147  1.0041
   45TMC2    C7  707   1.538   0.156   9.832  0.1406  0.0622 -0.7163
   45TMC2    C8  708   1.069   0.130   9.747 -0.3819  0.2172  0.1619
   45TMC2    O1  709   1.592   0.054   9.871 -0.3706  0.3745  0.1418
   45TMC2    O2  710   0.982   0.121   9.662  0.1855  0.1764 -0.3448
   45TMC2    O5  711   1.056   0.158   9.875  0.0577 -0.3297  0.6964
   45TMC2    H5  712   1.134   0.139   9.932  1.0398 -1.2108 -0.9556
   46MPD2     C  713   1.389   4.325   9.360  0.3081 -0.3196 -0.1126
   46MPD2    C1  714   1.291   4.344   9.456 -0.7427  0.0321  0.2453
   46MPD2    C2  715   1.194   4.250   9.475  0.0946 -0.0158 -0.4964
   46MPD2    C3  716   1.201   4.127   9.404 -0.8535 -0.2104 -0.2666
   46MPD2    C4  717   1.306   4.114   9.310  0.1595 -0.0487 -0.1857
   46MPD2    C5  718   1.392   4.213   9.285  0.0445  0.5792 -0.1260
   46MPD2     H  719   1.112   4.259   9.545  0.5462 -0.4532  0.0888
   46MPD2    H1  720   1.333   4.026   9.253  2.0360  0.5439 -0.2263
   46MPD2    H2  721   1.469   4.397   9.346  0.6459 -0.6858 -0.0649
   46MPD2    H3  722   1.476   4.212   9.216  0.4160  2.2195  0.2932
   46MPD2     N  723   1.096   4.037   9.423  0.3357  0.1952  0.4020
   46MPD2    H5  724   1.023   4.064   9.487 -0.0365  0.6534 -0.2088
   46MPD2    N1  725   1.282   4.463   9.534 -0.0223  0.0058  0.2412
   46MPD2    H7  726   1.192   4.474   9.580 -0.1560  0.3436 -0.1082
   47TMC2    C1  727   3.971   0.137   9.276  0.4551  0.0552  0.8289
   47TMC2    C2  728   3.976   0.015   9.210 -0.5461  0.5866  0.2852
   47TMC2    C3  729   3.886   4.724   9.112  0.1850  0.9993  0.3474
   47TMC2    C4  730   3.869   0.222   9.252 -0.2586  0.0322 -0.1848
   47TMC2    C5  731   3.784   0.185   9.146  0.8689 -0.6906  0.4049
   47TMC2    C6  732   3.798   0.076   9.066 -0.2608  0.4989 -0.4472
   47TMC2     C  733   4.045   0.157   9.404  0.6002  0.0719  0.8852
   47TMC2     O  734   4.075   0.268   9.436 -0.8277 -0.4063 -0.2233
   47TMC2     H  735   4.056   4.679   9.223 -0.3036  0.5629 -1.2662
   47TMC2    H1  736   3.851   0.311   9.310  0.7419 -0.4561  0.8843
   47TMC2    H2  737   3.736   0.046   8.982 -1.2898  0.1119  0.4537
   47TMC2    C7  738   3.707   0.298   9.104 -1.8176  0.5926 -0.0615
   47TMC2    C8  739   3.929   4.608   9.027  0.2726 -0.3437  0.3093
   47TMC2    O1  740   3.652   0.365   9.194  0.1162  0.4743 -0.2126
   47TMC2    O2  741   3.916   4.615   8.904 -0.3823  0.1966 -0.2242
   47TMC2    O5  742   3.900   4.507   9.103 -0.3491 -0.1181 -0.7907
   47TMC2    H5  743   3.925   4.517   9.198 -0.1396  0.8747 -0.9503
   48MPD2     C  744   4.138   0.134   9.685 -0.6471 -0.7167 -0.7984
   48MPD2    C1  745   4.094   0.028   9.613 -0.2387  0.0105 -0.4021
   48MPD2    C2  746   4.109   4.634   9.660  0.0199 -0.0490 -0.4247
   48MPD2    C3  747   4.180   4.615   9.773 -0.6487  0.6369 -0.0690
   48MPD2    C4  748   4.214   4.727   9.851  0.0931 -0.2822  0.4786
   48MPD2    C5  749   4.186   0.118   9.810  0.1979  0.2610 -0.4958
   48MPD2     H  750   4.074   4.548   9.604  1.2118 -0.3741 -0.6734
   48MPD2    H1  751   4.258   4.712   9.949  1.3328 -0.1839 -0.0601
   48MPD2    H2  752   4.117   0.234   9.648  2.1498  0.8277  1.8494
   48MPD2    H3  753   4.210   0.201   9.876  1.4217  0.6260 -1.3998
   48MPD2     N  754   4.214   4.485   9.804  0.9179  0.0939 -0.5731
   48MPD2    H5  755   4.201   4.417   9.731  0.8472 -0.3420 -0.1570
   48MPD2    N1  756   4.059   0.041   9.478  0.1193  0.0204  0.6607
   48MPD2    H7  757   4.038   4.683   9.442 -0.0451  0.0917  0.5713
   49TMC2    C1  758   1.728   1.354  10.469  0.4321  1.2335 -0.7544
   49TMC2    C2  759   1.621   1.303  10.395  0.4979 -0.1575  0.2437
   49TMC2    C3  760   1.579   1.177  10.423 -0.3410 -0.0521 -0.4401
   49TMC2    C4  761   1.797   1.276  10.560  0.6748  0.3337 -0.8467
   49TMC2    C5  762   1.767   1.143  10.571 -0.0803 -0.4627  0.5851
   49TMC2    C6  763   1.656   1.095  10.507  0.2309  0.0032 -0.3184
   49TMC2     C  764   1.771   1.492  10.433  0.4204 -0.0143 -0.0304
   49TMC2     O  765   1.713   1.552  10.349  0.4865 -0.5401  0.1673
   49TMC2     H  766   1.552   1.365  10.338  0.1411 -1.1592 -0.4030
   49TMC2    H1  767   1.877   1.329  10.611 -0.6970  0.9236  0.6960
   49TMC2    H2  768   1.623   0.993  10.520  0.7735 -0.3090 -1.3327
   49TMC2    C7  769   1.848   1.053  10.644  0.4854 -0.7218 -0.0967
   49TMC2    C8  770   1.471   1.121  10.350 -0.3648 -0.2546 -0.0815
   49TMC2    O1  771   1.825   0.936  10.626 -0.1411 -0.2085  0.1410
   49TMC2    O2  772   1.461   1.148  10.229  0.0132  0.3172 -0.5643
   49TMC2    O5  773   1.416   1.013  10.415 -0.6041  0.0023  0.5624
   49TMC2    H5  774   1.407   1.017  10.513  1.0376 -3.6181  0.8665
   50MPD2     C  775   1.912   1.758  10.424 -0.4299  0.3736 -0.3084
   50MPD2    C1  776   1.923   1.673  10.528  0.2443  0.3634 -0.4113
   50MPD2    C2  777   2.021   1.709  10.622  0.2691 -0.8191 -0.2123
   50MPD2    C3  778   2.095   1.828  10.617 -0.0241  0.0689  0.0955
   50MPD2    C4  779   2.081   1.915  10.508 -0.4166 -0.2721 -0.5281
   50MPD2    C5  780   1.989   1.870  10.415 -0.3070 -0.1604 -0.0391
   50MPD2     H  781   2.034   1.654  10.715  3.9545  0.3804 -0.0333
   50MPD2    H1  782   2.128   2.013  10.499 -0.5504 -0.2116 -0.5590
   50MPD2    H2  783   1.842   1.745  10.342 -0.9331 -2.9207  0.6468
   50MPD2    H3  784   1.975   1.924  10.322  0.9523 -1.0906 -0.7699
   50MPD2     N  785   2.188   1.863  10.725 -0.6168 -0.5125 -0.1463
   50MPD2    H5  786   2.228   1.956  10.731 -1.2615 -0.4131  2.4024
   50MPD2    N1  787   1.853   1.549  10.533  0.0059 -0.1698  0.4671
   50MPD2    H7  788   1.888   1.495  10.612  4.1804  2.4763  0.3834
   51TMC2    C1  789   3.467   1.513   2.341  0.6093 -0.1013  0.1868
   51TMC2    C2  790   3.480   1.609   2.445 -0.0607  0.2759  0.0827
   51TMC2    C3  791   3.488   1.741   2.414  0.2108 -0.2865  0.0967
   51TMC2    C4  792   3.446   1.557   2.212 -0.2176 -0.1129 -0.1098
   51TMC2    C5  793   3.451   1.692   2.189  0.0362 -1.0139 -0.5429
   51TMC2    C6  794   3.477   1.784   2.285  0.7305 -0.5528 -0.3146
   51TMC2     C  795   3.451   1.377   2.369 -0.0493 -0.6024 -0.0115
   51TMC2     O  796   3.424   1.306   2.274  0.0294  0.2345  0.1159
   51TMC2     H  797   3.504   1.583   2.548  0.8282 -2.0414 -0.7267
   51TMC2    H1  798   3.445   1.478   2.138 -0.6313  0.1703 -0.4027
   51TMC2    H2  799   3.477   1.887   2.249  0.5820 -1.1356 -1.9918
   51TMC2    C7  800   3.435   1.740   2.045 -0.3171 -0.4488 -0.3908
   51TMC2    C8  801   3.458   1.827   2.519 -0.2380 -0.2236 -0.1582
   51TMC2    O1  802   3.475   1.857   2.025  0.1090 -0.0939  0.4652
   51TMC2    O2  803   3.403   1.784   2.619 -0.3876 -0.0430  0.1119
   51TMC2    O5  804   3.446   1.955   2.476 -0.3665 -0.5352  0.8093
   51TMC2    H5  805   3.506   1.974   2.401 -2.1302 -0.9866 -0.7276
   52MPD2     C  806   3.300   0.977   2.640 -0.9429  0.3203  0.4114
   52MPD2    C1  807   3.271   1.014   2.508  0.0902 -0.3736  0.8420
   52MPD2    C2  808   3.289   1.147   2.476  0.1039  0.1979 -0.7137
   52MPD2    C3  809   3.370   1.226   2.558 -0.4642  0.0790 -0.6718
   52MPD2    C4  810   3.387   1.195   2.692  0.6714  0.7363 -0.4321
   52MPD2    C5  811   3.350   1.071   2.726  0.0005  0.2374  0.2190
   52MPD2     H  812   3.268   1.171   2.373  0.5585 -1.3271 -1.1673
   52MPD2    H1  813   3.440   1.251   2.768 -0.8332  1.8575 -0.2247
   52MPD2    H2  814   3.277   0.878   2.678  0.9596 -0.0647  0.5920
   52MPD2    H3  815   3.357   1.051   2.832  1.5256 -1.6406 -0.2333
   52MPD2     N  816   3.429   1.349   2.506 -0.0251 -0.8812  0.5691
   52MPD2    H5  817   3.458   1.425   2.567  0.1121 -0.1115 -0.4486
   52MPD2    N1  818   3.222   0.924   2.411  0.9568  0.0840  0.0541
   52MPD2    H7  819   3.213   0.966   2.319 -2.2474  1.0819  0.8091
   53TMC2    C1  820   3.283   3.770  12.150 -0.9470 -0.0763  0.4387
   53TMC2    C2  821   3.361   3.664  12.191 -0.5817  0.1706 -0.4762
   53TMC2    C3  822   3.366   3.623  12.321 -0.1423 -0.0823 -0.0255
   53TMC2    C4  823   3.211   3.848  12.242  0.1819 -0.1397 -0.3015
   53TMC2    C5  824   3.212   3.796  12.372  0.3337 -0.4323 -0.5099
   53TMC2    C6  825   3.285   3.688  12.410  0.2016  0.1824  0.3467
   53TMC2     C  826   3.232   3.766  12.015  0.2245 -0.3922 -0.5048
   53TMC2     O  827   3.311   3.748  11.920  0.5200 -0.8132 -1.1891
   53TMC2     H  828   3.396   3.593  12.117  1.0156  0.5771 -0.1291
   53TMC2    H1  829   3.162   3.940  12.213 -1.9488 -1.0169  0.4626
   53TMC2    H2  830   3.290   3.664  12.516  1.0351  0.8240  0.4548
   53TMC2    C7  831   3.080   3.790  12.421 -0.1647 -0.0177 -0.4359
   53TMC2    C8  832   3.470   3.530  12.365  0.6397  0.0985  0.1452
   53TMC2    O1  833   2.995   3.832  12.344 -0.0732 -0.1687 -0.2301
   53TMC2    O2  834   3.491   3.481  12.476 -0.1733  0.0061 -0.1325
   53TMC2    O5  835   3.573   3.530  12.280  0.2808  0.5877  0.1446
   53TMC2    H5  836   3.560   3.587  12.201 -0.8868  0.4276  0.2128
   54MPD2     C  837   3.043   3.716  11.788  0.8242  0.1291  0.2068
   54MPD2    C1  838   3.004   3.724  11.915  0.5757  0.2937  0.0224
   54MPD2    C2  839   2.875   3.716  11.949 -0.3778 -0.0500  0.2084
   54MPD2    C3  840   2.788   3.669  11.850  0.1910  0.4603  0.1276
   54MPD2    C4  841   2.828   3.648  11.712 -0.4195  0.6936  0.4026
   54MPD2    C5  842   2.955   3.685  11.685 -0.0383 -0.1361  0.2481
   54MPD2     H  843   2.842   3.715  12.053  0.9455  1.0516  0.6385
   54MPD2    H1  844   2.758   3.628  11.632 -0.3201  0.7163  0.3108
   54MPD2    H2  845   3.146   3.734  11.759  0.6409 -0.4119 -0.7692
   54MPD2    H3  846   2.994   3.696  11.585 -1.1316  1.3861 -0.0022
   54MPD2     N  847   2.655   3.637  11.870  0.4058  0.0519  0.7251
   54MPD2    H5  848   2.608   3.616  11.783  1.8590  1.9694 -0.4992
   54MPD2    N1  849   3.092   3.748  12.023 -0.2158 -0.0545  0.0214
   54MPD2    H7  850   3.048   3.752  12.114 -1.7489 -0.6922 -0.7080
   55TMC2    C1  851   4.500   2.147  17.679  0.4248 -0.0450  0.2695
   55TMC2    C2  852   4.551   2.093  17.562  0.2008 -0.7229  0.4774
   55TMC2    C3  853   4.554   1.956  17.563  1.0845 -0.1902 -0.2548
   55TMC2    C4  854   4.466   2.069   0.052  0.2876  0.0239 -0.7783
   55TMC2    C5  855   4.465   1.931   0.035  0.4674 -0.8875 -0.4705
   55TMC2    C6  856   4.514   1.874  17.660  0.2300 -0.0319  0.3298
   55TMC2     C  857   4.459   2.292  17.690  0.3622  0.2711 -0.3658
   55TMC2     O  858   4.454   2.339   0.064  0.1330  0.0152 -0.1851
   55TMC2     H  859   4.602   2.159  17.492 -1.7992  1.2486  0.8486
   55TMC2    H1  860   4.409   2.120   0.129  3.8219  1.1076  1.1215
   55TMC2    H2  861   4.555   1.774  17.651 -0.1443 -0.3220  1.7332
   55TMC2    C7  862   4.436   1.838   0.151 -0.1413 -0.2161  0.4555
   55TMC2    C8  863   4.592   1.900  17.435 -0.4459  0.3208 -0.6306
   55TMC2    O1  864   4.427   1.720   0.124 -0.3004 -0.2942  0.0613
   55TMC2    O2  865   4.684   1.941  17.364 -0.2690  0.0267 -0.3892
   55TMC2    O5  866   4.485   1.838  17.393 -0.0208  0.8542  0.2614
   55TMC2    H5  867   4.412   1.837  17.458 -0.4529  0.4930 -0.2241
   56MPD2     C  868   4.362   2.520  17.418  0.6760  0.4416  0.4596
   56MPD2    C1  869   4.379   2.477  17.553 -0.4379  0.4312  0.7944
   56MPD2    C2  870   4.325   2.562  17.651  0.0623  0.4097 -0.3553
   56MPD2    C3  871   4.256   2.679  17.628 -0.0376 -0.8130 -0.1971
   56MPD2    C4  872   4.229   2.711  17.495  0.4539  0.1579  0.5407
   56MPD2    C5  873   4.295   2.635  17.399  0.4904  0.4492  0.7341
   56MPD2     H  874   4.340   2.539   0.016  0.5414 -0.7346 -0.6720
   56MPD2    H1  875   4.172   2.798  17.465  1.1143 -0.0283 -1.2828
   56MPD2    H2  876   4.408   2.482  17.328 -0.8585 -0.1752 -0.0642
   56MPD2    H3  877   4.284   2.660  17.294  0.0720 -2.3215  0.1147
   56MPD2     N  878   4.208   2.750  17.739 -0.0844  0.3580  0.1309
   56MPD2    H5  879   4.218   2.706   0.090  1.8075 -1.1468 -0.8215
   56MPD2    N1  880   4.449   2.354  17.571  0.1339 -0.4398 -0.1516
   56MPD2    H7  881   4.474   2.304  17.486 -1.2139 -0.0618 -0.7690
   57TMC2    C1  882   3.062   2.482  13.257  0.4032 -0.0686  0.5845
   57TMC2    C2  883   3.032   2.404  13.364 -0.0187  0.0516 -0.4687
   57TMC2    C3  884   3.126   2.308  13.408  0.2079  0.0902  0.2667
   57TMC2    C4  885   3.179   2.478  13.191  0.8797 -0.3373 -0.2849
   57TMC2    C5  886   3.266   2.385  13.229 -0.7227  0.4926  1.4087
   57TMC2    C6  887   3.246   2.303  13.340 -0.5712 -0.7045 -0.3287
   57TMC2     C  888   2.956   2.575  13.217  1.4434 -0.4854  0.1654
   57TMC2     O  889   2.843   2.545  13.250 -0.3722  0.6995 -0.7623
   57TMC2     H  890   2.938   2.398  13.418  0.7259 -1.8931  0.6404
   57TMC2    H1  891   3.205   2.545  13.109 -0.0274  1.0444  0.5525
   57TMC2    H2  892   3.325   2.243  13.385  0.5489  1.9437  1.2212
   57TMC2    C7  893   3.409   2.420  13.201  0.1661  0.1967 -0.4722
   57TMC2    C8  894   3.099   2.244  13.535 -0.2225  0.5924  0.3355
   57TMC2    O1  895   3.418   2.526  13.137 -0.2971  0.2511  0.4490
   57TMC2    O2  896   3.086   2.321  13.627  0.2439  0.5102 -0.1034
   57TMC2    O5  897   3.175   2.136  13.534 -0.6626  0.3995 -0.0099
   57TMC2    H5  898   3.179   2.094  13.445  2.2897 -3.0348  1.7837
   58MPD2     C  899   2.812   3.065  13.239  0.2190 -0.9778 -0.1991
   58MPD2    C1  900   2.749   2.948  13.269  0.2644 -0.5416  0.4085
   58MPD2    C2  901   2.800   2.829  13.224 -0.3045  0.1024 -0.3962
   58MPD2    C3  902   2.932   2.820  13.174 -0.2350 -0.1150  0.0563
   58MPD2    C4  903   2.984   2.937  13.123 -0.0416  0.2327  0.0676
   58MPD2    C5  904   2.918   3.059  13.151 -0.3552  0.0674  0.0831
   58MPD2     H  905   2.738   2.743  13.241  0.8282 -0.3123  1.6508
   58MPD2    H1  906   3.075   2.929  13.066  0.8428  1.0547  1.3477
   58MPD2    H2  907   2.774   3.163  13.265  1.0112 -0.8487  0.4691
   58MPD2    H3  908   2.954   3.146  13.099 -1.7218 -0.2807 -1.4526
   58MPD2     N  909   3.005   2.698  13.166  0.0164 -0.0842  0.5276
   58MPD2    H5  910   3.105   2.708  13.155 -0.1100  0.4768 -0.1211
   58MPD2    N1  911   2.632   2.933  13.344 -0.1199 -0.0733 -0.5209
   58MPD2    H7  912   2.605   2.837  13.365 -1.0590  0.4939  0.8045
   59TMC2    C1  913   0.595   3.202  12.830 -0.2972 -0.3342  0.6137
   59TMC2    C2  914   0.669   3.315  12.805 -0.2677 -0.1492  0.5189
   59TMC2    C3  915   0.650   3.370  12.679 -0.0638  0.1275  0.2114
   59TMC2    C4  916   0.497   3.157  12.754  0.5812 -0.1154  0.5468
   59TMC2    C5  917   0.488   3.204  12.628  0.1379 -0.0765 -0.5155
   59TMC2    C6  918   0.564   3.313  12.590 -0.6012  0.2243 -0.0736
   59TMC2     C  919   0.614   3.127  12.953 -0.7873 -0.3215 -0.0319
   59TMC2     O  920   0.557   3.017  12.967  0.1717  0.4728 -0.2943
   59TMC2     H  921   0.759   3.330  12.864 -1.4655  3.0451  1.5581
   59TMC2    H1  922   0.440   3.069  12.781 -1.4069  0.8544 -0.4852
   59TMC2    H2  923   0.554   3.354  12.490  0.1271 -1.1318 -0.6935
   59TMC2    C7  924   0.383   3.155  12.539  0.1888 -0.3331 -0.9843
   59TMC2    C8  925   0.718   3.491  12.629  0.9208  0.3037 -0.2457
   59TMC2    O1  926   0.309   3.070  12.590 -0.1106  0.6936 -0.4515
   59TMC2    O2  927   0.725   3.516  12.509 -0.8518 -0.1501  0.5841
   59TMC2    O5  928   0.708   3.572  12.739  0.0977 -0.2109  0.0178
   59TMC2    H5  929   0.705   3.532  12.829 -6.0321 -0.9841 -0.5227
   60MPD2     C  930   0.650   3.034  13.238 -0.2859 -0.0539  0.1026
   60MPD2    C1  931   0.692   3.158  13.189 -0.3751 -0.1231  0.1726
   60MPD2    C2  932   0.756   3.246  13.276 -0.3862 -0.1916  0.1649
   60MPD2    C3  933   0.773   3.212  13.412 -0.3354 -0.9243  0.1665
   60MPD2    C4  934   0.729   3.088  13.461  0.4034 -0.1009 -0.5140
   60MPD2    C5  935   0.670   2.997  13.370  0.0564 -0.3356 -0.3332
   60MPD2     H  936   0.776   3.344  13.235 -0.4029 -0.7504 -1.1499
   60MPD2    H1  937   0.749   3.051  13.561  3.3539 -1.6241 -1.6521
   60MPD2    H2  938   0.603   2.962  13.173 -0.9155  1.9641 -1.6949
   60MPD2    H3  939   0.647   2.895  13.396  0.7752  0.1409  2.1866
   60MPD2     N  940   0.856   3.303  13.486 -0.0890  0.2280  0.2514
   60MPD2    H5  941   0.902   3.378  13.435 -0.8745  0.6629  0.1805
   60MPD2    N1  942   0.668   3.200  13.056 -0.6702 -0.1700  0.3911
   60MPD2    H7  943   0.689   3.298  13.039  1.0194 -0.1686  2.3847
   61TMC2    C1  944   0.824   4.056  15.420 -0.2520 -0.6243  0.5930
   61TMC2    C2  945   0.906   4.034  15.525  0.0068 -0.0662 -0.1481
   61TMC2    C3  946   0.894   4.117  15.634  0.7462 -0.2841  0.2133
   61TMC2    C4  947   0.730   4.155  15.417 -0.1676  0.1947 -0.3650
   61TMC2    C5  948   0.718   4.234  15.526 -0.0267  0.4860  0.1020
   61TMC2    C6  949   0.801   4.223  15.634  0.1691  0.3236  0.1950
   61TMC2     C  950   0.845   3.979  15.300  0.2701 -0.4527 -1.3300
   61TMC2     O  951   0.856   3.857  15.303 -0.0783 -0.0640  0.0305
   61TMC2     H  952   0.979   3.953  15.524 -0.8589 -0.8536  0.0391
   61TMC2    H1  953   0.678   4.174  15.324  2.0268  0.9688 -1.4126
   61TMC2    H2  954   0.777   4.281  15.722  3.2492 -0.2309  1.4262
   61TMC2    C7  955   0.623   4.348  15.528  0.5032  1.1230  0.1095
   61TMC2    C8  956   0.970   4.093  15.753 -0.7899  0.7285  0.4639
   61TMC2    O1  957   0.633   4.431  15.616 -0.6362  0.0914  0.9345
   61TMC2    O2  958   1.078   4.031  15.740 -0.2216  0.1426 -0.6665
   61TMC2    O5  959   0.882   4.074  15.853  0.5277 -0.2558  0.1776
   61TMC2    H5  960   0.793   4.102  15.824  0.1042 -0.9812  0.7974
   62MPD2     C  961   0.848   3.892  15.014  0.3572 -0.5931  0.6379
   62MPD2    C1  962   0.866   4.019  15.055 -0.2794  0.1405 -0.2993
   62MPD2    C2  963   0.875   4.114  14.957  1.4757  0.1860 -0.3396
   62MPD2    C3  964   0.847   4.095  14.823 -0.1150  0.1362  0.1014
   62MPD2    C4  965   0.819   3.967  14.784 -0.5415 -0.3040 -0.1242
   62MPD2    C5  966   0.828   3.868  14.880 -0.0263 -0.0043 -0.1660
   62MPD2     H  967   0.885   4.216  14.994 -3.0063 -0.0511  1.5286
   62MPD2    H1  968   0.809   3.942  14.679  0.2866 -0.1989 -0.2294
   62MPD2    H2  969   0.853   3.812  15.087 -2.9217 -0.0659  1.4490
   62MPD2    H3  970   0.813   3.763  14.855  3.6753 -0.1622 -1.6172
   62MPD2     N  971   0.833   4.205  14.736 -0.1253  0.5215  0.3127
   62MPD2    H5  972   0.803   4.180  14.642 -1.5661  0.4477  0.7892
   62MPD2    N1  973   0.875   4.061  15.193  0.1156  0.0707 -0.0405
   62MPD2    H7  974   0.868   4.160  15.213 -0.6394  0.1729 -0.7803
   63TMC2    C1  975   3.959   4.534  10.773 -0.3282 -0.3166 -0.3642
   63TMC2    C2  976   3.944   4.596  10.898 -0.1985  1.0233 -0.4066
   63TMC2    C3  977   3.950   4.733  10.900 -0.1175  0.0321 -0.5628
   63TMC2    C4  978   3.963   4.611  10.659  0.1898  0.0150  0.6235
   63TMC2    C5  979   3.983   0.009  10.667  0.6070 -0.4583  0.6910
   63TMC2    C6  980   3.975   0.073  10.787  0.3247 -0.1757  0.0383
   63TMC2     C  981   3.951   4.393  10.766 -0.6738  0.5383 -0.0295
   63TMC2     O  982   4.010   4.336  10.854 -0.0990 -0.1938  0.4430
   63TMC2     H  983   3.918   4.547  10.991  0.0145  0.2268 -0.7654
   63TMC2    H1  984   3.991   4.570  10.563  0.4228 -1.1684  1.1877
   63TMC2    H2  985   3.985   0.180  10.797  0.5652 -0.0816 -1.2205
   63TMC2    C7  986   4.013   0.084  10.552 -0.0502 -0.3354  0.1815
   63TMC2    C8  987   3.872   0.051  11.008  0.3118  0.7229 -0.4554
   63TMC2    O1  988   3.966   0.054  10.444  0.5174 -0.1687 -0.2707
   63TMC2    O2  989   3.887   4.732  11.113 -0.3508  0.1291  0.9995
   63TMC2    O5  990   3.756   0.063  10.947 -0.0785  0.2075 -0.4431
   63TMC2    H5  991   3.766   0.094  10.855  0.3454 -1.8459 -1.0823
   64MPD2     C  992   3.681   3.999  10.612 -0.1865 -0.0291 -0.5394
   64MPD2    C1  993   3.798   3.992  10.690  0.1468  0.0976  0.4118
   64MPD2    C2  994   3.856   4.114  10.714 -0.0149  0.4374 -0.4213
   64MPD2    C3  995   3.818   4.232  10.639 -0.0252  0.2132 -0.2775
   64MPD2    C4  996   3.719   4.226  10.546 -0.5629 -0.2939 -0.4064
   64MPD2    C5  997   3.645   4.110  10.538  0.3169 -0.7392 -0.4826
   64MPD2     H  998   3.947   4.116  10.773 -0.0893 -0.0332 -0.2869
   64MPD2    H1  999   3.693   4.311  10.484 -0.3775 -0.2270 -0.3916
   64MPD2    H2 1000   3.618   3.912  10.593 -0.8415  0.0341  1.3581
   64MPD2    H3 1001   3.555   4.108  10.477  1.0847  2.2482 -1.6980
   64MPD2     N 1002   3.865   4.362  10.664  0.6538 -0.1926  0.0739
   64MPD2    H5 1003   3.818   4.429  10.603 -0.8216 -2.3397 -1.1657
   64MPD2    N1 1004   3.849   3.875  10.748  0.2491  0.0538  0.1050
   64MPD2    H7 1005   3.939   3.890  10.793  0.1487 -2.7658  1.2653
   65TMC2    C1 1006   1.444   4.188  15.812  0.4847 -0.0729 -0.4747
   65TMC2    C2 1007   1.366   4.204  15.689 -0.5303 -0.5095  0.1613
   65TMC2    C3 1008   1.394   4.317  15.623  0.1495  0.0785 -0.8990
   65TMC2    C4 1009   1.512   4.298  15.871  0.7281  0.5250 -0.0418
   65TMC2    C5 1010   1.523   4.408  15.795 -0.3427 -0.2431 -0.3918
   65TMC2    C6 1011   1.465   4.417  15.675  0.3344 -0.0907 -0.1366
   65TMC2     C 1012   1.459   4.054  15.867  0.3292  0.1743 -0.0873
   65TMC2     O 1013   1.549   4.032  15.949  0.1815  0.4017  0.4782
   65TMC2     H 1014   1.293   4.136  15.649 -2.6600  2.5071 -1.0268
   65TMC2    H1 1015   1.565   4.297  15.966  0.0679 -0.8750  0.3121
   65TMC2    H2 1016   1.485   4.506  15.616  1.2819  0.9666  1.7682
   65TMC2    C7 1017   1.552   4.534  15.866  0.7520 -1.1340  0.3077
   65TMC2    C8 1018   1.345   4.336  15.490 -0.1369  0.0269  0.2650
   65TMC2    O1 1019   1.592   4.625  15.793 -0.4888  0.7693  1.0276
   65TMC2    O2 1020   1.404   4.397  15.404  0.3322  0.1509 -0.4589
   65TMC2    O5 1021   1.210   4.355  15.513  0.0216  0.7617  0.5020
   65TMC2    H5 1022   1.173   4.343  15.604  0.2631  2.5151  0.8386
   66MPD2     C 1023   1.459   3.759  15.908  0.1942  0.3037  0.4394
   66MPD2    C1 1024   1.372   3.831  15.820 -0.0117 -0.4301  0.2095
   66MPD2    C2 1025   1.266   3.767  15.754 -0.5812 -0.0586 -0.3979
   66MPD2    C3 1026   1.252   3.630  15.765  0.0945 -0.5304  0.2061
   66MPD2    C4 1027   1.332   3.563  15.857  0.2416 -0.1240 -0.1083
   66MPD2    C5 1028   1.435   3.626  15.924 -0.5181 -0.4562  0.0072
   66MPD2     H 1029   1.199   3.824  15.690  2.0844  1.0662 -2.2039
   66MPD2    H1 1030   1.310   3.458  15.872  0.8550 -0.2264  0.0754
   66MPD2    H2 1031   1.539   3.793  15.974  0.9832  2.2507 -1.5330
   66MPD2    H3 1032   1.500   3.576  15.994  0.5218  0.0490 -0.6032
   66MPD2     N 1033   1.153   3.561  15.695 -0.1316 -0.1458 -0.2095
   66MPD2    H5 1034   1.130   3.466  15.723  0.4036 -0.3676 -0.5313
   66MPD2    N1 1035   1.378   3.967  15.804  0.3262 -0.1641  0.3825
   66MPD2    H7 1036   1.316   4.003  15.733 -0.1539 -1.3029  0.2331
   67TMC2    C1 1037   1.254   2.834  14.423  0.0538 -0.1275 -0.6658
   67TMC2    C2 1038   1.158   2.790  14.519 -0.0140  0.0793 -0.0315
   67TMC2    C3 1039   1.192   2.806  14.658 -0.2573 -0.2128 -0.4052
   67TMC2    C4 1040   1.364   2.888  14.463 -0.2384  0.7066  0.3767
   67TMC2    C5 1041   1.400   2.901  14.598  0.2042  0.6295 -0.1667
   67TMC2    C6 1042   1.312   2.862  14.700 -0.3449  0.1670  0.0208
   67TMC2     C 1043   1.199   2.864  14.297 -0.2102 -0.5286  0.6793
   67TMC2     O 1044   1.287   2.882  14.211 -0.1260  0.0083 -0.5811
   67TMC2     H 1045   1.065   2.738  14.501 -0.4829  1.3683 -1.4265
   67TMC2    H1 1046   1.439   2.911  14.388  1.9452 -1.2644  1.9671
   67TMC2    H2 1047   1.349   2.850  14.801  0.8889 -2.0053 -0.6942
   67TMC2    C7 1048   1.538   2.932  14.628  0.4253 -0.7940  0.2099
   67TMC2    C8 1049   1.119   2.723  14.757  0.7391 -0.1305 -0.5580
   67TMC2    O1 1050   1.623   2.928  14.537 -0.7051 -0.0877  0.3212
   67TMC2    O2 1051   1.161   2.706  14.870  0.0313 -0.3959 -0.2059
   67TMC2    O5 1052   0.990   2.732  14.724 -0.1007 -0.3161  0.6873
   67TMC2    H5 1053   0.976   2.779  14.639 -0.8153  0.2653  1.1229
   68MPD2     C 1054   1.044   2.962  14.065  0.6119 -0.1213  0.1879
   68MPD2    C1 1055   0.988   2.919  14.182 -0.1414  0.8590  0.1590
   68MPD2    C2 1056   0.854   2.927  14.199  0.9033  0.1875 -0.5257
   68MPD2    C3 1057   0.775   2.999  14.105  0.1625 -1.2026  0.2591
   68MPD2    C4 1058   0.839   3.047  13.990  0.1015  0.5208  0.5491
   68MPD2    C5 1059   0.967   3.034  13.975 -0.1374 -0.1352 -0.4524
   68MPD2     H 1060   0.807   2.886  14.288  1.4840  0.7240  0.0280
   68MPD2    H1 1061   0.781   3.093  13.911 -0.2842 -0.5516  0.2130
   68MPD2    H2 1062   1.150   2.952  14.048  0.6345  2.8036 -1.5274
   68MPD2    H3 1063   1.013   3.054  13.879 -0.9483  0.7120 -0.6558
   68MPD2     N 1064   0.633   3.009  14.104  0.2174 -0.3153  0.5938
   68MPD2    H5 1065   0.598   3.062  14.024 -0.2094  0.5047  1.3245
   68MPD2    N1 1066   1.066   2.879  14.288  0.3073  0.3671  0.0503
   68MPD2    H7 1067   1.007   2.869  14.370 -0.4406  1.3414 -0.3748
   69TMC2    C1 1068   2.314   4.421  12.458 -0.7216 -1.1611  0.2045
   69TMC2    C2 1069   2.269   4.547  12.454 -0.3059 -0.0005 -0.4240
   69TMC2    C3 1070   2.274   4.606  12.333  0.6362  0.3459  0.5803
   69TMC2    C4 1071   2.346   4.351  12.351 -0.4537  0.1270 -0.3263
   69TMC2    C5 1072   2.345   4.407  12.227  0.1659  0.3291 -0.4274
   69TMC2    C6 1073   2.302   4.534  12.218  0.4256 -0.6269 -0.2841
   69TMC2     C 1074   2.349   4.359  12.587  0.0303 -0.0133  0.2037
   69TMC2     O 1075   2.360   4.239  12.590 -0.1941  0.0149  0.5964
   69TMC2     H 1076   2.235   4.589  12.548 -2.0321  0.8330 -1.4222
   69TMC2    H1 1077   2.407   4.262  12.362  0.2560  0.6385 -0.0926
   69TMC2    H2 1078   2.291   4.582  12.121 -0.1787  0.9634  0.5740
   69TMC2    C7 1079   2.440   4.358  12.132 -0.0970 -0.1299  0.7707
   69TMC2    C8 1080   2.246   0.009  12.324  0.0578 -0.2612 -0.3045
   69TMC2    O1 1081   2.552   4.335  12.180 -0.2952 -0.0637 -0.0212
   69TMC2    O2 1082   2.185   0.071  12.413 -0.3452 -0.3716  0.6747
   69TMC2    O5 1083   2.335   0.060  12.231 -0.7344 -0.9785 -0.1888
   69TMC2    H5 1084   2.376   4.733  12.167  0.9672 -1.1673  1.0852
   70MPD2     C 1085   2.562   4.506  12.853  0.1832  0.0969  0.0046
   70MPD2    C1 1086   2.473   4.416  12.800  0.4578  0.0912  0.0838
   70MPD2    C2 1087   2.438   4.300  12.872  0.5174 -0.5518  0.1830
   70MPD2    C3 1088   2.512   4.271  12.984  0.5940 -0.2044  0.3142
   70MPD2    C4 1089   2.623   4.348  13.019 -0.1558 -0.1443  0.1811
   70MPD2    C5 1090   2.640   4.470  12.959 -0.2051 -0.2923  0.0197
   70MPD2     H 1091   2.361   4.235  12.832  1.4741 -0.2046 -2.2340
   70MPD2    H1 1092   2.690   4.320  13.100 -0.6976 -0.6262  0.4628
   70MPD2    H2 1093   2.582   4.598  12.799  1.1609 -0.1227 -0.0091
   70MPD2    H3 1094   2.715   4.543  12.987 -1.2595  1.8590 -2.8553
   70MPD2     N 1095   2.494   4.152  13.061 -0.1506 -0.1347  0.5548
   70MPD2    H5 1096   2.568   4.123  13.125 -0.6869 -1.9103  0.3601
   70MPD2    N1 1097   2.414   4.446  12.672  0.2411 -0.1561 -0.1041
   70MPD2    H7 1098   2.442   4.537  12.636  0.2318  0.8379  2.4371
   71TMC2    C1 1099   0.352   1.646   1.932 -0.6104 -0.5963 -0.3521
   71TMC2    C2 1100   0.398   1.685   2.056 -0.4361 -0.4786 -0.2578
   71TMC2    C3 1101   0.320   1.779   2.120  0.7612  0.6807  0.7849
   71TMC2    C4 1102   0.243   1.700   1.873  0.0578  0.3986  0.0715
   71TMC2    C5 1103   0.175   1.800   1.940  0.4982 -0.7529 -0.0996
   71TMC2    C6 1104   0.216   1.842   2.060  0.7385 -0.2415  0.1252
   71TMC2     C 1105   0.439   1.550   1.868 -0.2870 -0.4151 -0.0556
   71TMC2     O 1106   0.556   1.531   1.902 -0.1513  0.0380 -0.7231
   71TMC2     H 1107   0.491   1.647   2.096  0.2990 -0.8356 -2.3518
   71TMC2    H1 1108   0.211   1.679   1.771 -2.4119 -0.8743  1.1175
   71TMC2    H2 1109   0.164   1.926   2.106 -0.5192 -1.4327  0.8528
   71TMC2    C7 1110   0.043   1.850   1.892 -0.2499 -1.4185 -0.0516
   71TMC2    C8 1111   0.398   1.871   2.198  0.6322  0.0538 -0.3313
   71TMC2    O1 1112   4.718   1.933   1.961  0.4391 -0.1545 -0.3679
   71TMC2    O2 1113   0.402   1.987   2.173 -0.2106  0.3125  0.0686
   71TMC2    O5 1114   0.456   1.799   2.298 -0.3708  0.1275  0.5313
   71TMC2    H5 1115   0.422   1.707   2.303 -1.5555  0.4441 -1.9237
   72MPD2     C 1116   0.458   1.165   1.528  0.6356 -0.2817 -0.0917
   72MPD2    C1 1117   0.559   1.230   1.591 -0.3785 -0.4477 -0.4800
   72MPD2    C2 1118   0.527   1.334   1.675 -0.2843  0.1503  0.0968
   72MPD2    C3 1119   0.397   1.366   1.696  0.4081 -0.1625 -0.2985
   72MPD2    C4 1120   0.297   1.299   1.628  0.6047 -0.1955  0.0891
   72MPD2    C5 1121   0.329   1.192   1.549  0.2412  0.3437  1.0961
   72MPD2     H 1122   0.605   1.398   1.713  1.1007 -1.9496  0.8350
   72MPD2    H1 1123   0.193   1.329   1.633  0.4247 -0.7525 -0.3092
   72MPD2    H2 1124   0.491   1.096   1.451  1.8151  0.8557 -0.5915
   72MPD2    H3 1125   0.256   1.147   1.482 -0.2759  0.7079  1.4217
   72MPD2     N 1126   0.358   1.460   1.794  0.1734 -0.1913  0.2242
   72MPD2    H5 1127   0.259   1.482   1.800  0.6237  2.4635 -2.1349
   72MPD2    N1 1128   0.700   1.196   1.584  0.1581  0.3778 -0.1788
   72MPD2    H7 1129   0.769   1.243   1.642  0.6989  0.9917 -1.3141
   73TMC2    C1 1130   0.507   1.842  13.935  0.3612  0.3055  0.0526
   73TMC2    C2 1131   0.403   1.782  14.011  0.1393  0.0499  0.0431
   73TMC2    C3 1132   0.444   1.697  14.117  0.2850 -0.3853 -0.1253
   73TMC2    C4 1133   0.642   1.815  13.961 -0.3642  0.5744 -0.1105
   73TMC2    C5 1134   0.677   1.729  14.064  0.2855 -0.2350  0.1013
   73TMC2    C6 1135   0.580   1.669  14.130 -0.8549  0.2235  0.9237
   73TMC2     C 1136   0.497   1.978  13.890  0.1992  0.1743  0.1041
   73TMC2     O 1137   0.601   2.043  13.901  0.4683  0.5194  0.2369
   73TMC2     H 1138   0.305   1.827  14.015 -1.1801 -2.8014 -0.4243
   73TMC2    H1 1139   0.723   1.856  13.902  1.0471  0.6553  1.8419
   73TMC2    H2 1140   0.608   1.615  14.220 -0.0876 -0.0141  0.5450
   73TMC2    C7 1141   0.790   1.785  14.133 -0.2525  0.4178  0.1759
   73TMC2    C8 1142   0.366   1.597  14.187  0.0779 -0.0121 -0.0940
   73TMC2    O1 1143   0.862   1.712  14.196 -0.0535 -0.2316 -0.1965
   73TMC2    O2 1144   0.403   1.476  14.193 -0.1493  0.3448  0.0968
   73TMC2    O5 1145   0.235   1.633  14.192  0.3567  0.0265 -0.0590
   73TMC2    H5 1146   0.250   1.730  14.200  0.7023 -0.0988  0.8929
   74MPD2     C 1147   0.265   2.413  13.754  0.1515 -0.4074  0.3836
   74MPD2    C1 1148   0.377   2.387  13.827 -0.0594  0.5024 -0.5947
   74MPD2    C2 1149   0.407   2.255  13.856  0.2799 -0.7191  0.3802
   74MPD2    C3 1150   0.331   2.145  13.813 -0.1225  0.0183 -0.7151
   74MPD2    C4 1151   0.215   2.170  13.740  0.2982  0.5355  0.3059
   74MPD2    C5 1152   0.188   2.305  13.711  0.6544  0.0956  0.4674
   74MPD2     H 1153   0.482   2.233  13.931  1.5624  0.1786 -0.6501
   74MPD2    H1 1154   0.139   2.100  13.708 -0.3020  0.8093  1.1389
   74MPD2    H2 1155   0.231   2.511  13.723  1.3555  0.1264  0.7708
   74MPD2    H3 1156   0.097   2.322  13.655  0.8582  2.5490  0.8999
   74MPD2     N 1157   0.372   2.009  13.846  0.3173  0.3604 -0.2885
   74MPD2    H5 1158   0.302   1.938  13.829 -0.8655  1.0894  1.5858
   74MPD2    N1 1159   0.453   2.498  13.873  0.0820  0.8043  0.2427
   74MPD2    H7 1160   0.437   2.596  13.850  2.3015  1.2806  0.7115
   75TMC2    C1 1161   0.403   2.992  14.173 -0.7063 -0.3751  0.2361
   75TMC2    C2 1162   0.316   3.013  14.286 -0.0982 -0.5419 -0.0677
   75TMC2    C3 1163   0.188   3.054  14.256  0.4378  0.4202  0.3532
   75TMC2    C4 1164   0.364   3.011  14.041  1.1799  0.8430  0.0895
   75TMC2    C5 1165   0.238   3.060  14.022  0.1015 -0.4959 -0.0124
   75TMC2    C6 1166   0.154   3.080  14.126 -0.4194 -0.3995  0.4452
   75TMC2     C 1167   0.545   2.973  14.208  0.0539  0.2545  0.1933
   75TMC2     O 1168   0.569   2.947  14.324 -0.0416  0.2631 -0.6411
   75TMC2     H 1169   0.341   2.975  14.384  1.8572  0.5022 -0.1501
   75TMC2    H1 1170   0.432   2.985  13.961 -0.6191 -0.3859 -1.0255
   75TMC2    H2 1171   0.050   3.097  14.102  0.1974  0.0938 -1.8338
   75TMC2    C7 1172   0.201   3.108  13.885  0.0288 -0.0111 -0.6141
   75TMC2    C8 1173   0.072   3.016  14.340 -0.3884 -0.5648  0.2692
   75TMC2    O1 1174   0.256   3.047  13.790 -0.1545  0.2691  0.1044
   75TMC2    O2 1175   4.701   2.972  14.295  0.0030 -0.1699 -0.1041
   75TMC2    O5 1176   0.118   2.999  14.467  0.7555  0.1611  0.0148
   75TMC2    H5 1177   0.196   3.058  14.467 -0.6675  2.0322 -0.7293
   76TMC2    C1 1178   4.067   3.783  12.011 -0.6669 -0.3311  0.4976
   76TMC2    C2 1179   4.059   3.644  12.030 -0.1445 -0.6021  0.1471
   76TMC2    C3 1180   4.180   3.581  12.048  0.0404 -0.0858  0.5225
   76TMC2    C4 1181   4.182   3.855  12.027  0.6665  0.5697  0.0390
   76TMC2    C5 1182   4.288   3.784  12.068  0.0070 -0.0756  0.1278
   76TMC2    C6 1183   4.295   3.647  12.072 -0.1136 -0.2304 -0.1971
   76TMC2     C 1184   3.942   3.857  11.985 -0.0514  0.1998  0.3189
   76TMC2     O 1185   3.854   3.788  11.933 -0.2014  0.0248 -0.4704
   76TMC2     H 1186   3.973   3.585  12.000  0.5866 -1.7728  0.3725
   76TMC2    H1 1187   4.193   3.959  11.999  0.1501 -0.0625 -2.5543
   76TMC2    H2 1188   4.389   3.593  12.071 -0.2401 -0.4394 -1.4861
   76TMC2    C7 1189   4.418   3.857  12.088  1.0233  0.0004  0.5203
   76TMC2    C8 1190   4.172   3.441  12.075 -1.2052 -0.7364  0.0489
   76TMC2    O1 1191   4.417   3.964  12.030 -0.4321 -0.6176 -0.8577
   76TMC2    O2 1192   4.072   3.384  12.036 -0.3412 -0.1437  0.3304
   76TMC2    O5 1193   4.225   3.415  12.198 -0.1099  0.4994 -0.5024
   76TMC2    H5 1194   4.286   3.490  12.213  1.4058 -0.7638 -0.3477
   77MPD2     C 1195   3.600   4.207  12.098  0.8576  0.4429 -0.0512
   77MPD2    C1 1196   3.589   4.094  12.019  0.3434  0.1705 -0.4999
   77MPD2    C2 1197   3.700   4.020  12.002  0.1504  0.5408 -0.2062
   77MPD2    C3 1198   3.818   4.052  12.062  0.3764 -0.8832  0.2488
   77MPD2    C4 1199   3.819   4.165  12.138 -0.5086 -0.0445 -0.1670
   77MPD2    C5 1200   3.714   4.241  12.160 -0.1696 -0.1525  0.0994
   77MPD2     H 1201   3.690   3.928  11.945  1.8878  0.6546 -0.7037
   77MPD2    H1 1202   3.913   4.180  12.189 -0.7147  2.0649 -0.4192
   77MPD2    H2 1203   3.519   4.277  12.109 -0.6497 -1.0936 -1.4606
   77MPD2    H3 1204   3.720   4.334  12.214 -1.4972  0.2352 -0.4267
   77MPD2     N 1205   3.932   3.973  12.054 -0.0252  0.4663  0.1448
   77MPD2    H5 1206   4.014   4.007  12.103  0.3610 -3.0550  1.9692
   77MPD2    N1 1207   3.472   4.068  11.950 -0.4103 -0.3129 -1.1819
   77MPD2    H7 1208   3.462   3.986  11.890 -0.1312 -0.3371 -1.1961
   78TMC2    C1 1209   2.682   4.239   1.513  0.0931 -0.1014  0.0901
   78TMC2    C2 1210   2.758   4.134   1.560  0.7602  0.1854  0.3432
   78TMC2    C3 1211   2.859   4.159   1.648 -0.4164 -0.2951  0.4488
   78TMC2    C4 1212   2.716   4.370   1.533  0.1841  0.2143 -0.3661
   78TMC2    C5 1213   2.807   4.394   1.634 -0.5632  0.4855  0.0513
   78TMC2    C6 1214   2.866   4.290   1.702 -0.1967  0.9127  0.2177
   78TMC2     C 1215   2.602   4.204   1.397  0.9426 -0.3493 -0.5319
   78TMC2     O 1216   2.640   4.105   1.337 -0.2031  0.6996 -0.6043
   78TMC2     H 1217   2.740   4.028   1.547  3.3717 -0.1235 -0.7959
   78TMC2    H1 1218   2.652   4.450   1.495 -0.7254 -0.5364 -0.4208
   78TMC2    H2 1219   2.942   4.315   1.775 -0.0232  2.4172 -0.4761
   78TMC2    C7 1220   2.790   4.529   1.696  0.3098  0.2792 -0.7347
   78TMC2    C8 1221   2.872   4.049   1.741 -0.0037  0.0871 -0.4852
   78TMC2    O1 1222   2.757   4.623   1.625 -0.4964  0.1958  0.0069
   78TMC2    O2 1223   2.777   3.973   1.757  0.0130 -1.0687  0.2515
   78TMC2    O5 1224   3.003   4.004   1.745  0.4597 -0.6862  0.6192
   78TMC2    H5 1225   3.068   4.077   1.751 -0.6543  0.3708 -0.1364
   79MPD1     C 1226   2.282   4.328   1.023 -0.1992 -0.0733  0.2334
   79MPD1    C1 1227   2.344   4.211   1.049  0.5308 -0.2777 -0.1146
   79MPD1    C2 1228   2.421   4.198   1.166 -0.4053 -0.5727  0.9971
   79MPD1    C3 1229   2.409   4.295   1.268 -0.3172  0.3458  0.4536
   79MPD1    C4 1230   2.336   4.405   1.254 -0.5767 -0.0725  0.1716
   79MPD1    C5 1231   2.275   4.423   1.128 -0.3296  0.2913 -0.4752
   79MPD1     H 1232   2.471   4.102   1.177  2.1530  0.5181 -1.3964
   79MPD1    H1 1233   2.326   4.492   1.317 -2.7528  0.2420 -0.6206
   79MPD1    H2 1234   2.233   4.344   0.928 -0.9372  0.4602  0.7009
   79MPD1    H3 1235   2.219   4.513   1.103  0.6903  0.6149 -1.5679
   79MPD1     N 1236   2.491   4.284   1.381  0.1936 -0.0243 -0.0677
   79MPD1    H5 1237   2.473   4.354   1.451 -1.4212  0.3051 -0.7962
   79MPD1    N1 1238   2.361   4.112   0.947  0.4039 -0.1007  0.5497
   79MPD1    H6 1239   2.303   4.110   0.863  0.9446  2.8146  0.0987
   79MPD1    H7 1240   2.398   4.024   0.983 -1.4587 -1.3232 -0.5358
   80TMC2    C1 1241   3.003   3.356  12.117  0.1456  0.1599  0.5761
   80TMC2    C2 1242   3.054   3.395  11.994 -0.1564 -0.6437 -0.7541
   80TMC2    C3 1243   2.993   3.335  11.884  0.2924  0.0161  0.4233
   80TMC2    C4 1244   2.904   3.268  12.133  0.2512 -0.7680  0.5270
   80TMC2    C5 1245   2.851   3.211  12.022 -0.6095  0.1990 -0.1408
   80TMC2    C6 1246   2.893   3.244  11.896  0.1887 -0.2345 -0.2195
   80TMC2     C 1247   3.081   3.381  12.238 -0.1615 -0.1319 -0.2222
   80TMC2     O 1248   3.199   3.387  12.230 -0.3609  0.0754  0.0256
   80TMC2     H 1249   3.139   3.462  11.989  1.4574 -2.6548 -0.1644
   80TMC2    H1 1250   2.860   3.246  12.230  0.2634  1.0636  0.9402
   80TMC2    H2 1251   2.857   3.187  11.811 -2.1501  0.0317  0.5834
   80TMC2    C7 1252   2.739   3.129  12.043 -0.4113 -0.2347 -0.8095
   80TMC2    C8 1253   3.051   3.348  11.753 -0.3630 -0.6714  0.4439
   80TMC2    O1 1254   2.667   3.119  11.945 -0.5570  0.2939  0.2786
   80TMC2    O2 1255   2.990   3.299  11.661 -0.0654 -1.1807  0.0930
   80TMC2    O5 1256   3.181   3.318  11.780 -0.1437 -0.2175  0.2613
   80TMC2    H5 1257   3.214   3.331  11.871  1.0363  0.0521 -0.2115
   81MPD2     C 1258   3.175   3.407  12.529 -0.5313  0.3691 -0.0108
   81MPD2    C1 1259   3.046   3.423  12.482 -1.1729  0.7880  0.3641
   81MPD2    C2 1260   2.948   3.469  12.570  0.3737 -0.5921  0.7960
   81MPD2    C3 1261   2.972   3.469  12.705 -0.1339 -0.1661 -0.1230
   81MPD2    C4 1262   3.097   3.425  12.749  0.2850  0.1031 -0.0665
   81MPD2    C5 1263   3.195   3.403  12.662 -0.1741  0.3340  0.7189
   81MPD2     H 1264   2.854   3.499  12.524  0.3248 -2.0582 -0.0956
   81MPD2    H1 1265   3.105   3.398  12.854 -0.0095 -1.5038 -0.4674
   81MPD2    H2 1266   3.256   3.375  12.465 -1.8494 -1.2043 -0.8826
   81MPD2    H3 1267   3.291   3.368  12.698 -1.9596 -1.9749  3.2166
   81MPD2     N 1268   2.875   3.491  12.804  0.4175 -0.9287  0.0501
   81MPD2    H5 1269   2.906   3.499  12.901  1.1937  0.1458 -0.2832
   81MPD2    N1 1270   3.001   3.403  12.351  0.2753  0.0149 -0.2082
   81MPD2    H7 1271   2.903   3.419  12.332  0.2383  2.0731  1.7634
   82TMC2    C1 1272   0.883   3.089  10.990  0.1713 -0.2666 -0.0337
   82TMC2    C2 1273   0.949   3.195  11.058  0.1390  0.2395  0.6914
   82TMC2    C3 1274   0.992   3.167  11.182  0.3563  0.0508  0.8533
   82TMC2    C4 1275   0.867   2.963  11.047  0.4152  0.0057  0.0961
   82TMC2    C5 1276   0.908   2.949  11.175  0.6242 -0.2132 -0.1046
   82TMC2    C6 1277   0.966   3.050  11.250 -0.0090 -0.1598  0.1782
   82TMC2     C 1278   0.783   3.125  10.890 -0.6796  0.7365  0.0769
   82TMC2     O 1279   0.764   3.044  10.802 -0.6714  0.2441 -0.3987
   82TMC2     H 1280   0.945   3.299  11.026  1.4186  0.4152  1.1168
   82TMC2    H1 1281   0.800   2.890  11.002  0.3210  1.5593 -2.2481
   82TMC2    H2 1282   0.994   3.043  11.355  0.2595 -2.0865 -0.0164
   82TMC2    C7 1283   0.869   2.836  11.255  0.5778 -0.7231  0.4702
   82TMC2    C8 1284   1.076   3.266  11.253 -0.1286  1.1460  0.8406
   82TMC2    O1 1285   0.833   2.848  11.373 -0.0587 -0.0332  0.1622
   82TMC2    O2 1286   1.054   3.385  11.233  0.1419 -0.1027  0.7637
   82TMC2    O5 1287   1.175   3.208  11.318 -0.1138  0.2062 -0.3471
   82TMC2    H5 1288   1.181   3.111  11.306  1.7631  0.1754  0.8586
   83MPD2     C 1289   0.358   3.360  10.749 -0.5938 -0.0835 -0.4211
   83MPD2    C1 1290   0.399   3.231  10.734  0.5029  0.1416  0.0773
   83MPD2    C2 1291   0.520   3.187  10.784  0.4525 -0.9742 -0.4766
   83MPD2    C3 1292   0.598   3.275  10.858 -0.0941  0.2704 -0.5436
   83MPD2    C4 1293   0.542   3.402  10.894 -0.3744  0.0063 -0.2521
   83MPD2    C5 1294   0.430   3.442  10.829  0.1346 -0.0060  0.1722
   83MPD2     H 1295   0.554   3.086  10.768  1.1848 -1.0695  1.8180
   83MPD2    H1 1296   0.588   3.461  10.973  0.3106  0.3116 -0.8718
   83MPD2    H2 1297   0.265   3.404  10.715 -0.1367  1.2495  0.0381
   83MPD2    H3 1298   0.398   3.544  10.846  1.0327  0.3464 -0.2587
   83MPD2     N 1299   0.706   3.226  10.936 -0.0013 -0.2619  0.3502
   83MPD2    H5 1300   0.728   3.282  11.018  0.5795 -1.4959  1.0222
   83MPD2    N1 1301   0.303   3.138  10.690  0.9476  0.5089  0.0159
   83MPD2    H7 1302   0.214   3.184  10.671  1.5661  1.4946 -0.5248
   84TMC2    C1 1303   2.380   2.022  11.048 -0.1867 -0.2287  0.7957
   84TMC2    C2 1304   2.452   1.945  11.134  0.0204  0.2096  0.0513
   84TMC2    C3 1305   2.473   1.813  11.089  0.2335  0.1144 -0.7405
   84TMC2    C4 1306   2.315   1.969  10.936 -0.3080  0.3117  0.1521
   84TMC2    C5 1307   2.327   1.834  10.912 -0.5819  0.2884  0.7152
   84TMC2    C6 1308   2.405   1.748  10.986  1.2666  0.3028  0.4951
   84TMC2     C 1309   2.318   2.137  11.117 -0.0175  0.6015  0.0825
   84TMC2     O 1310   2.234   2.200  11.057 -0.1993 -0.2665 -0.1532
   84TMC2     H 1311   2.519   1.992  11.205  2.2173 -0.9765 -1.2275
   84TMC2    H1 1312   2.232   2.028  10.897 -0.6151  0.8751  1.6559
   84TMC2    H2 1313   2.421   1.644  10.957 -1.2456 -0.0195  0.3046
   84TMC2    C7 1314   2.221   1.775  10.833  0.5420 -0.3491  0.6964
   84TMC2    C8 1315   2.537   1.734  11.192  0.3118  0.1293  1.1072
   84TMC2    O1 1316   2.198   1.659  10.854  0.1045  0.0969  0.3974
   84TMC2    O2 1317   2.551   1.770  11.307 -0.2183 -0.0931  0.5058
   84TMC2    O5 1318   2.538   1.599  11.155  0.0393 -0.3660  0.0200
   84TMC2    H5 1319   2.521   1.594  11.058  0.5795  0.3681 -0.1124
   85TMC2    C1 1320   3.690   0.047  15.439  0.0122  0.2955 -0.1956
   85TMC2    C2 1321   3.577   0.108  15.394 -0.6872 -0.6715 -0.1020
   85TMC2    C3 1322   3.583   0.162  15.265  0.6638  0.3064  0.1940
   85TMC2    C4 1323   3.801   0.032  15.357 -0.4901  0.8123  0.7292
   85TMC2    C5 1324   3.803   0.088  15.234 -0.3903  1.2271  0.2841
   85TMC2    C6 1325   3.693   0.148  15.194  0.1285 -0.0602 -0.0191
   85TMC2     C 1326   3.678   4.690  15.550 -0.1051  0.4512  0.1939
   85TMC2     O 1327   3.781   4.658  15.608 -0.8375 -0.1418 -0.4430
   85TMC2     H 1328   3.482   0.128  15.443  0.1887  0.6176  1.0637
   85TMC2    H1 1329   3.883   4.705  15.391 -1.0107 -0.7195 -0.8224
   85TMC2    H2 1330   3.685   0.185  15.093  0.4864  0.7352  0.2433
   85TMC2    C7 1331   3.889   0.013  15.144  0.6843  0.1761  1.0011
   85TMC2    C8 1332   3.493   0.283  15.251 -0.7382 -0.7749 -0.1404
   85TMC2    O1 1333   3.946   4.654  15.192 -0.1334 -0.0926 -0.1211
   85TMC2    O2 1334   3.390   0.297  15.316  0.3907 -0.2216  0.8136
   85TMC2    O5 1335   3.521   0.353  15.140  0.1476 -0.3191 -0.8912
   85TMC2    H5 1336   3.614   0.348  15.107 -0.2577  0.3507 -2.1674
   86MPD2     C 1337   3.453   4.453  15.947  0.0728  0.0469  0.1705
   86MPD2    C1 1338   3.365   4.460  15.839  0.2295  0.6937 -0.1307
   86MPD2    C2 1339   3.404   4.530  15.725  0.6266 -0.7580  0.0137
   86MPD2    C3 1340   3.526   4.592  15.712  0.6987  0.2564 -0.1245
   86MPD2    C4 1341   3.600   4.595  15.831  0.7652  0.2907 -0.2210
   86MPD2    C5 1342   3.569   4.525  15.943 -0.0667 -0.3455  0.1760
   86MPD2     H 1343   3.329   4.547  15.648 -0.3313  0.1333  1.1355
   86MPD2    H1 1344   3.696   4.646  15.828  1.2295 -0.5013  1.4746
   86MPD2    H2 1345   3.432   4.409  16.044  2.0504  0.3256  0.7367
   86MPD2    H3 1346   3.640   4.519  16.025  1.0817 -2.9055 -0.9839
   86MPD2     N 1347   3.552   4.658  15.590  0.3906 -0.4436 -0.2754
   86MPD2    H5 1348   3.474   4.668  15.526  0.2216 -1.4718 -0.2329
   86MPD2    N1 1349   3.245   4.396  15.838  0.1197  0.4157 -0.0060
   86MPD2    H7 1350   3.194   4.406  15.751  0.8903  2.6100 -0.2026
   87TMC2    C1 1351   0.919   3.809   0.731 -0.8312 -0.0370 -0.2828
   87TMC2    C2 1352   1.020   3.897   0.764  0.0089  0.2674 -0.1699
   87TMC2    C3 1353   1.006   3.997   0.852 -0.7275  0.4166  0.2702
   87TMC2    C4 1354   0.794   3.839   0.785  0.0264  0.2269  0.2358
   87TMC2    C5 1355   0.786   3.944   0.876 -0.5514  0.1096 -0.2279
   87TMC2    C6 1356   0.890   4.025   0.910  0.2264  0.7456 -0.1914
   87TMC2     C 1357   0.945   3.706   0.629  0.1290 -0.8435  0.1805
   87TMC2     O 1358   1.055   3.692   0.574  0.4338  0.0385  0.1562
   87TMC2     H 1359   1.119   3.884   0.721  0.7452  1.3296  1.2132
   87TMC2    H1 1360   0.708   3.783   0.751  0.0900 -1.0880  2.2568
   87TMC2    H2 1361   0.883   4.101   0.987 -0.1832 -0.2992  0.7838
   87TMC2    C7 1362   0.668   3.954   0.956  0.4004  0.0541  0.4091
   87TMC2    C8 1363   1.111   4.096   0.860  1.0003 -0.0571 -0.1535
   87TMC2    O1 1364   0.646   4.067   1.003  0.0270 -0.5183  0.0261
   87TMC2    O2 1365   1.222   4.079   0.813  0.9403  0.2962  0.5466
   87TMC2    O5 1366   1.056   4.220   0.852  0.2602 -0.4288  0.0917
   87TMC2    H5 1367   0.962   4.217   0.880  0.6987  0.8790  1.6984
   88MPD2     C 1368   0.363   3.753   0.933 -0.3638 -0.2796 -0.5048
   88MPD2    C1 1369   0.433   3.867   0.952  0.7185  0.2679 -0.1624
   88MPD2    C2 1370   0.369   3.995   0.959  0.5591 -0.2072  0.2662
   88MPD2    C3 1371   0.230   3.996   0.943  0.4110 -0.7964 -0.0439
   88MPD2    C4 1372   0.162   3.879   0.932  0.5733  0.1372 -0.1626
   88MPD2    C5 1373   0.226   3.757   0.927 -0.0281  0.3377 -0.0132
   88MPD2     H 1374   0.415   4.093   0.961  1.1743 -0.5276  1.1259
   88MPD2    H1 1375   0.061   3.886   0.892  0.5678 -0.9899 -0.3360
   88MPD2    H2 1376   0.417   3.660   0.918  2.3031  1.0945  0.4990
   88MPD2    H3 1377   0.171   3.666   0.911 -0.3014  0.4788  0.1266
   88MPD2     N 1378   0.155   4.115   0.917  0.0172 -0.3579 -0.1178
   88MPD2    H5 1379   0.058   4.103   0.888 -0.1873 -2.1987  1.3413
   88MPD2    N1 1380   0.579   3.851   0.950  0.3578 -0.1127 -1.0600
   88MPD2    H7 1381   0.619   3.770   0.903  0.5444  0.0710 -1.2167
   89TMC2    C1 1382   2.076   3.205   1.946  0.1058 -0.1694  0.0782
   89TMC2    C2 1383   2.006   3.234   2.064 -0.4928  0.2547 -0.3676
   89TMC2    C3 1384   2.004   3.361   2.119  0.1836 -0.2589 -0.6292
   89TMC2    C4 1385   2.137   3.307   1.890 -0.3238  0.1872  0.8615
   89TMC2    C5 1386   2.114   3.433   1.937 -0.7134  0.2107 -0.1030
   89TMC2    C6 1387   2.057   3.468   2.055  0.1920 -0.0557  0.5510
   89TMC2     C 1388   2.097   3.071   1.891  0.5044  0.2039  0.1251
   89TMC2     O 1389   2.178   3.052   1.801 -0.6593 -0.2072 -0.1310
   89TMC2     H 1390   1.949   3.153   2.108  0.8372 -1.9448 -2.6743
   89TMC2    H1 1391   2.212   3.278   1.818  0.3027 -0.1042  1.6284
   89TMC2    H2 1392   2.040   3.570   2.088 -1.4058 -0.7556  1.9374
   89TMC2    C7 1393   2.221   3.525   1.888  0.2487 -0.0270  0.4504
   89TMC2    C8 1394   1.921   3.364   2.243 -0.6843 -0.3135  0.4819
   89TMC2    O1 1395   2.230   3.631   1.950 -0.3344  0.2471 -0.1830
   89TMC2    O2 1396   1.825   3.288   2.256  0.2976 -0.1060  0.4807
   89TMC2    O5 1397   1.934   3.485   2.304 -0.1924  0.6200  0.2348
   89TMC2    H5 1398   2.021   3.525   2.286 -1.1681  0.5744 -4.5054
   90MPD2     C 1399   2.000   2.570   1.895 -0.0092  0.2070 -0.8294
   90MPD2    C1 1400   1.884   2.635   1.941  0.1200 -0.1990 -0.7827
   90MPD2    C2 1401   1.890   2.771   1.953  0.0875 -0.8831  1.0314
   90MPD2    C3 1402   2.013   2.836   1.927 -0.3523 -0.1975 -0.3900
   90MPD2    C4 1403   2.133   2.775   1.888  0.5635  0.0533  0.2606
   90MPD2    C5 1404   2.120   2.637   1.864  0.2545  0.0905  0.3528
   90MPD2     H 1405   1.803   2.833   1.972 -0.4431 -1.2033 -0.4189
   90MPD2    H1 1406   2.224   2.822   1.853  0.0744  0.2871 -0.7045
   90MPD2    H2 1407   2.004   2.464   1.874 -0.8216  0.2080 -0.9955
   90MPD2    H3 1408   2.206   2.582   1.828  0.5094 -0.1092  1.2803
   90MPD2     N 1409   2.008   2.977   1.952 -0.1559  0.5601 -0.2873
   90MPD2    H5 1410   1.921   3.007   1.995  1.0000 -0.9116  3.0950
   90MPD2    N1 1411   1.764   2.571   1.962  0.4099  0.4921 -0.2588
   90MPD2    H7 1412   1.691   2.631   1.999 -0.1991 -1.0124  0.9862
   91TMC2    C1 1413   3.676   0.941  16.044 -0.7237 -0.4151 -0.1283
   91TMC2    C2 1414   3.771   0.845  16.072 -0.1852 -0.0928  0.0546
   91TMC2    C3 1415   3.716   0.731  16.118  0.2047 -0.5427  0.0263
   91TMC2    C4 1416   3.540   0.926  16.055  0.0009  0.3403  0.0173
   91TMC2    C5 1417   3.494   0.801  16.094 -0.3182 -0.0915  0.5344
   91TMC2    C6 1418   3.579   0.704  16.126  0.4260  0.2594 -0.6917
   91TMC2     C 1419   3.726   1.068  15.994 -0.6342  1.2489  0.0633
   91TMC2     O 1420   3.654   1.120  15.915 -0.0349  0.1311 -0.1082
   91TMC2     H 1421   3.878   0.856  16.059 -0.1722  1.8413  1.7215
   91TMC2    H1 1422   3.470   1.008  16.042  0.8624  1.3675  1.9275
   91TMC2    H2 1423   3.537   0.611  16.164  0.2167  0.2369 -0.9826
   91TMC2    C7 1424   3.358   0.769  16.062  0.6204 -0.0081 -0.3081
   91TMC2    C8 1425   3.805   0.634  16.184 -1.0995 -0.2171  0.0281
   91TMC2    O1 1426   3.304   0.673  16.120  0.4111 -0.0973  0.0188
   91TMC2    O2 1427   3.914   0.663  16.227 -0.7697 -0.1542 -0.0980
   91TMC2    O5 1428   3.751   0.507  16.192  0.1725  0.0005 -0.0220
   91TMC2    H5 1429   3.672   0.497  16.134  0.5449 -0.4358 -0.4580
   92MPD2     C 1430   3.856   1.320  15.934 -0.4698 -0.3539 -0.1671
   92MPD2    C1 1431   3.900   1.238  16.031 -0.1702 -0.1182  0.1155
   92MPD2    C2 1432   4.000   1.273  16.114 -0.1914 -0.7256  0.0762
   92MPD2    C3 1433   4.063   1.399  16.103  0.9478  0.3688 -0.0983
   92MPD2    C4 1434   4.024   1.488  16.005  0.2149 -0.0104  0.2924
   92MPD2    C5 1435   3.920   1.440  15.920 -0.4771  0.6555 -0.0580
   92MPD2     H 1436   4.031   1.208  16.195 -1.1777 -1.7326 -0.3601
   92MPD2    H1 1437   4.076   1.583  15.993 -0.1334 -0.0079 -1.1771
   92MPD2    H2 1438   3.782   1.297  15.859 -0.1723  0.4460 -0.6959
   92MPD2    H3 1439   3.884   1.514  15.849  1.1232 -2.4962 -4.1710
   92MPD2     N 1440   4.172   1.424  16.192  0.4940  0.1480  0.0494
   92MPD2    H5 1441   4.207   1.347  16.248  1.8576  0.8367  0.1518
   92MPD2    N1 1442   3.839   1.113  16.053  0.0212 -0.3274 -0.7819
   92MPD2    H7 1443   3.883   1.063  16.129 -3.2305  1.0846  2.0170
   93TMC2    C1 1444   0.819   1.011  14.200  0.5192 -0.2581  0.1895
   93TMC2    C2 1445   0.782   1.095  14.298 -0.6600 -0.2432  0.0766
   93TMC2    C3 1446   0.810   1.228  14.282  0.1170  0.5404  0.2533
   93TMC2    C4 1447   0.885   1.050  14.079  0.5626 -0.2641 -0.3696
   93TMC2    C5 1448   0.922   1.181  14.079 -0.6106  0.4734 -0.6644
   93TMC2    C6 1449   0.879   1.271  14.173 -0.2672 -0.5389 -0.3252
   93TMC2     C 1450   0.742   0.887  14.189  0.0122  0.8601  0.5472
   93TMC2     O 1451   0.706   0.824  14.290 -0.2871  0.2276  0.0288
   93TMC2     H 1452   0.715   1.055  14.374 -0.1281 -1.3423 -0.0317
   93TMC2    H1 1453   0.915   0.978  14.004  0.6919  0.4998 -1.0548
   93TMC2    H2 1454   0.893   1.378  14.161  2.2961 -1.0343 -1.6983
   93TMC2    C7 1455   1.015   1.237  13.983 -0.6273 -1.1200  0.1586
   93TMC2    C8 1456   0.772   1.324  14.381  1.1347 -0.8553 -0.3205
   93TMC2    O1 1457   1.113   1.174  13.951 -0.1499 -0.0153  0.1543
   93TMC2    O2 1458   0.856   1.403  14.412  0.4922  0.3736  0.4577
   93TMC2    O5 1459   0.682   1.263  14.462  0.5575  0.0531 -1.2622
   93TMC2    H5 1460   0.598   1.228  14.427 -1.8160  1.1950  3.2043
   94MPD2     C 1461   0.602   0.646  14.093 -0.9259  0.0597  1.0811
   94MPD2    C1 1462   0.600   0.763  14.029 -0.6441 -0.8424 -0.0295
   94MPD2    C2 1463   0.517   0.781  13.922 -0.3708  0.1811  0.3055
   94MPD2    C3 1464   0.430   0.683  13.888  0.0201 -0.5501 -0.4228
   94MPD2    C4 1465   0.427   0.563  13.958 -0.0659  0.2215 -0.4355
   94MPD2    C5 1466   0.513   0.546  14.063  0.4038  0.5117  0.8216
   94MPD2     H 1467   0.523   0.875  13.867 -2.9780  0.2118  0.0530
   94MPD2    H1 1468   0.374   0.473  13.934 -0.2216  0.1982 -0.0007
   94MPD2    H2 1469   0.670   0.615  14.172 -0.0809  1.0795  0.7535
   94MPD2    H3 1470   0.514   0.453  14.119 -1.8053  0.0694  0.1669
   94MPD2     N 1471   0.335   0.712  13.782 -0.0501 -0.0174 -0.0567
   94MPD2    H5 1472   0.325   0.809  13.755 -0.4897 -0.0871 -0.1493
   94MPD2    N1 1473   0.691   0.867  14.061 -0.2818 -0.3790  0.4128
   94MPD2    H7 1474   0.693   0.943  13.994 -0.7060 -0.9974 -0.3065
   95TMC2    C1 1475   0.212   2.989  15.991 -0.6194 -0.4345  0.2808
   95TMC2    C2 1476   0.137   3.023  16.104  0.0867 -0.2722  0.2924
   95TMC2    C3 1477   0.075   2.928  16.178 -0.2646  0.2628 -0.2287
   95TMC2    C4 1478   0.219   2.859  15.960 -0.0532 -0.3197  0.1678
   95TMC2    C5 1479   0.155   2.766  16.043 -0.6472  0.2592 -0.3325
   95TMC2    C6 1480   0.074   2.796  16.144 -0.0377 -0.2742 -0.0149
   95TMC2     C 1481   0.313   3.076  15.948  0.0155 -0.1551 -0.3330
   95TMC2     O 1482   0.391   3.043  15.860  0.2040  0.3383 -0.2930
   95TMC2     H 1483   0.117   3.126  16.131 -1.2964 -0.6030  0.5624
   95TMC2    H1 1484   0.284   2.820  15.883 -0.4520 -1.4280  0.3823
   95TMC2    H2 1485   0.048   2.720  16.216 -0.2108  0.7891  1.0412
   95TMC2    C7 1486   0.149   2.630  15.999  0.5753  1.1812 -0.1643
   95TMC2    C8 1487   0.014   2.970  16.303  0.2077  0.2669  0.2092
   95TMC2    O1 1488   0.256   2.588  15.962 -0.2295  0.6107  0.5243
   95TMC2    O2 1489   0.043   3.083  16.345 -0.8781 -0.5134  0.4004
   95TMC2    O5 1490   4.629   2.913  16.308  0.2996  0.2172  0.2825
   95TMC2    H5 1491   4.611   2.848  16.237  1.3644 -0.2906  0.4755
   96MPD2     C 1492   0.597   3.516  15.989 -0.7368  0.3843 -0.2228
   96MPD2    C1 1493   0.590   3.428  15.880  0.3380 -0.7086  0.6411
   96MPD2    C2 1494   0.506   3.318  15.898 -0.5186  0.3585 -0.1919
   96MPD2    C3 1495   0.428   3.291  16.011 -0.4947  0.1406  0.2977
   96MPD2    C4 1496   0.450   3.382  16.113  0.1283  0.3123  0.3389
   96MPD2    C5 1497   0.527   3.491  16.101  0.1839  0.4168  0.2062
   96MPD2     H 1498   0.510   3.236  15.827  0.7357 -1.5499  2.0890
   96MPD2    H1 1499   0.406   3.363  16.211  1.0221  2.2634  1.1192
   96MPD2    H2 1500   0.663   3.602  15.982 -0.0541 -0.0977  0.3092
   96MPD2    H3 1501   0.541   3.558  16.185 -0.3392  0.0158  0.6135
   96MPD2     N 1502   0.334   3.184  16.031 -0.2679  0.4213  0.3256
   96MPD2    H5 1503   0.296   3.188  16.125 -1.6734 -2.2316 -0.1159
   96MPD2    N1 1504   0.678   3.445  15.773 -0.2563 -0.3845  0.5230
   96MPD2    H7 1505   0.752   3.515  15.777 -0.7700  0.2142 -0.6144
   97TMC2    C1 1506   2.878   1.233   0.822  0.5723  0.0732 -0.8834
   97TMC2    C2 1507   2.780   1.138   0.797  0.1713 -0.3240  0.5025
   97TMC2    C3 1508   2.719   1.143   0.677  0.4121 -0.1492 -0.4355
   97TMC2    C4 1509   2.911   1.320   0.727  0.7519  0.0385  0.1570
   97TMC2    C5 1510   2.853   1.315   0.609 -0.5152  0.0209 -0.5900
   97TMC2    C6 1511   2.758   1.229   0.575 -0.7618  0.0393 -0.4980
   97TMC2     C 1512   2.913   1.270   0.960  0.4667 -0.0227 -0.0286
   97TMC2     O 1513   2.939   1.386   0.981  0.1142  0.0912 -0.4850
   97TMC2     H 1514   2.767   1.057   0.868  1.0441 -0.2255  0.7727
   97TMC2    H1 1515   2.994   1.387   0.746  2.1936 -1.4419 -0.9011
   97TMC2    H2 1516   2.719   1.210   0.476 -4.7571 -0.5647  1.2003
   97TMC2    C7 1517   2.907   1.401   0.503 -0.1494  1.0146 -0.4558
   97TMC2    C8 1518   2.592   1.070   0.660  0.3970  0.6878  0.9144
   97TMC2    O1 1519   3.024   1.431   0.525  0.1966  0.0679  0.4220
   97TMC2    O2 1520   2.550   0.994   0.750 -0.2834  0.3645  0.3091
   97TMC2    O5 1521   2.516   1.167   0.605 -0.3957  0.2349  0.2320
   97TMC2    H5 1522   2.561   1.235   0.550  2.4530 -1.0151  1.0155
   98MPD2     C 1523   2.984   1.152   1.457 -0.2215 -0.6340  0.3318
   98MPD2    C1 1524   2.985   1.272   1.391 -0.1122 -0.1185  0.1664
   98MPD2    C2 1525   2.982   1.281   1.253 -0.1772  0.3005  0.2187
   98MPD2    C3 1526   2.964   1.165   1.177 -0.3217 -0.1270 -0.6940
   98MPD2    C4 1527   2.961   1.047   1.244  0.3445  0.1265  0.2973
   98MPD2    C5 1528   2.983   1.038   1.379  0.5368 -0.6707 -0.3443
   98MPD2     H 1529   2.996   1.374   1.199 -0.9014  0.9287  1.1266
   98MPD2    H1 1530   2.957   0.954   1.188  2.7255  0.0761  0.1883
   98MPD2    H2 1531   2.997   1.155   1.564 -0.5723  0.8777  0.3266
   98MPD2    H3 1532   2.982   0.943   1.431 -1.2544 -0.5912 -0.2416
   98MPD2     N 1533   2.929   1.165   1.035  0.2989  0.1744 -0.3842
   98MPD2    H5 1534   2.919   1.074   0.991 -2.9136  0.2537  0.2420
   98MPD2    N1 1535   2.994   1.390   1.479  0.2280  0.6250 -0.0194
   98MPD2    H7 1536   3.011   1.367   1.576  1.3223  0.6747 -0.1953
   99TMC2    C1 1537   1.529   3.005   2.111 -0.3982 -0.4211  0.4870
   99TMC2    C2 1538   1.597   3.034   2.229  0.0745  0.8835 -0.3823
   99TMC2    C3 1539   1.528   3.014   2.348 -0.4655  0.1709  0.4665
   99TMC2    C4 1540   1.396   2.960   2.105  0.0925 -0.2603  0.5828
   99TMC2    C5 1541   1.336   2.949   2.235 -0.2940  0.3747  0.0265
   99TMC2    C6 1542   1.397   2.971   2.360  0.1164  0.3244  0.2519
   99TMC2     C 1543   1.610   2.998   1.984 -0.4802  0.1463 -0.3967
   99TMC2     O 1544   1.717   3.058   1.974 -0.0209 -0.7654 -1.1268
   99TMC2     H 1545   1.701   3.067   2.232  0.6887 -0.8810 -1.8344
   99TMC2    H1 1546   1.342   2.956   2.011  2.0573 -2.7845 -0.4488
   99TMC2    H2 1547   1.337   2.970   2.450  2.8094 -1.7987  2.0137
   99TMC2    C7 1548   1.195   2.919   2.243 -0.3364 -0.1413  0.5841
   99TMC2    C8 1549   1.604   2.995   2.469  0.2390  0.5233 -0.0979
   99TMC2    O1 1550   1.144   2.946   2.350  0.0136  0.2275  0.0774
   99TMC2    O2 1551   1.713   3.046   2.476  0.1356  0.2415  0.0291
   99TMC2    O5 1552   1.543   2.924   2.563  0.2461  0.0443  0.1341
   99TMC2    H5 1553   1.475   2.862   2.528  0.8557  0.0686 -1.0842
  100MPD2     C 1554   1.713   2.975   1.702 -0.1246  0.0954 -0.1724
  100MPD2    C1 1555   1.597   2.913   1.746 -0.5367  0.0636 -0.4854
  100MPD2    C2 1556   1.515   2.843   1.655 -0.1601  0.2680 -0.3598
  100MPD2    C3 1557   1.549   2.838   1.524 -0.4423  0.5022 -0.1761
  100MPD2    C4 1558   1.675   2.886   1.484 -0.1148 -0.2114 -0.4382
  100MPD2    C5 1559   1.748   2.952   1.576  0.0572 -0.5708 -0.3450
  100MPD2     H 1560   1.416   2.810   1.684 -0.5286  0.9153 -0.8861
  100MPD2    H1 1561   1.709   2.886   1.381 -0.2936 -0.0884 -0.4969
  100MPD2    H2 1562   1.772   3.047   1.759  0.7435 -1.2520  0.6286
  100MPD2    H3 1563   1.846   2.993   1.554  0.0431 -0.0161  0.6393
  100MPD2     N 1564   1.448   2.778   1.439 -0.2561  0.6025 -0.8940
  100MPD2    H5 1565   1.352   2.757   1.465  0.2779  1.3017  1.6549
  100MPD2    N1 1566   1.546   2.937   1.876 -0.8674 -0.3659  0.0168
  100MPD2    H7 1567   1.451   2.902   1.891  0.7090 -5.3098 -1.5690
  101TMC2    C1 1568   1.207   3.927  12.889  0.7320 -0.4377  0.2344
  101TMC2    C2 1569   1.150   3.889  12.771  0.4716 -0.5815 -0.9245
  101TMC2    C3 1570   1.201   3.935  12.652  0.1351 -0.0892 -0.2824
  101TMC2    C4 1571   1.312   4.015  12.894  0.2284  0.2908 -0.5419
  101TMC2    C5 1572   1.367   4.051  12.768  0.8286 -0.2118  0.8827
  101TMC2    C6 1573   1.310   4.018  12.647 -0.8051 -1.3089  0.7272
  101TMC2     C 1574   1.231   3.824  12.988 -0.0597  0.2142 -0.0458
  101TMC2     O 1575   1.161   3.725  12.980 -0.0836 -0.1086  0.3109
  101TMC2     H 1576   1.069   3.818  12.781  0.7191 -0.6536  0.4459
  101TMC2    H1 1577   1.337   4.052  12.993 -1.1975  2.2147 -0.8965
  101TMC2    H2 1578   1.365   4.038  12.555  0.2793 -2.9933  1.0140
  101TMC2    C7 1579   1.511   4.072  12.762 -0.6243  0.1489  0.8807
  101TMC2    C8 1580   1.132   3.905  12.529 -0.5291 -0.7473 -0.1739
  101TMC2    O1 1581   1.562   4.029  12.662  0.0155 -0.7925  1.1127
  101TMC2    O2 1582   1.046   3.818  12.522  0.3324  0.2768  0.0831
  101TMC2    O5 1583   1.152   4.004  12.443 -0.4065  0.2900  0.1091
  101TMC2    H5 1584   1.188   4.082  12.491  1.6304  0.5308 -1.8133
  102MPD2     C 1585   1.529   3.749  13.178 -0.3747 -0.3671  0.1590
  102MPD2    C1 1586   1.399   3.739  13.153  0.0819  0.7802  0.2143
  102MPD2    C2 1587   1.314   3.675  13.244 -0.3396 -0.3423  0.6833
  102MPD2    C3 1588   1.367   3.610  13.352  0.2335  0.4587 -0.3081
  102MPD2    C4 1589   1.501   3.612  13.375  0.8856  0.7748  0.1686
  102MPD2    C5 1590   1.582   3.679  13.285  0.5191  0.1014  0.9825
  102MPD2     H 1591   1.208   3.680  13.225 -0.3959 -1.6301  0.6556
  102MPD2    H1 1592   1.552   3.558  13.454  1.2464  1.4494  0.3972
  102MPD2    H2 1593   1.601   3.800  13.115 -1.0223 -0.9279 -1.0396
  102MPD2    H3 1594   1.690   3.671  13.292  0.5568 -1.8555 -1.9483
  102MPD2     N 1595   1.278   3.557  13.444  0.2282 -0.1674  0.5485
  102MPD2    H5 1596   1.180   3.569  13.423 -0.1105 -2.4656  0.8289
  102MPD2    N1 1597   1.357   3.826  13.048  0.2552 -0.2892 -0.0510
  102MPD2    H7 1598   1.426   3.892  13.012 -0.0357  0.2300  0.3549
  103TMC2    C1 1599   0.088   3.765  12.763 -0.2233  0.0051  1.0886
  103TMC2    C2 1600   0.214   3.815  12.787  0.0742  0.3250 -0.3391
  103TMC2    C3 1601   0.261   3.803  12.917  0.4923 -0.3292 -0.5905
  103TMC2    C4 1602   0.015   3.704  12.862 -0.1419 -0.1669 -0.0769
  103TMC2    C5 1603   0.059   3.702  12.994  0.7458  0.5875 -0.8942
  103TMC2    C6 1604   0.189   3.743  13.025 -0.4616  0.1888  0.1147
  103TMC2     C 1605   0.038   3.769  12.625 -0.7427  0.0001 -0.1412
  103TMC2     O 1606   4.680   3.691  12.608  0.1869 -0.7275 -0.3689
  103TMC2     H 1607   0.277   3.855  12.708  1.9759 -1.0051  0.5145
  103TMC2    H1 1608   4.646   3.681  12.842  0.3813 -3.6440  1.2388
  103TMC2    H2 1609   0.230   3.742  13.125  0.6298 -1.1655 -0.3430
  103TMC2    C7 1610   4.689   3.718  13.090  0.3632  0.2513  0.1056
  103TMC2    C8 1611   0.411   3.822  12.929  0.0828 -0.5636 -0.2202
  103TMC2    O1 1612   4.573   3.703  13.051  0.0880  0.1223 -0.4503
  103TMC2    O2 1613   0.487   3.759  12.856  0.9137  0.0549 -0.0307
  103TMC2    O5 1614   0.426   3.829  13.063  0.0588 -0.5068  0.1488
  103TMC2    H5 1615   0.358   3.884  13.107  0.7140  0.7006 -0.3672
  104MPD2     C 1616   0.109   3.986  12.331 -0.1061  0.3993 -0.3100
  104MPD2    C1 1617   0.042   3.886  12.403 -0.2934 -0.2218 -0.2085
  104MPD2    C2 1618   4.678   3.815  12.342 -0.6298  0.5885  1.2470
  104MPD2    C3 1619   4.622   3.851  12.219  0.3176  0.2444  0.5433
  104MPD2    C4 1620   4.683   3.956  12.158 -0.2538 -0.3960  0.3899
  104MPD2    C5 1621   0.062   4.017  12.207 -0.0947 -0.0907  0.4110
  104MPD2     H 1622   4.630   3.733  12.393 -2.5379  0.7503 -0.3077
  104MPD2    H1 1623   4.643   3.993  12.065  1.4138  1.8429  0.5803
  104MPD2    H2 1624   0.198   4.034  12.370  0.6948  0.8708 -2.7170
  104MPD2    H3 1625   0.116   4.095  12.155 -0.1704 -0.1093  0.3054
  104MPD2     N 1626   4.500   3.797  12.179 -0.5490 -0.0130 -0.0376
  104MPD2    H5 1627   4.477   3.712  12.230 -1.7736  0.6632  0.5144
  104MPD2    N1 1628   0.090   3.867  12.540 -0.0713 -0.1698  0.2754
  104MPD2    H7 1629   0.163   3.932  12.567  0.0839 -0.9620  1.7598
  105TMC2    C1 1630   1.277   3.077   0.008 -0.3426  0.5642 -0.4170
  105TMC2    C2 1631   1.358   3.183   0.002  0.0556  0.3797  0.8546
  105TMC2    C3 1632   1.319   3.301   0.047  0.7305  0.4874 -0.1255
  105TMC2    C4 1633   1.158   3.083   0.076  1.0559 -0.4670 -0.0709
  105TMC2    C5 1634   1.127   3.205   0.136 -0.7243  0.3219 -0.1956
  105TMC2    C6 1635   1.206   3.318   0.127  0.1377 -0.3219 -0.8922
  105TMC2     C 1636   1.332   2.948  17.702  0.0233 -0.1484 -0.3089
  105TMC2     O 1637   1.253   2.854  17.706 -0.2322  0.1095  0.5175
  105TMC2     H 1638   1.452   3.184  17.688  0.1211  1.0848  0.9876
  105TMC2    H1 1639   1.096   2.995   0.091  0.0771 -0.1588 -2.3486
  105TMC2    H2 1640   1.167   3.416   0.153 -0.2140 -0.3559 -1.2913
  105TMC2    C7 1641   0.997   3.205   0.209 -0.8699 -0.0491 -0.2090
  105TMC2    C8 1642   1.418   3.396   0.041  0.4312 -0.2337  0.3914
  105TMC2    O1 1643   0.907   3.129   0.189 -0.0165  0.2426  0.1910
  105TMC2    O2 1644   1.493   3.423  17.687 -0.2075  0.3259 -0.3830
  105TMC2    O5 1645   1.385   3.488   0.131  0.0203 -0.6236  0.5843
  105TMC2    H5 1646   1.339   3.454   0.210 -1.1328 -2.9717 -1.0973
  106MPD2     C 1647   1.728   2.625  17.567 -0.6657  0.1182  0.1572
  106MPD2    C1 1648   1.762   2.756  17.541 -0.5463  0.0420 -0.5222
  106MPD2    C2 1649   1.672   2.861  17.581  0.2376 -0.0164 -0.0543
  106MPD2    C3 1650   1.548   2.836  17.631  0.0343  0.0008 -0.2268
  106MPD2    C4 1651   1.520   2.701  17.664  0.3112  0.0878 -0.1968
  106MPD2    C5 1652   1.610   2.599  17.630 -0.0861  0.5722  0.1663
  106MPD2     H 1653   1.701   2.963  17.559  0.6571 -0.0805  0.2208
  106MPD2    H1 1654   1.431   2.667  17.717  0.2524  1.9822  0.9482
  106MPD2    H2 1655   1.795   2.546  17.536 -1.1719 -1.3981  2.9600
  106MPD2    H3 1656   1.588   2.500  17.666  0.5000 -0.1417 -1.4377
  106MPD2     N 1657   1.469   2.951  17.674 -0.0527  0.1159 -0.3555
  106MPD2    H5 1658   1.517   3.040  17.661 -0.0544  0.1408 -0.1911
  106MPD2    N1 1659   1.883   2.785  17.476 -0.5389  0.2322  0.1169
  106MPD2    H7 1660   1.886   2.884  17.452  0.3900  0.7649  2.4029
  107TMC2    C1 1661   1.794   2.900  11.390  0.1059  0.3420  0.3096
  107TMC2    C2 1662   1.843   2.938  11.269  0.4472 -0.0227 -0.3625
  107TMC2    C3 1663   1.940   2.865  11.214 -0.0638  0.1720 -0.1864
  107TMC2    C4 1664   1.838   2.784  11.445  0.6616 -0.3858  0.5601
  107TMC2    C5 1665   1.932   2.704  11.378 -0.4473 -0.0279 -0.5355
  107TMC2    C6 1666   1.987   2.748  11.260  1.0685 -0.0853  0.1752
  107TMC2     C 1667   1.673   2.965  11.428 -0.3624 -0.4774 -0.0064
  107TMC2     O 1668   1.618   3.032  11.343 -0.5534 -0.0762  0.2930
  107TMC2     H 1669   1.810   3.031  11.224  2.4475  0.6765 -0.4257
  107TMC2    H1 1670   1.786   2.747  11.533  2.0220 -3.1576  0.1927
  107TMC2    H2 1671   2.053   2.684  11.203  1.3158  1.1296 -0.9020
  107TMC2    C7 1672   1.993   2.595  11.454 -0.1508  0.0520 -0.3298
  107TMC2    C8 1673   1.971   2.891  11.075 -0.0017 -0.0758  0.3780
  107TMC2    O1 1674   1.937   2.558  11.556 -0.2110 -0.6877 -0.1731
  107TMC2    O2 1675   1.888   2.950  10.998 -0.1944 -0.2210  0.4660
  107TMC2    O5 1676   2.106   2.884  11.065 -0.3004  0.7648 -0.4042
  107TMC2    H5 1677   2.147   2.853  11.149 -0.9574 -2.9312 -1.4406
  108MPD2     C 1678   1.433   3.077  11.577 -0.5203 -0.3171  0.2697
  108MPD2    C1 1679   1.529   2.995  11.635  0.4001  0.4440  0.2835
  108MPD2    C2 1680   1.514   2.969  11.771 -0.1346  0.4304  1.1309
  108MPD2    C3 1681   1.411   3.029  11.839 -0.2247 -0.0582  0.2634
  108MPD2    C4 1682   1.331   3.118  11.776 -0.1970  0.1686 -0.2739
  108MPD2    C5 1683   1.341   3.151  11.644 -0.6374  0.0105 -0.4262
  108MPD2     H 1684   1.582   2.897  11.814 -2.2117 -2.5941 -0.6442
  108MPD2    H1 1685   1.250   3.165  11.830  1.6035  2.2054  0.6731
  108MPD2    H2 1686   1.438   3.094  11.470  0.4869 -0.1695  0.3419
  108MPD2    H3 1687   1.260   3.211  11.603 -0.4901  0.2825 -0.3202
  108MPD2     N 1688   1.375   2.997  11.966 -0.1929  1.2440 -0.8425
  108MPD2    H5 1689   1.292   3.047  11.996 -1.3754 -1.0746 -0.1975
  108MPD2    N1 1690   1.646   2.950  11.568  0.1670 -0.0541  0.2651
  108MPD2    H7 1691   1.710   2.899  11.628  0.0751 -0.4865 -0.0021
  109TMC2    C1 1692   2.984   1.215   2.621  0.1310 -0.1186  0.0582
  109TMC2    C2 1693   3.026   1.262   2.745 -0.1129  0.4100  0.5614
  109TMC2    C3 1694   3.078   1.388   2.743 -0.1851  0.2449 -0.2911
  109TMC2    C4 1695   3.005   1.281   2.505 -0.1019 -0.4123 -0.0551
  109TMC2    C5 1696   3.056   1.410   2.511 -0.7098 -0.7842 -1.0751
  109TMC2    C6 1697   3.098   1.463   2.628  0.0396  0.6567  0.9719
  109TMC2     C 1698   2.929   1.080   2.617  0.2871  0.3107  0.0920
  109TMC2     O 1699   2.931   1.018   2.724 -0.1603 -0.2774 -0.3230
  109TMC2     H 1700   3.011   1.210   2.839  1.3486 -0.9320  0.0526
  109TMC2    H1 1701   2.952   1.263   2.412 -2.0856  3.2599  0.3174
  109TMC2    H2 1702   3.173   1.542   2.627 -0.2841  0.8875 -3.4165
  109TMC2    C7 1703   3.071   1.487   2.383  0.1510  1.0439  0.0611
  109TMC2    C8 1704   3.154   1.433   2.861 -0.5546  0.2985  0.6874
  109TMC2    O1 1705   3.062   1.422   2.282  0.0485  0.0909  0.2635
  109TMC2    O2 1706   3.268   1.469   2.849 -0.3563  0.3675  0.1391
  109TMC2    O5 1707   3.102   1.370   2.968 -0.0975  0.0475 -0.5419
  109TMC2    H5 1708   3.005   1.362   2.956 -0.4654  1.2938  1.6628
  110MPD2     C 1709   2.751   0.648   2.411 -0.4603  0.6082 -0.4352
  110MPD2    C1 1710   2.803   0.724   2.308  0.3969 -1.0667 -0.6413
  110MPD2    C2 1711   2.847   0.854   2.337  0.6484 -0.2534  0.1203
  110MPD2    C3 1712   2.847   0.902   2.467  0.2970  1.0194  0.0088
  110MPD2    C4 1713   2.798   0.818   2.569  0.0091 -0.3910 -0.4770
  110MPD2    C5 1714   2.757   0.689   2.539 -0.2671  0.7340  0.4385
  110MPD2     H 1715   2.873   0.923   2.258 -1.9608  0.3342 -0.2070
  110MPD2    H1 1716   2.790   0.845   2.674 -1.2844  0.9128 -0.9121
  110MPD2    H2 1717   2.705   0.550   2.398  1.1388 -0.2153  0.0178
  110MPD2    H3 1718   2.724   0.628   2.622 -0.0378 -1.7521 -1.3021
  110MPD2     N 1719   2.903   1.028   2.492  0.1118  0.0469 -0.2780
  110MPD2    H5 1720   2.932   1.079   2.410  0.7277  0.3323  0.1125
  110MPD2    N1 1721   2.799   0.672   2.176 -0.3009  0.1118  0.4464
  110MPD2    H7 1722   2.753   0.582   2.169  1.0452 -0.3454 -2.5387
  111TMC2    C1 1723   1.895   4.085  11.453  0.2105  1.0791 -0.5812
  111TMC2    C2 1724   1.963   4.046  11.342  0.5532  0.1934  0.3461
  111TMC2    C3 1725   2.089   3.999  11.364 -0.3008 -0.0333  1.2855
  111TMC2    C4 1726   1.948   4.087  11.580  0.1675 -0.4509  0.7590
  111TMC2    C5 1727   2.076   4.036  11.596  0.2594  0.7000  0.0453
  111TMC2    C6 1728   2.145   3.988  11.491  0.1258 -0.1567 -0.0375
  111TMC2     C 1729   1.775   4.169  11.423  0.9610 -0.1779 -0.0933
  111TMC2     O 1730   1.731   4.158  11.310 -0.4995  0.4714 -0.2818
  111TMC2     H 1731   1.918   4.045  11.243  0.0465  0.2985  0.5738
  111TMC2    H1 1732   1.894   4.125  11.666  0.5566  2.7692 -0.4307
  111TMC2    H2 1733   2.249   3.958  11.502  0.4759  0.9298 -0.3420
  111TMC2    C7 1734   2.131   4.031  11.727 -0.8021  0.1939 -0.2720
  111TMC2    C8 1735   2.179   3.979  11.251  0.4373 -0.8940  0.1317
  111TMC2    O1 1736   2.062   4.077  11.817  0.1277 -0.2468 -0.0379
  111TMC2    O2 1737   2.277   3.907  11.263 -0.0909 -0.3014 -0.1459
  111TMC2    O5 1738   2.132   4.040  11.141 -0.5675  0.5636 -0.2504
  111TMC2    H5 1739   2.065   4.109  11.161 -0.5068  0.2204  1.1625
  112MPD2     C 1740   1.375   4.479  11.510 -0.7127 -0.8593  0.1635
  112MPD2    C1 1741   1.439   4.442  11.398  0.5947  0.1389 -0.3065
  112MPD2    C2 1742   1.544   4.354  11.401  0.7456 -0.1700 -0.2516
  112MPD2    C3 1743   1.599   4.310  11.524 -1.0501 -1.2570 -0.6200
  112MPD2    C4 1744   1.533   4.351  11.635  0.2844 -0.5233 -0.0532
  112MPD2    C5 1745   1.430   4.433  11.630  0.4528 -0.5940  0.2134
  112MPD2     H 1746   1.593   4.330  11.306 -1.1438  0.2045 -1.3144
  112MPD2    H1 1747   1.586   4.330  11.727  0.1109 -0.0503  0.1548
  112MPD2    H2 1748   1.289   4.545  11.508 -0.8840 -0.9978  3.4724
  112MPD2    H3 1749   1.376   4.456  11.721  1.6858  0.2488  0.7318
  112MPD2     N 1750   1.716   4.229  11.534 -0.5204  0.4185 -0.5066
  112MPD2    H5 1751   1.754   4.206  11.625 -1.1297  0.6350 -0.1959
  112MPD2    N1 1752   1.397   4.485  11.270 -0.3000  0.8756  0.3683
  112MPD2    H7 1753   1.459   4.480  11.189 -0.4606 -0.1212  0.3039
  113TMC2    C1 1754   4.713   2.899   0.768 -0.1652 -1.1819  0.0350
  113TMC2    C2 1755   4.585   2.956   0.784  0.4289  0.8316 -0.4235
  113TMC2    C3 1756   4.481   2.886   0.715  0.4432  0.0723 -0.5839
  113TMC2    C4 1757   4.734   2.781   0.705  0.4885 -0.5649  0.1281
  113TMC2    C5 1758   4.625   2.720   0.639  0.2471 -0.6912  0.2509
  113TMC2    C6 1759   4.503   2.776   0.634 -0.1462  0.1442  0.6295
  113TMC2     C 1760   0.088   2.971   0.839 -0.1558  0.2813  0.4800
  113TMC2     O 1761   0.050   3.059   0.912 -0.0677  0.3265 -0.6736
  113TMC2     H 1762   4.558   3.041   0.845 -0.8608 -0.2578  0.5261
  113TMC2    H1 1763   0.089   2.721   0.703  0.3168 -0.8170 -0.1931
  113TMC2    H2 1764   4.417   2.727   0.587 -1.2949  2.9403 -0.2014
  113TMC2    C7 1765   4.630   2.580   0.609 -0.1380  0.2844  0.2980
  113TMC2    C8 1766   4.353   2.939   0.731 -0.7974 -0.6834  0.5831
  113TMC2    O1 1767   4.583   2.537   0.504 -0.5652 -0.3208 -0.2520
  113TMC2    O2 1768   4.322   3.020   0.817  0.2750 -0.5135  0.4076
  113TMC2    O5 1769   4.304   2.951   0.599 -0.0822 -0.0859  0.0339
  113TMC2    H5 1770   4.244   3.026   0.581 -0.8000 -0.3542  1.3132
  114MPD2     C 1771   0.579   3.019   0.972 -0.8832  0.2279  0.2314
  114MPD2    C1 1772   0.471   3.112   0.983  0.1894  0.1770 -0.0560
  114MPD2    C2 1773   0.349   3.082   0.932  0.0779  0.6460  0.7085
  114MPD2    C3 1774   0.334   2.960   0.865 -0.3268  0.1641 -0.3365
  114MPD2    C4 1775   0.439   2.875   0.852 -0.0112 -0.2150  0.7861
  114MPD2    C5 1776   0.560   2.902   0.905 -0.7085 -0.1662 -0.8748
  114MPD2     H 1777   0.270   3.154   0.951  0.0435  0.4437  1.3169
  114MPD2    H1 1778   0.423   2.777   0.810  1.6978 -0.4975  0.7667
  114MPD2    H2 1779   0.676   3.026   1.021 -1.0326  0.4505  0.4946
  114MPD2    H3 1780   0.642   2.831   0.900 -0.3620  0.2510 -1.1057
  114MPD2     N 1781   0.206   2.909   0.823 -0.3820  0.3658 -0.0973
  114MPD2    H5 1782   0.201   2.812   0.793  1.4156  0.2713 -0.1026
  114MPD2    N1 1783   0.480   3.227   1.060 -0.0203  0.7478  0.1997
  114MPD2    H7 1784   0.393   3.279   1.073 -0.3120  0.0623  0.9949
  115TMC2    C1 1785   0.653   0.405   0.117 -0.7623  0.0885  0.0809
  115TMC2    C2 1786   0.640   0.344   0.246  0.0491  0.5969 -0.3064
  115TMC2    C3 1787   0.678   0.417   0.351  0.3374  0.4124  0.0272
  115TMC2    C4 1788   0.708   0.531   0.096 -0.8195 -0.2392 -0.3197
  115TMC2    C5 1789   0.735   0.593   0.211 -1.0223 -0.6505  0.6822
  115TMC2    C6 1790   0.728   0.543   0.331 -0.3565  0.1969 -0.1381
  115TMC2     C 1791   0.629   0.317   0.004 -0.1706  0.4657 -0.1862
  115TMC2     O 1792   0.669   0.356  17.634 -0.2646 -0.1613 -0.1696
  115TMC2     H 1793   0.624   0.237   0.255 -0.5046  0.7210  0.1943
  115TMC2    H1 1794   0.696   0.583   0.002  0.9307  1.3123  0.3127
  115TMC2    H2 1795   0.761   0.601   0.416  0.2400  1.3785 -1.1801
  115TMC2    C7 1796   0.706   0.735   0.222 -0.6442  0.4590 -0.0478
  115TMC2    C8 1797   0.685   0.357   0.483  0.1569 -0.1779  0.6134
  115TMC2    O1 1798   0.617   0.752   0.303  0.3686  0.8382  0.4287
  115TMC2    O2 1799   0.751   0.398   0.574 -0.0778  0.0040 -0.1064
  115TMC2    O5 1800   0.571   0.285   0.490 -0.3610  0.1884 -0.4352
  115TMC2    H5 1801   0.515   0.275   0.410  0.3612 -0.4596 -0.8594
  116MPD2     C 1802   0.413   4.671  17.491  0.0337 -0.2047  0.6880
  116MPD2    C1 1803   0.537   4.727  17.469 -0.2496 -0.1843 -0.4107
  116MPD2    C2 1804   0.578   0.090  17.555 -0.2922  0.3652  0.4287
  116MPD2    C3 1805   0.503   0.121  17.672 -0.4660 -0.0629 -0.0064
  116MPD2    C4 1806   0.382   0.060  17.696  0.2968  0.3736  0.6561
  116MPD2    C5 1807   0.340   4.707  17.598 -0.5841  0.2332 -0.0840
  116MPD2     H 1808   0.670   0.144  17.538 -0.8162  0.8962 -0.7646
  116MPD2    H1 1809   0.330   0.070   0.051 -0.3666  0.2332  0.3028
  116MPD2    H2 1810   0.374   4.597  17.422  0.0605  0.1787  0.2654
  116MPD2    H3 1811   0.238   4.671  17.608 -0.3527  0.1106  1.7931
  116MPD2     N 1812   0.538   0.216   0.027 -0.3380 -0.0607 -0.1629
  116MPD2    H5 1813   0.493   0.198   0.116  2.2996 -0.7597  1.0571
  116MPD2    N1 1814   0.599   4.696  17.343  0.0182 -0.1803 -0.2213
  116MPD2    H7 1815   0.550   4.642  17.272 -0.2800  0.4952 -0.5299
  117TMC2    C1 1816   0.053   1.384  13.678  0.3044  0.7153 -0.8684
  117TMC2    C2 1817   0.182   1.345  13.683  0.0380 -0.6887  0.7995
  117TMC2    C3 1818   0.271   1.426  13.737  0.6214 -0.3922  0.5055
  117TMC2    C4 1819   0.016   1.504  13.730 -0.3059  0.3732 -0.0248
  117TMC2    C5 1820   0.105   1.581  13.795  0.3649 -0.2411  0.1362
  117TMC2    C6 1821   0.238   1.541  13.804 -0.2345  0.6662 -0.4207
  117TMC2     C 1822   4.693   1.281  13.676 -0.1468  0.1477 -0.0845
  117TMC2     O 1823   4.732   1.169  13.706  0.2023 -0.2193  0.3790
  117TMC2     H 1824   0.208   1.245  13.649 -2.2865 -0.9660 -0.2200
  117TMC2    H1 1825   4.645   1.524  13.729 -0.0260  1.9181  0.8246
  117TMC2    H2 1826   0.307   1.607  13.856  1.3638 -2.1402  1.0497
  117TMC2    C7 1827   0.074   1.718  13.839 -0.0448  0.0617  0.4939
  117TMC2    C8 1828   0.407   1.372  13.735  0.6437  0.1076 -0.7141
  117TMC2    O1 1829   0.167   1.796  13.822  0.1582  0.0808 -0.8142
  117TMC2    O2 1830   0.429   1.252  13.713  0.5817  0.0064  0.7237
  117TMC2    O5 1831   0.495   1.464  13.785 -0.3410 -0.0543 -0.0085
  117TMC2    H5 1832   0.482   1.550  13.739 -1.3216  0.6723  1.5971
  118MPD2     C 1833   4.491   1.873  13.875  0.2068  0.6869  0.0268
  118MPD2    C1 1834   4.626   1.865  13.888 -0.5453  0.8709 -1.0311
  118MPD2    C2 1835   4.692   1.974  13.938  0.2628 -0.4116 -0.2192
  118MPD2    C3 1836   4.619   2.091  13.964 -0.3280  0.7172 -0.0932
  118MPD2    C4 1837   4.486   2.102  13.933 -0.7237 -0.6119 -0.3777
  118MPD2    C5 1838   4.421   1.991  13.884 -0.6430  0.2601 -0.1684
  118MPD2     H 1839   0.059   1.957  13.972 -1.0134  0.6407  4.1414
  118MPD2    H1 1840   4.432   2.195  13.945 -0.4552 -0.1705 -2.7437
  118MPD2    H2 1841   4.435   1.782  13.853  1.7542 -0.2254 -0.1401
  118MPD2    H3 1842   4.318   2.006  13.853 -0.9288 -1.3560  0.0250
  118MPD2     N 1843   4.684   2.204  14.023  0.4425 -0.1376 -0.3868
  118MPD2    H5 1844   4.633   2.292  14.025  2.3416  0.8949  2.1853
  118MPD2    N1 1845   4.684   1.735  13.869  0.7162 -0.2980  0.4388
  118MPD2    H7 1846   4.625   1.655  13.888  1.6504 -1.5387 -1.9369
  119TMC2    C1 1847   2.631   2.456  14.348  0.0686 -0.2116 -0.6134
  119TMC2    C2 1848   2.640   2.561  14.434 -0.3267 -0.4394  0.4296
  119TMC2    C3 1849   2.648   2.528  14.567 -0.6242  0.5126  0.2861
  119TMC2    C4 1850   2.621   2.327  14.387  0.2904 -1.1489 -0.0391
  119TMC2    C5 1851   2.631   2.305  14.522 -0.4039  0.2728 -0.3413
  119TMC2    C6 1852   2.648   2.406  14.616  0.3446 -0.3941  0.3864
  119TMC2     C 1853   2.613   2.491  14.206 -0.2473 -0.4220 -0.3206
  119TMC2     O 1854   2.582   2.606  14.171  0.3240 -0.0746  0.4670
  119TMC2     H 1855   2.637   2.663  14.397  0.9929 -0.8758 -0.8692
  119TMC2    H1 1856   2.610   2.251  14.310 -0.6174 -1.9828  0.9238
  119TMC2    H2 1857   2.643   2.396  14.723 -0.5962  1.8681  0.5494
  119TMC2    C7 1858   2.599   2.172  14.579  0.1024 -0.3742  0.1548
  119TMC2    C8 1859   2.690   2.637  14.647  0.1238  0.3355 -0.4310
  119TMC2    O1 1860   2.645   2.150  14.693 -0.0411  0.6144 -0.0623
  119TMC2    O2 1861   2.734   2.609  14.758 -0.2835  0.2695 -0.0404
  119TMC2    O5 1862   2.587   2.731  14.638  0.3980  0.1359  0.0876
  119TMC2    H5 1863   2.525   2.719  14.564  1.4044 -0.5760 -0.6282
  120MPD2     C 1864   2.702   2.362  13.704 -0.5769  0.1870  0.4108
  120MPD2    C1 1865   2.639   2.470  13.761 -0.4575 -0.0093  0.2743
  120MPD2    C2 1866   2.632   2.490  13.901  0.5260  0.0153 -0.3016
  120MPD2    C3 1867   2.682   2.391  13.980  0.4344  0.6542  0.2341
  120MPD2    C4 1868   2.742   2.282  13.919  0.7551 -0.9428  0.6533
  120MPD2    C5 1869   2.746   2.264  13.785 -0.2584  0.6986 -0.3818
  120MPD2     H 1870   2.587   2.581  13.939  2.7673  1.5454 -1.2685
  120MPD2    H1 1871   2.788   2.212  13.987  1.6901 -3.0156 -2.1135
  120MPD2    H2 1872   2.717   2.356  13.597 -3.5754  0.2341  0.0027
  120MPD2    H3 1873   2.791   2.172  13.749  0.1607  0.8741 -0.3040
  120MPD2     N 1874   2.661   2.389  14.122  0.0318  0.1705 -0.3432
  120MPD2    H5 1875   2.694   2.309  14.175 -0.2659  0.4766  0.3018
  120MPD2    N1 1876   2.592   2.565  13.674  0.0348  0.9379 -0.2256
  120MPD2    H7 1877   2.629   2.568  13.580  1.2474  1.6837  0.2772
  121TMC2    C1 1878   4.418   4.108  13.764  0.0747  0.5871 -0.7728
  121TMC2    C2 1879   4.386   4.052  13.886 -0.1584  0.6711  0.1719
  121TMC2    C3 1880   4.271   3.971  13.892 -0.5819  0.3069  0.4743
  121TMC2    C4 1881   4.331   4.106  13.658  0.0765  0.0114 -0.4896
  121TMC2    C5 1882   4.224   4.018  13.668  0.4141  0.7926 -0.0547
  121TMC2    C6 1883   4.194   3.953  13.776 -0.3847 -0.1167  0.2074
  121TMC2     C 1884   4.534   4.195  13.775 -0.3227 -0.3192 -0.5277
  121TMC2     O 1885   4.614   4.177  13.869  0.3868 -0.0559 -0.4113
  121TMC2     H 1886   4.430   4.091  13.977 -0.0397 -2.6429  1.5174
  121TMC2    H1 1887   4.347   4.147  13.559  1.4518 -1.4373 -0.8806
  121TMC2    H2 1888   4.131   3.864  13.772 -1.5079  0.6086  2.0754
  121TMC2    C7 1889   4.128   4.012  13.552 -0.1110  0.1455  0.5843
  121TMC2    C8 1890   4.228   3.933  14.022  0.3755 -0.4885  0.1602
  121TMC2    O1 1891   4.173   4.040  13.441  0.6274  0.5134 -0.2852
  121TMC2    O2 1892   4.247   4.012  14.121  0.3663  0.1198 -0.5328
  121TMC2    O5 1893   4.277   3.811  14.019  0.6446  0.0021 -0.2872
  121TMC2    H5 1894   4.268   3.764  13.933  2.6566 -0.2809 -0.3385
  122MPD2     C 1895   4.658   4.466  13.813  0.6457  0.1026  0.0702
  122MPD2    C1 1896   4.606   4.420  13.688  0.1358 -0.4940  0.0056
  122MPD2    C2 1897   4.632   4.492  13.571 -0.4947  0.2875 -0.3301
  122MPD2    C3 1898   4.701   4.614  13.573 -0.0500 -0.0261  0.0467
  122MPD2    C4 1899   0.023   4.658  13.693  0.1838  0.6922 -0.0069
  122MPD2    C5 1900   4.730   4.588  13.807 -0.3676  0.1101 -0.5657
  122MPD2     H 1901   4.604   4.452  13.475  1.5430  0.0570 -0.8254
  122MPD2    H1 1902   0.066   0.021  13.707  0.5311  0.6336 -0.6548
  122MPD2    H2 1903   4.646   4.409  13.905 -1.4911  0.1844 -0.1750
  122MPD2    H3 1904   0.032   4.630  13.900  1.0500 -2.3797  0.0074
  122MPD2     N 1905   4.698   4.702  13.461 -0.2995  0.1805 -0.4237
  122MPD2    H5 1906   4.712   0.066  13.481  2.9969 -0.3317 -0.0963
  122MPD2    N1 1907   4.538   4.295  13.683 -0.2880  0.0646 -0.4393
  122MPD2    H7 1908   4.489   4.269  13.598 -2.2244  2.7594 -0.1599
  123TMC2    C1 1909   2.171   3.444  10.208 -0.3537 -0.4050  0.3380
  123TMC2    C2 1910   2.288   3.486  10.151  0.2524 -0.0663  0.6080
  123TMC2    C3 1911   2.323   3.451  10.026  0.5180  0.1472  0.8387
  123TMC2    C4 1912   2.085   3.356  10.145  0.0742 -0.7656 -0.4847
  123TMC2    C5 1913   2.121   3.330  10.014  0.2592  0.5825  0.4739
  123TMC2    C6 1914   2.234   3.371   9.957  0.2961 -0.6319 -0.6675
  123TMC2     C 1915   2.149   3.463  10.351  0.1951  0.4628 -0.4902
  123TMC2     O 1916   2.224   3.543  10.406 -0.5348  0.3766  0.4921
  123TMC2     H 1917   2.348   3.559  10.204 -2.2442  1.6546  1.0828
  123TMC2    H1 1918   1.984   3.338  10.180  0.1220 -0.7147 -0.3182
  123TMC2    H2 1919   2.261   3.332   9.860  0.4412 -1.1568 -0.4178
  123TMC2    C7 1920   2.033   3.244   9.944 -0.2217  0.2567  0.4875
  123TMC2    C8 1921   2.441   3.517   9.974 -0.7752 -0.2143  0.0531
  123TMC2    O1 1922   1.978   3.170  10.024 -0.4315 -0.4100  0.0972
  123TMC2    O2 1923   2.485   3.626  10.013 -0.2361 -0.1446  0.2146
  123TMC2    O5 1924   2.488   3.436   9.885 -0.1990  0.1280 -0.0165
  123TMC2    H5 1925   2.444   3.351   9.903 -0.8895  0.5634  0.3593
  124MPD2     C 1926   2.070   3.199  10.786  0.3534  0.2764  0.2577
  124MPD2    C1 1927   2.050   3.123  10.676  0.2223  0.6099  0.1144
  124MPD2    C2 1928   2.058   3.176  10.547 -0.7608  0.2325 -0.2061
  124MPD2    C3 1929   2.079   3.306  10.528  0.1257 -0.0457 -0.0670
  124MPD2    C4 1930   2.103   3.385  10.636 -0.2047  0.1491  0.1283
  124MPD2    C5 1931   2.103   3.329  10.762 -0.4624  0.6332 -0.3959
  124MPD2     H 1932   2.035   3.108  10.465 -1.6832  0.0984  0.1603
  124MPD2    H1 1933   2.131   3.489  10.622  0.1574 -0.1073 -1.0143
  124MPD2    H2 1934   2.061   3.170  10.890 -0.1748 -0.4191  0.0180
  124MPD2    H3 1935   2.119   3.402  10.840 -1.9101  0.7583 -0.1989
  124MPD2     N 1936   2.090   3.349  10.397  1.0251 -0.1448 -0.8188
  124MPD2    H5 1937   2.065   3.283  10.323 -3.8272  2.2429 -1.2568
  124MPD2    N1 1938   2.016   2.987  10.700 -0.4049  0.1190 -0.1442
  124MPD2    H7 1939   2.008   2.956  10.796  2.7818 -1.5388 -0.4308
  125TMC2    C1 1940   3.093   0.843   9.227 -0.4357  0.6009 -1.1922
  125TMC2    C2 1941   3.054   0.974   9.207  0.1620  0.6638  0.4240
  125TMC2    C3 1942   3.095   1.024   9.085  0.2253  0.0563  0.0698
  125TMC2    C4 1943   3.173   0.764   9.140 -0.4707 -0.2111 -0.2712
  125TMC2    C5 1944   3.220   0.827   9.028  0.7768 -0.8325 -0.1142
  125TMC2    C6 1945   3.168   0.954   8.995 -0.4953  0.6932 -0.0699
  125TMC2     C 1946   3.039   0.768   9.350  0.3961 -1.1311  0.4137
  125TMC2     O 1947   3.023   0.648   9.338 -0.1802  0.3969 -0.1272
  125TMC2     H 1948   2.989   1.034   9.270  0.1994  0.1508  0.9488
  125TMC2    H1 1949   3.212   0.667   9.169 -1.2672 -0.0881  1.1840
  125TMC2    H2 1950   3.202   1.002   8.903  1.0676 -2.2797 -1.0481
  125TMC2    C7 1951   3.274   0.751   8.926 -0.2364 -0.7583  0.0885
  125TMC2    C8 1952   3.028   1.145   9.037 -0.4367  0.1644 -0.9684
  125TMC2    O1 1953   3.246   0.777   8.811 -0.3566  0.1211 -0.4169
  125TMC2    O2 1954   3.087   1.235   8.980  0.6270  0.7535 -0.5297
  125TMC2    O5 1955   2.894   1.130   9.058 -1.0502 -0.0528  0.2792
  125TMC2    H5 1956   2.876   1.040   9.092 -0.0604 -0.4985 -0.3884
  126MPD1     C 1957   2.754   0.755   9.776 -0.1469 -0.0080  0.1564
  126MPD1    C1 1958   2.811   0.881   9.769 -0.4437  0.4739 -0.2551
  126MPD1    C2 1959   2.879   0.907   9.652  0.3865  0.8416 -0.3304
  126MPD1    C3 1960   2.902   0.813   9.554 -0.2247 -0.0572  0.7275
  126MPD1    C4 1961   2.866   0.682   9.577  0.3366 -0.7686  0.6542
  126MPD1    C5 1962   2.798   0.654   9.695 -0.6624 -0.2617 -0.0519
  126MPD1     H 1963   2.913   1.009   9.638  1.1360  0.6216 -0.0823
  126MPD1    H1 1964   2.896   0.600   9.513  0.1266 -0.0851 -0.3245
  126MPD1    H2 1965   2.680   0.728   9.851  0.2741 -1.5744  0.0015
  126MPD1    H3 1966   2.758   0.554   9.702 -0.2446 -0.4620 -0.5651
  126MPD1     N 1967   2.986   0.852   9.444  0.5880 -0.5650  0.5348
  126MPD1    H5 1968   3.002   0.952   9.443 -0.9937 -0.3149 -0.1545
  126MPD1    N1 1969   2.769   0.987   9.853 -0.4563  0.3685 -0.4500
  126MPD1    H6 1970   2.841   1.058   9.860  2.4391 -2.6280 -0.0070
  126MPD1    H7 1971   2.746   0.950   9.945 -0.1596  1.0640 -0.0938
  127TMC2    C1 1972   3.902   3.264  10.020  0.5545 -0.3690  0.1063
  127TMC2    C2 1973   3.990   3.171  10.056  0.0477 -0.2402  0.0831
  127TMC2    C3 1974   3.944   3.040  10.074 -0.0602  0.7756 -0.2312
  127TMC2    C4 1975   3.770   3.247  10.011 -0.0077  0.7464 -0.3551
  127TMC2    C5 1976   3.723   3.120  10.040 -0.9529  1.1634 -0.3524
  127TMC2    C6 1977   3.813   3.015  10.058  0.3959  0.4051 -0.0360
  127TMC2     C 1978   3.947   3.393   9.988 -0.3352 -0.6140  0.6163
  127TMC2     O 1979   4.052   3.434  10.041  0.8179 -0.2879 -0.0394
  127TMC2     H 1980   4.094   3.199  10.064 -0.3744  1.0025  1.2721
  127TMC2    H1 1981   3.707   3.334  10.022  0.6130  0.9941  1.3467
  127TMC2    H2 1982   3.775   2.914  10.071 -2.8547  1.3012 -2.2867
  127TMC2    C7 1983   3.580   3.118  10.060  0.3574  0.2480  0.3949
  127TMC2    C8 1984   4.044   2.936  10.084 -0.5979 -1.0688  0.5478
  127TMC2    O1 1985   3.523   3.225  10.053  0.0416 -0.3633 -0.7311
  127TMC2    O2 1986   4.156   2.943  10.032  0.4672 -0.0213 -1.0777
  127TMC2    O5 1987   3.990   2.834  10.156 -0.6495 -0.2142 -0.3783
  127TMC2    H5 1988   3.918   2.861  10.217 -0.9797 -0.4549 -0.6634
  128MPD2     C 1989   3.895   3.562   9.674  0.2229  0.9309 -0.0320
  128MPD2    C1 1990   3.924   3.554   9.810 -0.0782  0.1546 -0.5403
  128MPD2    C2 1991   3.974   3.663   9.880 -0.8778  0.6921 -0.0007
  128MPD2    C3 1992   4.007   3.778   9.810 -0.6432  0.8152  0.0099
  128MPD2    C4 1993   3.986   3.779   9.675  0.5002  0.6592  0.4544
  128MPD2    C5 1994   3.923   3.675   9.612  0.3678 -0.3140 -0.1238
  128MPD2     H 1995   3.999   3.670   9.985  1.7597 -2.7387 -0.3958
  128MPD2    H1 1996   4.015   3.864   9.614 -3.0103  0.1493 -1.9504
  128MPD2    H2 1997   3.857   3.474   9.623  2.4084 -0.7871  1.3106
  128MPD2    H3 1998   3.892   3.671   9.508  0.9504  1.0467 -0.3511
  128MPD2     N 1999   4.077   3.880   9.875  0.1371  0.2568 -0.5145
  128MPD2    H5 2000   4.112   3.869   9.970 -0.3765  0.2770 -0.3201
  128MPD2    N1 2001   3.883   3.433   9.874 -0.5623  0.0135 -0.0139
  128MPD2    H7 2002   3.824   3.368   9.822 -0.4750 -1.0640  1.2262
  129TMC2    C1 2003   3.149   4.584   1.535  0.5067  0.2393 -0.4709
  129TMC2    C2 2004   3.097   4.699   1.479 -0.1554 -0.5804 -0.5882
  129TMC2    C3 2005   3.017   4.690   1.366 -0.0542 -0.0411  0.1948
  129TMC2    C4 2006   3.130   4.464   1.479  0.2516 -0.0836  0.5651
  129TMC2    C5 2007   3.056   4.456   1.365 -0.8198  0.2647  0.6865
  129TMC2    C6 2008   2.998   4.569   1.302  0.0110 -0.9960  0.3465
  129TMC2     C 2009   3.165   4.590   1.681  0.9715  0.1047  0.6920
  129TMC2     O 2010   3.175   4.484   1.735  0.0232  0.3175 -0.0057
  129TMC2     H 2011   3.091   0.060   1.530  1.6021 -0.9621  0.3031
  129TMC2    H1 2012   3.178   4.380   1.529  0.3522 -0.2901  0.1216
  129TMC2    H2 2013   2.955   4.547   1.204 -1.8430 -3.1432  1.6518
  129TMC2    C7 2014   3.017   4.323   1.323  0.1291 -0.1534 -0.2213
  129TMC2    C8 2015   2.955   0.074   1.313 -0.0577 -0.3225  0.2280
  129TMC2    O1 2016   2.919   4.311   1.249  0.6507 -0.3984 -0.8160
  129TMC2    O2 2017   2.970   0.188   1.356  0.0289 -0.3883 -0.0039
  129TMC2    O5 2018   2.844   0.033   1.244 -0.1637 -0.6395  0.1572
  129TMC2    H5 2019   2.840   4.671   1.225  3.2092 -0.5497 -0.9615
  130MPD2     C 2020   3.119   4.663   1.959  0.5904 -0.1722  0.2555
  130MPD2    C1 2021   3.174   0.013   1.867 -0.3855 -0.0650  0.0135
  130MPD2    C2 2022   3.202   0.141   1.905 -0.0653 -0.3080  0.2778
  130MPD2    C3 2023   3.184   0.188   2.031 -0.6793 -0.2297 -0.4413
  130MPD2    C4 2024   3.134   0.097   2.123 -0.7738  0.4411  0.1207
  130MPD2    C5 2025   3.094   4.710   2.084 -0.5735  0.6263  0.6707
  130MPD2     H 2026   3.224   0.205   1.820  2.4683 -0.7379  0.6111
  130MPD2    H1 2027   3.114   0.135   2.223 -0.9971  0.3752  0.1003
  130MPD2    H2 2028   3.090   4.562   1.934  0.9623  0.0788 -1.2124
  130MPD2    H3 2029   3.062   4.634   2.154  0.8459  0.9774  1.6908
  130MPD2     N 2030   3.196   0.322   2.064  0.2584  0.5322  0.3931
  130MPD2    H5 2031   3.236   0.386   1.995  2.3710  0.5445  1.6307
  130MPD2    N1 2032   3.187   4.715   1.729 -0.0200 -0.4399 -0.4502
  130MPD2    H7 2033   3.210   0.057   1.668 -0.1853 -0.2669 -0.2908
  131TMC2    C1 2034   1.544   2.909   9.791 -0.2535 -0.2402  0.3881
  131TMC2    C2 2035   1.491   2.837   9.687 -0.0601  0.3029  0.5430
  131TMC2    C3 2036   1.475   2.899   9.565 -0.1203  0.6182  0.3004
  131TMC2    C4 2037   1.581   3.037   9.769 -0.5521  0.4560  0.0146
  131TMC2    C5 2038   1.561   3.094   9.644  0.2232  0.2882 -0.0463
  131TMC2    C6 2039   1.513   3.025   9.541 -0.0557  0.3974  0.7081
  131TMC2     C 2040   1.562   2.849   9.919  0.4945 -0.1589  0.5152
  131TMC2     O 2041   1.649   2.887   9.993 -0.3983  0.0453  0.9257
  131TMC2     H 2042   1.464   2.732   9.690 -0.0162  0.3461  2.0800
  131TMC2    H1 2043   1.629   3.089   9.852 -1.8364  1.2437  0.2532
  131TMC2    H2 2044   1.509   3.073   9.443  0.3823 -0.2526  0.3721
  131TMC2    C7 2045   1.572   3.237   9.630  0.4695 -0.6554 -0.9865
  131TMC2    C8 2046   1.441   2.827   9.448  0.1476  0.3933  0.3707
  131TMC2    O1 2047   1.496   3.289   9.545 -0.5917  0.2676 -0.4835
  131TMC2    O2 2048   1.489   2.861   9.340  0.0711 -0.3169 -0.2653
  131TMC2    O5 2049   1.393   2.707   9.481  0.1131  0.1713 -0.2600
  131TMC2    H5 2050   1.346   2.723   9.566  0.1512  0.2486 -0.2536
  132MPD2     C 2051   1.371   2.579  10.074 -0.4509  0.1650 -0.1700
  132MPD2    C1 2052   1.464   2.679  10.062  0.2921 -0.1186  0.0389
  132MPD2    C2 2053   1.544   2.687  10.171 -0.3975  0.2172 -0.4051
  132MPD2    C3 2054   1.538   2.611  10.286  0.0416  0.2000 -0.7048
  132MPD2    C4 2055   1.438   2.518  10.300 -0.0344  0.0021  0.3575
  132MPD2    C5 2056   1.357   2.506  10.188  0.3645 -0.6613 -0.1372
  132MPD2     H 2057   1.620   2.764  10.166 -0.7116  0.5669  0.2542
  132MPD2    H1 2058   1.426   2.440  10.374 -4.2921 -0.3319 -0.7034
  132MPD2    H2 2059   1.304   2.551   9.993 -1.0180  3.7610 -0.9252
  132MPD2    H3 2060   1.292   2.420  10.186  0.5908 -0.7954 -2.1201
  132MPD2     N 2061   1.644   2.627  10.381  0.1140 -0.3677  0.0758
  132MPD2    H5 2062   1.730   2.672  10.351  0.1072  0.6491  1.5907
  132MPD2    N1 2063   1.470   2.748   9.941 -0.4769  0.1834  0.4774
  132MPD2    H7 2064   1.402   2.734   9.868  0.4576 -3.0020  0.2479
  133TMC2    C1 2065   1.237   2.857   9.100  0.2264 -0.5258 -0.2095
  133TMC2    C2 2066   1.216   2.743   9.031  0.2352 -0.2586  0.3365
  133TMC2    C3 2067   1.312   2.712   8.942 -0.1066 -0.0060 -0.5346
  133TMC2    C4 2068   1.340   2.937   9.096 -0.0928  0.3008  0.9264
  133TMC2    C5 2069   1.429   2.907   8.999 -0.8038 -0.1368 -0.0242
  133TMC2    C6 2070   1.415   2.797   8.921 -0.3496  0.0434  0.5757
  133TMC2     C 2071   1.148   2.875   9.219  0.2589 -0.5988  0.0166
  133TMC2     O 2072   1.086   2.779   9.268  0.2466 -0.3443 -0.0394
  133TMC2     H 2073   1.132   2.679   9.055 -1.1050  1.5345  0.3765
  133TMC2    H1 2074   1.345   3.015   9.171 -0.4283 -1.2608  2.5923
  133TMC2    H2 2075   1.491   2.762   8.852  0.1674 -0.1791  1.2562
  133TMC2    C7 2076   1.559   2.964   9.006  0.0260  0.4279  1.2328
  133TMC2    C8 2077   1.310   2.578   8.875  0.0795  0.5770  0.9603
  133TMC2    O1 2078   1.647   2.918   8.931  0.3287 -0.3935 -0.1401
  133TMC2    O2 2079   1.418   2.538   8.835 -0.2886 -0.0241  0.2464
  133TMC2    O5 2080   1.190   2.555   8.813 -0.5602 -0.6931 -0.7255
  133TMC2    H5 2081   1.111   2.593   8.858 -2.4686 -2.2372 -2.7383
  134MPD2     C 2082   0.976   2.981   9.448  0.0138 -0.3171 -0.5720
  134MPD2    C1 2083   1.043   3.060   9.353  0.9236 -0.1729 -0.7496
  134MPD2    C2 2084   1.013   3.196   9.359  0.0521 -0.4851 -0.3095
  134MPD2    C3 2085   0.939   3.249   9.462 -0.5167 -0.8149 -0.1189
  134MPD2    C4 2086   0.888   3.171   9.567  0.6050 -0.0503  0.3343
  134MPD2    C5 2087   0.909   3.040   9.554  0.0415 -0.2577  0.9465
  134MPD2     H 2088   1.053   3.264   9.284 -2.0067  0.2490 -0.7308
  134MPD2    H1 2089   0.827   3.218   9.643  0.1385  1.8058 -1.1882
  134MPD2    H2 2090   0.991   2.874   9.454  3.8152  0.3480  2.1696
  134MPD2    H3 2091   0.876   2.972   9.632  2.3196 -0.2327  1.9394
  134MPD2     N 2092   0.898   3.386   9.467  0.4500  0.1187 -0.1045
  134MPD2    H5 2093   0.846   3.419   9.548  0.4617 -2.7885  1.0616
  134MPD2    N1 2094   1.125   3.008   9.252 -0.5632  0.2037  0.0011
  134MPD2    H7 2095   1.162   3.079   9.190 -0.2384 -0.3483 -0.4265
  135TMC2    C1 2096   3.217   0.846   9.707 -0.2600 -0.5622 -0.0904
  135TMC2    C2 2097   3.183   0.910   9.820  0.4932  0.5082 -0.2439
  135TMC2    C3 2098   3.135   0.825   9.918 -0.6278  0.1043 -0.0402
  135TMC2    C4 2099   3.191   0.715   9.682  0.5810  0.1141 -0.3696
  135TMC2    C5 2100   3.137   0.637   9.784  0.3509 -0.3143 -0.2010
  135TMC2    C6 2101   3.113   0.686   9.908  0.2158 -0.1091 -0.1110
  135TMC2     C 2102   3.240   0.944   9.604 -0.4303 -0.0177 -0.8089
  135TMC2     O 2103   3.176   1.052   9.601  0.1217 -0.9135 -0.7822
  135TMC2     H 2104   3.219   1.009   9.843  1.1542  0.1432  0.3080
  135TMC2    H1 2105   3.209   0.676   9.583  0.0308 -1.0655 -0.0064
  135TMC2    H2 2106   3.087   0.632   9.998 -0.4483 -1.2148 -0.9776
  135TMC2    C7 2107   3.105   0.499   9.752  0.5179 -0.0485 -0.1105
  135TMC2    C8 2108   3.118   0.879  10.052  0.3093 -0.3852  0.5604
  135TMC2    O1 2109   3.141   0.452   9.644 -0.2076 -0.3422  0.0583
  135TMC2    O2 2110   3.114   0.807  10.152  0.0213  0.0379  0.2202
  135TMC2    O5 2111   3.035   0.992  10.037  0.1794  0.1079  0.3530
  135TMC2    H5 2112   3.032   1.026   9.945  0.6553 -0.3543  0.1646
  136MPD2     C 2113   3.337   1.086   9.366 -0.1095 -0.5557  0.2462
  136MPD2    C1 2114   3.379   0.960   9.399  0.2727  0.3601  1.1811
  136MPD2    C2 2115   3.465   0.887   9.317  0.0356 -0.4797 -0.4123
  136MPD2    C3 2116   3.531   0.952   9.213 -0.1983 -0.0201 -0.4473
  136MPD2    C4 2117   3.500   1.081   9.184  0.0035 -0.3158  0.3884
  136MPD2    C5 2118   3.403   1.145   9.261  0.2744 -0.0605 -0.4320
  136MPD2     H 2119   3.488   0.785   9.344  2.9103 -0.2491 -2.0457
  136MPD2    H1 2120   3.563   1.131   9.112 -2.2609 -0.7258 -1.8646
  136MPD2    H2 2121   3.267   1.149   9.420  0.3563 -1.0593  1.4415
  136MPD2    H3 2122   3.378   1.243   9.222  0.1573 -0.1660 -0.6224
  136MPD2     N 2123   3.629   0.886   9.133 -0.5735 -0.1842 -0.0195
  136MPD2    H5 2124   3.657   0.929   9.045  0.4273 -0.1909  0.2981
  136MPD2    N1 2125   3.327   0.891   9.512  0.2936 -0.6320 -0.8335
  136MPD2    H7 2126   3.366   0.799   9.529 -0.7255 -0.9072  0.0578
  137TMC2    C1 2127   3.232   3.966   9.263 -0.0214  0.1901  0.7121
  137TMC2    C2 2128   3.328   3.967   9.163 -0.1126  0.1939 -0.3070
  137TMC2    C3 2129   3.285   3.921   9.044  0.3702  0.0873  0.9679
  137TMC2    C4 2130   3.107   3.917   9.248  0.1356  0.3976 -0.1138
  137TMC2    C5 2131   3.068   3.867   9.124  0.1260 -0.0491 -0.0324
  137TMC2    C6 2132   3.157   3.866   9.022  0.2258 -0.1205 -0.2921
  137TMC2     C 2133   3.286   3.966   9.399  0.6609 -0.8860 -0.1193
  137TMC2     O 2134   3.339   4.068   9.442  0.0020  0.3179  0.4465
  137TMC2     H 2135   3.431   3.997   9.180  0.1371 -1.8796  1.9963
  137TMC2    H1 2136   3.050   3.894   9.337  4.3840 -1.3148  2.1468
  137TMC2    H2 2137   3.142   3.816   8.926 -0.3090 -1.0992  0.3013
  137TMC2    C7 2138   2.934   3.813   9.110  0.7073  0.5285  0.4941
  137TMC2    C8 2139   3.378   3.888   8.943 -0.2049  0.3405 -0.1705
  137TMC2    O1 2140   2.901   3.763   9.001 -0.0672  0.3175 -0.1505
  137TMC2    O2 2141   3.495   3.858   8.969 -0.1320 -0.2883 -0.4480
  137TMC2    O5 2142   3.326   3.943   8.832  0.1158  0.2777 -0.4724
  137TMC2    H5 2143   3.241   3.991   8.839 -1.0742 -1.8045 -0.7481
  138MPD2     C 2144   3.221   3.701   9.659  0.3843 -1.0119  0.1055
  138MPD2    C1 2145   3.248   3.828   9.612  0.5121  0.1110 -0.3286
  138MPD2    C2 2146   3.295   3.922   9.701 -0.0952 -0.1220  0.1677
  138MPD2    C3 2147   3.314   3.897   9.835  0.6135 -0.9216  0.4983
  138MPD2    C4 2148   3.290   3.765   9.879 -0.6248  0.1591 -0.3133
  138MPD2    C5 2149   3.223   3.683   9.795  0.8035  0.3269  0.2291
  138MPD2     H 2150   3.322   4.021   9.668  0.3562  0.1364  1.3270
  138MPD2    H1 2151   3.304   3.742   9.984  0.1959 -0.7602 -0.6237
  138MPD2    H2 2152   3.180   3.622   9.597 -0.3069 -0.5182 -0.0717
  138MPD2    H3 2153   3.178   3.595   9.840  3.3673 -0.5381  1.0621
  138MPD2     N 2154   3.358   4.003   9.918 -0.0321 -0.1508 -0.0700
  138MPD2    H5 2155   3.355   4.098   9.882  0.2164  0.7254  2.2682
  138MPD2    N1 2156   3.249   3.847   9.466 -0.2552  0.4634  0.3803
  138MPD2    H7 2157   3.212   3.768   9.415 -3.4051 -0.2427  3.7454
  139TMC2    C1 2158   4.174   2.420  13.473  0.9203 -0.0147 -0.6266
  139TMC2    C2 2159   4.214   2.492  13.363  0.5625  0.6243 -0.4900
  139TMC2    C3 2160   4.137   2.597  13.321 -0.6812  0.2438 -0.3607
  139TMC2    C4 2161   4.053   2.452  13.540 -0.0054 -0.0997  0.0266
  139TMC2    C5 2162   3.984   2.563  13.496 -1.2793  0.3652  0.3463
  139TMC2    C6 2163   4.022   2.632  13.382  0.0143 -0.1896 -0.2437
  139TMC2     C 2164   4.222   2.281  13.476 -0.2291  0.0943 -0.2830
  139TMC2     O 2165   4.296   2.252  13.380 -0.1487  0.0660  0.4061
  139TMC2     H 2166   4.307   2.461  13.318  0.1544 -0.9180 -0.2622
  139TMC2    H1 2167   4.021   2.381  13.616  1.0082 -0.5615  0.0239
  139TMC2    H2 2168   3.958   2.710  13.342 -0.6068 -1.9868 -2.7831
  139TMC2    C7 2169   3.864   2.600  13.566  0.0482 -0.2055 -0.7194
  139TMC2    C8 2170   4.160   2.678  13.196  0.0767  0.6251 -0.7579
  139TMC2    O1 2171   3.806   2.701  13.520 -0.0725  0.5745 -0.0867
  139TMC2    O2 2172   4.070   2.700  13.120  0.1570  0.0632  0.2606
  139TMC2    O5 2173   4.285   2.660  13.166  0.2820  0.4026 -0.3305
  139TMC2    H5 2174   4.341   2.653  13.246 -1.3069 -0.6345  0.6896
  140MPD2     C 2175   4.138   1.960  13.613 -0.1352 -0.4134  0.0938
  140MPD2    C1 2176   4.220   2.061  13.572  0.2664  0.3951  0.1976
  140MPD2    C2 2177   4.350   2.028  13.542 -0.5081  0.1793  0.2369
  140MPD2    C3 2178   4.403   1.901  13.551 -0.3813  0.3953 -0.5945
  140MPD2    C4 2179   4.320   1.799  13.598 -0.5260  0.3967 -0.2980
  140MPD2    C5 2180   4.190   1.832  13.625 -0.1808 -0.2413 -0.6356
  140MPD2     H 2181   4.417   2.110  13.521 -0.5167  0.2514  0.4881
  140MPD2    H1 2182   4.355   1.699  13.622 -0.1718  1.0425  1.8457
  140MPD2    H2 2183   4.033   1.981  13.632 -0.1642  0.5597 -1.0594
  140MPD2    H3 2184   4.136   1.754  13.678  0.8584 -0.0100  0.7698
  140MPD2     N 2185   4.536   1.878  13.525  0.0886 -0.4636  0.2245
  140MPD2    H5 2186   4.588   1.965  13.519 -1.5439  0.3967 -1.3994
  140MPD2    N1 2187   4.169   2.192  13.565 -0.5392  0.5147  0.1712
  140MPD2    H7 2188   4.083   2.221  13.612 -0.7811 -1.4070  0.9060
  141TMC2    C1 2189   4.700   4.052  14.781  0.2145 -0.4766  0.0200
  141TMC2    C2 2190   4.586   3.993  14.745 -0.1648  0.0433  0.0892
  141TMC2    C3 2191   4.499   4.075  14.677  0.2311  0.4085  0.9718
  141TMC2    C4 2192   4.719   4.189  14.764  0.0081 -0.2981  0.4722
  141TMC2    C5 2193   4.636   4.258  14.684 -0.4081  0.5821  0.1863
  141TMC2    C6 2194   4.522   4.203  14.643  0.2666  0.1766 -0.2021
  141TMC2     C 2195   0.045   3.987  14.884 -0.5637 -0.1437  0.1618
  141TMC2     O 2196   0.088   4.057  14.969 -0.1208  0.4955 -0.2852
  141TMC2     H 2197   4.567   3.889  14.768 -0.2816  0.1928  0.6503
  141TMC2    H1 2198   0.075   4.234  14.802  0.7206 -1.6528  0.4104
  141TMC2    H2 2199   4.451   4.252  14.577  0.6825  1.1477  0.0783
  141TMC2    C7 2200   4.688   4.358  14.591 -0.1484 -0.5932  0.6817
  141TMC2    C8 2201   4.392   4.013  14.604  0.5855 -0.4795  0.4691
  141TMC2    O1 2202   4.622   4.367  14.490  0.1631  0.1597  0.0981
  141TMC2    O2 2203   4.399   3.997  14.483  0.1969 -0.0790 -0.3801
  141TMC2    O5 2204   4.350   3.915  14.685 -0.1064 -0.3247  0.1254
  141TMC2    H5 2205   4.344   3.941  14.779  2.3635  0.8067 -0.0235
  142TMC2    C1 2206   1.793   2.451  10.070 -0.2198  0.5924 -0.0644
  142TMC2    C2 2207   1.691   2.402  10.001 -0.7691  0.4708 -0.2836
  142TMC2    C3 2208   1.667   2.455   9.874 -0.0214 -0.2989 -0.5986
  142TMC2    C4 2209   1.874   2.551  10.019  0.4951 -0.1730 -0.2216
  142TMC2    C5 2210   1.833   2.613   9.903 -0.0050  0.2805  0.7951
  142TMC2    C6 2211   1.729   2.566   9.831  0.5482  0.1911 -0.1215
  142TMC2     C 2212   1.837   2.373  10.181  0.3782  0.5688 -0.3474
  142TMC2     O 2213   1.791   2.264  10.190  0.4160 -0.1744  0.1350
  142TMC2     H 2214   1.626   2.327  10.044  0.2263  0.2325  0.8026
  142TMC2    H1 2215   1.959   2.579  10.080  0.3870 -1.6593  0.6253
  142TMC2    H2 2216   1.697   2.600   9.733  1.3577 -0.5097 -0.6260
  142TMC2    C7 2217   1.886   2.750   9.869  0.4671  0.2803 -0.2775
  142TMC2    C8 2218   1.556   2.404   9.792 -0.2397  0.1448  0.0403
  142TMC2    O1 2219   1.958   2.804   9.953 -0.2624 -0.9492  0.5670
  142TMC2    O2 2220   1.480   2.484   9.738 -0.3280  0.1865  0.2021
  142TMC2    O5 2221   1.523   2.282   9.843  0.6360 -0.0775 -0.3325
  142TMC2    H5 2222   1.604   2.234   9.868  0.0760 -0.5969  0.4786
  143MPD2     C 2223   2.036   2.344  10.659 -0.2594 -0.0297 -0.0823
  143MPD2    C1 2224   1.938   2.261  10.599  0.1883  0.8158  0.2952
  143MPD2    C2 2225   1.905   2.297  10.471  0.8742  0.0990 -0.1829
  143MPD2    C3 2226   1.964   2.402  10.403 -0.1266  0.1108  1.2258
  143MPD2    C4 2227   2.047   2.489  10.471 -0.4521 -0.7376  0.2642
  143MPD2    C5 2228   2.078   2.463  10.601 -0.2283 -0.3559  0.2471
  143MPD2     H 2229   1.836   2.235  10.414  0.2945 -0.8162  1.4948
  143MPD2    H1 2230   2.080   2.579  10.419  3.7967 -1.6032  1.4794
  143MPD2    H2 2231   2.078   2.321  10.757 -3.4927  2.4381  1.8521
  143MPD2    H3 2232   2.158   2.516  10.651 -2.1948  1.7320  1.1780
  143MPD2     N 2233   1.930   2.432  10.268  0.1890  0.0688 -0.4683
  143MPD2    H5 2234   1.962   2.526  10.248 -0.9054  0.6770  0.5985
  143MPD2    N1 2235   1.870   2.152  10.667  0.1809 -0.0064 -0.4374
  143MPD2    H7 2236   1.908   2.120  10.755 -0.7372  1.5611  0.5250
  144TMC2    C1 2237   0.869   1.739   1.060  0.0899  0.8364 -0.3034
  144TMC2    C2 2238   0.937   1.620   1.040  0.4515 -0.2938  0.3480
  144TMC2    C3 2239   1.076   1.623   1.028 -0.1536  0.0514 -0.2130
  144TMC2    C4 2240   0.933   1.862   1.045 -0.0474 -0.2189  0.9066
  144TMC2    C5 2241   1.071   1.860   1.038 -1.0093 -0.0991  0.2992
  144TMC2    C6 2242   1.141   1.744   1.034 -0.2194  0.7512  0.7611
  144TMC2     C 2243   0.725   1.728   1.040  0.8403  0.2639  0.0184
  144TMC2     O 2244   0.686   1.613   1.051  0.3368 -0.3165 -0.3309
  144TMC2     H 2245   0.875   1.531   1.036  0.8020 -0.5060 -0.4362
  144TMC2    H1 2246   0.880   1.955   1.060  1.6573  0.8811  0.2331
  144TMC2    H2 2247   1.247   1.760   1.016  0.0863 -1.0383  0.9290
  144TMC2    C7 2248   1.150   1.973   1.085 -1.1686  0.6710  0.1831
  144TMC2    C8 2249   1.122   1.542   0.914 -0.1265 -0.0273  0.4168
  144TMC2    O1 2250   1.272   1.965   1.085  0.1841  0.2821 -0.0497
  144TMC2    O2 2251   1.049   1.487   0.836 -0.4964  0.0375  0.0148
  144TMC2    O5 2252   1.254   1.554   0.915 -0.5825  0.0052  0.0822
  144TMC2    H5 2253   1.295   1.562   1.003  1.4047  1.2903 -0.9703
  145MPD2     C 2254   0.298   1.914   0.851 -0.0166  0.0036 -0.3680
  145MPD2    C1 2255   0.350   1.790   0.840  0.3224 -0.3318  0.0345
  145MPD2    C2 2256   0.464   1.760   0.910  0.1742  0.4395  0.3722
  145MPD2    C3 2257   0.524   1.860   0.985 -0.5879 -1.1898 -0.2338
  145MPD2    C4 2258   0.472   1.989   0.994  0.0619  0.3317 -0.3793
  145MPD2    C5 2259   0.364   2.015   0.919  0.1607 -0.0558 -0.2467
  145MPD2     H 2260   0.515   1.665   0.899  1.9821  1.3061  1.2527
  145MPD2    H1 2261   0.529   2.074   1.031 -0.3462  0.3458  0.2287
  145MPD2    H2 2262   0.211   1.943   0.793 -1.5588 -0.6910  1.6013
  145MPD2    H3 2263   0.318   2.113   0.919 -0.2391 -0.2391  1.2761
  145MPD2     N 2264   0.658   1.850   1.033  0.5083 -0.2301  0.3088
  145MPD2    H5 2265   0.710   1.934   1.056 -1.9553  0.8326  2.0013
  145MPD2    N1 2266   0.303   1.688   0.759 -0.2485 -0.1013  0.4565
  145MPD2    H7 2267   0.354   1.600   0.753 -0.2974 -0.2513  2.1937
  146TMC2    C1 2268   1.912   0.356  12.409 -0.2004 -0.3760  0.3072
  146TMC2    C2 2269   1.929   0.379  12.273 -0.8573 -0.1052  0.4934
  146TMC2    C3 2270   1.916   0.269  12.188 -0.1724 -0.1165 -0.2954
  146TMC2    C4 2271   1.891   0.231  12.457  0.2396 -0.6224  0.5742
  146TMC2    C5 2272   1.866   0.134  12.368  0.4177 -0.6350 -0.2786
  146TMC2    C6 2273   1.884   0.147  12.234 -0.0539  0.4554 -0.7072
  146TMC2     C 2274   1.924   0.456  12.507 -0.7113 -0.1606  0.7053
  146TMC2     O 2275   1.917   0.574  12.473  0.5280 -0.6468 -0.2059
  146TMC2     H 2276   1.944   0.479  12.234  0.1358 -0.2023  0.6228
  146TMC2    H1 2277   1.875   0.212  12.563 -0.6330  1.0849  0.7525
  146TMC2    H2 2278   1.862   0.070  12.162 -2.9902  0.2285  0.4156
  146TMC2    C7 2279   1.861   4.729  12.418 -0.1227  0.5728 -0.4123
  146TMC2    C8 2280   1.899   0.296  12.043  0.4326 -0.1239  0.5576
  146TMC2    O1 2281   1.828   4.646  12.334  0.5006  0.4565 -0.1406
  146TMC2    O2 2282   1.842   0.393  12.001 -0.4320  0.1892  0.0039
  146TMC2    O5 2283   1.962   0.204  11.967  0.3138  0.2270 -0.1193
  146TMC2    H5 2284   2.001   0.125  12.010  0.8106  0.2762 -0.4793
  147MPD2     C 2285   2.006   4.348  12.722 -0.7213  0.7674  0.2423
  147MPD2    C1 2286   2.030   4.464  12.788 -0.4470 -0.3362 -0.1859
  147MPD2    C2 2287   1.986   4.584  12.729 -0.7143 -0.3485  0.1666
  147MPD2    C3 2288   1.927   4.581  12.605  0.3301  0.7184  0.6997
  147MPD2    C4 2289   1.915   4.468  12.535  0.8241 -0.2419 -0.1045
  147MPD2    C5 2290   1.942   4.350  12.602  0.0384  0.5305  0.0978
  147MPD2     H 2291   1.988   4.685  12.769  0.1053 -1.8327  3.8245
  147MPD2    H1 2292   1.858   4.470  12.443  0.0841  0.1362  0.3642
  147MPD2    H2 2293   2.044   4.256  12.766 -0.6739  2.0241  2.8124
  147MPD2    H3 2294   1.927   4.255  12.553  1.1958  1.1128 -1.3776
  147MPD2     N 2295   1.896   4.708  12.544 -0.0329  0.1339 -0.4000
  147MPD2    H5 2296   1.925   0.052  12.601  3.8009 -0.0318 -2.0967
  147MPD2    N1 2297   2.108   4.458  12.912 -0.1786  0.1851  0.4881
  147MPD2    H7 2298   2.158   4.372  12.931  0.3177  0.4019  0.1559
  148TMC2    C1 2299   1.611   3.960  10.618  0.3012  0.7750 -0.0411
  148TMC2    C2 2300   1.669   4.062  10.696  0.0090  0.9678 -0.2298
  148TMC2    C3 2301   1.778   4.021  10.770 -0.3470  0.3637 -0.7488
  148TMC2    C4 2302   1.652   3.831  10.610  0.3503  0.0674 -0.5260
  148TMC2    C5 2303   1.757   3.796  10.684  0.6494 -0.6757  0.2378
  148TMC2    C6 2304   1.821   3.888  10.771  0.1935  0.5589 -0.6470
  148TMC2     C 2305   1.492   3.990  10.541 -0.5574  0.1260  0.6105
  148TMC2     O 2306   1.418   3.892  10.530  0.4572  0.1925  0.4616
  148TMC2     H 2307   1.623   4.159  10.710  0.0798  0.8386  0.9000
  148TMC2    H1 2308   1.614   3.757  10.540  0.5229  0.2780 -0.8419
  148TMC2    H2 2309   1.893   3.849  10.842  1.2223  0.5090 -1.7153
  148TMC2    C7 2310   1.788   3.651  10.681  0.4018  0.1451  1.2678
  148TMC2    C8 2311   1.780   4.084  10.895  0.1444 -0.3336 -0.0049
  148TMC2    O1 2312   1.745   3.587  10.585 -0.6683  0.1023  0.2021
  148TMC2    O2 2313   1.692   4.154  10.941  0.1461  0.3279  0.6198
  148TMC2    O5 2314   1.913   4.075  10.936  0.6699 -0.0192 -0.3487
  148TMC2    H5 2315   1.975   4.029  10.876  0.6707 -1.1037  0.4821
  149MPD2     C 2316   1.384   4.283  10.375  0.4855 -1.0428  0.7272
  149MPD2    C1 2317   1.392   4.148  10.397 -0.2396 -0.1189 -0.1195
  149MPD2    C2 2318   1.325   4.058  10.324 -0.3342  0.5908 -0.5560
  149MPD2    C3 2319   1.238   4.099  10.225 -0.1724 -0.3313  0.3013
  149MPD2    C4 2320   1.222   4.237  10.207 -0.2510  0.2758  0.3140
  149MPD2    C5 2321   1.301   4.328  10.275  0.3568  0.4214 -0.5310
  149MPD2     H 2322   1.314   3.953  10.349 -1.9683  0.5818 -1.2992
  149MPD2    H1 2323   1.148   4.276  10.139 -0.4201  0.3390  0.5370
  149MPD2    H2 2324   1.442   4.348  10.440 -0.0948 -0.7976  1.0011
  149MPD2    H3 2325   1.290   4.434  10.258 -1.2176  0.5418  1.2764
  149MPD2     N 2326   1.134   4.017  10.172  0.3957 -0.2308 -0.1879
  149MPD2    H5 2327   1.051   4.066  10.140  0.1573 -3.0649 -3.8667
  149MPD2    N1 2328   1.477   4.117  10.500 -0.4059  0.1171  0.1461
  149MPD2    H7 2329   1.537   4.182  10.551 -3.4730  1.8206  1.5759
  150TMC2    C1 2330   3.897   3.021  12.251  0.1303  0.0726 -0.0183
  150TMC2    C2 2331   3.875   3.053  12.118 -0.1352 -0.5813  0.3738
  150TMC2    C3 2332   3.988   3.084  12.041 -0.1213  0.5307 -0.1046
  150TMC2    C4 2333   4.021   3.033  12.308 -0.1097 -0.4800  0.4846
  150TMC2    C5 2334   4.121   3.068  12.226 -0.4270 -0.0891 -0.9044
  150TMC2    C6 2335   4.105   3.090  12.096  0.2137  0.0692  0.5971
  150TMC2     C 2336   3.785   3.026  12.333 -0.0075  0.5126 -0.4759
  150TMC2     O 2337   3.797   3.049  12.453  0.1503 -0.0825  0.9581
  150TMC2     H 2338   3.780   3.059  12.065 -0.8594 -1.5206  1.5802
  150TMC2    H1 2339   4.025   3.015  12.414  1.2019 -1.3815  0.2790
  150TMC2    H2 2340   4.184   3.121  12.028  0.3618  2.3737  1.8160
  150TMC2    C7 2341   4.259   3.088  12.273  0.2970 -0.1032 -0.3242
  150TMC2    C8 2342   3.962   3.121  11.905  0.1501 -0.0708 -0.0437
  150TMC2    O1 2343   4.348   3.134  12.202 -0.2458  0.0499 -0.3294
  150TMC2    O2 2344   3.878   3.203  11.876  0.1913 -0.1119  0.6120
  150TMC2    O5 2345   3.997   3.019  11.825  0.5792  0.4177  0.3560
  150TMC2    H5 2346   4.071   2.975  11.873 -1.6438 -0.3730  3.0808
  151MPD2     C 2347   3.271   3.068  12.340 -1.2183 -0.4591  0.0451
  151MPD2    C1 2348   3.312   2.995  12.230  0.5543 -0.6932 -0.2673
  151MPD2    C2 2349   3.445   2.970  12.213 -0.0480  0.1758 -0.3936
  151MPD2    C3 2350   3.539   3.002  12.312  0.0847  0.8684 -0.1518
  151MPD2    C4 2351   3.499   3.070  12.423  0.5913  0.2080  0.0830
  151MPD2    C5 2352   3.369   3.102  12.433  0.9488  0.2931  0.6584
  151MPD2     H 2353   3.479   2.930  12.118  0.5935 -0.4541  0.1041
  151MPD2    H1 2354   3.567   3.110  12.498  0.0555  1.4560 -0.0968
  151MPD2    H2 2355   3.173   3.113  12.350 -1.2801 -0.8974  1.3660
  151MPD2    H3 2356   3.339   3.163  12.517 -0.6285  1.3408 -0.6665
  151MPD2     N 2357   3.674   2.984  12.270  0.8509 -0.5980  0.0800
  151MPD2    H5 2358   3.689   2.920  12.193 -0.9981  1.2637 -1.8678
  151MPD2    N1 2359   3.230   2.982  12.116  0.1741 -0.7813  0.0500
  151MPD2    H7 2360   3.274   2.954  12.029 -1.1771  1.3465 -1.3313
  152TMC2    C1 2361   3.721   2.537  12.814  0.4312 -0.0603  1.1410
  152TMC2    C2 2362   3.794   2.437  12.756 -0.4114 -0.1233 -0.6896
  152TMC2    C3 2363   3.927   2.455  12.755  0.4944  0.2926  0.0469
  152TMC2    C4 2364   3.772   2.660  12.851 -0.3295 -1.2384 -0.2530
  152TMC2    C5 2365   3.911   2.675  12.845 -0.4926 -0.2725 -0.5542
  152TMC2    C6 2366   3.992   2.576  12.794  0.5523 -0.5042  0.5217
  152TMC2     C 2367   3.579   2.521  12.812 -0.1338  0.2040  0.5714
  152TMC2     O 2368   3.508   2.621  12.817 -0.0733 -0.1315  0.2057
  152TMC2     H 2369   3.757   2.344  12.715 -0.4193 -1.8772  3.3231
  152TMC2    H1 2370   3.702   2.734  12.887  0.1768 -0.6680 -0.4345
  152TMC2    H2 2371   4.098   2.590  12.782  0.6072 -0.7235  0.7410
  152TMC2    C7 2372   3.953   2.812  12.817  0.1649  0.3229 -0.1610
  152TMC2    C8 2373   4.028   2.361  12.706 -0.2612  0.2984 -0.1356
  152TMC2    O1 2374   3.873   2.879  12.749 -0.1823  0.7220 -0.3062
  152TMC2    O2 2375   4.117   2.398  12.630 -0.1470 -0.6436 -0.7118
  152TMC2    O5 2376   3.991   2.233  12.724  0.3533  0.1662 -0.0447
  152TMC2    H5 2377   3.920   2.223  12.791  1.0729  0.7784  0.8155
  153MPD2     C 2378   3.403   2.222  12.922  0.2057  0.1168 -0.6459
  153MPD2    C1 2379   3.419   2.350  12.874  0.1133 -0.3873  0.1512
  153MPD2    C2 2380   3.302   2.424  12.846 -0.8236  0.5888  0.6910
  153MPD2    C3 2381   3.173   2.372  12.876 -0.1348 -0.2798  0.1538
  153MPD2    C4 2382   3.166   2.249  12.946  0.1160  0.5500 -0.7551
  153MPD2    C5 2383   3.279   2.173  12.956 -0.0486  0.5712  0.5868
  153MPD2     H 2384   3.307   2.516  12.789 -2.2887 -0.1412 -0.6202
  153MPD2    H1 2385   3.075   2.197  12.972 -0.3824  1.0052 -1.5901
  153MPD2    H2 2386   3.494   2.163  12.925 -0.5206 -0.8287  3.4218
  153MPD2    H3 2387   3.269   2.075  13.002 -1.7199 -0.1658 -1.3100
  153MPD2     N 2388   3.053   2.451  12.852  1.0320  0.2188 -0.0315
  153MPD2    H5 2389   3.070   2.548  12.827  1.6351  0.1270  0.0298
  153MPD2    N1 2390   3.548   2.394  12.851 -0.2208  0.6986 -0.5323
  153MPD2    H7 2391   3.627   2.333  12.867  0.6264  2.1463  0.7371
  154TMC2    C1 2392   0.519   3.277   0.660  1.1967 -0.3037  0.4228
  154TMC2    C2 2393   0.563   3.391   0.728  0.4583 -0.4912 -0.3771
  154TMC2    C3 2394   0.690   3.380   0.790  1.2964  0.7527 -0.2033
  154TMC2    C4 2395   0.597   3.166   0.640 -0.5062 -0.1401  0.1784
  154TMC2    C5 2396   0.722   3.162   0.701 -0.1650  0.5349 -0.9016
  154TMC2    C6 2397   0.771   3.267   0.775 -0.3617 -0.6885 -0.0550
  154TMC2     C 2398   0.373   3.265   0.645  0.2463 -0.1014  0.0104
  154TMC2     O 2399   0.307   3.331   0.724  0.0588 -0.8556  0.4562
  154TMC2     H 2400   0.494   3.472   0.750 -1.0789 -1.1017 -2.9369
  154TMC2    H1 2401   0.550   3.072   0.614  0.7058 -0.7458  0.1820
  154TMC2    H2 2402   0.869   3.260   0.820  0.3323  0.1045 -1.4386
  154TMC2    C7 2403   0.814   3.050   0.654 -0.2280 -0.3360  0.1490
  154TMC2    C8 2404   0.730   3.503   0.856  0.0718 -0.4505  0.5481
  154TMC2    O1 2405   0.765   2.985   0.562 -0.5945  0.1125 -0.4577
  154TMC2    O2 2406   0.644   3.589   0.875  0.0564  0.5192 -0.0472
  154TMC2    O5 2407   0.834   3.473   0.932 -0.1397  0.1636 -0.3058
  154TMC2    H5 2408   0.887   3.395   0.907  0.0477  0.2912 -0.3006
  155MPD2     C 2409   0.180   3.029   0.420  0.5889 -0.0850  0.7576
  155MPD2    C1 2410   0.200   3.129   0.515  0.4558 -0.2317 -0.3284
  155MPD2    C2 2411   0.091   3.199   0.553  0.3133 -0.2671  0.5903
  155MPD2    C3 2412   4.702   3.167   0.514 -0.7231 -0.4421 -0.1299
  155MPD2    C4 2413   4.679   3.068   0.420  0.2168  0.0940  0.5884
  155MPD2    C5 2414   0.053   2.992   0.380 -0.1309  0.7526  0.0906
  155MPD2     H 2415   0.109   3.274   0.629 -2.9615  0.9204  0.2166
  155MPD2    H1 2416   4.584   3.037   0.380  0.2650  0.0608  0.5002
  155MPD2    H2 2417   0.257   2.965   0.378 -0.0172  0.4178 -1.1185
  155MPD2    H3 2418   0.031   2.908   0.314  1.5650  0.6753 -0.3753
  155MPD2     N 2419   4.603   3.248   0.573  0.6762  0.1757 -0.2189
  155MPD2    H5 2420   4.634   3.306   0.650 -0.7595  0.5627  0.0714
  155MPD2    N1 2421   0.334   3.171   0.551  0.3362 -0.5888 -0.0338
  155MPD2    H7 2422   0.407   3.122   0.500  1.2072  0.0003  0.6561
  156TMC2    C1 2423   3.542   0.202  11.862  0.6417  0.5403  0.0523
  156TMC2    C2 2424   3.439   0.108  11.867 -1.0061  0.5654 -0.4268
  156TMC2    C3 2425   3.340   0.142  11.774 -0.5015 -0.1127 -0.4092
  156TMC2    C4 2426   3.536   0.320  11.785 -0.0354  0.6283 -0.2775
  156TMC2    C5 2427   3.435   0.336  11.693 -0.3232  0.1847  0.6044
  156TMC2    C6 2428   3.330   0.249  11.682  0.1310  0.7122  0.5417
  156TMC2     C 2429   3.665   0.183  11.949 -0.0611 -0.2817  0.1261
  156TMC2     O 2430   3.765   0.246  11.912 -0.4948  0.4580 -0.1153
  156TMC2     H 2431   3.441   0.010  11.915 -1.0902 -0.5463 -2.6801
  156TMC2    H1 2432   3.622   0.386  11.790  3.0961 -3.3890 -0.7608
  156TMC2    H2 2433   3.244   0.259  11.617 -0.5779 -3.6195  0.8357
  156TMC2    C7 2434   3.425   0.478  11.645 -0.0363  0.9753  0.3573
  156TMC2    C8 2435   3.270   0.032  11.714  1.1135 -0.2183 -0.9302
  156TMC2    O1 2436   3.525   0.543  11.626 -0.4558  0.0667  0.8267
  156TMC2    O2 2437   3.157   0.043  11.673  0.6601  0.1547 -0.7001
  156TMC2    O5 2438   3.378   4.716  11.640  0.1584  0.4564 -0.1909
  156TMC2    H5 2439   3.465   4.721  11.686  1.1456  0.0936 -2.0115
  157MPD2     C 2440   3.686   4.715  12.253  0.2239  0.1487  1.2403
  157MPD2    C1 2441   3.726   0.057  12.151 -0.1013 -0.4080 -0.0645
  157MPD2    C2 2442   3.866   0.071  12.129 -0.3236  0.2090 -0.1104
  157MPD2    C3 2443   3.956   0.024  12.225 -0.0841 -0.4603  0.4437
  157MPD2    C4 2444   3.912   4.673  12.321  0.0958  0.6152 -0.1064
  157MPD2    C5 2445   3.775   4.656  12.342  0.3856  0.5367 -0.0176
  157MPD2     H 2446   3.908   0.119  12.041  1.0918 -2.4522 -0.8643
  157MPD2    H1 2447   3.980   4.629  12.392  0.1078 -0.1268 -0.5753
  157MPD2    H2 2448   3.581   4.691  12.269  0.1658 -0.1910  0.3982
  157MPD2    H3 2449   3.730   4.589  12.414 -0.8997  1.7265  0.3024
  157MPD2     N 2450   4.087   0.070  12.213  0.4055  0.2224  0.1776
  157MPD2    H5 2451   4.098   0.134  12.136  1.0019  0.9588  0.8747
  157MPD2    N1 2452   3.632   0.112  12.063 -0.2274  0.7064  0.6402
  157MPD2    H7 2453   3.535   0.083  12.070  0.1941 -0.1192  2.8706
  158TMC2    C1 2454   3.937   3.647  13.304 -0.8481 -0.7886 -0.4273
  158TMC2    C2 2455   3.977   3.698  13.181 -0.4518 -0.1563 -0.5704
  158TMC2    C3 2456   3.879   3.765  13.111 -0.1763 -0.3527  0.3563
  158TMC2    C4 2457   3.811   3.664  13.356  0.4658  0.2182  0.5781
  158TMC2    C5 2458   3.718   3.726  13.278  0.1317  0.0888  0.1950
  158TMC2    C6 2459   3.754   3.769  13.155 -0.6976  0.5885 -0.3301
  158TMC2     C 2460   4.040   3.606  13.392 -0.0022 -0.9832  0.1358
  158TMC2     O 2461   4.147   3.655  13.372 -0.3546 -0.1212  0.1909
  158TMC2     H 2462   4.081   3.686  13.152  0.3532  0.6700  1.9985
  158TMC2    H1 2463   3.799   3.646  13.462 -1.2281 -1.6854  0.0711
  158TMC2    H2 2464   3.675   3.796  13.085 -3.3806 -2.7056  1.4071
  158TMC2    C7 2465   3.575   3.704  13.302 -0.0547 -0.3697  0.2702
  158TMC2    C8 2466   3.903   3.816  12.977  0.1519  0.6554  1.2241
  158TMC2    O1 2467   3.500   3.777  13.243 -0.0259  0.3020 -0.3575
  158TMC2    O2 2468   3.813   3.808  12.898  0.5596  0.2342 -0.8913
  158TMC2    O5 2469   4.039   3.816  12.962  0.6339  0.3023 -0.4282
  158TMC2    H5 2470   4.085   3.839  13.046 -0.3296  0.1952  0.1327
  159MPD2     C 2471   4.254   3.284  13.735  0.0346  0.5671 -0.4796
  159MPD2    C1 2472   4.117   3.304  13.758  0.4640 -0.3846 -0.3198
  159MPD2    C2 2473   4.039   3.371  13.669 -0.0806 -0.4336 -0.2996
  159MPD2    C3 2474   4.096   3.439  13.568 -0.0072 -0.0888  0.1486
  159MPD2    C4 2475   4.228   3.422  13.538 -0.1594  0.5523  0.1620
  159MPD2    C5 2476   4.301   3.333  13.616 -0.0526 -0.0971 -0.7535
  159MPD2     H 2477   3.938   3.404  13.687  0.1885  0.8330 -1.1026
  159MPD2    H1 2478   4.285   3.464  13.456  1.8613  0.5481  1.5791
  159MPD2    H2 2479   4.324   3.222  13.790 -0.3382  0.4968 -0.0842
  159MPD2    H3 2480   4.402   3.308  13.584  0.2734  0.7923 -0.4103
  159MPD2     N 2481   4.002   3.520  13.493  0.4607 -0.3964 -0.8685
  159MPD2    H5 2482   3.904   3.494  13.500  0.6220 -0.9127 -0.5853
  159MPD2    N1 2483   4.067   3.231  13.865  0.2709 -0.2016  0.2874
  159MPD2    H7 2484   4.133   3.187  13.929 -0.1181  0.0855  0.8765
  160TMC2    C1 2485   3.941   2.372   1.713  0.1158  0.0700  0.1827
  160TMC2    C2 2486   3.908   2.248   1.758 -0.4191 -0.4592  0.3254
  160TMC2    C3 2487   3.987   2.142   1.733 -0.2567 -0.5029  0.7593
  160TMC2    C4 2488   4.067   2.395   1.661  0.7661  0.0736  0.1182
  160TMC2    C5 2489   4.142   2.286   1.635 -0.1403 -0.1065  0.5247
  160TMC2    C6 2490   4.103   2.155   1.666  0.5241 -0.5235  0.5333
  160TMC2     C 2491   3.847   2.485   1.731  0.6334 -0.7759 -1.0024
  160TMC2     O 2492   3.768   2.478   1.825  0.0710  0.1449  0.2038
  160TMC2     H 2493   3.813   2.217   1.799 -0.1953  0.6170  1.6688
  160TMC2    H1 2494   4.102   2.497   1.649  1.8961 -0.0379  2.2971
  160TMC2    H2 2495   4.161   2.067   1.640  0.6062 -0.3160  0.0110
  160TMC2    C7 2496   4.236   2.291   1.526  0.3779  0.6395 -0.2188
  160TMC2    C8 2497   3.928   2.013   1.738 -0.4426 -0.1286 -0.4500
  160TMC2    O1 2498   4.296   2.190   1.501 -0.1227 -0.4146  0.0374
  160TMC2    O2 2499   3.810   1.992   1.711 -0.1257 -0.4106 -0.0096
  160TMC2    O5 2500   4.009   1.933   1.810  0.1484  0.2204 -0.4213
  160TMC2    H5 2501   4.090   1.979   1.841  1.3316 -0.7258 -2.1395
  161MPD2     C 2502   3.730   2.761   1.739 -0.2928  0.0566  0.2923
  161MPD2    C1 2503   3.798   2.708   1.632  0.0125 -0.1716 -0.4615
  161MPD2    C2 2504   3.798   2.783   1.516 -0.3906 -0.0214 -0.0430
  161MPD2    C3 2505   3.733   2.907   1.512 -0.2428  0.1096  0.1049
  161MPD2    C4 2506   3.665   2.953   1.619 -0.0500  0.1854  0.5592
  161MPD2    C5 2507   3.657   2.881   1.732  0.2731 -0.2543 -0.5851
  161MPD2     H 2508   3.862   2.746   1.438  1.3124 -0.1247  1.3957
  161MPD2    H1 2509   3.603   3.042   1.609  1.3508  1.1159  0.1994
  161MPD2    H2 2510   3.734   2.713   1.836 -0.1115  0.7821  0.6450
  161MPD2    H3 2511   3.612   2.919   1.822  1.9081  0.7391 -0.1682
  161MPD2     N 2512   3.724   2.980   1.393 -0.0294 -0.4629 -0.2713
  161MPD2    H5 2513   3.667   3.064   1.401  0.1417 -0.2264 -1.5654
  161MPD2    N1 2514   3.866   2.582   1.631  0.2867  0.1336  0.1246
  161MPD2    H7 2515   3.938   2.560   1.563  1.1651 -0.3171  1.2103
  162TMC2    C1 2516   1.531   4.292   1.133 -0.2529 -0.4775  0.4709
  162TMC2    C2 2517   1.413   4.350   1.176 -0.3890 -0.7764  0.3100
  162TMC2    C3 2518   1.390   4.337   1.312  0.0741  0.0080  0.0745
  162TMC2    C4 2519   1.613   4.221   1.224  0.0315  0.4115  0.3461
  162TMC2    C5 2520   1.577   4.213   1.361 -0.0561  0.8025  0.4011
  162TMC2    C6 2521   1.471   4.282   1.407 -0.6861 -0.2866  0.7681
  162TMC2     C 2522   1.541   4.278   0.985 -0.4708  0.1689 -0.0392
  162TMC2     O 2523   1.607   4.175   0.959 -0.2633 -0.2354 -0.3185
  162TMC2     H 2524   1.328   4.390   1.122  2.3197  0.6273 -2.9168
  162TMC2    H1 2525   1.695   4.169   1.176 -0.0765 -0.0278  0.6344
  162TMC2    H2 2526   1.444   4.275   1.512 -3.0984  1.3692  0.2723
  162TMC2    C7 2527   1.678   4.181   1.457 -0.2330 -0.7886 -0.3968
  162TMC2    C8 2528   1.257   4.370   1.357  0.4382 -0.7316  0.7505
  162TMC2    O1 2529   1.651   4.206   1.573 -0.0278 -0.2124 -0.1891
  162TMC2    O2 2530   1.154   4.345   1.302  0.3257 -0.3861 -0.1684
  162TMC2    O5 2531   1.263   4.453   1.463  0.0467  0.0768 -0.1799
  162TMC2    H5 2532   1.358   4.470   1.479 -0.3431  0.9192  1.1475
  163MPD2     C 2533   1.460   4.380   0.492  1.0373 -0.0502  0.2237
  163MPD2    C1 2534   1.553   4.296   0.548  0.8321 -0.0938 -0.9067
  163MPD2    C2 2535   1.560   4.302   0.686  0.3580  0.1437  0.1456
  163MPD2    C3 2536   1.473   4.376   0.769  0.8745  0.1094 -0.8712
  163MPD2    C4 2537   1.375   4.446   0.711 -0.6211  0.5908  0.3000
  163MPD2    C5 2538   1.378   4.459   0.571  0.1788  0.1887 -0.4524
  163MPD2     H 2539   1.637   4.243   0.735  0.5657  1.1195  1.0074
  163MPD2    H1 2540   1.307   4.506   0.771  1.0171  1.4154  1.3083
  163MPD2    H2 2541   1.464   4.381   0.383 -2.0533 -0.5901  0.0869
  163MPD2    H3 2542   1.305   4.521   0.520 -2.0608 -1.1041  1.2197
  163MPD2     N 2543   1.470   4.368   0.910 -0.2359  0.3304 -0.4054
  163MPD2    H5 2544   1.415   4.434   0.963 -1.5159  0.6843 -2.1716
  163MPD2    N1 2545   1.641   4.232   0.463 -0.1569  0.2655 -0.4062
  163MPD2    H7 2546   1.633   4.238   0.362  1.9681 -0.7905 -0.6528
  164TMC2    C1 2547   2.378   3.398  11.009  0.2796  0.5350  0.1174
  164TMC2    C2 2548   2.450   3.471  10.922 -0.2029  0.0049 -0.5570
  164TMC2    C3 2549   2.415   3.596  10.890  0.5162 -0.0758  0.3134
  164TMC2    C4 2550   2.260   3.455  11.052 -0.0464 -0.7779 -0.4338
  164TMC2    C5 2551   2.217   3.572  11.002  0.4378  0.0520  0.2056
  164TMC2    C6 2552   2.292   3.645  10.912  0.6090 -0.2905 -0.5873
  164TMC2     C 2553   2.362   3.253  11.003  0.0517 -0.5625  0.0234
  164TMC2     O 2554   2.307   3.194  11.095  0.2678  0.6574  0.0239
  164TMC2     H 2555   2.518   3.419  10.855 -2.3435 -1.2092 -1.7771
  164TMC2    H1 2556   2.206   3.388  11.118 -0.2033 -0.5748 -0.3570
  164TMC2    H2 2557   2.251   3.735  10.869 -1.3471 -0.6757  0.4785
  164TMC2    C7 2558   2.096   3.629  11.052 -0.2696 -0.6153 -0.0875
  164TMC2    C8 2559   2.491   3.647  10.774 -0.1643 -0.1001 -0.2725
  164TMC2    O1 2560   2.042   3.701  10.972 -0.5151 -0.5083  0.3368
  164TMC2    O2 2561   2.540   3.576  10.689 -0.0450  0.3135 -0.0046
  164TMC2    O5 2562   2.471   3.781  10.758  0.4302 -0.2780 -0.3854
  164TMC2    H5 2563   2.449   3.822  10.845 -0.8488  1.6291 -1.5925
  165TMC2    C1 2564   3.514   2.117   1.524 -0.4417  0.0642  0.9628
  165TMC2    C2 2565   3.488   2.249   1.543 -1.1940  0.5501 -0.2815
  165TMC2    C3 2566   3.580   2.334   1.493 -0.5010 -0.0791  0.1347
  165TMC2    C4 2567   3.623   2.066   1.453  0.7087  0.8795 -0.0434
  165TMC2    C5 2568   3.711   2.161   1.400  0.7125 -0.1161 -0.4970
  165TMC2    C6 2569   3.695   2.295   1.428  0.3719  0.1955 -0.9086
  165TMC2     C 2570   3.445   2.023   1.601  0.2340  0.4335 -0.0571
  165TMC2     O 2571   3.399   2.058   1.708  0.0406  0.5229 -0.8094
  165TMC2     H 2572   3.405   2.275   1.608 -1.7361 -1.4591 -0.1510
  165TMC2    H1 2573   3.648   1.961   1.450  1.9457  1.1203  1.7953
  165TMC2    H2 2574   3.777   2.364   1.408 -0.3799  0.9825 -1.2703
  165TMC2    C7 2575   3.846   2.116   1.384  0.2233  0.1535  0.0102
  165TMC2    C8 2576   3.572   2.465   1.554  0.0803  0.4161  0.0372
  165TMC2    O1 2577   3.938   2.197   1.403  0.2237  0.0019 -0.5855
  165TMC2    O2 2578   3.488   2.489   1.638 -0.0321  0.0756  0.2291
  165TMC2    O5 2579   3.584   2.544   1.440 -0.4959 -0.2260 -0.3646
  165TMC2    H5 2580   3.671   2.532   1.396 -0.1759 -0.3976  0.3079
  166MPD2     C 2581   3.319   1.549   1.746  0.4725  0.1152 -0.3969
  166MPD2    C1 2582   3.362   1.659   1.828 -0.6776 -0.4437  0.7546
  166MPD2    C2 2583   3.394   1.776   1.756  0.7794 -0.7711  0.0531
  166MPD2    C3 2584   3.387   1.791   1.622 -0.3196 -0.0150  0.6843
  166MPD2    C4 2585   3.334   1.683   1.550 -0.1105 -0.2347 -0.0940
  166MPD2    C5 2586   3.307   1.569   1.615 -0.4285 -0.0435 -0.0819
  166MPD2     H 2587   3.422   1.860   1.818 -0.0803 -1.2800  1.1436
  166MPD2    H1 2588   3.319   1.672   1.443  1.1195 -0.1684 -0.2752
  166MPD2    H2 2589   3.303   1.453   1.793 -0.8779 -0.0144 -1.1305
  166MPD2    H3 2590   3.275   1.485   1.554 -0.5338 -0.6442  0.7951
  166MPD2     N 2591   3.432   1.897   1.546  0.1948 -0.1492  0.7319
  166MPD2    H5 2592   3.429   1.888   1.445 -0.0265  0.8417  0.6518
  166MPD2    N1 2593   3.384   1.644   1.967  0.5406  0.0819  0.2857
  166MPD2    H7 2594   3.345   1.563   2.015  0.8916  0.5354  1.3329
  167TMC2    C1 2595   1.681   3.528  12.266  0.2264 -0.0953  0.1702
  167TMC2    C2 2596   1.595   3.610  12.337  0.1760 -0.9113  0.1058
  167TMC2    C3 2597   1.572   3.568  12.464  0.1474 -0.0279  0.5309
  167TMC2    C4 2598   1.735   3.414  12.314  0.6383  0.2924 -0.3924
  167TMC2    C5 2599   1.697   3.376  12.440  0.2300  0.1964  0.0695
  167TMC2    C6 2600   1.622   3.460  12.521  0.5022  0.3304 -0.2649
  167TMC2     C 2601   1.703   3.547  12.126  0.1083  0.1065 -0.6658
  167TMC2     O 2602   1.793   3.484  12.070 -0.2010  0.0827  0.0411
  167TMC2     H 2603   1.569   3.704  12.290 -1.9698 -0.6751  1.7399
  167TMC2    H1 2604   1.804   3.362  12.249  0.6473 -0.5962  0.3251
  167TMC2    H2 2605   1.599   3.436  12.625  0.2110  0.0708 -0.3911
  167TMC2    C7 2606   1.761   3.260  12.491  0.2762  0.5003 -0.1307
  167TMC2    C8 2607   1.519   3.671  12.552  0.1681 -1.2744  0.2278
  167TMC2    O1 2608   1.798   3.265  12.607 -0.1756 -0.0090 -0.6834
  167TMC2    O2 2609   1.518   3.660  12.673 -0.2947 -0.2068 -0.8498
  167TMC2    O5 2610   1.439   3.753  12.483 -0.2002  0.3216  0.1529
  167TMC2    H5 2611   1.428   3.718  12.392 -2.9537  3.2366 -0.6201
  168MPD2     C 2612   1.757   3.693  11.865 -0.1788 -0.5904  0.0375
  168MPD2    C1 2613   1.639   3.694  11.938 -0.7688  0.4512 -0.1750
  168MPD2    C2 2614   1.536   3.770  11.884  0.4064 -0.1382  0.3932
  168MPD2    C3 2615   1.546   3.840  11.760  0.1350  0.1545  0.0576
  168MPD2    C4 2616   1.673   3.838  11.701  0.4012 -0.0310  0.3415
  168MPD2    C5 2617   1.776   3.766  11.755 -0.0437 -0.5015 -0.6854
  168MPD2     H 2618   1.447   3.786  11.944  0.2192  1.3485 -0.2707
  168MPD2    H1 2619   1.705   3.890  11.611 -0.6744  1.5391  0.8507
  168MPD2    H2 2620   1.833   3.620  11.890 -0.2718 -0.5265  0.4988
  168MPD2    H3 2621   1.872   3.772  11.706 -0.3354 -1.2123 -1.3344
  168MPD2     N 2622   1.441   3.917  11.705 -0.0240 -0.0138 -0.3514
  168MPD2    H5 2623   1.355   3.918  11.759  1.7079 -1.0472  2.4560
  168MPD2    N1 2624   1.615   3.639  12.068 -0.6825  0.2028  0.0426
  168MPD2    H7 2625   1.533   3.677  12.115  0.6073  0.7826  1.8098
  169MPD1     C 2626   2.690   3.345   9.202  0.6435 -0.5792  0.3056
  169MPD1    C1 2627   2.676   3.211   9.216 -0.2456 -0.4516  0.8117
  169MPD1    C2 2628   2.754   3.147   9.313  1.1309 -0.3799  0.3006
  169MPD1    C3 2629   2.839   3.213   9.389 -0.0596 -0.8495 -0.2644
  169MPD1    C4 2630   2.852   3.352   9.376  0.3395  0.5888  0.5557
  169MPD1    C5 2631   2.778   3.417   9.285  0.2812 -0.4805 -0.0726
  169MPD1     H 2632   2.753   3.042   9.341  0.6991 -0.3455  0.4242
  169MPD1    H1 2633   2.910   3.409   9.448  2.0271  0.5278 -0.7581
  169MPD1    H2 2634   2.634   3.401   9.127 -0.8103  0.5454  2.2523
  169MPD1    H3 2635   2.779   3.525   9.277 -0.9545 -0.6524 -2.6264
  169MPD1     N 2636   2.922   3.132   9.467 -0.4502 -0.2333  0.1291
  169MPD1    H5 2637   2.901   3.032   9.461  0.8831 -0.4355 -1.1726
  169MPD1    N1 2638   2.599   3.137   9.125 -0.3797  0.3786  0.3321
  169MPD1    H6 2639   2.571   3.043   9.151  0.0618  0.0522 -0.3919
  169MPD1    H7 2640   2.506   3.177   9.108 -0.2478  0.9132  0.8933
  170MPD1     C 2641   2.683   0.708  12.049 -0.2838  0.3802 -0.2517
  170MPD1    C1 2642   2.798   0.679  12.104 -0.5484  0.3678  0.0520
  170MPD1    C2 2643   2.816   0.694  12.237  0.2153  0.3882  0.3148
  170MPD1    C3 2644   2.710   0.723  12.318 -0.9244  0.3712 -0.1160
  170MPD1    C4 2645   2.585   0.735  12.263 -0.0305  0.8067 -0.2680
  170MPD1    C5 2646   2.574   0.733  12.122 -0.1828 -0.4793 -0.4527
  170MPD1     H 2647   2.915   0.695  12.283 -0.3751  2.0906  1.5306
  170MPD1    H1 2648   2.494   0.739  12.322  0.6371 -2.1959  0.9251
  170MPD1    H2 2649   2.676   0.712  11.940 -1.5618  0.7199 -0.1617
  170MPD1    H3 2650   2.480   0.762  12.077 -0.0117 -0.6820 -0.9372
  170MPD1     N 2651   2.733   0.759  12.449 -0.0622 -0.4503 -0.6504
  170MPD1    H5 2652   2.830   0.759  12.480 -0.0795  0.3283 -0.5822
  170MPD1    N1 2653   2.905   0.658  12.022  0.0399 -0.2581  0.0226
  170MPD1    H6 2654   2.877   0.616  11.933  1.5258  0.5502 -0.8308
  170MPD1    H7 2655   2.985   0.614  12.068  0.3561 -0.6342 -0.8822
  171MPD1     C 2656   1.584   2.360  15.899  0.4853  0.4910  0.3410
  171MPD1    C1 2657   1.590   2.334  15.759  0.1439  0.4394 -0.1349
  171MPD1    C2 2658   1.630   2.208  15.718  0.0004 -0.0272 -0.2153
  171MPD1    C3 2659   1.678   2.114  15.811 -0.0420  0.8572 -0.4282
  171MPD1    C4 2660   1.673   2.145  15.941  0.1044  0.5601 -0.8465
  171MPD1    C5 2661   1.606   2.255  15.987  0.1662 -0.9150 -0.4069
  171MPD1     H 2662   1.635   2.185  15.612 -2.4340 -0.4258 -0.2522
  171MPD1    H1 2663   1.700   2.067  16.011  0.1116  0.2848 -1.1552
  171MPD1    H2 2664   1.560   2.454  15.947 -0.0798 -0.1398  1.2850
  171MPD1    H3 2665   1.599   2.270  16.094 -1.1507 -1.5830 -0.3930
  171MPD1     N 2666   1.736   1.986  15.775  0.3458 -0.1823 -0.8918
  171MPD1    H5 2667   1.763   1.927  15.853  0.1270 -0.2893 -0.8982
  171MPD1    N1 2668   1.575   2.441  15.663  0.2337 -0.0900  0.2508
  171MPD1    H6 2669   1.531   2.527  15.696 -2.7773 -0.7733 -1.9713
  171MPD1    H7 2670   1.548   2.407  15.571 -0.7370  2.1987 -0.3310
  172MPD1     C 2671   0.672   1.136   0.707  0.4304  0.1541 -0.0799
  172MPD1    C1 2672   0.596   1.227   0.635  0.2768  0.2967 -0.3623
  172MPD1    C2 2673   0.646   1.355   0.625  0.1860 -0.3849  0.1434
  172MPD1    C3 2674   0.774   1.380   0.662 -0.3832 -0.5673  0.4461
  172MPD1    C4 2675   0.846   1.286   0.727 -0.8513 -0.5799 -0.9308
  172MPD1    C5 2676   0.801   1.157   0.740  0.1943  0.3497  0.6768
  172MPD1     H 2677   0.589   1.424   0.564  1.7429  2.0929  1.4770
  172MPD1    H1 2678   0.950   1.302   0.753 -1.4864  1.2436  0.4757
  172MPD1    H2 2679   0.633   1.037   0.729  1.2810 -0.5618 -1.7891
  172MPD1    H3 2680   0.861   1.080   0.788  0.9519 -0.5221 -1.7010
  172MPD1     N 2681   0.826   1.513   0.656  0.0005 -0.9203 -0.0488
  172MPD1    H5 2682   0.917   1.538   0.694 -0.1708 -0.2726 -0.0504
  172MPD1    N1 2683   0.460   1.199   0.627  0.2620  0.0955  0.2646
  172MPD1    H6 2684   0.447   1.102   0.599  0.6370 -0.6759  2.7467
  172MPD1    H7 2685   0.412   1.255   0.557 -1.1974 -0.1987  1.0322
  173MPD1     C 2686   2.674   0.977  13.426  0.2178 -0.2431 -0.3203
  173MPD1    C1 2687   2.728   0.886  13.518 -0.4749  0.2823 -0.3657
  173MPD1    C2 2688   2.653   0.872  13.635 -0.2408  0.2564  0.3087
  173MPD1    C3 2689   2.545   0.955  13.668 -0.2464 -0.4907 -0.4891
  173MPD1    C4 2690   2.504   1.053  13.578  0.8693  0.2592 -0.2983
  173MPD1    C5 2691   2.569   1.063  13.455 -0.5634  0.3846  0.1271
  173MPD1     H 2692   2.684   0.801  13.710 -1.6617 -1.9657 -1.2241
  173MPD1    H1 2693   2.435   1.133  13.603 -0.3130 -0.6668 -0.5818
  173MPD1    H2 2694   2.715   0.987  13.326 -1.2389 -1.3899 -1.0203
  173MPD1    H3 2695   2.522   1.130  13.384  1.6717 -1.4961 -3.1177
  173MPD1     N 2696   2.488   0.930  13.786  0.4306  0.2456 -0.0995
  173MPD1    H5 2697   2.534   0.872  13.856 -0.4937 -1.9681 -1.3250
  173MPD1    N1 2698   2.834   0.791  13.484  0.9659  0.2879 -0.2015
  173MPD1    H6 2699   2.900   0.831  13.418  0.6350 -1.1664 -1.4058
  173MPD1    H7 2700   2.885   0.752  13.563  0.1110  0.1276  0.2689
  174MPD1     C 2701   3.037   0.541  14.180 -0.0813 -0.3298 -0.0452
  174MPD1    C1 2702   2.934   0.525  14.271 -0.2653  0.1638  0.9295
  174MPD1    C2 2703   2.827   0.606  14.272 -0.3196  0.4428 -0.6977
  174MPD1    C3 2704   2.810   0.691  14.166  0.0600 -0.3562 -0.1125
  174MPD1    C4 2705   2.902   0.697  14.067  0.1309 -0.4096  0.9265
  174MPD1    C5 2706   3.014   0.618  14.072 -0.3321  0.3923  0.7737
  174MPD1     H 2707   2.751   0.592  14.348  0.9384  1.9054  0.8265
  174MPD1    H1 2708   2.887   0.766  13.985 -0.2460 -1.9214 -0.2703
  174MPD1    H2 2709   3.127   0.481  14.178 -0.6631 -1.1860 -1.0963
  174MPD1    H3 2710   3.081   0.615  13.987  1.2957  5.1229  1.8685
  174MPD1     N 2711   2.694   0.768  14.149 -0.0018  0.1599 -0.7913
  174MPD1    H5 2712   2.692   0.825  14.065 -0.7676 -0.4844 -1.2075
  174MPD1    N1 2713   2.941   0.427  14.373  0.0169 -0.4180  0.4899
  174MPD1    H6 2714   2.962   0.335  14.334 -0.4716 -1.1457  1.9269
  174MPD1    H7 2715   2.853   0.422  14.426  0.2178 -1.0954  0.7582
  175MPD1     C 2716   0.281   1.832  15.816 -0.4269  0.2795 -0.2416
  175MPD1    C1 2717   0.405   1.834  15.856  0.0789 -0.7531  0.2262
  175MPD1    C2 2718   0.425   1.868  15.995 -0.5450  0.2115  0.2367
  175MPD1    C3 2719   0.319   1.874  16.089  0.0391  0.0106  0.3587
  175MPD1    C4 2720   0.197   1.853  16.045 -0.1314  0.0877 -0.1024
  175MPD1    C5 2721   0.177   1.841  15.906  0.0615  0.0517 -0.1845
  175MPD1     H 2722   0.523   1.897  16.030  0.5684 -0.5059 -2.2554
  175MPD1    H1 2723   0.109   1.845  16.108  0.4984  1.2628  0.9039
  175MPD1    H2 2724   0.258   1.822  15.711 -2.1114 -3.1676  0.4539
  175MPD1    H3 2725   0.073   1.832  15.877 -0.1241 -0.5851  0.6618
  175MPD1     N 2726   0.339   1.899  16.227  0.6834  0.0363  0.9599
  175MPD1    H5 2727   0.258   1.889  16.287  0.5593  0.0112  0.7898
  175MPD1    N1 2728   0.508   1.833  15.753 -0.2226 -0.5034  0.5178
  175MPD1    H6 2729   0.600   1.811  15.790 -0.5740  0.2380  1.8231
  175MPD1    H7 2730   0.478   1.767  15.682  1.1292  0.8733 -1.3184
  176MPD1     C 2731   2.950   0.817  17.642  0.8496  0.0770 -0.3753
  176MPD1    C1 2732   2.958   0.888  17.527  0.2382 -0.1283 -0.0699
  176MPD1    C2 2733   2.879   0.849  17.419  0.6265 -0.1560 -0.1986
  176MPD1    C3 2734   2.788   0.742  17.434 -0.5321  0.3229  0.2859
  176MPD1    C4 2735   2.775   0.676  17.558  0.3240 -0.4142 -0.1019
  176MPD1    C5 2736   2.861   0.715  17.651  0.0068 -0.4818  0.1196
  176MPD1     H 2737   2.881   0.909  17.329 -1.6067  0.7936  0.3664
  176MPD1    H1 2738   2.706   0.594  17.573 -2.1559  1.1505 -2.9960
  176MPD1    H2 2739   3.014   0.853  17.720 -1.0148  0.7719  0.8311
  176MPD1    H3 2740   2.851   0.661   0.006  2.5194 -0.7907  0.2067
  176MPD1     N 2741   2.718   0.714  17.314  0.0205  0.3291  0.1996
  176MPD1    H5 2742   2.741   0.768  17.231 -1.9291  1.8963  0.7011
  176MPD1    N1 2743   3.067   0.978  17.511 -0.1819 -0.9763 -0.2422
  176MPD1    H6 2744   3.095   1.018  17.600  0.7599 -1.9819 -0.0803
  176MPD1    H7 2745   3.036   1.050  17.446  4.0608 -0.8706 -2.2269
  177MPD1     C 2746   4.723   4.130  10.602 -0.3993  0.6055  0.5155
  177MPD1    C1 2747   0.024   4.217  10.502 -0.0963 -1.0647 -0.7028
  177MPD1    C2 2748   4.686   4.199  10.378  0.6307  0.8577  0.8495
  177MPD1    C3 2749   4.575   4.120  10.353 -0.2895 -0.0777  0.1422
  177MPD1    C4 2750   4.543   4.034  10.459  0.1936  0.0386  0.2199
  177MPD1    C5 2751   4.612   4.051  10.578 -0.1546 -0.4720  0.2528
  177MPD1     H 2752   4.714   4.270  10.302 -0.9793 -1.5681 -1.9859
  177MPD1    H1 2753   4.460   3.965  10.459  0.5842 -0.4486  1.5144
  177MPD1    H2 2754   0.035   4.132  10.699  1.3810 -2.3509 -0.2652
  177MPD1    H3 2755   4.587   3.991  10.665  1.0659  0.2899  1.1352
  177MPD1     N 2756   4.500   4.132  10.235  0.3555  0.6983 -0.3115
  177MPD1    H5 2757   4.530   4.200  10.166  2.7863 -0.3326 -0.2844
  177MPD1    N1 2758   0.138   4.293  10.509 -0.6056  0.8715  0.2090
  177MPD1    H6 2759   0.160   4.318  10.605 -1.1694 -2.7240  1.2696
  177MPD1    H7 2760   0.125   4.380  10.458  0.1821 -0.2061 -1.8359
  178MPD1     C 2761   2.968   0.443  17.418 -0.2439  0.4910 -0.1393
  178MPD1    C1 2762   3.091   0.453  17.352 -0.3748 -0.3033 -0.1540
  178MPD1    C2 2763   3.120   0.385  17.235 -0.3162  0.4107 -0.4347
  178MPD1    C3 2764   3.022   0.297  17.177  0.4227 -0.5775  0.6576
  178MPD1    C4 2765   2.900   0.294  17.237 -0.3731 -0.3705  0.3192
  178MPD1    C5 2766   2.869   0.368  17.353 -0.0563  0.2625  0.3343
  178MPD1     H 2767   3.222   0.385  17.200 -0.7773  1.4160 -1.8016
  178MPD1    H1 2768   2.814   0.245  17.191 -0.3410 -0.5996  0.5035
  178MPD1    H2 2769   2.953   0.476  17.521  1.4551  1.1460 -0.1019
  178MPD1    H3 2770   2.771   0.365  17.399 -0.9805 -1.2823 -1.7404
  178MPD1     N 2771   3.044   0.219  17.061 -0.0908 -0.4186  0.0239
  178MPD1    H5 2772   2.968   0.158  17.031  1.2360 -1.8999 -0.2879
  178MPD1    N1 2773   3.203   0.505  17.422  0.2441 -0.0173  0.1265
  178MPD1    H6 2774   3.186   0.598  17.458  2.7272 -0.2046  1.8011
  178MPD1    H7 2775   3.282   0.515  17.360 -0.5624 -2.8193 -1.3433
  179MPD1     C 2776   2.454   2.360  15.233 -1.2869  0.4520 -0.4271
  179MPD1    C1 2777   2.512   2.369  15.358 -0.0219  0.0017 -0.4787
  179MPD1    C2 2778   2.456   2.449  15.458 -0.4261 -0.3397 -0.9289
  179MPD1    C3 2779   2.339   2.525  15.429 -0.1962 -0.1481  0.3140
  179MPD1    C4 2780   2.287   2.516  15.303  0.0362  0.6745  0.6774
  179MPD1    C5 2781   2.338   2.430  15.211 -0.6957  0.0367  0.6904
  179MPD1     H 2782   2.500   2.448  15.557 -1.5993  0.9338 -0.3963
  179MPD1    H1 2783   2.200   2.577  15.281 -1.6882 -1.8465  0.4044
  179MPD1    H2 2784   2.489   2.291  15.157 -1.4652  2.1034 -2.0158
  179MPD1    H3 2785   2.291   2.418  15.114  1.6967  1.3128 -0.6297
  179MPD1     N 2786   2.274   2.616  15.512  0.2297 -0.0643 -0.2274
  179MPD1    H5 2787   2.177   2.634  15.487  1.0003  2.2589 -1.5140
  179MPD1    N1 2788   2.628   2.297  15.390 -0.6962  0.0564 -0.5161
  179MPD1    H6 2789   2.608   2.221  15.454  1.1300 -0.9262 -1.1056
  179MPD1    H7 2790   2.657   2.240  15.310 -0.2282  0.4682 -0.6340
  180MPD1     C 2791   2.262   3.774  15.015  0.7298 -0.5227 -0.5489
  180MPD1    C1 2792   2.358   3.875  15.009 -0.2184 -0.0879 -0.7105
  180MPD1    C2 2793   2.320   4.004  15.029 -1.2120 -0.4690  0.0697
  180MPD1    C3 2794   2.193   4.029  15.064 -0.2375 -0.2015 -0.2103
  180MPD1    C4 2795   2.098   3.928  15.076  0.3422 -0.2069 -0.7714
  180MPD1    C5 2796   2.135   3.798  15.044  0.1506 -1.1645 -0.1807
  180MPD1     H 2797   2.386   4.090  15.023 -2.1856  0.3737  1.2598
  180MPD1    H1 2798   1.994   3.947  15.098  0.1543 -1.4328 -0.6109
  180MPD1    H2 2799   2.282   3.668  15.011  2.1814 -0.2510 -0.4244
  180MPD1    H3 2800   2.061   3.718  15.048  1.1872 -2.1182  0.0491
  180MPD1     N 2801   2.164   4.167  15.089  0.6724  0.0325  1.0444
  180MPD1    H5 2802   2.240   4.230  15.065  0.9070  0.4857  2.9444
  180MPD1    N1 2803   2.488   3.850  14.959 -0.3695  0.0218 -0.0227
  180MPD1    H6 2804   2.517   3.752  14.953  2.4827  0.7582  1.7884
  180MPD1    H7 2805   2.567   3.912  14.976  2.1195 -3.4543  1.1062
  181MPD1     C 2806   2.774   1.671  10.308 -0.0521 -0.4534  0.2525
  181MPD1    C1 2807   2.849   1.787  10.330 -0.5212  0.1362 -0.2715
  181MPD1    C2 2808   2.972   1.804  10.278  0.0691  0.1818 -0.1116
  181MPD1    C3 2809   3.036   1.698  10.214 -0.4624  0.3369 -0.0925
  181MPD1    C4 2810   2.966   1.581  10.197 -0.3403  0.3240 -0.4828
  181MPD1    C5 2811   2.833   1.572  10.237  0.0871 -0.7821  0.5059
  181MPD1     H 2812   3.026   1.898  10.283  1.4752 -0.7451  2.5552
  181MPD1    H1 2813   3.020   1.497  10.154  2.8856  2.6259 -0.9417
  181MPD1    H2 2814   2.669   1.664  10.336 -0.1263  0.0193  0.1066
  181MPD1    H3 2815   2.785   1.478  10.210 -0.2986 -1.1321  2.3818
  181MPD1     N 2816   3.168   1.692  10.164  0.3560  0.4754  0.0711
  181MPD1    H5 2817   3.191   1.610  10.109 -1.8277 -0.1974  0.1482
  181MPD1    N1 2818   2.771   1.899  10.365  0.2946  0.1775  0.0700
  181MPD1    H6 2819   2.686   1.864  10.409  0.9956  0.0249  1.3073
  181MPD1    H7 2820   2.820   1.950  10.438  4.0157 -0.9760 -1.6763
  182MPD1     C 2821   0.335   1.118   1.128  0.4948  0.3376  0.1210
  182MPD1    C1 2822   0.383   1.103   1.000  0.4132  0.5566 -0.0787
  182MPD1    C2 2823   0.306   1.031   0.907  0.1438  0.3061 -0.6024
  182MPD1    C3 2824   0.179   0.993   0.947 -0.7085  0.3334 -0.1795
  182MPD1    C4 2825   0.132   1.021   1.075 -0.2034 -0.4783 -0.9462
  182MPD1    C5 2826   0.211   1.074   1.171 -0.4620  0.0104  0.2688
  182MPD1     H 2827   0.353   1.005   0.813 -2.6295 -2.0587 -1.3169
  182MPD1    H1 2828   0.034   0.995   1.111 -0.5096  1.4631 -0.3823
  182MPD1    H2 2829   0.391   1.170   1.206 -0.0226 -0.7599  1.2197
  182MPD1    H3 2830   0.185   1.097   1.274  2.9617  0.9940  0.9415
  182MPD1     N 2831   0.087   0.918   0.868  0.0127 -0.2472  0.1748
  182MPD1    H5 2832   0.009   0.882   0.921  0.8324 -1.3028  0.6549
  182MPD1    N1 2833   0.518   1.150   0.984  0.7507  0.0028 -0.3153
  182MPD1    H6 2834   0.536   1.240   1.027  0.3141 -1.1688  2.3161
  182MPD1    H7 2835   0.556   1.149   0.889  1.1004  1.2830 -0.1959
  183MPD1     C 2836   4.474   0.585   8.905 -0.2632  0.9393  0.2767
  183MPD1    C1 2837   4.463   0.549   9.033  0.0318  0.3418 -0.4218
  183MPD1    C2 2838   4.435   0.654   9.118 -0.6758  0.7915  0.3944
  183MPD1    C3 2839   4.407   0.781   9.073 -0.1180  0.1866  0.2384
  183MPD1    C4 2840   4.395   0.805   8.935 -0.7084  0.2730 -0.1050
  183MPD1    C5 2841   4.436   0.706   8.852 -0.0375  0.2956  0.1407
  183MPD1     H 2842   4.440   0.648   9.226  0.2625 -1.1969  0.2360
  183MPD1    H1 2843   4.363   0.899   8.890 -2.6475 -0.1210  0.4693
  183MPD1    H2 2844   4.510   0.514   8.831  0.1640  0.1733  1.2066
  183MPD1    H3 2845   4.433   0.722   8.744 -2.0525 -1.3853 -0.0425
  183MPD1     N 2846   4.376   0.883   9.165  0.3220  0.3586 -1.0055
  183MPD1    H5 2847   4.383   0.858   9.263  0.3512  0.7241 -0.9151
  183MPD1    N1 2848   4.512   0.419   9.076  0.2318 -0.5236 -0.3680
  183MPD1    H6 2849   4.457   0.392   9.156  0.1816  1.0355  0.1337
  183MPD1    H7 2850   4.489   0.349   9.006  2.1869  0.4158 -1.9805
  184MPD1     C 2851   3.720   3.485  10.431 -0.5997  0.0016 -0.1536
  184MPD1    C1 2852   3.641   3.429  10.339  0.7364  0.0553  0.9906
  184MPD1    C2 2853   3.629   3.496  10.216 -0.3583  0.8897  0.4237
  184MPD1    C3 2854   3.679   3.627  10.192  0.1674 -0.6094 -0.2326
  184MPD1    C4 2855   3.741   3.687  10.301  0.6361 -0.0663 -1.0450
  184MPD1    C5 2856   3.754   3.617  10.415  0.0834  0.4408 -0.6857
  184MPD1     H 2857   3.593   3.433  10.135 -1.0333  0.1607  1.2822
  184MPD1    H1 2858   3.780   3.788  10.293  0.8843 -0.0306  0.6117
  184MPD1    H2 2859   3.765   3.439  10.519 -1.1481 -0.5169 -0.1479
  184MPD1    H3 2860   3.809   3.669  10.493  1.2069  1.2235 -1.9956
  184MPD1     N 2861   3.674   3.697  10.072  0.3776 -0.6938 -0.3468
  184MPD1    H5 2862   3.715   3.790  10.070  0.9029 -0.9176  0.3265
  184MPD1    N1 2863   3.596   3.297  10.344 -0.1616 -0.2220  0.6726
  184MPD1    H6 2864   3.581   3.262  10.438 -1.3860  3.1353  1.7358
  184MPD1    H7 2865   3.516   3.289  10.282  1.3486 -0.9206 -1.1982
  185MPD1     C 2866   3.359   3.438   9.125  0.2747  0.0974  0.0370
  185MPD1    C1 2867   3.308   3.399   9.247 -0.2675  0.3136 -0.3101
  185MPD1    C2 2868   3.362   3.469   9.358  0.2947  0.2540 -0.0794
  185MPD1    C3 2869   3.450   3.575   9.347 -0.0076  0.3235 -0.3211
  185MPD1    C4 2870   3.499   3.610   9.216 -0.1479 -0.5987 -0.1684
  185MPD1    C5 2871   3.446   3.543   9.108  0.1897  0.6103  0.1003
  185MPD1     H 2872   3.335   3.433   9.457 -0.4860 -0.1050 -0.4202
  185MPD1    H1 2873   3.566   3.694   9.205 -0.0170 -0.4551  1.7386
  185MPD1    H2 2874   3.328   3.377   9.041  0.3581  1.2067 -0.7974
  185MPD1    H3 2875   3.479   3.570   9.008 -3.1945  1.3600 -0.7911
  185MPD1     N 2876   3.502   3.637   9.467 -0.2667 -0.0523  0.4210
  185MPD1    H5 2877   3.469   3.594   9.553  0.8689 -1.8125  0.0003
  185MPD1    N1 2878   3.230   3.281   9.269 -0.4220  0.1640  0.4414
  185MPD1    H6 2879   3.182   3.288   9.359 -0.3046  1.9575  0.3661
  185MPD1    H7 2880   3.150   3.270   9.207  1.1107 -0.0443 -1.4914
  186MPD1     C 2881   2.717   2.785  16.145 -0.6787  0.0075 -0.3778
  186MPD1    C1 2882   2.728   2.878  16.043 -1.1002 -0.7571 -0.4877
  186MPD1    C2 2883   2.759   3.008  16.073  0.1503 -0.0100 -0.1749
  186MPD1    C3 2884   2.777   3.045  16.207  0.6652  0.2483  0.3749
  186MPD1    C4 2885   2.771   2.951  16.308 -0.2634  0.0502  0.5380
  186MPD1    C5 2886   2.743   2.818  16.272 -0.4904  0.2872  0.4135
  186MPD1     H 2887   2.773   3.083  15.996 -0.5369 -1.8087 -2.0434
  186MPD1    H1 2888   2.803   2.973  16.410  1.6613  1.5550 -0.3834
  186MPD1    H2 2889   2.698   2.679  16.138  0.6845 -0.4302  2.4165
  186MPD1    H3 2890   2.722   2.751  16.354  0.9409 -0.3436  0.2670
  186MPD1     N 2891   2.808   3.177  16.241  0.1144 -0.5422  0.4120
  186MPD1    H5 2892   2.815   3.192  16.341  0.8936  0.4552  0.2091
  186MPD1    N1 2893   2.692   2.837  15.913 -0.2984  0.0537  0.1128
  186MPD1    H6 2894   2.702   2.737  15.897 -2.7202 -0.0965 -0.3543
  186MPD1    H7 2895   2.734   2.891  15.837 -0.2517  0.7402  0.6349
  187MPD1     C 2896   1.192   1.372   0.557  0.1208  0.5085 -0.0978
  187MPD1    C1 2897   1.326   1.344   0.550  0.3047 -0.0349 -0.4456
  187MPD1    C2 2898   1.389   1.319   0.433  0.3423 -0.1875 -0.2193
  187MPD1    C3 2899   1.304   1.291   0.322 -0.0771 -0.5401 -0.4438
  187MPD1    C4 2900   1.169   1.295   0.333 -0.2829  0.1498 -0.2183
  187MPD1    C5 2901   1.112   1.345   0.450 -0.3079  0.2609 -0.2051
  187MPD1     H 2902   1.497   1.322   0.425  0.4061  0.6138  1.0012
  187MPD1    H1 2903   1.114   1.297   0.240  0.1026 -2.5737 -0.5073
  187MPD1    H2 2904   1.144   1.412   0.645  0.9705 -1.6881  1.3621
  187MPD1    H3 2905   1.007   1.374   0.454 -0.5418 -0.5617 -0.3810
  187MPD1     N 2906   1.359   1.255   0.196 -0.6122 -0.3335  0.0070
  187MPD1    H5 2907   1.293   1.221   0.127  2.8196 -3.8030 -1.6201
  187MPD1    N1 2908   1.401   1.391   0.659 -0.2918  0.3208 -0.0104
  187MPD1    H6 2909   1.493   1.347   0.671 -0.3866 -0.3897 -1.9747
  187MPD1    H7 2910   1.351   1.405   0.747  0.4762  0.9535  0.3264
  188MPD1     C 2911   1.750   0.576  10.654 -0.2919  0.0764  0.3627
  188MPD1    C1 2912   1.733   0.595  10.517  0.1900 -0.1615 -0.6933
  188MPD1    C2 2913   1.691   0.484  10.436  0.5104 -0.1393 -0.3547
  188MPD1    C3 2914   1.686   0.354  10.485 -0.5472 -0.1990  0.0434
  188MPD1    C4 2915   1.730   0.332  10.609  0.7763  1.0769 -0.8456
  188MPD1    C5 2916   1.761   0.442  10.688 -0.2834  0.4534 -0.1648
  188MPD1     H 2917   1.670   0.506  10.332  1.5602 -0.8534 -0.7199
  188MPD1    H1 2918   1.714   0.240  10.664  1.3083  2.5521  1.7708
  188MPD1    H2 2919   1.793   0.655  10.715  0.3716  0.8807 -1.1459
  188MPD1    H3 2920   1.789   0.419  10.791 -1.5570 -0.3122  0.0201
  188MPD1     N 2921   1.643   0.240  10.410  0.1540 -0.2385 -0.4459
  188MPD1    H5 2922   1.655   0.151  10.457 -0.3923  0.3819  0.8478
  188MPD1    N1 2923   1.720   0.729  10.470 -0.2734 -0.7214 -0.4207
  188MPD1    H6 2924   1.783   0.793  10.520  1.2110 -2.7214  0.3022
  188MPD1    H7 2925   1.728   0.733  10.369  0.0049  1.1823 -0.3223
  189MPD1     C 2926   4.003   1.749   0.637  0.4817  0.9519  0.0263
  189MPD1    C1 2927   3.919   1.684   0.544 -0.1979  0.2291 -0.3396
  189MPD1    C2 2928   3.797   1.744   0.518  0.1486 -0.3327 -0.9062
  189MPD1    C3 2929   3.752   1.848   0.599 -0.3524 -0.5957  0.3001
  189MPD1    C4 2930   3.838   1.901   0.687  0.1109  0.3393 -0.3566
  189MPD1    C5 2931   3.963   1.860   0.715  0.4387  0.1013  0.1660
  189MPD1     H 2932   3.743   1.713   0.430 -1.1785  0.5049 -0.4001
  189MPD1    H1 2933   3.805   1.987   0.744 -0.3230  1.0230 -1.6291
  189MPD1    H2 2934   4.100   1.707   0.659  0.9454  1.3445 -1.2661
  189MPD1    H3 2935   4.019   1.898   0.800  0.8523 -0.3045  0.0756
  189MPD1     N 2936   3.625   1.894   0.574 -0.0714 -0.7886  0.5952
  189MPD1    H5 2937   3.567   1.843   0.508 -0.2162  0.3953 -0.1767
  189MPD1    N1 2938   3.967   1.588   0.459 -0.4157  0.5326 -0.4742
  189MPD1    H6 2939   3.902   1.523   0.416  0.3069  0.7191 -1.8777
  189MPD1    H7 2940   4.048   1.534   0.490 -0.9289  0.1342  0.1459
  190MPD1     C 2941   2.116   4.117  15.438  0.0456 -0.2399  0.3933
  190MPD1    C1 2942   2.154   4.256  15.460  0.0868 -1.0062 -0.3611
  190MPD1    C2 2943   2.285   4.291  15.431  0.2197  0.0037  0.7426
  190MPD1    C3 2944   2.379   4.197  15.387 -0.3722 -0.0484 -0.1683
  190MPD1    C4 2945   2.337   4.064  15.376 -0.4507  0.1171 -0.2950
  190MPD1    C5 2946   2.209   4.027  15.409 -0.0390 -0.1910 -1.1383
  190MPD1     H 2947   2.319   4.391  15.453 -0.3032  0.5746 -1.1265
  190MPD1    H1 2948   2.390   3.976  15.341  0.5993  0.3008  0.8218
  190MPD1    H2 2949   2.014   4.091  15.461 -0.2644 -1.3602 -2.2169
  190MPD1    H3 2950   2.183   3.923  15.395  1.9319 -0.7903 -0.4279
  190MPD1     N 2951   2.512   4.235  15.390  0.6172  0.4032 -0.4438
  190MPD1    H5 2952   2.519   4.333  15.416  0.5776 -0.0410  1.2124
  190MPD1    N1 2953   2.048   4.347  15.460 -0.1245 -0.1781 -1.3443
  190MPD1    H6 2954   2.068   4.430  15.515 -0.1267 -1.2822  0.3075
  190MPD1    H7 2955   1.966   4.310  15.508  0.0646  0.2022 -0.7382
  191MPD1     C 2956   1.833   1.254  13.260  0.1967  0.0692 -0.0193
  191MPD1    C1 2957   1.913   1.365  13.252  0.6054 -0.0344  0.5881
  191MPD1    C2 2958   1.844   1.484  13.242  0.1928 -0.1791  0.1997
  191MPD1    C3 2959   1.709   1.495  13.241  1.0054 -0.3745 -0.3665
  191MPD1    C4 2960   1.633   1.381  13.252  0.4241  0.3674 -0.5580
  191MPD1    C5 2961   1.694   1.259  13.259 -0.2516 -0.0316  0.2862
  191MPD1     H 2962   1.911   1.569  13.246  0.1713 -0.1260 -0.5083
  191MPD1    H1 2963   1.525   1.387  13.247  0.3672 -0.7451 -0.6442
  191MPD1    H2 2964   1.885   1.159  13.259  1.4812  0.7636 -0.1021
  191MPD1    H3 2965   1.632   1.172  13.277  0.4968 -0.8215 -0.9304
  191MPD1     N 2966   1.656   1.626  13.248  0.4541  0.1712 -0.5528
  191MPD1    H5 2967   1.720   1.701  13.224  0.1876  1.3184  2.3034
  191MPD1    N1 2968   2.048   1.362  13.236 -0.7722 -1.0849 -0.5957
  191MPD1    H6 2969   2.094   1.423  13.304 -0.3247 -0.7140 -1.2342
  191MPD1    H7 2970   2.083   1.267  13.249  0.7886 -0.5030 -0.5481
  192MPD1     C 2971   0.879   2.281  13.668 -0.1647 -0.2393  0.6010
  192MPD1    C1 2972   0.878   2.145  13.642  0.0126 -0.8381 -0.6833
  192MPD1    C2 2973   0.965   2.102  13.548 -0.5696  0.0504  0.1550
  192MPD1    C3 2974   1.072   2.180  13.505  0.2426 -0.1675 -0.4486
  192MPD1    C4 2975   1.066   2.314  13.525 -0.0869  0.0224 -0.2777
  192MPD1    C5 2976   0.973   2.363  13.611 -0.1016 -0.5469 -0.6530
  192MPD1     H 2977   0.964   1.994  13.532 -0.2888  0.2888 -1.3985
  192MPD1    H1 2978   1.146   2.380  13.493  0.9111 -1.0093  0.0711
  192MPD1    H2 2979   0.810   2.324  13.739 -0.9232  0.0361 -0.2963
  192MPD1    H3 2980   0.978   2.467  13.639 -0.0154  0.1530 -3.2029
  192MPD1     N 2981   1.184   2.125  13.439  0.3091  0.0716 -0.2438
  192MPD1    H5 2982   1.241   2.198  13.396 -0.1163  1.1499  1.0200
  192MPD1    N1 2983   0.761   2.073  13.683 -0.8872 -0.3322  0.1637
  192MPD1    H6 2984   0.708   2.102  13.765  0.4637  1.6446  0.3182
  192MPD1    H7 2985   0.760   1.973  13.661  0.0021 -0.5289  1.0220
  193MPD1     C 2986   1.339   1.658  17.017  0.2238  0.3852  0.3107
  193MPD1    C1 2987   1.309   1.740  17.120 -0.8429 -0.4661 -0.4429
  193MPD1    C2 2988   1.394   1.850  17.150 -0.0982 -0.1113  0.6845
  193MPD1    C3 2989   1.510   1.880  17.072 -0.7152 -0.7084 -0.1358
  193MPD1    C4 2990   1.542   1.785  16.976 -1.1063 -0.0202 -0.4583
  193MPD1    C5 2991   1.457   1.677  16.947  0.4697  0.2254  0.7463
  193MPD1     H 2992   1.371   1.917  17.232 -1.4697 -0.0933  0.2769
  193MPD1    H1 2993   1.622   1.802  16.905  1.1798  0.2948  2.1972
  193MPD1    H2 2994   1.281   1.574  16.980 -1.3949  2.0050 -0.8608
  193MPD1    H3 2995   1.480   1.602  16.872 -1.0544 -0.2726  0.7793
  193MPD1     N 2996   1.579   2.005  17.075  0.0824  0.1228  0.3717
  193MPD1    H5 2997   1.660   2.025  17.018 -0.8136 -1.4689 -1.4967
  193MPD1    N1 2998   1.207   1.709  17.206 -0.5594  0.0365 -0.3962
  193MPD1    H6 2999   1.163   1.787  17.254 -0.8807 -0.0422 -0.5612
  193MPD1    H7 3000   1.138   1.654  17.155 -2.0047  0.8429  0.6935
  194MPD1     C 3001   4.126   4.284  16.599 -0.1635  0.1663  0.5432
  194MPD1    C1 3002   4.017   4.195  16.583  0.0329  0.0396 -0.5462
  194MPD1    C2 3003   4.014   4.084  16.665 -0.5528 -0.2579 -0.7352
  194MPD1    C3 3004   4.117   4.046  16.749 -0.1715  0.7981  0.2305
  194MPD1    C4 3005   4.234   4.120  16.745 -0.2957  0.6788 -0.6643
  194MPD1    C5 3006   4.238   4.229  16.670 -0.3426  0.1818 -0.3084
  194MPD1     H 3007   3.928   4.019  16.654 -0.0757 -1.0185  0.0113
  194MPD1    H1 3008   4.321   4.092  16.802 -0.0405 -2.2780 -2.4737
  194MPD1    H2 3009   4.140   4.374  16.541  0.2862 -0.3395 -0.1322
  194MPD1    H3 3010   4.319   4.299  16.660  1.1035 -0.9257  3.9234
  194MPD1     N 3011   4.105   3.936  16.831 -0.1597 -0.3597 -0.2878
  194MPD1    H5 3012   4.189   3.906  16.881  0.4758  0.0604 -1.1056
  194MPD1    N1 3013   3.895   4.240  16.524  0.1864 -1.1484 -0.0933
  194MPD1    H6 3014   3.843   4.162  16.484  0.2103 -0.3594 -1.6408
  194MPD1    H7 3015   3.916   4.304  16.448  4.2272 -0.6010  1.4964
  195MPD1     C 3016   1.533   0.906   0.354  1.2298 -0.2784 -0.1303
  195MPD1    C1 3017   1.645   0.840   0.301 -1.0979 -0.3167 -0.0364
  195MPD1    C2 3018   1.636   0.799   0.168  0.4503  0.9785 -0.1201
  195MPD1    C3 3019   1.513   0.795   0.107 -1.1641  0.2739  0.5349
  195MPD1    C4 3020   1.404   0.851   0.168 -0.1218  0.3051  0.0501
  195MPD1    C5 3021   1.413   0.906   0.293  0.4482  1.0089 -0.0131
  195MPD1     H 3022   1.720   0.747   0.124  0.2135 -1.8964  2.8375
  195MPD1    H1 3023   1.306   0.856   0.121 -1.9497 -0.4145  3.7393
  195MPD1    H2 3024   1.547   0.958   0.448  1.0853 -0.2603 -0.1186
  195MPD1    H3 3025   1.322   0.939   0.343 -0.8402 -0.9486 -1.0712
  195MPD1     N 3026   1.487   0.732  17.725 -0.2907 -0.0432 -0.1575
  195MPD1    H5 3027   1.390   0.715  17.703 -0.7238  1.5507  0.4832
  195MPD1    N1 3028   1.773   0.843   0.367  0.1859  0.5747 -0.5076
  195MPD1    H6 3029   1.782   0.848   0.468  0.4714 -0.4038 -0.4856
  195MPD1    H7 3030   1.823   0.757   0.344  0.7476  0.7475  0.0734
  196MPD1     C 3031   0.977   0.470   0.984  0.0230  0.6129 -0.3085
  196MPD1    C1 3032   1.085   0.550   0.975  0.4861 -0.4560  0.8806
  196MPD1    C2 3033   1.097   0.646   1.070 -0.2018  0.2545  0.2083
  196MPD1    C3 3034   1.012   0.645   1.180 -0.2405 -0.0640  0.7718
  196MPD1    C4 3035   0.920   0.543   1.198 -0.4409  0.7401  0.2235
  196MPD1    C5 3036   0.907   0.455   1.097 -0.3685  0.6169  0.2497
  196MPD1     H 3037   1.170   0.726   1.065  0.1043 -0.1241 -1.3937
  196MPD1    H1 3038   0.869   0.532   1.293  2.0307  0.9053  1.5894
  196MPD1    H2 3039   0.942   0.414   0.898 -1.9354  0.5300  0.5403
  196MPD1    H3 3040   0.827   0.382   1.106  0.0166  0.0967 -0.5581
  196MPD1     N 3041   1.001   0.752   1.277 -0.5085  0.6025 -0.6925
  196MPD1    H5 3042   0.925   0.747   1.345  1.5103 -1.7791  1.3851
  196MPD1    N1 3043   1.157   0.557   0.854 -0.0780  0.6828  0.4786
  196MPD1    H6 3044   1.251   0.593   0.868  0.7622 -1.0786 -0.5519
  196MPD1    H7 3045   1.172   0.462   0.821 -1.6329  1.1444 -1.5345
  197MPD1     C 3046   4.426   3.336  17.174 -0.1040  0.4993  0.1418
  197MPD1    C1 3047   4.393   3.235  17.096  0.1643  0.2187  0.0702
  197MPD1    C2 3048   4.502   3.179  17.030  0.3018  0.1304  0.1746
  197MPD1    C3 3049   4.631   3.210  17.063 -0.5951  0.2259  0.5025
  197MPD1    C4 3050   4.658   3.304  17.151  0.1276  0.4953 -0.6276
  197MPD1    C5 3051   4.552   3.365  17.214 -0.1045  0.6516  0.2592
  197MPD1     H 3052   4.480   3.107  16.952  1.7340  0.0063 -0.1206
  197MPD1    H1 3053   0.026   3.325  17.176  0.2472 -2.3649  1.2582
  197MPD1    H2 3054   4.346   3.401  17.207 -0.4272  0.9168 -1.4859
  197MPD1    H3 3055   4.565   3.450  17.280  0.6982 -0.5044  1.5946
  197MPD1     N 3056   0.010   3.148  17.005 -0.2917  0.1673 -0.4474
  197MPD1    H5 3057   0.105   3.176  17.027 -0.8281  2.0190 -0.5479
  197MPD1    N1 3058   4.258   3.212  17.052 -0.3966  0.7027  0.5238
  197MPD1    H6 3059   4.220   3.122  17.022 -0.2088  0.8207 -0.0586
  197MPD1    H7 3060   4.190   3.239  17.123 -2.5419  0.0146 -1.2624
  198MPD1     C 3061   2.463   1.441  14.788  0.8864  0.1721 -0.4536
  198MPD1    C1 3062   2.596   1.416  14.747 -0.0428  0.1602 -0.2089
  198MPD1    C2 3063   2.680   1.353  14.837 -0.0850 -0.0321 -0.4842
  198MPD1    C3 3064   2.634   1.272  14.941  0.1046 -0.3029 -0.0925
  198MPD1    C4 3065   2.502   1.294  14.968 -0.0118  0.0581  0.6518
  198MPD1    C5 3066   2.419   1.378  14.902  0.0201 -0.6386  0.2222
  198MPD1     H 3067   2.785   1.346  14.812 -0.1802 -3.7507  0.1493
  198MPD1    H1 3068   2.457   1.250  15.056  2.2532 -0.7640  1.3938
  198MPD1    H2 3069   2.391   1.509  14.744  2.8245  1.8516 -0.9902
  198MPD1    H3 3070   2.315   1.391  14.927 -0.1287 -1.2142 -0.0748
  198MPD1     N 3071   2.719   1.193  15.018 -0.5462 -0.3384  0.1269
  198MPD1    H5 3072   2.816   1.183  14.990  0.6407  0.4603  3.9256
  198MPD1    N1 3073   2.651   1.481  14.630 -0.0343 -0.2197 -0.0533
  198MPD1    H6 3074   2.574   1.485  14.564  2.0914 -0.9648 -2.5894
  198MPD1    H7 3075   2.728   1.435  14.582  0.3870  1.3836 -0.9283
  199MPD1     C 3076   3.911   1.735   9.553 -0.2124 -0.1686 -0.0784
  199MPD1    C1 3077   3.835   1.637   9.612 -0.2303 -0.0081 -0.7129
  199MPD1    C2 3078   3.722   1.681   9.681 -0.3185  0.3923 -0.6774
  199MPD1    C3 3079   3.669   1.801   9.658 -0.5155 -0.3403  0.4759
  199MPD1    C4 3080   3.750   1.900   9.620 -0.8052  0.0117 -0.2226
  199MPD1    C5 3081   3.865   1.861   9.557  0.2920 -0.0198  0.2520
  199MPD1     H 3082   3.673   1.608   9.745 -0.2729 -1.0444 -2.3032
  199MPD1    H1 3083   3.730   2.007   9.614 -0.0200  0.0137 -2.8019
  199MPD1    H2 3084   4.008   1.713   9.510 -0.4865 -2.7519  0.6319
  199MPD1    H3 3085   3.926   1.942   9.519  0.8576 -0.2044  0.7626
  199MPD1     N 3086   3.543   1.841   9.713  0.7245  0.1967  0.1370
  199MPD1    H5 3087   3.529   1.941   9.702  1.7719  0.2370 -0.9650
  199MPD1    N1 3088   3.878   1.508   9.638  0.5136  0.1932 -0.3919
  199MPD1    H6 3089   3.797   1.448   9.652 -0.3980  1.2573 -1.0855
  199MPD1    H7 3090   3.938   1.467   9.566  1.7613 -0.7864  1.2085
  200MPD1     C 3091   2.629   1.666  14.256 -0.5410 -0.8561  0.1271
  200MPD1    C1 3092   2.688   1.598  14.153  0.0989 -0.3482  0.3292
  200MPD1    C2 3093   2.826   1.577  14.162 -0.2733 -0.5431 -0.2447
  200MPD1    C3 3094   2.901   1.610  14.277 -0.3365 -0.3201 -0.1939
  200MPD1    C4 3095   2.831   1.658  14.387 -0.8149  0.8683  0.0148
  200MPD1    C5 3096   2.695   1.683  14.375  0.9316  0.3225  0.1966
  200MPD1     H 3097   2.882   1.536  14.079  1.6242 -0.4882  1.0213
  200MPD1    H1 3098   2.864   1.683  14.487  0.1408  0.0131 -0.0966
  200MPD1    H2 3099   2.523   1.690  14.252 -0.5356 -0.7994  0.3177
  200MPD1    H3 3100   2.637   1.723  14.458  2.5979  0.6995  1.1667
  200MPD1     N 3101   3.041   1.593  14.267 -1.0318  1.2407  0.0499
  200MPD1    H5 3102   3.090   1.557  14.186 -2.4330  0.1064 -0.2930
  200MPD1    N1 3103   2.618   1.578  14.030 -0.3777 -0.3090 -0.5420
  200MPD1    H6 3104   2.663   1.510  13.969 -1.3394 -0.3005 -1.2559
  200MPD1    H7 3105   2.521   1.551  14.048 -0.9637  0.7457 -2.1659
  201MPD1     C 3106   0.636   1.129  12.892  0.0348 -0.5454 -0.4636
  201MPD1    C1 3107   0.647   0.996  12.875 -0.4734 -0.1078  0.1587
  201MPD1    C2 3108   0.730   0.921  12.956 -0.5994  0.2511 -1.0940
  201MPD1    C3 3109   0.788   0.974  13.064 -0.0249  1.1471  0.2846
  201MPD1    C4 3110   0.781   1.109  13.085 -0.1589  0.5102  0.1858
  201MPD1    C5 3111   0.704   1.188  12.993  0.2519  0.2456 -0.4733
  201MPD1     H 3112   0.725   0.812  12.951  0.4789  0.1042  0.9095
  201MPD1    H1 3113   0.825   1.169  13.164 -2.1626  1.5390  0.5198
  201MPD1    H2 3114   0.565   1.192  12.840  1.3678  1.1588 -0.2177
  201MPD1    H3 3115   0.698   1.295  13.010 -0.4704  0.3104 -1.1083
  201MPD1     N 3116   0.863   0.893  13.155  0.1551  0.2331  0.1011
  201MPD1    H5 3117   0.876   0.794  13.135  2.7955  1.0735 -2.3224
  201MPD1    N1 3118   0.572   0.937  12.777 -0.6150 -0.2817 -0.6720
  201MPD1    H6 3119   0.621   0.855  12.742 -1.1180 -1.1987  0.7761
  201MPD1    H7 3120   0.544   1.002  12.704 -2.4999  0.9381  1.1450
  202MPD1     C 3121   0.032   4.619   9.296 -0.3717  0.3628 -0.5630
  202MPD1    C1 3122   0.027   0.017   9.267 -0.7220  0.2040  0.0352
  202MPD1    C2 3123   0.067   0.106   9.370 -0.4169  0.1522 -0.1082
  202MPD1    C3 3124   0.091   0.057   9.495  0.6211  0.3423 -0.1942
  202MPD1    C4 3125   0.091   4.657   9.522  0.8673  0.4717  0.1207
  202MPD1    C5 3126   0.063   4.568   9.424  0.1509  0.2349 -0.0656
  202MPD1     H 3127   0.090   0.208   9.344  0.9632 -0.1345  0.0023
  202MPD1    H1 3128   0.112   4.623   9.622  0.1322 -1.2299 -0.3008
  202MPD1    H2 3129   0.020   4.549   9.214  1.3514 -0.3263 -0.2496
  202MPD1    H3 3130   0.081   4.461   9.436 -0.0688  0.3951  1.7483
  202MPD1     N 3131   0.139   0.144   9.597  0.2051 -0.0114  0.8876
  202MPD1    H5 3132   0.164   0.101   9.685 -0.2872 -1.1574  0.4758
  202MPD1    N1 3133   0.042   0.060   9.132  0.0362 -0.1404  0.3315
  202MPD1    H6 3134   0.001   4.731   9.065 -0.5349 -1.0622  1.5752
  202MPD1    H7 3135   4.734   0.152   9.121  1.6314  0.2443 -2.8563
  203MPD1     C 3136   3.835   1.202  12.291  0.6925  0.1415  0.5663
  203MPD1    C1 3137   3.872   1.068  12.275  0.2665  0.2208  0.0369
  203MPD1    C2 3138   4.003   1.026  12.303 -0.1163  0.0272 -0.3972
  203MPD1    C3 3139   4.085   1.116  12.370  0.3844 -0.0017  0.5848
  203MPD1    C4 3140   4.055   1.248  12.379  0.3889  0.3224 -0.8742
  203MPD1    C5 3141   3.923   1.288  12.348 -0.2944 -0.0010  0.1206
  203MPD1     H 3142   4.043   0.931  12.269 -1.9728 -0.3977 -1.3699
  203MPD1    H1 3143   4.124   1.320  12.424  1.0921 -0.7700 -0.2214
  203MPD1    H2 3144   3.735   1.238  12.268  0.5483 -2.2639 -2.6102
  203MPD1    H3 3145   3.902   1.394  12.350  1.4471  0.2992  2.0948
  203MPD1     N 3146   4.204   1.065  12.416  0.3274  0.5586 -0.0381
  203MPD1    H5 3147   4.232   0.969  12.397 -0.3336  0.1527  1.0892
  203MPD1    N1 3148   3.783   0.995  12.202  0.1286  0.5825  0.0820
  203MPD1    H6 3149   3.803   0.897  12.220 -0.1196  0.4298 -0.4645
  203MPD1    H7 3150   3.686   1.020  12.218  0.3133  0.0384  1.9468
  204MPD1     C 3151   3.431   2.919  17.438  0.5578  0.2490  0.7648
  204MPD1    C1 3152   3.505   2.895  17.324  0.4082  0.7076 -0.1305
  204MPD1    C2 3153   3.621   2.821  17.329  0.3485  1.1306 -0.0184
  204MPD1    C3 3154   3.663   2.764  17.453 -0.4577  0.5437 -0.0843
  204MPD1    C4 3155   3.583   2.783  17.565  0.9062 -0.0022 -0.6336
  204MPD1    C5 3156   3.468   2.858  17.554 -0.3841  0.3257 -0.0965
  204MPD1     H 3157   3.681   2.822  17.238 -1.4884  0.3004 -1.2201
  204MPD1    H1 3158   3.601   2.715  17.647 -0.2148  0.8572  0.3070
  204MPD1    H2 3159   3.333   2.964  17.430 -0.3696 -1.8423  0.1791
  204MPD1    H3 3160   3.398   2.858  17.637  2.7357  0.5045  2.5053
  204MPD1     N 3161   3.787   2.690  17.456 -0.0968  0.2472 -0.5595
  204MPD1    H5 3162   3.833   2.679  17.366 -1.5783 -1.3757 -1.1147
  204MPD1    N1 3163   3.475   2.954  17.201 -0.4802  0.4846 -0.3783
  204MPD1    H6 3164   3.386   3.004  17.198 -0.0735  1.1831 -0.7333
  204MPD1    H7 3165   3.495   2.902  17.116  0.1141  1.8676 -1.0797
  205MPD1     C 3166   4.734   1.164   0.498  0.6093  0.0131  0.2681
  205MPD1    C1 3167   4.630   1.229   0.555  0.3059 -0.4817  0.8467
  205MPD1    C2 3168   4.514   1.260   0.476 -0.5724 -0.4562 -1.2391
  205MPD1    C3 3169   4.533   1.255   0.337 -0.1188 -0.3505  0.1211
  205MPD1    C4 3170   4.644   1.197   0.282  0.9485 -0.1671 -0.6199
  205MPD1    C5 3171   0.005   1.147   0.363  0.2366  0.3698 -0.4385
  205MPD1     H 3172   4.431   1.300   0.534 -0.7040 -3.0892  0.3486
  205MPD1    H1 3173   4.657   1.192   0.175  2.1391 -2.0392 -0.3821
  205MPD1    H2 3174   0.091   1.129   0.544  1.4113 -1.5159 -2.4609
  205MPD1    H3 3175   0.093   1.103   0.318  1.0994  1.1177  0.5382
  205MPD1     N 3176   4.432   1.294   0.245 -0.0023  0.2627  0.5870
  205MPD1    H5 3177   4.446   1.280   0.146  0.8279  2.2687  0.4338
  205MPD1    N1 3178   4.626   1.233   0.696 -0.3011 -0.4033 -0.1815
  205MPD1    H6 3179   4.712   1.254   0.747 -0.5983  0.2438  0.0522
  205MPD1    H7 3180   4.553   1.284   0.744 -0.0224 -0.1246 -0.0541
  206MPD1     C 3181   4.438   3.672  16.900  0.4112 -1.0929 -0.0897
  206MPD1    C1 3182   4.360   3.587  16.824 -0.3670 -0.2147 -0.3832
  206MPD1    C2 3183   4.306   3.648  16.710  0.3032  0.3531  0.2900
  206MPD1    C3 3184   4.343   3.770  16.662 -1.0675  0.0690 -0.2265
  206MPD1    C4 3185   4.431   3.845  16.737 -0.2782 -0.1335 -0.6835
  206MPD1    C5 3186   4.479   3.790  16.854  0.4122 -0.6215  0.5888
  206MPD1     H 3187   4.223   3.594  16.665  1.0858 -1.2703  0.7932
  206MPD1    H1 3188   4.450   3.950  16.715 -1.3985 -0.0951 -1.4908
  206MPD1    H2 3189   4.468   3.638  16.998 -0.3868 -0.7185  0.2858
  206MPD1    H3 3190   4.548   3.849  16.913  0.5964  0.2012 -0.4512
  206MPD1     N 3191   4.282   3.833  16.545  0.6385 -0.4096  0.0894
  206MPD1    H5 3192   4.331   3.913  16.505  1.0034 -0.3829  0.5844
  206MPD1    N1 3193   4.296   3.483  16.891 -0.2348 -0.5749  0.1582
  206MPD1    H6 3194   4.361   3.443  16.958  1.3375 -0.8930 -1.5798
  206MPD1    H7 3195   4.272   3.395  16.847  5.1494 -1.0817 -1.7405
  207MPD1     C 3196   0.972   1.584  11.007  0.3120 -0.0429 -0.2225
  207MPD1    C1 3197   1.014   1.617  10.879 -0.6066  0.1876 -0.0708
  207MPD1    C2 3198   1.125   1.682  10.853  0.0525  0.5910  0.0177
  207MPD1    C3 3199   1.210   1.723  10.955  0.3387  0.1087 -0.3159
  207MPD1    C4 3200   1.176   1.677  11.080 -0.0803  0.5462  0.0131
  207MPD1    C5 3201   1.065   1.610  11.108 -0.3467  0.1445  0.6185
  207MPD1     H 3202   1.161   1.708  10.754  0.7454  0.1084  0.1392
  207MPD1    H1 3203   1.243   1.698  11.163 -2.0718 -0.1702  1.7920
  207MPD1    H2 3204   0.883   1.525  11.025 -0.9681  1.1413 -2.6066
  207MPD1    H3 3205   1.048   1.574  11.208 -0.3058 -0.1846  0.5077
  207MPD1     N 3206   1.329   1.791  10.945  0.9922  0.0952 -0.3154
  207MPD1    H5 3207   1.392   1.800  11.025 -0.9232  0.2547  1.1656
  207MPD1    N1 3208   0.926   1.567  10.779 -0.2756 -0.8251  0.7080
  207MPD1    H6 3209   0.827   1.563  10.800 -0.1205 -1.1761  1.3674
  207MPD1    H7 3210   0.936   1.627  10.697  2.4818 -0.2732  1.4418
  208MPD1     C 3211   0.127   0.475  16.562  0.0850 -0.3141 -0.1205
  208MPD1    C1 3212   0.212   0.584  16.580  0.7153 -1.1101 -0.7026
  208MPD1    C2 3213   0.227   0.633  16.710  0.3578 -0.4440  0.0050
  208MPD1    C3 3214   0.182   0.559  16.819  0.4051  0.4280  0.3995
  208MPD1    C4 3215   0.113   0.441  16.793  0.2583 -0.4380  0.0127
  208MPD1    C5 3216   0.079   0.407  16.666  0.4600 -0.0242  0.2048
  208MPD1     H 3217   0.291   0.719  16.724 -0.4677  0.1232  0.2867
  208MPD1    H1 3218   0.071   0.381  16.872  2.6428 -0.1964  1.4726
  208MPD1    H2 3219   0.097   0.447  16.462 -2.5315  0.6248  0.3984
  208MPD1    H3 3220   0.004   0.329  16.658  0.0355  0.1976  1.9315
  208MPD1     N 3221   0.188   0.617  16.954  0.1295  0.9344 -0.4275
  208MPD1    H5 3222   0.237   0.706  16.960 -1.2714  1.6233  0.5347
  208MPD1    N1 3223   0.255   0.663  16.470 -0.1308 -0.2447  0.3321
  208MPD1    H6 3224   0.334   0.722  16.494  0.1973  0.6414 -2.9046
  208MPD1    H7 3225   0.273   0.607  16.386 -0.8274  0.8459 -0.5504
  209MPD1     C 3226   1.825   0.476  11.073 -0.7775 -0.9249 -0.6712
  209MPD1    C1 3227   1.765   0.596  11.028 -0.1166 -0.0016 -0.2000
  209MPD1    C2 3228   1.826   0.717  11.043  0.5163  0.1759 -1.2939
  209MPD1    C3 3229   1.950   0.721  11.100  0.2612 -0.3277  0.0716
  209MPD1    C4 3230   2.009   0.609  11.152  0.1826 -0.3758 -0.2106
  209MPD1    C5 3231   1.951   0.486  11.128  0.1779 -0.1016  0.6979
  209MPD1     H 3232   1.769   0.807  11.023  1.0672  1.1368  1.4616
  209MPD1    H1 3233   2.104   0.609  11.204  0.5430 -0.7163 -0.8693
  209MPD1    H2 3234   1.778   0.379  11.072  1.6200 -2.1036  0.0082
  209MPD1    H3 3235   1.990   0.400  11.180 -1.3321 -0.0975  1.8375
  209MPD1     N 3236   2.008   0.843  11.134  0.0748  0.3756 -0.2461
  209MPD1    H5 3237   1.946   0.923  11.130 -0.1551  0.2060 -0.0660
  209MPD1    N1 3238   1.631   0.597  10.984  0.0663  0.0265 -0.3647
  209MPD1    H6 3239   1.608   0.515  10.929  1.6992 -0.5161 -0.2313
  209MPD1    H7 3240   1.607   0.672  10.919 -0.9224 -0.7892 -0.9375
  210MPD1     C 3241   2.608   1.257  11.962 -0.4206 -0.3968 -1.1884
  210MPD1    C1 3242   2.585   1.129  11.916  0.2532  0.2989 -0.5640
  210MPD1    C2 3243   2.515   1.104  11.794  0.2391  0.3762  0.3942
  210MPD1    C3 3244   2.451   1.207  11.734  0.1052 -0.0628 -0.2555
  210MPD1    C4 3245   2.472   1.329  11.785  0.9251  0.5168 -0.1416
  210MPD1    C5 3246   2.563   1.351  11.885  0.3004 -0.4900 -0.2813
  210MPD1     H 3247   2.487   1.005  11.760  2.6842 -1.8322  4.8941
  210MPD1    H1 3248   2.438   1.421  11.739 -0.4146  0.0027 -0.1838
  210MPD1    H2 3249   2.673   1.277  12.046 -1.2468  0.3324 -0.7268
  210MPD1    H3 3250   2.582   1.455  11.912  1.6349 -1.1174  1.2101
  210MPD1     N 3251   2.376   1.205  11.608  0.1431 -0.2952  0.5024
  210MPD1    H5 3252   2.324   1.288  11.580  0.7749  0.1014  0.4811
  210MPD1    N1 3253   2.630   1.016  11.995  0.0817  0.2640  0.2933
  210MPD1    H6 3254   2.676   0.949  11.934  0.0528  0.6992 -0.2025
  210MPD1    H7 3255   2.690   1.044  12.072  0.1380 -0.5210  0.5383
  211MPD1     C 3256   0.320   1.022  16.435 -0.4320  0.8444 -0.7003
  211MPD1    C1 3257   0.322   1.127  16.527 -0.1446  0.4357 -0.9740
  211MPD1    C2 3258   0.211   1.203  16.527  0.8233 -1.1722 -0.4464
  211MPD1    C3 3259   0.100   1.203  16.447  0.7410  0.1510 -0.4633
  211MPD1    C4 3260   0.109   1.106  16.348 -0.3763 -0.0634  0.0452
  211MPD1    C5 3261   0.207   1.008  16.356 -0.5134 -0.0208  0.1127
  211MPD1     H 3262   0.207   1.281  16.602 -0.1033 -0.0164 -1.7004
  211MPD1    H1 3263   0.038   1.097  16.267 -0.8745 -0.7281  0.5519
  211MPD1    H2 3264   0.404   0.954  16.428 -1.6985 -1.0766  2.9102
  211MPD1    H3 3265   0.205   0.932  16.279  0.0568  0.2563 -0.1786
  211MPD1     N 3266   4.729   1.297  16.460 -0.3134  0.0055 -0.5344
  211MPD1    H5 3267   0.001   1.364  16.536  1.0545 -1.8069  0.9253
  211MPD1    N1 3268   0.421   1.134  16.623 -0.0127 -0.2035  0.6150
  211MPD1    H6 3269   0.512   1.100  16.590  0.6205  1.9986  0.1173
  211MPD1    H7 3270   0.426   1.226  16.666  1.9974  0.2513 -0.5887
  212MPD1     C 3271   3.888   3.970  16.133  0.0417  0.4667  0.2988
  212MPD1    C1 3272   3.826   4.078  16.188  0.0424 -0.2767  0.2328
  212MPD1    C2 3273   3.744   4.054  16.297 -0.2120 -0.2951  0.3534
  212MPD1    C3 3274   3.739   3.930  16.360  0.1661 -0.8970  0.0987
  212MPD1    C4 3275   3.802   3.823  16.294 -0.1410 -0.2463 -0.6971
  212MPD1    C5 3276   3.872   3.851  16.183  0.0905 -0.4338  0.4868
  212MPD1     H 3277   3.688   4.137  16.338 -2.0688 -1.2178 -0.3381
  212MPD1    H1 3278   3.810   3.725  16.340  0.5825  1.0319  1.9002
  212MPD1    H2 3279   3.935   3.968  16.035  1.1547  1.0813  0.8340
  212MPD1    H3 3280   3.922   3.775  16.123 -1.8327 -0.2438 -1.3520
  212MPD1     N 3281   3.683   3.905  16.486  0.3911 -0.3537  0.3305
  212MPD1    H5 3282   3.692   3.812  16.525  1.6113 -0.1138  0.6179
  212MPD1    N1 3283   3.844   4.200  16.123  0.2840  0.2070 -0.0556
  212MPD1    H6 3284   3.878   4.277  16.180  0.4988 -0.4085  0.6503
  212MPD1    H7 3285   3.918   4.200  16.054 -0.4354  0.8711 -0.8159
  213MPD1     C 3286   2.168   4.578  15.668  1.3407  0.2728 -1.1186
  213MPD1    C1 3287   2.048   4.518  15.707  0.1276 -0.3845  0.5622
  213MPD1    C2 3288   1.935   4.593  15.714  0.4629 -0.1192 -0.2300
  213MPD1    C3 3289   1.933   4.721  15.656 -0.2335  0.1304 -0.0528
  213MPD1    C4 3290   2.045   0.038  15.602 -0.3435 -0.2907  0.3851
  213MPD1    C5 3291   2.161   4.702  15.609  0.1185  0.1641  0.2474
  213MPD1     H 3292   1.845   4.552  15.758  0.1093  2.5135  1.5114
  213MPD1    H1 3293   2.044   0.128  15.543 -2.0220  0.3687  1.4334
  213MPD1    H2 3294   2.260   4.521  15.657 -0.3666 -2.2588 -2.1675
  213MPD1    H3 3295   2.253   0.005  15.567  0.5364  1.4704  2.3071
  213MPD1     N 3296   1.802   0.041  15.637 -1.0330  0.2820  0.5480
  213MPD1    H5 3297   1.721   4.717  15.653 -0.3309 -0.7552  0.3201
  213MPD1    N1 3298   2.059   4.411  15.803  0.0783 -0.4551 -0.2912
  213MPD1    H6 3299   1.974   4.355  15.807  0.5076 -0.9215  2.4329
  213MPD1    H7 3300   2.139   4.357  15.770  0.7821  0.0980  0.5229
  214MPD1     C 3301   0.920   0.034  15.851  0.2704  0.4446 -0.3536
  214MPD1    C1 3302   0.938   4.700  15.732  0.5194  0.3738 -0.1243
  214MPD1    C2 3303   1.060   4.713  15.664  0.2904  0.4812 -0.0964
  214MPD1    C3 3304   1.167   0.065  15.711  0.0961  0.0312 -0.3117
  214MPD1    C4 3305   1.139   0.140  15.822  1.1913 -0.1412  0.8327
  214MPD1    C5 3306   1.017   0.122  15.890  0.3090 -0.0589  0.1854
  214MPD1     H 3307   1.070   4.650  15.576 -1.4790  1.6737 -1.1445
  214MPD1    H1 3308   1.210   0.214  15.859  2.2608 -1.3253  1.1527
  214MPD1    H2 3309   0.833   0.019  15.913 -0.0884  1.5925 -0.5847
  214MPD1    H3 3310   1.004   0.174  15.985 -3.1204  0.6869 -0.7030
  214MPD1     N 3311   1.287   0.084  15.640  0.4032 -0.2469  0.2518
  214MPD1    H5 3312   1.360   0.146  15.672  0.6318  0.1577 -1.0453
  214MPD1    N1 3313   0.855   4.590  15.702  0.7013 -0.2616  0.0965
  214MPD1    H6 3314   0.856   4.541  15.613 -0.0278 -1.2121  0.6163
  214MPD1    H7 3315   0.757   4.598  15.727  0.3037 -0.1089 -1.5236
  215MPD1     C 3316   1.023   1.055  11.805  0.1939 -0.3911 -0.9357
  215MPD1    C1 3317   1.155   1.077  11.837 -0.2217 -0.1565 -0.0310
  215MPD1    C2 3318   1.225   1.174  11.770 -0.9721 -0.1269 -0.0794
  215MPD1    C3 3319   1.157   1.261  11.685 -0.3677  0.3669 -0.5860
  215MPD1    C4 3320   1.023   1.236  11.645  0.0550 -0.0227  0.3214
  215MPD1    C5 3321   0.954   1.137  11.718 -0.5113 -0.6551  0.1157
  215MPD1     H 3322   1.332   1.191  11.779 -1.1492  0.7584  0.4046
  215MPD1    H1 3323   0.969   1.284  11.564  3.4104  0.3701 -1.6841
  215MPD1    H2 3324   0.969   0.976  11.855  3.1948 -1.0932  1.1674
  215MPD1    H3 3325   0.849   1.116  11.699 -1.1281  4.2126 -1.5918
  215MPD1     N 3326   1.233   1.368  11.623 -0.0089 -0.6144  0.3692
  215MPD1    H5 3327   1.331   1.382  11.645  0.0496 -0.1027 -0.2171
  215MPD1    N1 3328   1.228   0.982  11.912 -0.3878  0.0061  0.5428
  215MPD1    H6 3329   1.312   1.023  11.951 -0.7153  2.1013 -0.9075
  215MPD1    H7 3330   1.174   0.960  11.995 -1.3265 -1.1736 -0.3806
  216MPD1     C 3331   3.503   4.471  17.186 -0.2642 -0.5111  0.5373
  216MPD1    C1 3332   3.538   4.355  17.129  0.0888  0.2850  0.0733
  216MPD1    C2 3333   3.470   4.239  17.170 -0.1525 -0.3364 -0.2671
  216MPD1    C3 3334   3.377   4.242  17.270 -0.2097 -0.4964  0.4612
  216MPD1    C4 3335   3.362   4.357  17.342  0.2140  0.4900 -0.2246
  216MPD1    C5 3336   3.423   4.476  17.300  0.6077 -0.2645 -0.5074
  216MPD1     H 3337   3.495   4.139  17.136  0.1466 -0.9160  1.6587
  216MPD1    H1 3338   3.298   4.360  17.429  1.1635  1.4939  0.4364
  216MPD1    H2 3339   3.541   4.564  17.146  1.3513 -1.0040  0.9225
  216MPD1    H3 3340   3.412   4.565  17.360  2.9409 -1.0851  1.1726
  216MPD1     N 3341   3.329   4.118  17.319 -0.1513 -1.0004  1.0092
  216MPD1    H5 3342   3.333   4.044  17.250  0.1790 -2.1086  2.2246
  216MPD1    N1 3343   3.631   4.351  17.020 -0.1102 -0.2923 -0.0235
  216MPD1    H6 3344   3.683   4.264  17.012  1.1542  0.4425  0.1564
  216MPD1    H7 3345   3.695   4.430  17.026 -0.8469  0.3719 -0.7815
  217MPD1     C 3346   3.686   1.024   8.296 -0.7165 -0.3668  0.5523
  217MPD1    C1 3347   3.728   0.894   8.297 -0.3460 -0.7807  0.1889
  217MPD1    C2 3348   3.758   0.838   8.419 -0.6464 -0.4740 -0.5608
  217MPD1    C3 3349   3.758   0.912   8.538 -0.2682  0.0729  0.2648
  217MPD1    C4 3350   3.735   1.057   8.531  0.3566  0.0156 -0.4209
  217MPD1    C5 3351   3.690   1.104   8.413  0.6607  0.6208 -0.1711
  217MPD1     H 3352   3.781   0.732   8.420 -0.9316 -0.5200  0.7807
  217MPD1    H1 3353   3.739   1.129   8.611 -1.5005  0.2959 -0.5641
  217MPD1    H2 3354   3.632   1.057   8.208  0.4308  0.1853  0.0635
  217MPD1    H3 3355   3.646   1.203   8.413  0.7687  0.6713  1.0231
  217MPD1     N 3356   3.777   0.854   8.665 -0.3782 -0.2355  0.3386
  217MPD1    H5 3357   3.760   0.914   8.745 -0.2894 -1.0113  0.9371
  217MPD1    N1 3358   3.708   0.806   8.185  0.0423  0.8078 -0.3976
  217MPD1    H6 3359   3.733   0.849   8.097 -0.9017  0.2514 -0.9347
  217MPD1    H7 3360   3.760   0.719   8.195  1.8813  1.7910 -1.4621
  218MPD1     C 3361   1.060   1.920  13.033 -0.0460 -0.7028  0.8234
  218MPD1    C1 3362   1.144   1.973  12.931 -0.6739 -0.1676 -1.2311
  218MPD1    C2 3363   1.263   1.908  12.902  0.0957 -0.3338 -0.0254
  218MPD1    C3 3364   1.297   1.783  12.952 -0.3007  0.2687 -0.0766
  218MPD1    C4 3365   1.216   1.735  13.055  0.8818 -0.1331 -0.2771
  218MPD1    C5 3366   1.104   1.805  13.097 -0.2606  0.7213  0.3805
  218MPD1     H 3367   1.330   1.947  12.826 -2.1947  2.0203 -0.8506
  218MPD1    H1 3368   1.244   1.656  13.124  0.2865 -0.6187 -0.5916
  218MPD1    H2 3369   0.974   1.979  13.063  1.6578  2.4575 -0.5368
  218MPD1    H3 3370   1.046   1.760  13.176 -1.1972 -0.4046 -0.9632
  218MPD1     N 3371   1.410   1.715  12.906 -0.3733 -0.1929 -0.7336
  218MPD1    H5 3372   1.460   1.779  12.845  0.5632  0.5245  0.7761
  218MPD1    N1 3373   1.121   2.103  12.888  0.3476  0.0831 -0.0579
  218MPD1    H6 3374   1.173   2.126  12.803 -2.1151  0.8258 -1.3945
  218MPD1    H7 3375   1.022   2.121  12.875  0.3620  0.7615  0.7851
  219MPD1     C 3376   2.195   1.901  12.373 -0.1366  0.2509 -0.3672
  219MPD1    C1 3377   2.066   1.954  12.393  0.3400  0.4136 -0.0958
  219MPD1    C2 3378   1.990   1.893  12.492  0.3173 -0.5695 -0.3065
  219MPD1    C3 3379   2.038   1.778  12.550 -0.6234 -0.0873  0.2679
  219MPD1    C4 3380   2.166   1.734  12.530 -0.5085 -0.5501  0.3770
  219MPD1    C5 3381   2.244   1.796  12.435 -0.8310  0.0601 -0.3791
  219MPD1     H 3382   1.902   1.947  12.526 -0.1421 -2.9266  2.2181
  219MPD1    H1 3383   2.205   1.640  12.567 -0.8376 -1.4127 -1.4968
  219MPD1    H2 3384   2.274   1.949  12.316 -1.0487  0.5305 -1.3832
  219MPD1    H3 3385   2.347   1.767  12.425 -0.3637  1.2628  0.8700
  219MPD1     N 3386   1.961   1.698  12.636  0.8044 -0.1328 -0.4109
  219MPD1    H5 3387   2.011   1.619  12.675  1.3698 -0.4744 -1.8352
  219MPD1    N1 3388   2.025   2.076  12.344  0.0644 -0.1214 -0.1443
  219MPD1    H6 3389   1.924   2.090  12.346 -0.0314 -0.9983  1.9177
  219MPD1    H7 3390   2.065   2.105  12.255 -0.1935  1.1670  0.1567
  220MPD1     C 3391   0.911   0.888   9.664 -0.2532  0.3710  0.9805
  220MPD1    C1 3392   0.824   0.994   9.696 -0.1790 -0.8998 -0.6187
  220MPD1    C2 3393   0.825   1.052   9.824 -0.1611  0.0949  0.2451
  220MPD1    C3 3394   0.925   1.017   9.920 -0.4438  0.2878  0.8306
  220MPD1    C4 3395   1.016   0.919   9.880  0.2857  0.1516 -0.3157
  220MPD1    C5 3396   1.004   0.851   9.759 -0.8478  0.0257 -0.1805
  220MPD1     H 3397   0.745   1.119   9.854 -1.1375 -1.3989  0.9564
  220MPD1    H1 3398   1.086   0.877   9.951 -0.3309 -1.1641 -0.4772
  220MPD1    H2 3399   0.923   0.826   9.576 -1.2147  0.6321  0.6714
  220MPD1    H3 3400   1.068   0.774   9.718 -1.8608  0.4475 -2.5953
  220MPD1     N 3401   0.931   1.084  10.045  0.6473 -0.5080  0.4185
  220MPD1    H5 3402   0.850   1.143  10.061 -0.8304 -2.2859 -0.5848
  220MPD1    N1 3403   0.721   1.028   9.605  0.3682 -0.3373 -0.2617
  220MPD1    H6 3404   0.693   1.126   9.607  2.1485  0.1781 -0.7696
  220MPD1    H7 3405   0.745   1.004   9.509 -2.7666 -2.9519 -0.3980
  221MPD1     C 3406   4.616   0.456  16.204 -0.4751 -0.8029 -0.0573
  221MPD1    C1 3407   4.513   0.407  16.131 -0.2025 -0.6252 -0.5268
  221MPD1    C2 3408   4.524   0.289  16.069  0.7634 -0.3297  0.5586
  221MPD1    C3 3409   4.641   0.218  16.074 -0.1807 -0.2199 -0.6057
  221MPD1    C4 3410   0.010   0.280  16.127 -0.2259 -0.4460  0.2619
  221MPD1    C5 3411   0.004   0.395  16.195  0.4484 -0.1241 -0.2584
  221MPD1     H 3412   4.432   0.243  16.036 -0.3162  1.6981  0.7460
  221MPD1    H1 3413   0.102   0.223  16.137 -0.0432 -0.0494  0.8282
  221MPD1    H2 3414   4.608   0.550  16.257  2.2647 -1.6851  1.9193
  221MPD1    H3 3415   0.094   0.440  16.235  0.5606 -0.3243 -0.2823
  221MPD1     N 3416   4.663   0.086  16.033 -0.3425 -0.2313 -0.6377
  221MPD1    H5 3417   0.020   0.046  16.052  0.0557  1.2637  0.5462
  221MPD1    N1 3418   4.384   0.471  16.146  0.8705 -0.3063 -0.8929
  221MPD1    H6 3419   4.392   0.568  16.176 -0.8685 -1.1797  2.3568
  221MPD1    H7 3420   4.318   0.450  16.071 -0.9742  0.3040  0.5400
  222MPD1     C 3421   4.405   4.666   0.768 -0.4412 -0.0507  0.0781
  222MPD1    C1 3422   4.361   0.002   0.872 -0.4880 -0.2319 -0.0732
  222MPD1    C2 3423   4.226   0.016   0.914 -0.0291 -0.3455  0.1603
  222MPD1    C3 3424   4.132   4.684   0.839 -0.1057  0.8789  0.5150
  222MPD1    C4 3425   4.179   4.602   0.731 -0.1853  0.2337 -0.3235
  222MPD1    C5 3426   4.315   4.595   0.704 -0.5636  0.3456 -0.2207
  222MPD1     H 3427   4.198   0.083   0.994 -0.8069 -0.0105 -0.3925
  222MPD1    H1 3428   4.105   4.552   0.669 -0.1043  0.5804 -0.7015
  222MPD1    H2 3429   4.504   4.660   0.726 -0.0948  1.7628  0.6205
  222MPD1    H3 3430   4.350   4.549   0.613  0.0699 -1.1718  0.7988
  222MPD1     N 3431   3.991   4.704   0.849 -0.0312 -0.2970  0.3736
  222MPD1    H5 3432   3.932   4.648   0.788 -0.4478  1.6890 -1.0497
  222MPD1    N1 3433   4.454   0.084   0.926 -0.3626 -0.5666 -0.0433
  222MPD1    H6 3434   4.428   0.128   1.015  1.7577  1.3981 -0.3865
  222MPD1    H7 3435   4.550   0.051   0.920  0.5530  2.0324  0.0826
  223MPD1     C 3436   3.497   4.006   0.762 -0.2431 -0.0990 -0.0120
  223MPD1    C1 3437   3.600   4.032   0.853  0.7278 -0.7448  0.3019
  223MPD1    C2 3438   3.618   4.166   0.890 -0.2745 -0.8093  0.4237
  223MPD1    C3 3439   3.543   4.270   0.840 -0.0717  0.3292  0.0287
  223MPD1    C4 3440   3.437   4.235   0.760 -0.6297 -0.0448  0.1596
  223MPD1    C5 3441   3.415   4.109   0.727 -0.3533 -0.4880  0.5829
  223MPD1     H 3442   3.711   4.186   0.940 -0.4921 -2.0847  1.3412
  223MPD1    H1 3443   3.370   4.304   0.709 -0.0767  0.4086  0.0393
  223MPD1    H2 3444   3.483   3.909   0.716  0.5456 -0.4074  0.4134
  223MPD1    H3 3445   3.339   4.095   0.651 -0.3168  1.0347  0.2625
  223MPD1     N 3446   3.573   4.406   0.882 -0.4008  0.0105  0.3432
  223MPD1    H5 3447   3.650   4.421   0.946 -0.7143 -0.3036  0.7939
  223MPD1    N1 3448   3.697   3.935   0.882 -0.3323  1.0280 -0.1937
  223MPD1    H6 3449   3.671   3.837   0.894 -0.8408  0.7293 -3.5976
  223MPD1    H7 3450   3.755   3.960   0.962  0.5585  1.9592 -1.1356
  224MPD1     C 3451   3.952   1.064   8.907  0.5598  0.4302 -0.2175
  224MPD1    C1 3452   3.878   1.146   8.992  0.1697  0.4713 -0.1795
  224MPD1    C2 3453   3.875   1.122   9.125 -0.4843 -0.2867 -0.3482
  224MPD1    C3 3454   3.954   1.014   9.173  0.0514 -0.4360 -0.8208
  224MPD1    C4 3455   4.022   0.932   9.085 -0.1185  0.0622 -0.2966
  224MPD1    C5 3456   4.021   0.951   8.949 -0.4706 -0.5630  0.2815
  224MPD1     H 3457   3.813   1.184   9.189 -0.8310 -1.1797  0.1878
  224MPD1    H1 3458   4.079   0.849   9.126 -0.7875 -0.6342 -0.7755
  224MPD1    H2 3459   3.956   1.079   8.800 -1.4493 -0.9200 -0.4773
  224MPD1    H3 3460   4.071   0.878   8.887 -1.6261 -1.2044  0.0941
  224MPD1     N 3461   3.969   0.978   9.311  0.1858 -0.4624 -0.5438
  224MPD1    H5 3462   4.024   0.895   9.327  0.6120  0.2083  1.4422
  224MPD1    N1 3463   3.801   1.248   8.933  0.1705  0.5059  0.2224
  224MPD1    H6 3464   3.791   1.325   8.999 -0.3162  1.1679 -0.6378
  224MPD1    H7 3465   3.856   1.284   8.856 -0.1517 -2.0427 -1.1996
  225MPD1     C 3466   1.404   2.525  12.166 -0.2259 -0.1105 -0.4662
  225MPD1    C1 3467   1.327   2.436  12.091  1.3131  0.4667 -0.4905
  225MPD1    C2 3468   1.193   2.415  12.126  0.2366  0.4920 -0.1742
  225MPD1    C3 3469   1.144   2.478  12.241 -0.5844 -1.4479 -0.7890
  225MPD1    C4 3470   1.224   2.562  12.312 -0.8344 -0.2786  0.1444
  225MPD1    C5 3471   1.352   2.580  12.282 -0.4558 -0.3287 -0.3576
  225MPD1     H 3472   1.129   2.348  12.071  1.3610 -0.6660 -0.0638
  225MPD1    H1 3473   1.190   2.601  12.407 -1.6278  1.4489 -0.8489
  225MPD1    H2 3474   1.511   2.533  12.151  0.0062 -0.1069  1.1783
  225MPD1    H3 3475   1.423   2.616  12.356 -1.5028  2.8603 -0.9192
  225MPD1     N 3476   1.017   2.439  12.297  0.2923  0.1259 -0.4961
  225MPD1    H5 3477   1.002   2.468  12.394  0.4818 -1.6565  0.0732
  225MPD1    N1 3478   1.383   2.377  11.974 -0.8224  0.8043  0.5480
  225MPD1    H6 3479   1.469   2.326  11.990 -1.5936 -0.5935  0.1674
  225MPD1    H7 3480   1.323   2.320  11.915 -1.3211  1.1912  0.6785
  226MPD1     C 3481   2.838   2.222   9.676 -0.3459 -0.4723 -1.4064
  226MPD1    C1 3482   2.776   2.099   9.652  0.3876 -0.2524 -0.2395
  226MPD1    C2 3483   2.846   2.008   9.572  0.4759  0.7605 -0.0217
  226MPD1    C3 3484   2.976   2.032   9.533  0.5286  0.0716 -0.5897
  226MPD1    C4 3485   3.034   2.153   9.563 -0.6012 -0.0912  0.4833
  226MPD1    C5 3486   2.963   2.249   9.632 -0.1233 -0.1189 -0.3164
  226MPD1     H 3487   2.810   1.909   9.549 -1.2498  1.5823 -0.8157
  226MPD1    H1 3488   3.131   2.171   9.517 -0.2303 -2.4885  0.3403
  226MPD1    H2 3489   2.793   2.289   9.748 -0.1648 -2.3067  0.4082
  226MPD1    H3 3490   3.016   2.336   9.670  1.0016 -0.6467 -0.6774
  226MPD1     N 3491   3.052   1.927   9.473 -0.0501 -0.1197 -0.3586
  226MPD1    H5 3492   2.996   1.846   9.452  1.3554 -1.1218 -0.2846
  226MPD1    N1 3493   2.652   2.064   9.711 -0.7789 -0.4375 -0.1235
  226MPD1    H6 3494   2.645   2.086   9.811 -1.9007 -1.3091 -0.0141
  226MPD1    H7 3495   2.635   1.966   9.693 -1.1593 -1.0394  3.5003
  227MPD1     C 3496   2.716   1.177   9.505 -0.7109  0.0527  0.3760
  227MPD1    C1 3497   2.742   1.264   9.611 -0.3753 -0.0834 -0.2786
  227MPD1    C2 3498   2.846   1.354   9.594  0.0466 -0.3796  0.6799
  227MPD1    C3 3499   2.928   1.345   9.486 -0.1897 -0.3820  0.2931
  227MPD1    C4 3500   2.903   1.253   9.387  0.1872  0.1402  0.1407
  227MPD1    C5 3501   2.796   1.169   9.398 -0.0986  0.5649  0.0083
  227MPD1     H 3502   2.863   1.437   9.661  0.8166  1.0205 -1.2116
  227MPD1    H1 3503   2.967   1.246   9.300  1.6902 -2.1437  1.4364
  227MPD1    H2 3504   2.629   1.113   9.508 -0.5806 -0.2692 -2.3410
  227MPD1    H3 3505   2.775   1.096   9.321 -1.4355  0.0027  0.9044
  227MPD1     N 3506   3.031   1.439   9.491 -0.2287  0.7278  0.0239
  227MPD1    H5 3507   3.035   1.514   9.559 -0.6997 -0.4465  1.3365
  227MPD1    N1 3508   2.643   1.278   9.711 -0.2350  0.3387 -0.1732
  227MPD1    H6 3509   2.681   1.330   9.790  0.5257  1.5915 -1.3538
  227MPD1    H7 3510   2.590   1.194   9.730 -0.3951  1.2857  3.5323
  228MPD1     C 3511   2.952   0.185  13.319 -0.2614 -0.1130  0.0534
  228MPD1    C1 3512   2.919   0.168  13.186  0.6558 -0.6632 -0.2629
  228MPD1    C2 3513   2.797   0.108  13.152 -0.2999 -0.0280 -0.1517
  228MPD1    C3 3514   2.719   0.039  13.245  0.6114 -0.5757 -0.1158
  228MPD1    C4 3515   2.764   0.045  13.376 -0.2994 -0.0628  0.0881
  228MPD1    C5 3516   2.870   0.117  13.409 -0.6969  0.2041  0.5546
  228MPD1     H 3517   2.754   0.108  13.053  1.8423  0.7141 -1.0888
  228MPD1    H1 3518   2.710   4.732  13.456 -1.0981  2.2399  0.9523
  228MPD1    H2 3519   3.038   0.237  13.360 -1.7608  1.6247  0.9456
  228MPD1    H3 3520   2.910   0.107  13.510  2.0277  0.5485 -0.5004
  228MPD1     N 3521   2.598   4.699  13.210  0.0822  0.3590 -0.3013
  228MPD1    H5 3522   2.563   4.723  13.119  1.1452  0.7339 -0.6122
  228MPD1    N1 3523   3.007   0.216  13.081 -0.4052 -0.9920 -0.0327
  228MPD1    H6 3524   2.976   0.175  12.993  0.0828  0.6290 -0.9781
  228MPD1    H7 3525   3.105   0.193  13.095 -0.2965  0.1106  1.0259
  229MPD1     C 3526   2.102   2.893  15.158  0.2320  0.4150  0.7279
  229MPD1    C1 3527   2.176   2.932  15.265 -0.0351  0.0276  0.1110
  229MPD1    C2 3528   2.301   2.886  15.281 -0.7338  0.1961 -0.4561
  229MPD1    C3 3529   2.369   2.815  15.176 -0.2578  0.3704 -0.0831
  229MPD1    C4 3530   2.297   2.776  15.065 -0.1749 -1.0400  0.0033
  229MPD1    C5 3531   2.159   2.810  15.063  0.5089  0.0094  0.6385
  229MPD1     H 3532   2.355   2.897  15.374 -0.1830  0.4457 -0.8030
  229MPD1    H1 3533   2.322   2.715  14.979 -2.1814 -1.7304 -0.0872
  229MPD1    H2 3534   2.000   2.927  15.153  0.8750  2.2461 -0.0071
  229MPD1    H3 3535   2.092   2.784  14.982  1.4023 -0.6828  0.1350
  229MPD1     N 3536   2.494   2.753  15.195  0.3474 -0.0022 -0.1206
  229MPD1    H5 3537   2.516   2.679  15.129 -0.9770  0.9160 -1.5748
  229MPD1    N1 3538   2.118   3.004  15.372  0.0105  0.0321  0.1927
  229MPD1    H6 3539   2.047   3.067  15.335  0.8176  1.5788  1.2720
  229MPD1    H7 3540   2.177   3.068  15.425  1.5167 -1.8944  0.8189
  230MPD1     C 3541   3.305   2.602  15.915 -0.0767  0.3535  0.0256
  230MPD1    C1 3542   3.361   2.582  15.796  0.0123 -0.1313 -0.0459
  230MPD1    C2 3543   3.274   2.569  15.689 -0.7575  0.2932  0.0983
  230MPD1    C3 3544   3.140   2.598  15.697 -0.8176 -0.3681  0.0141
  230MPD1    C4 3545   3.093   2.630  15.826 -0.2177 -0.7374 -0.3463
  230MPD1    C5 3546   3.171   2.627  15.935 -0.9407  0.0701  0.0136
  230MPD1     H 3547   3.316   2.532  15.596  0.8597 -1.2923  1.4461
  230MPD1    H1 3548   2.988   2.652  15.840 -0.1363 -0.0756 -0.7578
  230MPD1    H2 3549   3.359   2.611  16.009  2.8204  2.4520 -1.8434
  230MPD1    H3 3550   3.132   2.651  16.034 -0.4499 -0.8105  0.4218
  230MPD1     N 3551   3.062   2.598  15.573 -0.7455  0.3672  0.1479
  230MPD1    H5 3552   3.107   2.584  15.483 -0.9548  2.0590 -0.2174
  230MPD1    N1 3553   3.493   2.545  15.787 -0.2395 -0.3760  0.1834
  230MPD1    H6 3554   3.547   2.589  15.861 -0.0058 -0.3565  0.0021
  230MPD1    H7 3555   3.534   2.571  15.698  1.4192 -2.0515  0.4464
  231MPD1     C 3556   1.092   0.273  15.316 -0.5315 -0.2850 -0.4848
  231MPD1    C1 3557   1.038   0.288  15.190  0.9870 -0.0689 -0.6066
  231MPD1    C2 3558   1.102   0.367  15.091 -0.6581  0.2130  0.2375
  231MPD1    C3 3559   1.218   0.428  15.130 -0.1193 -0.3850  1.0212
  231MPD1    C4 3560   1.261   0.428  15.260 -0.1583  0.1166  0.2409
  231MPD1    C5 3561   1.198   0.346  15.361 -0.1669  0.7967  0.7894
  231MPD1     H 3562   1.062   0.363  14.990 -2.5841 -3.5339  1.1462
  231MPD1    H1 3563   1.334   0.501  15.294 -1.1821  0.8539  0.8442
  231MPD1    H2 3564   1.040   0.212  15.390 -1.0862  1.3546  0.4638
  231MPD1    H3 3565   1.229   0.341  15.465 -1.3869  0.0300  1.1098
  231MPD1     N 3566   1.292   0.483  15.023 -0.2424 -0.1495 -0.4226
  231MPD1    H5 3567   1.246   0.458  14.936  0.4091 -3.3698  0.1828
  231MPD1    N1 3568   0.929   0.205  15.152  0.5380  0.2669 -0.1882
  231MPD1    H6 3569   0.873   0.241  15.075 -0.2827  0.2787  0.4148
  231MPD1    H7 3570   0.866   0.198  15.231 -0.5202  3.0464 -0.7822
  232MPD1     C 3571   2.997   3.134   0.223 -0.0144 -0.1359  0.2484
  232MPD1    C1 3572   3.063   3.036   0.297  0.0066 -0.1727 -0.4598
  232MPD1    C2 3573   2.989   2.933   0.346  1.2527  0.5424  0.2982
  232MPD1    C3 3574   2.857   2.921   0.314  0.2087  0.0124 -0.2678
  232MPD1    C4 3575   2.797   3.006   0.225 -0.2465 -0.3461  0.2110
  232MPD1    C5 3576   2.867   3.117   0.186  0.0568 -0.2190  0.5265
  232MPD1     H 3577   3.029   2.863   0.419  2.1740  0.5852 -0.1612
  232MPD1    H1 3578   2.694   3.000   0.192 -0.0401  1.0138 -0.6572
  232MPD1    H2 3579   3.051   3.216   0.176 -1.7556  0.4429 -0.7485
  232MPD1    H3 3580   2.809   3.176   0.116  1.7622 -0.5055 -1.1347
  232MPD1     N 3581   2.777   2.819   0.367 -0.0636  0.8214  0.6013
  232MPD1    H5 3582   2.817   2.766   0.443  0.1646  0.7721  0.4478
  232MPD1    N1 3583   3.202   3.049   0.325  0.5646  0.8730 -0.6125
  232MPD1    H6 3584   3.241   3.143   0.323  1.3113  0.5649 -0.7597
  232MPD1    H7 3585   3.235   2.992   0.403  0.1926  1.7980  0.2195
  233MPD1     C 3586   3.179   0.589   0.232  0.1996  0.1612  0.1946
  233MPD1    C1 3587   3.171   0.711   0.297 -0.0295  0.0271 -0.1904
  233MPD1    C2 3588   3.275   0.749   0.375  1.2390 -0.0073  0.2701
  233MPD1    C3 3589   3.368   0.656   0.417 -0.0598 -0.9697  0.6550
  233MPD1    C4 3590   3.377   0.536   0.349 -0.5456  0.1064  0.1906
  233MPD1    C5 3591   3.286   0.505   0.254 -0.2186 -0.3191 -0.2835
  233MPD1     H 3592   3.260   0.843   0.428 -1.5746  0.0373 -0.5929
  233MPD1    H1 3593   3.447   0.462   0.385  0.8528  2.3268  2.0762
  233MPD1    H2 3594   3.110   0.560   0.153  2.0313 -2.0978 -0.5961
  233MPD1    H3 3595   3.294   0.403   0.220 -0.1962 -0.9266  1.5284
  233MPD1     N 3596   3.449   0.672   0.540  0.0501 -0.2707 -0.3213
  233MPD1    H5 3597   3.504   0.592   0.568  1.7184  0.9969  0.0034
  233MPD1    N1 3598   3.065   0.798   0.258  0.5260 -0.0145 -0.8805
  233MPD1    H6 3599   3.049   0.885   0.309 -2.1175 -0.7093 -0.4997
  233MPD1    H7 3600   2.975   0.750   0.250 -0.2946  1.4926 -0.7611
  234MPD1     C 3601   4.589   4.060   9.813 -0.2391 -0.7462 -0.5532
  234MPD1    C1 3602   4.646   4.168   9.880  0.2989 -0.0031 -1.0306
  234MPD1    C2 3603   4.615   4.300   9.843  0.2480  0.9325  1.0370
  234MPD1    C3 3604   4.537   4.326   9.733  0.1233 -0.0087  0.5222
  234MPD1    C4 3605   4.487   4.216   9.660 -0.5232  0.5220 -0.7041
  234MPD1    C5 3606   4.514   4.086   9.699  0.5805 -0.5489  0.1876
  234MPD1     H 3607   4.653   4.384   9.900  2.4633  0.4347  0.3072
  234MPD1    H1 3608   4.426   4.229   9.572 -0.5740  0.2512 -0.7104
  234MPD1    H2 3609   4.612   3.962   9.852  0.4241  0.0177  1.0144
  234MPD1    H3 3610   4.480   4.007   9.634  0.6773  0.1889 -0.7712
  234MPD1     N 3611   4.517   4.464   9.686 -0.2549 -0.2485  0.5436
  234MPD1    H5 3612   4.562   4.537   9.741  0.5637  1.1815 -2.0120
  234MPD1    N1 3613   4.702   4.155  10.008  0.0591  0.0971  0.4807
  234MPD1    H6 3614   0.031   4.076  10.014 -0.7587 -0.5145  1.1888
  234MPD1    H7 3615   0.025   4.232  10.040  3.5788 -1.6253 -1.7935
  235MPD1     C 3616   1.713   2.292  11.325  0.2806  0.0692  0.0244
  235MPD1    C1 3617   1.603   2.361  11.277 -1.0068 -0.2146  0.1684
  235MPD1    C2 3618   1.620   2.424  11.155  0.0695  0.2219  0.6000
  235MPD1    C3 3619   1.751   2.444  11.104  0.0739 -0.0093  0.2644
  235MPD1    C4 3620   1.858   2.386  11.164  0.5201  0.7187  1.3631
  235MPD1    C5 3621   1.840   2.308  11.278 -0.1075  0.2701  0.0435
  235MPD1     H 3622   1.539   2.468  11.097  0.9056 -0.1602 -0.8534
  235MPD1    H1 3623   1.958   2.380  11.124  0.9533  0.8410  2.4226
  235MPD1    H2 3624   1.694   2.227  11.409 -0.0156 -0.1828 -0.2330
  235MPD1    H3 3625   1.917   2.249  11.327  0.7528  1.2164 -0.1654
  235MPD1     N 3626   1.765   2.509  10.975  0.1697 -0.0430 -0.5147
  235MPD1    H5 3627   1.683   2.523  10.918  0.7969  2.7279 -0.7107
  235MPD1    N1 3628   1.473   2.333  11.315  0.1264  0.2987  0.1380
  235MPD1    H6 3629   1.418   2.417  11.299  0.2696  0.4162  0.2680
  235MPD1    H7 3630   1.469   2.319  11.416  0.3541  0.1479  0.1249
  236MPD1     C 3631   0.374   4.087  10.569 -0.2139  0.0203 -0.0619
  236MPD1    C1 3632   0.343   3.987  10.481 -0.3422 -0.4884 -0.1391
  236MPD1    C2 3633   0.446   3.927  10.414  0.5029  0.2256 -0.2168
  236MPD1    C3 3634   0.572   3.983  10.411 -0.0843 -0.0893 -0.4144
  236MPD1    C4 3635   0.601   4.089  10.501  0.3640 -0.3924  0.4058
  236MPD1    C5 3636   0.502   4.140  10.579 -0.0981  1.1291 -0.7061
  236MPD1     H 3637   0.424   3.845  10.346  0.1399 -0.6177  0.9066
  236MPD1    H1 3638   0.698   4.138  10.495 -0.8179  2.0600  1.1573
  236MPD1    H2 3639   0.300   4.133  10.633  0.0716  0.4587 -0.0477
  236MPD1    H3 3640   0.534   4.218  10.647 -0.7111  0.0525  0.8329
  236MPD1     N 3641   0.684   3.925  10.349  0.2207  0.9720  1.2609
  236MPD1    H5 3642   0.773   3.972  10.363  1.3556 -0.5451 -0.7676
  236MPD1    N1 3643   0.216   3.929  10.485 -0.3993  0.0618  0.1062
  236MPD1    H6 3644   0.137   3.985  10.515  0.8403  0.7563  2.0571
  236MPD1    H7 3645   0.184   3.891  10.395 -0.5545  0.9007 -0.1913
  237MPD1     C 3646   1.278   0.885  15.259 -0.4881 -0.3051 -0.1687
  237MPD1    C1 3647   1.245   0.936  15.384 -0.6985 -1.0176 -0.3358
  237MPD1    C2 3648   1.122   0.992  15.401 -0.3644  0.1774  0.3384
  237MPD1    C3 3649   1.033   1.017  15.296  0.5489  0.5380  0.6305
  237MPD1    C4 3650   1.077   0.986  15.170 -0.1098 -0.1097 -0.0017
  237MPD1    C5 3651   1.198   0.919  15.157  0.1998  0.5064 -0.4342
  237MPD1     H 3652   1.108   1.031  15.501  0.5230  0.6771  0.2690
  237MPD1    H1 3653   1.014   1.004  15.084 -1.5452  0.8792  1.2586
  237MPD1    H2 3654   1.367   0.827  15.237 -0.0676 -0.8488  2.9719
  237MPD1    H3 3655   1.217   0.871  15.062 -0.4829 -0.4717 -0.0776
  237MPD1     N 3656   0.911   1.078  15.314  0.5515 -0.1572  0.1980
  237MPD1    H5 3657   0.860   1.082  15.226  1.2473 -1.5696 -0.2826
  237MPD1    N1 3658   1.342   0.944  15.484 -0.3222  0.2491  0.3038
  237MPD1    H6 3659   1.393   0.855  15.481  0.2348  0.6105 -1.0146
  237MPD1    H7 3660   1.305   0.948  15.578 -1.8968  2.4120 -0.4114
  238MPD1     C 3661   3.308   4.353  14.860 -0.8146  0.3406 -0.1300
  238MPD1    C1 3662   3.225   4.303  14.955  0.0291 -0.6709  0.4373
  238MPD1    C2 3663   3.093   4.345  14.958  0.4496  0.2146 -0.0657
  238MPD1    C3 3664   3.038   4.411  14.850  0.1490 -0.1680 -0.5262
  238MPD1    C4 3665   3.124   4.472  14.755 -0.2814 -0.5957 -0.1457
  238MPD1    C5 3666   3.258   4.440  14.762  0.2363  0.2108  0.4928
  238MPD1     H 3667   3.028   4.303  15.035 -0.1839  0.3886 -0.5035
  238MPD1    H1 3668   3.095   4.539  14.675 -3.1486 -1.8593 -0.1617
  238MPD1    H2 3669   3.412   4.324  14.856 -1.0744 -0.4668 -0.9929
  238MPD1    H3 3670   3.326   4.483  14.690 -1.3439  0.7969 -0.6501
  238MPD1     N 3671   2.899   4.433  14.841 -0.1813 -0.1468 -0.3490
  238MPD1    H5 3672   2.867   4.499  14.770 -0.2705  0.6619  0.4429
  238MPD1    N1 3673   3.273   4.229  15.059 -0.0773  0.3161 -0.1683
  238MPD1    H6 3674   3.354   4.176  15.030 -0.5921 -0.6317  0.1083
  238MPD1    H7 3675   3.205   4.160  15.092  1.5612 -0.6895  1.1349
  239MPD1     C 3676   3.008   0.447  14.911  0.5322 -0.1908  0.3588
  239MPD1    C1 3677   3.130   0.490  14.856 -0.7539 -0.3565 -0.0605
  239MPD1    C2 3678   3.126   0.565  14.742  0.0195 -0.0592  0.5923
  239MPD1    C3 3679   3.012   0.619  14.686 -0.4528  0.8826 -0.0909
  239MPD1    C4 3680   2.894   0.583  14.735  0.5336  0.0159  0.9709
  239MPD1    C5 3681   2.894   0.497  14.847  0.1115  0.3724  0.3393
  239MPD1     H 3682   3.218   0.588  14.689  0.2379  1.2499  1.5518
  239MPD1    H1 3683   2.800   0.621  14.695  0.8285 -1.4669 -1.0758
  239MPD1    H2 3684   3.003   0.368  14.985  1.9232 -1.8780 -1.3528
  239MPD1    H3 3685   2.797   0.473  14.891 -0.2937  1.3150 -0.0380
  239MPD1     N 3686   3.014   0.702  14.569  0.3209  0.2688 -0.1350
  239MPD1    H5 3687   2.924   0.739  14.539 -0.0259 -0.8368 -0.4450
  239MPD1    N1 3688   3.247   0.435  14.905 -0.2147  0.1555 -0.5478
  239MPD1    H6 3689   3.229   0.419  15.004 -0.0666  1.2586 -0.3425
  239MPD1    H7 3690   3.323   0.503  14.912 -0.8114  0.7204  0.3109
  240MPD1     C 3691   2.556   0.472  13.938  0.1333  0.1740  1.0029
  240MPD1    C1 3692   2.434   0.508  13.988 -0.2242  0.2178  0.1371
  240MPD1    C2 3693   2.407   0.509  14.121 -0.3804  0.2724 -0.2015
  240MPD1    C3 3694   2.500   0.459  14.210  0.0249  0.3441 -0.3030
  240MPD1    C4 3695   2.620   0.407  14.161 -0.3624 -0.5697 -0.0315
  240MPD1    C5 3696   2.639   0.407  14.026 -0.2498 -0.6534 -0.3429
  240MPD1     H 3697   2.324   0.560  14.167 -0.4258  1.1450 -1.2438
  240MPD1    H1 3698   2.690   0.345  14.215 -0.7088 -1.1951 -0.2921
  240MPD1    H2 3699   2.580   0.489  13.834  1.6043  1.6472  1.5909
  240MPD1    H3 3700   2.735   0.365  13.997  0.4612  0.2044  0.7434
  240MPD1     N 3701   2.467   0.464  14.353  0.5549  0.3191  0.8610
  240MPD1    H5 3702   2.391   0.528  14.375 -0.6425 -0.0874 -2.0459
  240MPD1    N1 3703   2.344   0.571  13.896  0.5437  0.2867 -0.1161
  240MPD1    H6 3704   2.359   0.545  13.799  0.5557  1.1641 -0.3465
  240MPD1    H7 3705   2.248   0.560  13.928  0.4944  0.1720 -0.3060
  241MPD1     C 3706   2.988   4.708  15.058 -0.0693  0.0075 -0.1689
  241MPD1    C1 3707   2.865   4.708  15.110  0.6463  0.3133  0.6345
  241MPD1    C2 3708   2.775   0.075  15.060  0.4682  0.3815 -0.1831
  241MPD1    C3 3709   2.794   0.148  14.948  0.1363  0.1342  0.1747
  241MPD1    C4 3710   2.923   0.141  14.899 -0.6280  0.3417 -0.1361
  241MPD1    C5 3711   3.013   0.054  14.953 -0.4799 -0.2787 -0.1104
  241MPD1     H 3712   2.678   0.080  15.107  1.5169  1.9741  1.8217
  241MPD1    H1 3713   2.952   0.189  14.806 -1.9494  0.6156 -0.3980
  241MPD1    H2 3714   3.069   4.655  15.107  1.9533  1.8768 -1.4697
  241MPD1    H3 3715   3.112   0.057  14.910  0.0569 -1.8138  1.0379
  241MPD1     N 3716   2.696   0.221  14.876  0.1623  0.0414  0.4180
  241MPD1    H5 3717   2.736   0.267  14.795  1.4780  0.9734  1.5893
  241MPD1    N1 3718   2.842   4.639  15.231  0.0043  0.2587 -0.1629
  241MPD1    H6 3719   2.747   4.613  15.255  0.4523 -1.7146 -0.4993
  241MPD1    H7 3720   2.906   4.562  15.249 -0.8202  0.1962  2.4678
  242MPD1     C 3721   2.627   4.157  15.943  0.5092  0.0624 -0.4388
  242MPD1    C1 3722   2.535   4.064  15.977  0.8623  0.8402  0.1744
  242MPD1    C2 3723   2.496   3.983  15.873  0.5464 -0.2258  0.2682
  242MPD1    C3 3724   2.540   3.988  15.742  0.0139  0.5209 -0.0280
  242MPD1    C4 3725   2.638   4.080  15.716  0.1305  0.9361  0.1241
  242MPD1    C5 3726   2.680   4.160  15.817  0.1579  0.2202  0.2654
  242MPD1     H 3727   2.424   3.905  15.897 -1.2852  1.2700 -0.3365
  242MPD1    H1 3728   2.685   4.087  15.618 -0.2201  0.1139 -0.1019
  242MPD1    H2 3729   2.661   4.226  16.019 -0.0326 -1.3347  1.0723
  242MPD1    H3 3730   2.757   4.232  15.790 -0.3500  0.4502 -0.5571
  242MPD1     N 3731   2.492   3.909  15.633  0.7281  0.0898 -0.0651
  242MPD1    H5 3732   2.533   3.929  15.543 -0.7820  1.3029 -0.4818
  242MPD1    N1 3733   2.503   4.032  16.117  0.3216  0.1007  0.9472
  242MPD1    H6 3734   2.426   3.966  16.128 -0.6433  0.8254 -1.4890
  242MPD1    H7 3735   2.502   4.107  16.186 -1.6440 -0.0079  1.0278
  243MPD1     C 3736   2.924   2.682   0.061  0.3848 -0.4436 -0.5818
  243MPD1    C1 3737   2.997   2.580   0.115 -0.1633  0.8159 -0.1793
  243MPD1    C2 3738   3.088   2.520   0.031 -0.0379  0.0299 -0.1639
  243MPD1    C3 3739   3.115   2.570  17.646 -0.0852 -0.3494  0.5563
  243MPD1    C4 3740   3.056   2.686  17.601  0.3265  0.2188 -0.2769
  243MPD1    C5 3741   2.962   2.737  17.687  0.0293  0.5897 -0.3439
  243MPD1     H 3742   3.142   2.430   0.059 -0.3176 -0.2432 -0.5122
  243MPD1    H1 3743   3.087   2.750  17.519 -1.4192  1.2089 -0.1744
  243MPD1    H2 3744   2.845   2.735   0.112  1.0856  1.0318 -1.0253
  243MPD1    H3 3745   2.901   2.819  17.653  0.3706  0.3127 -1.6142
  243MPD1     N 3746   3.229   2.517  17.582  0.2508 -0.0505 -0.0269
  243MPD1    H5 3747   3.297   2.463  17.635 -0.7000  0.1945  1.4381
  243MPD1    N1 3748   2.952   2.514   0.231 -0.2073 -0.4209  0.9032
  243MPD1    H6 3749   3.026   2.457   0.273  0.9789  1.8903  1.9375
  243MPD1    H7 3750   2.924   2.583   0.300 -0.8501  1.0010 -0.7811
  244MPD1     C 3751   3.685   1.889   0.116 -0.8650 -0.9120 -0.2229
  244MPD1    C1 3752   3.563   1.945   0.124  0.7145  0.0850 -0.1853
  244MPD1    C2 3753   3.534   2.059   0.047  0.4762 -0.8069 -0.1088
  244MPD1    C3 3754   3.627   2.112  17.705  0.0476  1.1791 -0.2950
  244MPD1    C4 3755   3.749   2.056  17.703  0.6862  0.2525 -0.4097
  244MPD1    C5 3756   3.778   1.946   0.039  0.2276 -0.2381  0.4579
  244MPD1     H 3757   3.441   2.109   0.068  1.1620 -0.2777  1.6881
  244MPD1    H1 3758   3.825   2.108  17.646  0.9796 -1.6271 -1.7281
  244MPD1    H2 3759   3.714   1.809   0.183 -1.5818 -1.0655 -0.0920
  244MPD1    H3 3760   3.881   1.913   0.027  1.3225  3.1403  0.3519
  244MPD1     N 3761   3.580   2.207  17.616  0.3476 -0.1289  0.1073
  244MPD1    H5 3762   3.483   2.239  17.621  0.1288 -0.5873 -1.3119
  244MPD1    N1 3763   3.477   1.907   0.228 -0.2676  0.6175  0.4964
  244MPD1    H6 3764   3.482   1.806   0.230 -0.2484  0.5769 -2.8349
  244MPD1    H7 3765   3.377   1.923   0.217 -0.2700 -0.5856 -1.0899
  245MPD1     C 3766   0.223   2.802  13.323 -0.5791  0.2209  0.7767
  245MPD1    C1 3767   0.298   2.776  13.433 -0.2212 -0.3345  0.2980
  245MPD1    C2 3768   0.340   2.886  13.499  0.1768 -0.4816  0.3237
  245MPD1    C3 3769   0.333   3.019  13.447  0.1716 -0.8877  0.3132
  245MPD1    C4 3770   0.284   3.033  13.319 -0.1870 -0.1561 -0.1102
  245MPD1    C5 3771   0.216   2.926  13.268 -0.5803 -0.3260 -0.1702
  245MPD1     H 3772   0.389   2.881  13.596 -0.1327 -1.2556  0.4376
  245MPD1    H1 3773   0.275   3.126  13.264  0.2891  0.6881  1.2370
  245MPD1    H2 3774   0.186   2.723  13.259 -0.8856  1.3602 -0.4573
  245MPD1    H3 3775   0.156   2.936  13.178 -0.6547  2.2471  0.1537
  245MPD1     N 3776   0.387   3.128  13.517  0.1717 -0.0472 -0.2137
  245MPD1    H5 3777   0.398   3.113  13.617  2.1007  1.0027 -0.2549
  245MPD1    N1 3778   0.300   2.654  13.493  0.1961 -0.3555 -0.0210
  245MPD1    H6 3779   0.369   2.654  13.568 -0.4502 -0.3454  0.5722
  245MPD1    H7 3780   0.327   2.585  13.424 -0.7154 -0.5099 -0.2202
  246MPD1     C 3781   1.895   3.325   9.214  0.0983  0.5679  0.6475
  246MPD1    C1 3782   1.772   3.324   9.284 -0.2961 -0.5720 -0.4165
  246MPD1    C2 3783   1.670   3.244   9.245 -0.1727 -0.2292  0.6740
  246MPD1    C3 3784   1.687   3.148   9.141  0.2604 -0.3450 -0.1644
  246MPD1    C4 3785   1.819   3.139   9.088 -0.1074 -0.0436 -0.0506
  246MPD1    C5 3786   1.917   3.226   9.120  0.0015 -0.4547 -0.3694
  246MPD1     H 3787   1.574   3.268   9.287 -0.3104 -1.6425  1.1411
  246MPD1    H1 3788   1.831   3.070   9.005 -1.0663 -0.0781 -0.1669
  246MPD1    H2 3789   1.971   3.399   9.235 -0.4139  2.1847 -3.1752
  246MPD1    H3 3790   2.016   3.212   9.080 -0.2031  2.0904 -1.8305
  246MPD1     N 3791   1.574   3.068   9.098 -0.1600 -0.1990  0.2012
  246MPD1    H5 3792   1.484   3.085   9.142  0.0955  2.5493 -0.3849
  246MPD1    N1 3793   1.736   3.430   9.363  0.4917 -0.3936 -0.0956
  246MPD1    H6 3794   1.680   3.387   9.437 -0.2532  0.6976 -0.0046
  246MPD1    H7 3795   1.817   3.470   9.410  0.7989 -0.6393 -0.4234
  247MPD1     C 3796   4.651   2.177  15.921 -1.0896  0.2923 -0.0265
  247MPD1    C1 3797   0.037   2.219  15.873  0.3525  0.0008  0.0402
  247MPD1    C2 3798   0.075   2.351  15.903 -0.4328 -0.1398 -0.2977
  247MPD1    C3 3799   4.730   2.437  15.981  0.7180  0.2699  0.0640
  247MPD1    C4 3800   4.605   2.392  16.016  0.7854  0.0244  0.2980
  247MPD1    C5 3801   4.567   2.260  15.999  0.5222  0.2696 -0.1474
  247MPD1     H 3802   0.173   2.383  15.868  0.3132 -2.0044  0.0999
  247MPD1    H1 3803   4.530   2.458  16.058 -0.1856 -1.1061  0.3353
  247MPD1    H2 3804   4.605   2.080  15.907  1.3752 -0.5581 -2.2224
  247MPD1    H3 3805   4.466   2.228  16.020  0.7541  0.6883  1.6220
  247MPD1     N 3806   0.027   2.570  16.016 -0.0014 -0.0583 -0.2611
  247MPD1    H5 3807   4.684   2.630  16.043 -0.2858 -1.2183  1.5316
  247MPD1    N1 3808   0.100   2.140  15.776 -0.6374  0.9644 -0.4868
  247MPD1    H6 3809   0.107   2.042  15.803  3.6076  1.1088 -1.0055
  247MPD1    H7 3810   0.195   2.171  15.757  0.0626 -0.6461  0.4785
  248MPD1     C 3811   1.239   2.760   0.674  0.2824  0.0245  0.2280
  248MPD1    C1 3812   1.249   2.857   0.773  0.0880 -0.1990 -0.3520
  248MPD1    C2 3813   1.134   2.933   0.787 -0.1991 -0.1353  0.3042
  248MPD1    C3 3814   1.022   2.933   0.708  0.0422 -0.2590 -0.0366
  248MPD1    C4 3815   1.022   2.836   0.616  0.5986  0.3555 -0.5298
  248MPD1    C5 3816   1.126   2.751   0.602 -0.7013  0.5209 -0.3289
  248MPD1     H 3817   1.140   3.003   0.870  0.7398 -0.2985  0.3721
  248MPD1    H1 3818   0.941   2.831   0.544 -0.3976  1.3553  0.5280
  248MPD1    H2 3819   1.318   2.686   0.669 -1.2145 -1.6244  0.6741
  248MPD1    H3 3820   1.134   2.674   0.525  1.3889  1.1977 -0.7993
  248MPD1     N 3821   0.924   3.033   0.735 -0.4569 -0.2817  0.1629
  248MPD1    H5 3822   0.931   3.097   0.814 -2.7085  0.7905 -0.5136
  248MPD1    N1 3823   1.357   2.847   0.863  0.3905 -0.1897 -0.3780
  248MPD1    H6 3824   1.380   2.925   0.924 -0.3496  0.8427 -1.4278
  248MPD1    H7 3825   1.438   2.815   0.811  1.4759  2.9059 -0.5934
  249MPD1     C 3826   2.297   0.937  10.865  0.0264 -0.3049  0.0161
  249MPD1    C1 3827   2.285   1.075  10.880  0.1975 -0.9052  0.9338
  249MPD1    C2 3828   2.162   1.122  10.823 -0.1270 -0.2835  0.1796
  249MPD1    C3 3829   2.057   1.041  10.771  0.7648 -0.1512  0.3233
  249MPD1    C4 3830   2.071   0.909  10.770  0.9231 -0.1147  0.1503
  249MPD1    C5 3831   2.192   0.863  10.823  0.4841 -0.0536 -0.3927
  249MPD1     H 3832   2.147   1.229  10.808 -0.5866 -0.4170 -0.3206
  249MPD1    H1 3833   2.009   0.825  10.739 -2.7823  2.6976 -0.1016
  249MPD1    H2 3834   2.392   0.889  10.883 -0.2345 -1.2291 -1.1250
  249MPD1    H3 3835   2.217   0.759  10.801  0.1888  0.0111 -1.0472
  249MPD1     N 3836   1.947   1.110  10.716  0.1826  0.3259  0.1224
  249MPD1    H5 3837   1.954   1.210  10.708 -1.2718  0.5425  1.4059
  249MPD1    N1 3838   2.395   1.156  10.909  0.1334 -0.3801 -0.4087
  249MPD1    H6 3839   2.459   1.123  10.980 -0.2945 -1.6528 -0.6173
  249MPD1    H7 3840   2.365   1.247  10.944 -2.0707 -0.7071 -1.4528
  250MPD2     C 3841   4.362   1.347  13.086 -0.7993  0.0765  0.2219
  250MPD2    C1 3842   4.246   1.416  13.063 -0.8053  0.1999 -0.3716
  250MPD2    C2 3843   4.151   1.379  12.975 -0.2191  0.1930 -0.0244
  250MPD2    C3 3844   4.163   1.250  12.926  0.9031 -0.0150  0.9258
  250MPD2    C4 3845   4.272   1.169  12.964  0.6833 -0.0475 -1.1031
  250MPD2    C5 3846   4.374   1.226  13.034  0.0780 -0.3607 -0.0132
  250MPD2     H 3847   4.060   1.436  12.964 -1.1481 -1.2923  0.0531
  250MPD2    H1 3848   4.276   1.068  12.924 -1.6769 -1.2966  1.8024
  250MPD2    H2 3849   4.432   1.391  13.156  2.4366 -2.4614 -1.4867
  250MPD2    H3 3850   4.467   1.174  13.055  0.1004 -1.2498 -2.2854
  250MPD2     N 3851   4.062   1.185  12.856  0.1561  0.0997  0.3063
  250MPD2    H5 3852   4.073   1.085  12.846  1.5256  0.2301  0.4906
  250MPD2    N1 3853   4.238   1.541  13.124  0.5694 -0.3914  0.3935
  250MPD2    H7 3854   4.314   1.559  13.189 -1.6245 -0.2462  2.9235
  251TMC3    C1 3855   4.161   1.758  13.179 -0.3804 -0.4255  0.1117
  251TMC3    C2 3856   4.054   1.837  13.217 -0.8683 -0.2130  0.3717
  251TMC3    C3 3857   4.086   1.969  13.233  0.7470  0.0964  0.2086
  251TMC3    C4 3858   4.290   1.804  13.164 -0.3725 -0.2660  0.2225
  251TMC3    C5 3859   4.321   1.941  13.180  0.1981 -0.0891  0.0065
  251TMC3    C6 3860   4.215   2.018  13.211  0.2283 -0.1643 -0.2030
  251TMC3     C 3861   4.132   1.628  13.123  0.9868 -0.3656 -0.5231
  251TMC3     O 3862   4.013   1.609  13.108  0.4359 -0.2788 -0.1116
  251TMC3     H 3863   3.952   1.802  13.217 -1.7512  2.3544 -2.4301
  251TMC3    H1 3864   4.374   1.741  13.136  0.6150 -0.1974  2.9826
  251TMC3    H2 3865   4.227   2.125  13.202 -1.3282 -0.0177 -0.5917
  251TMC3    C7 3866   4.467   1.983  13.191 -0.2573  0.1283  0.0123
  251TMC3    C8 3867   3.965   2.045  13.246 -0.2622  0.0278  0.0561
  251TMC3    O1 3868   4.553   1.904  13.163  0.1071  0.0244  0.5725
  251TMC3    O2 3869   3.860   1.991  13.274 -0.5307 -0.0591  0.3377
  252TMC3    C1 3870   3.105   3.059   9.606  0.0531  0.4007 -0.7619
  252TMC3    C2 3871   3.241   3.063   9.616 -0.0060 -0.7786 -0.4625
  252TMC3    C3 3872   3.305   2.971   9.695  0.2017  0.3762  0.0994
  252TMC3    C4 3873   3.034   2.980   9.687  0.5060 -0.1092 -0.0188
  252TMC3    C5 3874   3.099   2.888   9.767 -0.6312  0.1845 -0.2140
  252TMC3    C6 3875   3.234   2.881   9.771 -0.6526  0.5646 -0.5988
  252TMC3     C 3876   3.041   3.165   9.525 -0.0537  0.1620  0.2640
  252TMC3     O 3877   3.103   3.269   9.508 -0.0859 -0.4496  0.2048
  252TMC3     H 3878   3.306   3.131   9.562  0.6258  1.1932  2.7248
  252TMC3    H1 3879   2.926   2.985   9.686  0.5652  1.2614 -0.0160
  252TMC3    H2 3880   3.286   2.808   9.832 -0.7102  0.5945 -0.5137
  252TMC3    C7 3881   3.010   2.786   9.831 -0.3824 -0.1523 -0.1923
  252TMC3    C8 3882   3.450   2.982   9.711  0.2391 -0.3306 -0.0017
  252TMC3    O1 3883   2.902   2.831   9.854 -0.1933  0.4156 -0.5884
  252TMC3    O2 3884   3.501   3.085   9.664 -0.1235 -0.0962 -0.1547
  253MPD2     C 3885   0.725   1.562  15.474 -0.1656  0.3001  1.0727
  253MPD2    C1 3886   0.585   1.549  15.460  0.0973 -0.1831 -0.4929
  253MPD2    C2 3887   0.511   1.510  15.569  0.8087 -0.2504  0.1308
  253MPD2    C3 3888   0.567   1.507  15.696 -0.7890  1.1243  0.3056
  253MPD2    C4 3889   0.704   1.536  15.708  0.4135  0.4798 -0.4501
  253MPD2    C5 3890   0.781   1.567  15.601  0.6139  0.5721 -0.0717
  253MPD2     H 3891   0.403   1.504  15.561  1.1282 -1.8612 -3.0184
  253MPD2    H1 3892   0.753   1.531  15.806 -0.6518  1.1087  0.1081
  253MPD2    H2 3893   0.785   1.587  15.387  0.1419 -0.2220  1.1349
  253MPD2    H3 3894   0.886   1.595  15.611  1.0053 -1.7615  2.3417
  253MPD2     N 3895   0.493   1.493  15.818  0.1316 -0.8194  0.0676
  253MPD2    H5 3896   0.545   1.499  15.905  0.6481  1.8253 -0.4003
  253MPD2    N1 3897   0.521   1.568  15.335  0.1046 -0.7067 -0.5542
  253MPD2    H7 3898   0.587   1.592  15.262  1.4260  1.1862  1.2501
  254TMC3    C1 3899   0.310   1.492  15.962 -0.1469 -0.0771  0.1557
  254TMC3    C2 3900   0.170   1.491  15.981  0.2681 -0.3344  0.2234
  254TMC3    C3 3901   0.109   1.469  16.101 -0.0189 -0.3554 -0.2522
  254TMC3    C4 3902   0.396   1.466  16.070  0.5551  0.2499  0.1255
  254TMC3    C5 3903   0.329   1.458  16.198  0.0620  0.7866 -0.2373
  254TMC3    C6 3904   0.189   1.450  16.208 -0.0965 -0.0342 -0.3896
  254TMC3     C 3905   0.354   1.493  15.823 -0.4150  0.6956 -0.3168
  254TMC3     O 3906   0.267   1.464  15.742  0.5177  0.5478  0.3447
  254TMC3     H 3907   0.112   1.534  15.900 -1.1700 -0.5720  1.1273
  254TMC3    H1 3908   0.504   1.458  16.071  0.3766 -2.0770  0.6552
  254TMC3    H2 3909   0.139   1.443  16.304  0.5615  1.7792  0.0922
  254TMC3    C7 3910   0.400   1.493  16.322  0.5954 -0.3938  0.1818
  254TMC3    C8 3911   0.014   1.561  16.139 -0.5676 -0.1442 -0.1420
  254TMC3    O1 3912   0.337   1.465  16.419  0.2166  0.2345 -0.7334
  254TMC3    O2 3913   0.057   1.628  16.235  0.4003 -0.2693 -0.7923
  255MPD2     C 3914   2.921   4.451  10.665 -1.3455 -0.4614  0.0295
  255MPD2    C1 3915   2.924   4.505  10.534 -0.4377  0.3088  0.1240
  255MPD2    C2 3916   3.034   4.486  10.455  0.0082  0.2467  0.2018
  255MPD2    C3 3917   3.149   4.428  10.499 -0.0977 -0.1940 -0.1679
  255MPD2    C4 3918   3.153   4.380  10.632  0.3590 -0.1750  0.4167
  255MPD2    C5 3919   3.045   4.401  10.716 -0.6333  0.0447  0.5606
  255MPD2     H 3920   3.034   4.515  10.350  2.4679 -1.8668 -0.4014
  255MPD2    H1 3921   3.238   4.334  10.682  0.8786 -0.1008 -0.4005
  255MPD2    H2 3922   2.834   4.452  10.730 -0.7041 -0.7045  0.8865
  255MPD2    H3 3923   3.032   4.367  10.818 -1.0451 -0.8290  0.2234
  255MPD2     N 3924   3.238   4.399  10.398  0.1972 -0.1573 -0.3019
  255MPD2    H5 3925   3.236   4.444  10.307 -0.1720 -2.5166 -1.4746
  255MPD2    N1 3926   2.796   4.553  10.485  0.1674  0.0880  0.0481
  255MPD2    H7 3927   2.718   4.543  10.550  0.6515 -1.2483  0.4285
  256TMC3    C1 3928   2.658   4.671  10.333  0.6517  0.1938 -0.3725
  256TMC3    C2 3929   2.653   0.038  10.245 -0.1206  0.2054  0.4620
  256TMC3    C3 3930   2.537   0.059  10.174  0.9310  0.3967 -0.2169
  256TMC3    C4 3931   2.555   4.591  10.361 -0.5937 -0.0630  0.4419
  256TMC3    C5 3932   2.442   4.615  10.290 -0.6132  0.2472  0.2825
  256TMC3    C6 3933   2.426   4.721  10.204  0.1949  0.4647  0.3288
  256TMC3     C 3934   2.788   4.636  10.376  0.0907  0.1623  0.3138
  256TMC3     O 3935   2.880   4.681  10.309  0.2518 -0.0322 -0.2481
  256TMC3     H 3936   2.743   0.097  10.228  0.3045  0.0552  2.2276
  256TMC3    H1 3937   2.568   4.498  10.415 -1.5477 -0.4819 -0.0640
  256TMC3    H2 3938   2.340   4.725  10.139  0.2302  0.5955  0.2911
  256TMC3    C7 3939   2.363   4.495  10.253 -1.0060  0.4574 -0.1384
  256TMC3    C8 3940   2.564   0.089  10.035 -0.2368 -0.6626  0.1829
  256TMC3    O1 3941   2.325   4.486  10.135  0.2937 -0.4734  0.1879
  256TMC3    O2 3942   2.520   0.010   9.953 -0.0091 -0.4897  0.2950
  257MPD2     C 3943   2.414   1.449  13.102 -0.4720  0.6408  0.6636
  257MPD2    C1 3944   2.434   1.454  12.968 -0.3731  0.9919  0.1635
  257MPD2    C2 3945   2.498   1.346  12.902 -0.0468  0.5623  0.4079
  257MPD2    C3 3946   2.534   1.230  12.973  0.2307 -0.0992  0.1834
  257MPD2    C4 3947   2.493   1.222  13.105 -0.0229 -0.2395 -0.6181
  257MPD2    C5 3948   2.437   1.332  13.163 -0.1282  0.4449  0.1413
  257MPD2     H 3949   2.514   1.350  12.795 -0.3997 -1.0757  0.2995
  257MPD2    H1 3950   2.503   1.131  13.164 -1.5259 -0.4132 -0.6287
  257MPD2    H2 3951   2.367   1.533  13.152  0.4324  0.1876  2.2828
  257MPD2    H3 3952   2.408   1.319  13.267 -0.3857 -0.1179 -0.0009
  257MPD2     N 3953   2.592   1.126  12.901  0.4063  0.4571 -0.6983
  257MPD2    H5 3954   2.595   1.136  12.800  2.3534  1.0896 -0.5877
  257MPD2    N1 3955   2.402   1.575  12.897 -0.1270  0.0745  0.0042
  257MPD2    H7 3956   2.362   1.648  12.955  1.8877  2.2878 -1.4158
  258TMC3    C1 3957   2.703   0.922  12.878 -0.6657  0.6424 -0.8027
  258TMC3    C2 3958   2.641   0.907  12.756  0.4017 -0.3820 -0.4275
  258TMC3    C3 3959   2.701   0.820  12.668 -0.0172 -0.4216  0.3785
  258TMC3    C4 3960   2.813   0.855  12.918  0.0314  0.9406  0.4273
  258TMC3    C5 3961   2.875   0.779  12.824  0.2116 -0.1755  0.2302
  258TMC3    C6 3962   2.819   0.753  12.700 -0.0581 -0.3247  0.3527
  258TMC3     C 3963   2.658   1.025  12.969  0.0130  0.5063  0.0607
  258TMC3     O 3964   2.685   1.013  13.088 -0.7528 -0.3473  0.0497
  258TMC3     H 3965   2.551   0.958  12.723  0.1534 -0.0698  0.7314
  258TMC3    H1 3966   2.848   0.858  13.020 -1.0723  1.5450  0.7911
  258TMC3    H2 3967   2.871   0.683  12.636 -0.2675  0.6417 -0.8864
  258TMC3    C7 3968   2.996   0.707  12.865  0.4332  0.2306  0.1694
  258TMC3    C8 3969   2.640   0.800  12.539 -0.8980  0.2646  0.1472
  258TMC3    O1 3970   3.011   0.599  12.809 -0.4888 -0.4429  0.4284
  258TMC3    O2 3971   2.521   0.833  12.524 -0.1518  0.4216  0.6577
  259MPD2     C 3972   1.652   3.589   0.328 -0.2529  0.1335 -0.0517
  259MPD2    C1 3973   1.674   3.495   0.426  0.1302 -0.0513  0.0452
  259MPD2    C2 3974   1.785   3.410   0.413  0.1170 -0.0835  1.3246
  259MPD2    C3 3975   1.856   3.403   0.294 -0.1137 -0.3226 -0.4786
  259MPD2    C4 3976   1.832   3.503   0.200  0.0312  0.8413  0.4715
  259MPD2    C5 3977   1.731   3.588   0.215 -1.0947  0.0415 -0.5120
  259MPD2     H 3978   1.801   3.330   0.484  0.6716 -0.2088  1.0547
  259MPD2    H1 3979   1.888   3.495   0.107 -3.5118  0.7094 -1.6171
  259MPD2    H2 3980   1.566   3.656   0.334  0.0826  0.4705  1.0743
  259MPD2    H3 3981   1.717   3.663   0.138  0.0386  0.8948  0.1136
  259MPD2     N 3982   1.952   3.305   0.279  0.5907  0.1472  0.5419
  259MPD2    H5 3983   1.962   3.243   0.359 -0.7632 -1.5015 -0.5714
  259MPD2    N1 3984   1.587   3.498   0.537 -0.0415  0.2313  0.1490
  259MPD2    H7 3985   1.536   3.586   0.544  0.4727  0.5499 -0.1539
  260TMC3    C1 3986   2.147   3.202   0.196  0.2746  0.2702  0.0837
  260TMC3    C2 3987   2.210   3.149   0.088  0.2724  0.2761 -0.0097
  260TMC3    C3 3988   2.322   3.076   0.113 -0.3570  0.2688  0.0917
  260TMC3    C4 3989   2.202   3.186   0.323 -0.3088 -0.1197  0.6077
  260TMC3    C5 3990   2.299   3.096   0.351  0.2319  0.3426 -0.3670
  260TMC3    C6 3991   2.369   3.049   0.240 -0.0738  0.1975 -0.0073
  260TMC3     C 3992   2.047   3.302   0.177 -0.1692 -0.4393  0.5923
  260TMC3     O 3993   2.062   3.361   0.073  0.0997  0.3448 -0.0621
  260TMC3     H 3994   2.168   3.167  17.729 -1.4037  0.7411  0.7890
  260TMC3    H1 3995   2.145   3.229   0.405 -1.1037  0.9819 -0.5158
  260TMC3    H2 3996   2.450   2.978   0.255  0.1915  0.3979 -0.4807
  260TMC3    C7 3997   2.267   2.985   0.439 -0.3055  0.0465 -0.2020
  260TMC3    C8 3998   2.315   2.963   0.023  0.2867 -0.4679  0.2506
  260TMC3    O1 3999   2.283   2.877   0.391 -0.0976  0.6108 -0.2582
  260TMC3    O2 4000   2.293   2.985  17.641 -0.3607 -0.1612  0.2716
  261MPD2     C 4001   3.285   1.312  12.522 -0.2411  0.6352 -0.1566
  261MPD2    C1 4002   3.418   1.347  12.514  0.4649  0.1562  0.0723
  261MPD2    C2 4003   3.442   1.476  12.470 -0.8009 -0.4828  0.1938
  261MPD2    C3 4004   3.335   1.560  12.430 -0.6765  1.1843 -0.3231
  261MPD2    C4 4005   3.207   1.515  12.442  0.2320  0.4738  1.1515
  261MPD2    C5 4006   3.179   1.392  12.491  0.0334  0.4457  0.4071
  261MPD2     H 4007   3.546   1.500  12.455 -0.7789  0.0919  1.2486
  261MPD2    H1 4008   3.119   1.574  12.420  1.0464  0.5957 -1.7221
  261MPD2    H2 4009   3.255   1.209  12.534  1.7520  0.1399  0.6087
  261MPD2    H3 4010   3.075   1.365  12.505  0.8889 -1.2394  3.7519
  261MPD2     N 4011   3.365   1.693  12.383  0.5522 -0.1454 -0.5185
  261MPD2    H5 4012   3.462   1.718  12.371  0.7687  0.0251  1.6617
  261MPD2    N1 4013   3.535   1.268  12.550 -1.1410 -0.1659  0.6727
  261MPD2    H7 4014   3.630   1.305  12.540 -1.2995 -0.0051 -0.2466
  262TMC3    C1 4015   3.323   1.927  12.318  0.4914  0.7729  1.0640
  262TMC3    C2 4016   3.244   2.037  12.313  0.2108 -0.4077 -0.9291
  262TMC3    C3 4017   3.296   2.150  12.258 -0.2858  0.1828  0.5373
  262TMC3    C4 4018   3.455   1.929  12.270  0.3497 -0.0609 -0.2882
  262TMC3    C5 4019   3.503   2.043  12.210 -0.1917  0.3562  0.6007
  262TMC3    C6 4020   3.424   2.154  12.214 -0.7302 -0.4083 -0.4096
  262TMC3     C 4021   3.271   1.801  12.371  0.6548  0.1237  0.1617
  262TMC3     O 4022   3.154   1.797  12.404  0.2127  0.0441 -0.1719
  262TMC3     H 4023   3.146   2.023  12.358  1.2394  0.0271  1.4620
  262TMC3    H1 4024   3.516   1.840  12.260  0.2034 -0.3544  1.3873
  262TMC3    H2 4025   3.462   2.245  12.168 -2.1062  0.8046  0.8718
  262TMC3    C7 4026   3.570   2.013  12.087 -0.0042 -0.6587  0.9786
  262TMC3    C8 4027   3.204   2.235  12.168 -0.3281 -0.2999 -0.5162
  262TMC3    O1 4028   3.651   1.922  12.087  0.0509  0.4884 -0.3043
  262TMC3    O2 4029   3.261   2.305  12.085 -0.7444  0.1021 -0.2440
  263MPD2     C 4030   3.862   0.686  11.657  0.2539 -0.7009  0.2740
  263MPD2    C1 4031   3.965   0.702  11.571  0.2464  0.2966 -0.0303
  263MPD2    C2 4032   3.987   0.819  11.495  0.0787  0.2347 -0.7100
  263MPD2    C3 4033   3.907   0.930  11.515  0.4931  1.0101  0.0501
  263MPD2    C4 4034   3.802   0.918  11.603  0.8550 -0.0795  0.2865
  263MPD2    C5 4035   3.786   0.803  11.676  0.0159  0.4479  0.3516
  263MPD2     H 4036   4.073   0.827  11.430  0.2953 -1.0385 -0.5677
  263MPD2    H1 4037   3.728   0.994  11.623 -0.5013 -1.0824 -0.9380
  263MPD2    H2 4038   3.852   0.604  11.727  0.6312  0.9511  2.2800
  263MPD2    H3 4039   3.709   0.812  11.752  0.0252  1.6557  0.2302
  263MPD2     N 4040   3.942   1.042  11.442  0.1359  0.1429  0.3974
  263MPD2    H5 4041   4.028   1.038  11.389 -0.6412 -0.3731 -0.8205
  263MPD2    N1 4042   4.045   0.587  11.557 -0.6349  0.0689 -0.3296
  263MPD2    H7 4043   4.040   0.523  11.636 -0.1184 -0.5263 -0.7883
  264TMC3    C1 4044   3.973   1.270  11.396 -0.5932 -0.1536 -0.7683
  264TMC3    C2 4045   3.999   1.396  11.446  0.1201  0.4505 -0.6569
  264TMC3    C3 4046   4.087   1.475  11.377 -0.4421 -0.3690  0.0789
  264TMC3    C4 4047   4.005   1.233  11.265 -0.4247 -0.7463  0.7334
  264TMC3    C5 4048   4.077   1.321  11.197 -0.0202  0.2095  0.6044
  264TMC3    C6 4049   4.123   1.437  11.248 -0.1779  0.4923  0.0082
  264TMC3     C 4050   3.903   1.169  11.472 -0.5840 -0.4544 -0.2774
  264TMC3     O 4051   3.834   1.208  11.565 -0.1708  0.2540 -0.0991
  264TMC3     H 4052   3.968   1.407  11.549  0.6455  0.3318 -0.4848
  264TMC3    H1 4053   3.985   1.133  11.227 -0.0125 -1.7924  3.3140
  264TMC3    H2 4054   4.192   1.495  11.188  0.7754 -0.7719 -0.1144
  264TMC3    C7 4055   4.153   1.264  11.092  0.3260  0.1495 -0.0430
  264TMC3    C8 4056   4.181   1.566  11.443 -0.7678  0.0597 -0.6806
  264TMC3    O1 4057   4.272   1.291  11.102 -0.0638  0.9293  0.2498
  264TMC3    O2 4058   4.266   1.607  11.362 -0.1823 -0.4346  0.3268
  265MPD2     C 4059   1.569   1.280  15.298 -0.1839  0.3657 -0.0393
  265MPD2    C1 4060   1.704   1.314  15.293 -0.1804  0.3369 -0.0915
  265MPD2    C2 4061   1.788   1.261  15.201  0.2208 -0.7567 -0.4136
  265MPD2    C3 4062   1.750   1.157  15.118 -0.3571 -0.2555  0.6148
  265MPD2    C4 4063   1.614   1.124  15.124  0.0569 -0.8289 -0.4894
  265MPD2    C5 4064   1.531   1.180  15.214  0.1656  0.1416 -0.4724
  265MPD2     H 4065   1.885   1.305  15.186 -0.0889  0.3605  0.8491
  265MPD2    H1 4066   1.575   1.049  15.056 -0.6360 -0.1982 -0.7830
  265MPD2    H2 4067   1.502   1.323  15.371 -0.4563 -0.2501  0.0733
  265MPD2    H3 4068   1.424   1.159  15.213  0.3448 -0.7797  0.1617
  265MPD2     N 4069   1.833   1.093  15.025  0.1444  0.6195  0.1827
  265MPD2    H5 4070   1.797   1.005  14.990 -1.0604  1.6043 -1.0247
  265MPD2    N1 4071   1.761   1.418  15.374 -0.0190  0.8233  0.5933
  265MPD2    H7 4072   1.862   1.431  15.372 -0.0752  0.8819 -1.3508
  266TMC3    C1 4073   1.774   1.600  15.525  0.0006 -0.8919  0.3014
  266TMC3    C2 4074   1.888   1.554  15.587 -0.1548 -0.3264  0.0872
  266TMC3    C3 4075   1.928   1.632  15.691  0.7376 -0.7921 -0.2629
  266TMC3    C4 4076   1.722   1.727  15.546 -0.3882 -0.5246 -0.1929
  266TMC3    C5 4077   1.780   1.801  15.644 -0.0734 -0.3683 -0.2874
  266TMC3    C6 4078   1.876   1.749  15.726  0.8548 -0.9172 -0.7978
  266TMC3     C 4079   1.690   1.506  15.453  0.0708 -0.1243 -0.5469
  266TMC3     O 4080   1.570   1.531  15.456 -0.1961  0.4725 -0.3782
  266TMC3     H 4081   1.921   1.451  15.579  0.9015 -0.1523  2.1928
  266TMC3    H1 4082   1.629   1.763  15.503 -0.1118  0.0051 -0.3430
  266TMC3    H2 4083   1.928   1.811  15.798 -1.6710  0.6135 -0.2967
  266TMC3    C7 4084   1.759   1.940  15.652 -0.4846 -0.4164 -0.2569
  266TMC3    C8 4085   1.993   1.558  15.802  0.1058  0.1663 -0.5920
  266TMC3    O1 4086   1.768   2.005  15.548  0.1786  0.0096 -0.7331
  266TMC3    O2 4087   2.025   1.440  15.780  1.0132  0.2647  0.3126
  267MPD2     C 4088   3.546   3.583   0.385  0.1089  0.1007 -0.8181
  267MPD2    C1 4089   3.582   3.530   0.267 -0.3566  0.0271  0.5197
  267MPD2    C2 4090   3.493   3.554   0.164 -0.2477 -0.3260  0.2167
  267MPD2    C3 4091   3.385   3.642   0.173 -0.0830 -0.7288 -0.0422
  267MPD2    C4 4092   3.355   3.702   0.295  0.5390  0.7249  0.3042
  267MPD2    C5 4093   3.443   3.675   0.398 -0.7365 -0.7932 -0.3411
  267MPD2     H 4094   3.519   3.520   0.065  2.7388  0.4725  0.7250
  267MPD2    H1 4095   3.275   3.774   0.312  0.8739  1.0103  0.6654
  267MPD2    H2 4096   3.614   3.562   0.467 -1.1985 -1.0224 -0.0378
  267MPD2    H3 4097   3.430   3.727   0.492  1.4086  1.8526 -1.5162
  267MPD2     N 4098   3.319   3.670   0.049  0.0895  0.0443  0.3456
  267MPD2    H5 4099   3.347   3.615  17.708  1.8561  1.6637 -0.1527
  267MPD2    N1 4100   3.694   3.449   0.272  0.1964  0.0570  0.1440
  267MPD2    H7 4101   3.734   3.451   0.365 -0.8276 -0.5452  0.6071
  268TMC3    C1 4102   3.858   3.295   0.229  0.2609 -0.6226 -0.4444
  268TMC3    C2 4103   3.959   3.280   0.144  0.9800 -0.4489 -0.2800
  268TMC3    C3 4104   4.078   3.217   0.180  0.3188  0.7431 -0.0047
  268TMC3    C4 4105   3.884   3.284   0.367 -1.0520  0.8149  0.3790
  268TMC3    C5 4106   4.000   3.218   0.400 -0.7799 -0.4103 -0.2593
  268TMC3    C6 4107   4.102   3.187   0.313  0.0936 -0.0777  1.3165
  268TMC3     C 4108   3.738   3.364   0.183 -1.0023 -0.5105  0.2263
  268TMC3     O 4109   3.689   3.329   0.080 -0.2742 -0.0839 -0.1304
  268TMC3     H 4110   3.918   3.279   0.043 -1.5475 -2.4306  0.7631
  268TMC3    H1 4111   3.809   3.294   0.444  1.1225 -0.1912  2.6313
  268TMC3    H2 4112   4.199   3.146   0.340  0.7451  1.3775  1.2231
  268TMC3    C7 4113   4.039   3.223   0.538  0.0976 -0.0666  0.4663
  268TMC3    C8 4114   4.188   3.256   0.095  0.6604  0.4133  0.1357
  268TMC3    O1 4115   4.120   3.139   0.566  0.1377  0.3045 -1.0518
  268TMC3    O2 4116   4.301   3.234   0.136  0.2782  0.3392 -0.1315
  269MPD2     C 4117   4.376   1.671  15.579 -0.4904  0.6342  0.7169
  269MPD2    C1 4118   4.244   1.690  15.586  0.5000 -0.0269 -0.1273
  269MPD2    C2 4119   4.196   1.820  15.597  0.4529 -0.0153 -0.1378
  269MPD2    C3 4120   4.280   1.931  15.589 -0.3512  0.2648  0.1387
  269MPD2    C4 4121   4.417   1.909  15.601  0.1552  0.3003 -0.2119
  269MPD2    C5 4122   4.462   1.778  15.586  0.4262  0.3483 -0.1293
  269MPD2     H 4123   4.092   1.842  15.616  0.5290  0.1683  0.0666
  269MPD2    H1 4124   4.480   1.995  15.614  2.5692 -1.5250  0.0544
  269MPD2    H2 4125   4.408   1.568  15.583  2.3969  1.4820 -0.5647
  269MPD2    H3 4126   4.569   1.768  15.590  0.4625  1.0480  0.5380
  269MPD2     N 4127   4.218   2.055  15.606  0.0547  0.3552  0.4744
  269MPD2    H5 4128   4.119   2.062  15.627 -0.1619 -0.8562 -0.1345
  269MPD2    N1 4129   4.166   1.583  15.562 -0.5067  0.3570 -0.5150
  269MPD2    H7 4130   4.211   1.498  15.530 -0.6658 -0.1488  0.5930
  270TMC3    C1 4131   3.977   1.445  15.533 -0.2722 -0.1157  0.2710
  270TMC3    C2 4132   3.862   1.429  15.457  0.3464  0.2046 -0.1125
  270TMC3    C3 4133   3.813   1.305  15.441  0.2140 -0.7914 -0.2385
  270TMC3    C4 4134   4.035   1.337  15.595 -0.0138  0.4918 -0.0655
  270TMC3    C5 4135   3.976   1.214  15.584 -0.3824 -0.6476 -0.4624
  270TMC3    C6 4136   3.861   1.196  15.510  0.5768 -0.2036  0.0052
  270TMC3     C 4137   4.031   1.577  15.555 -0.5274 -0.2242  0.2326
  270TMC3     O 4138   3.944   1.664  15.573  0.4042 -0.6014 -0.1256
  270TMC3     H 4139   3.818   1.520  15.418 -0.8701  0.2349  1.3249
  270TMC3    H1 4140   4.124   1.346  15.657 -0.5601  0.7968  0.6627
  270TMC3    H2 4141   3.820   1.099  15.482  0.3349 -0.0779 -0.0798
  270TMC3    C7 4142   4.018   1.104  15.662 -0.0128 -0.0510  0.0394
  270TMC3    C8 4143   3.744   1.292  15.317  0.5340  0.0692 -0.1220
  270TMC3    O1 4144   4.134   1.104  15.703  0.1195  0.7652 -0.0549
  270TMC3    O2 4145   3.666   1.380  15.280  0.1236  0.1746  0.3653
  271MPD2     C 4146   3.705   1.241  13.601  0.6502  0.4288 -0.4474
  271MPD2    C1 4147   3.625   1.246  13.709  0.2977 -0.2160 -0.5664
  271MPD2    C2 4148   3.502   1.301  13.702  0.0635  0.0664 -0.2250
  271MPD2    C3 4149   3.462   1.361  13.582 -0.0665 -0.5661  0.6233
  271MPD2    C4 4150   3.550   1.370  13.476  0.4545 -0.2758  0.5846
  271MPD2    C5 4151   3.669   1.311  13.492  0.8834 -0.4321  0.1587
  271MPD2     H 4152   3.433   1.291  13.784 -0.8824 -1.0718 -1.1708
  271MPD2    H1 4153   3.524   1.422  13.385  0.0242 -0.3072  0.6916
  271MPD2    H2 4154   3.802   1.194  13.596 -0.0738 -1.2588  1.1693
  271MPD2    H3 4155   3.735   1.311  13.406  0.9386 -0.2193  0.2007
  271MPD2     N 4156   3.329   1.414  13.565  0.3979  0.4078  0.0599
  271MPD2    H5 4157   3.314   1.460  13.475  0.0988 -1.8125 -1.0074
  271MPD2    N1 4158   3.672   1.208  13.840  0.3441  1.0442 -0.8358
  271MPD2    H7 4159   3.606   1.211  13.917  1.0808 -0.7651 -0.1281
  272TMC3    C1 4160   3.815   1.147  14.020 -0.3696  0.0057 -0.0879
  272TMC3    C2 4161   3.932   1.088  14.059  0.1151 -0.0701 -0.1308
  272TMC3    C3 4162   3.946   1.050  14.190  0.4037  0.7159  0.2416
  272TMC3    C4 4163   3.729   1.199  14.116  0.5991  0.5658  0.1468
  272TMC3    C5 4164   3.765   1.185  14.243  0.5559 -0.0584  0.4420
  272TMC3    C6 4165   3.868   1.100  14.282 -0.1286 -0.7834 -0.4443
  272TMC3     C 4166   3.799   1.177  13.886 -0.1708  0.1512  0.5608
  272TMC3     O 4167   3.900   1.170  13.815  0.1408 -0.4417  0.0158
  272TMC3     H 4168   4.014   1.070  13.991 -0.2914 -1.8680 -0.1659
  272TMC3    H1 4169   3.647   1.262  14.083 -1.2608 -2.1460 -0.4535
  272TMC3    H2 4170   3.888   1.075  14.386  0.8615  2.4666  0.1540
  272TMC3    C7 4171   3.673   1.247  14.338 -0.1875 -0.9391 -0.5764
  272TMC3    C8 4172   4.051   0.952  14.223  0.1840  0.1457 -0.2388
  272TMC3    O1 4173   3.561   1.266  14.293 -0.5628  0.2345  0.1384
  272TMC3    O2 4174   4.156   0.970  14.156  0.1785 -0.2495  0.0519
  273MPD2     C 4175   4.095   4.501  12.085  0.4468  0.0214 -0.4341
  273MPD2    C1 4176   4.210   4.519  12.010  0.4099  0.5727  0.3981
  273MPD2    C2 4177   4.200   4.492  11.877 -1.0881 -0.1449  0.7373
  273MPD2    C3 4178   4.080   4.467  11.812 -0.5724 -0.0679  0.1054
  273MPD2    C4 4179   3.962   4.469  11.885 -0.1039 -0.3009  0.5268
  273MPD2    C5 4180   3.971   4.485  12.020  0.5331  0.2712 -0.4752
  273MPD2     H 4181   4.288   4.497  11.814 -2.2188  0.7413 -0.7379
  273MPD2    H1 4182   3.872   4.452  11.827  1.2404 -1.7181 -1.1226
  273MPD2    H2 4183   4.098   4.515  12.193  0.1704 -2.5288 -0.0956
  273MPD2    H3 4184   3.883   4.474  12.083 -0.8022 -0.0115 -2.4132
  273MPD2     N 4185   4.064   4.449  11.672  0.5541 -0.1414 -0.9225
  273MPD2    H5 4186   3.968   4.446  11.640 -0.1776 -1.1496  1.4495
  273MPD2    N1 4187   4.332   4.559  12.077 -0.2105 -0.4302  0.5272
  273MPD2    H7 4188   4.342   4.551  12.177  0.3591  0.3449  0.5360
  274TMC3    C1 4189   4.132   4.361  11.464  0.1146  0.4694 -0.5341
  274TMC3    C2 4190   4.003   4.340  11.422 -0.0499  0.2171 -0.0281
  274TMC3    C3 4191   3.973   4.327  11.290 -0.7899  0.5490  0.1301
  274TMC3    C4 4192   4.235   4.373  11.374  0.0822  0.2018  0.2536
  274TMC3    C5 4193   4.204   4.376  11.241 -0.1899  0.4838 -0.3050
  274TMC3    C6 4194   4.076   4.346  11.199  0.3092  0.5908  1.3549
  274TMC3     C 4195   4.168   4.405  11.599 -0.7149  0.0632 -0.4938
  274TMC3     O 4196   4.287   4.390  11.626  0.0671  0.0112  0.1351
  274TMC3     H 4197   3.921   4.332  11.493 -1.1628  3.6127 -0.9396
  274TMC3    H1 4198   4.336   4.387  11.411  0.9908 -0.3363 -1.9794
  274TMC3    H2 4199   4.063   4.368  11.093 -2.2448 -2.5764  1.0145
  274TMC3    C7 4200   4.284   4.452  11.149  0.4967  0.4118 -0.4831
  274TMC3    C8 4201   3.828   4.360  11.254  0.8464 -0.5010 -0.2203
  274TMC3    O1 4202   4.250   4.459  11.032  0.5017  0.0148  0.3287
  274TMC3    O2 4203   3.765   4.435  11.326 -0.1961 -0.7437 -0.8656
  275MPD2     C 4204   0.138   2.624  14.482 -0.0510 -0.4606  0.2754
  275MPD2    C1 4205   0.173   2.510  14.551  0.5727  0.0015 -0.1227
  275MPD2    C2 4206   0.098   2.399  14.525  0.1252 -0.4861 -0.1047
  275MPD2    C3 4207   4.733   2.405  14.434 -1.1982 -0.5971 -0.6476
  275MPD2    C4 4208   4.691   2.518  14.382 -0.0306  0.1374  0.1041
  275MPD2    C5 4209   0.019   2.631  14.416  0.2611  0.5868  0.4858
  275MPD2     H 4210   0.119   2.311  14.585  0.8277 -0.6871 -0.6514
  275MPD2    H1 4211   4.610   2.526  14.311  0.4569  0.9359 -0.3546
  275MPD2    H2 4212   0.194   2.716  14.487 -1.9917  0.6620  1.4004
  275MPD2    H3 4213   4.729   2.728  14.376 -0.4087 -0.7870 -2.4424
  275MPD2     N 4214   4.644   2.294  14.398 -0.4332 -0.3625 -0.2713
  275MPD2    H5 4215   4.569   2.309  14.331 -0.6913 -2.0284 -0.3469
  275MPD2    N1 4216   0.292   2.518  14.634  0.2918 -0.2912  0.4843
  275MPD2    H7 4217   0.314   2.440  14.695 -0.5013 -0.2656  0.8005
  276TMC3    C1 4218   0.459   2.605  14.760 -0.1545 -0.1766 -0.5122
  276TMC3    C2 4219   0.539   2.496  14.757  0.1403 -0.1409  0.0823
  276TMC3    C3 4220   0.651   2.496  14.830  0.3005 -0.0311 -0.4533
  276TMC3    C4 4221   0.505   2.722  14.821  0.2594 -0.8337  1.3348
  276TMC3    C5 4222   0.622   2.714  14.891 -0.3394  0.4195  0.5357
  276TMC3    C6 4223   0.697   2.600  14.909 -0.5998  0.2545 -0.0204
  276TMC3     C 4224   0.366   2.632  14.653 -0.2362  1.0864  0.3509
  276TMC3     O 4225   0.366   2.751  14.620 -0.2129  0.5043 -0.1143
  276TMC3     H 4226   0.516   2.421  14.682  0.9248 -0.1627 -0.1403
  276TMC3    H1 4227   0.448   2.814  14.814 -0.1249 -0.8919  3.7448
  276TMC3    H2 4228   0.796   2.597  14.954 -0.2741  0.2621 -0.7274
  276TMC3    C7 4229   0.665   2.838  14.960  0.2029 -0.0219  0.1503
  276TMC3    C8 4230   0.739   2.378  14.821  0.1731 -0.6013 -0.0494
  276TMC3    O1 4231   0.718   2.842  15.072  0.3890 -0.4568  0.8953
  276TMC3    O2 4232   0.858   2.397  14.846 -0.0206  0.1804  0.1164
  277MPD2     C 4233   2.042   2.127  13.233 -0.7188  0.7545 -0.5671
  277MPD2    C1 4234   1.932   2.153  13.314 -0.4791  0.4401  0.1866
  277MPD2    C2 4235   1.890   2.057  13.402 -0.0782 -0.0971  0.4332
  277MPD2    C3 4236   1.943   1.928  13.415  0.3937  0.3246  0.3011
  277MPD2    C4 4237   2.059   1.899  13.335  1.0997  0.1867  0.4225
  277MPD2    C5 4238   2.108   2.005  13.256 -0.7385 -0.1890 -0.0462
  277MPD2     H 4239   1.808   2.070  13.471  0.1308  0.1310  0.6368
  277MPD2    H1 4240   2.114   1.806  13.348 -1.3760 -1.3297  0.2207
  277MPD2    H2 4241   2.076   2.187  13.150  1.4511  0.9008  0.4318
  277MPD2    H3 4242   2.185   1.994  13.180  1.2923 -0.4227  2.0348
  277MPD2     N 4243   1.878   1.829  13.492  0.5461 -0.3949 -0.0985
  277MPD2    H5 4244   1.794   1.861  13.540  1.0417 -0.9872  1.1504
  277MPD2    N1 4245   1.879   2.283  13.295 -0.1625  0.1996  0.7959
  277MPD2    H7 4246   1.918   2.336  13.218  0.3275 -0.4742  0.5771
  278TMC3    C1 4247   1.825   1.608  13.586 -0.0188 -0.2642  0.1230
  278TMC3    C2 4248   1.852   1.474  13.590  0.3569  0.2342  0.4669
  278TMC3    C3 4249   1.752   1.392  13.635  0.0260  0.8081  0.1929
  278TMC3    C4 4250   1.704   1.655  13.621 -0.0300 -0.2824  0.1850
  278TMC3    C5 4251   1.614   1.572  13.689 -0.1961  0.1463  0.3294
  278TMC3    C6 4252   1.645   1.440  13.702 -0.5674 -0.8716 -0.2683
  278TMC3     C 4253   1.918   1.692  13.510 -0.1441  0.1472 -0.3471
  278TMC3     O 4254   2.018   1.629  13.476 -0.1391 -0.2248  0.3874
  278TMC3     H 4255   1.949   1.434  13.562  0.0649  0.1254 -0.3968
  278TMC3    H1 4256   1.685   1.762  13.613 -0.1681 -0.2068  1.5646
  278TMC3    H2 4257   1.573   1.367  13.738  1.5043 -1.8037  1.9660
  278TMC3    C7 4258   1.485   1.635  13.718 -0.2369  0.1793  0.2048
  278TMC3    C8 4259   1.784   1.250  13.637 -0.0643  0.1611 -0.9264
  278TMC3    O1 4260   1.467   1.748  13.675  0.4936 -0.7216 -0.5658
  278TMC3    O2 4261   1.904   1.216  13.642 -0.0826 -0.1151 -0.3160
  279MPD2     C 4262   1.233   1.654   0.373  0.1142  0.9344  0.0961
  279MPD2    C1 4263   1.177   1.754   0.443 -0.7064  0.5761 -0.3266
  279MPD2    C2 4264   1.087   1.840   0.382  0.2402  0.5452  0.5935
  279MPD2    C3 4265   1.057   1.836   0.246  0.1606  0.5680 -0.2091
  279MPD2    C4 4266   1.119   1.733   0.176  0.7616 -0.2838  0.3006
  279MPD2    C5 4267   1.200   1.635   0.244  0.3453  0.0304  0.4197
  279MPD2     H 4268   1.064   1.929   0.440 -0.9834 -0.2429  1.3236
  279MPD2    H1 4269   1.093   1.708   0.074  1.4145 -0.7662  0.2516
  279MPD2    H2 4270   1.297   1.578   0.419  0.1293  0.4700 -0.6827
  279MPD2    H3 4271   1.241   1.553   0.187 -2.4233 -1.5796  0.7456
  279MPD2     N 4272   0.982   1.931   0.175 -0.1046 -0.1275  0.1059
  279MPD2    H5 4273   0.984   1.931   0.073 -1.2456  0.8615  0.0804
  279MPD2    N1 4274   1.228   1.772   0.574  0.1839  0.6439 -0.0957
  279MPD2    H7 4275   1.314   1.721   0.591 -0.8156 -1.0600 -0.1137
  280TMC3    C1 4276   1.028   1.856   0.674 -0.5749 -0.1250  0.4542
  280TMC3    C2 4277   0.961   1.742   0.639  0.0287  0.5244  0.0790
  280TMC3    C3 4278   0.824   1.747   0.654  0.1009  0.1984  0.1531
  280TMC3    C4 4279   0.963   1.968   0.729  1.4155  0.5068  0.1687
  280TMC3    C5 4280   0.823   1.969   0.730 -0.0543  0.3463 -0.1324
  280TMC3    C6 4281   0.756   1.861   0.691  0.5420 -0.7391  0.2903
  280TMC3     C 4282   1.173   1.851   0.673  0.0105 -0.1065  0.1815
  280TMC3     O 4283   1.227   1.890   0.775 -0.3713  0.0930 -0.2756
  280TMC3     H 4284   1.015   1.653   0.608 -0.8505  0.2449 -0.6484
  280TMC3    H1 4285   1.025   2.049   0.766  1.1198  0.0211  1.7285
  280TMC3    H2 4286   0.650   1.850   0.710  0.3862  0.3690  0.0893
  280TMC3    C7 4287   0.748   2.093   0.762  0.3682 -1.3626  0.3787
  280TMC3    C8 4288   0.749   1.629   0.632  0.1211 -0.0536  0.0554
  280TMC3    O1 4289   0.803   2.169   0.842 -0.3378 -0.1863  0.0212
  280TMC3    O2 4290   0.627   1.638   0.641  0.9862 -0.4428  0.1614
  281TMC3    C1 4291   0.002   1.761  13.494 -0.5579 -0.1280 -0.1219
  281TMC3    C2 4292   0.056   1.888  13.469 -0.4300  0.2611 -0.3213
  281TMC3    C3 4293   0.155   1.901  13.377  0.1801 -0.1547 -0.1900
  281TMC3    C4 4294   0.044   1.656  13.417  0.9496 -0.0092 -0.2918
  281TMC3    C5 4295   0.139   1.677  13.316  0.6846 -0.7856  0.7243
  281TMC3    C6 4296   0.198   1.797  13.303 -0.6001 -0.7993  0.1359
  281TMC3     C 4297   4.593   1.753  13.520  0.1161  0.4403 -0.1619
  281TMC3     O 4298   4.538   1.647  13.520  0.6843  0.4067  0.1294
  281TMC3     H 4299   0.041   1.976  13.530 -1.1269 -0.2434  0.2308
  281TMC3    H1 4300   0.008   1.556  13.441  0.1682  1.1358  3.2395
  281TMC3    H2 4301   0.279   1.813  13.232 -0.7161  0.4591  0.2993
  281TMC3    C7 4302   0.213   1.565  13.252 -0.9772 -0.1362 -0.4341
  281TMC3    C8 4303   0.252   2.005  13.379  0.3676  0.7558  0.1459
  281TMC3    O1 4304   0.326   1.600  13.218  0.7512 -0.1558 -0.0758
  281TMC3    O2 4305   0.366   1.962  13.387 -0.4388 -0.1852 -0.1101
  282MPD2     C 4306   1.875   3.060  14.986  0.2668 -0.2871  0.2943
  282MPD2    C1 4307   1.750   3.101  15.032  0.2058  0.3321 -0.2765
  282MPD2    C2 4308   1.649   3.083  14.946  0.4465  0.3927 -0.0409
  282MPD2    C3 4309   1.667   3.018  14.826 -0.7826 -0.0090  0.3931
  282MPD2    C4 4310   1.787   2.978  14.778 -0.3729  0.7693  1.1093
  282MPD2    C5 4311   1.892   3.000  14.859 -0.6881 -0.6151  0.3845
  282MPD2     H 4312   1.553   3.129  14.969 -0.6346 -0.4042 -2.8999
  282MPD2    H1 4313   1.808   2.928  14.684 -0.5262  2.0470  0.3994
  282MPD2    H2 4314   1.967   3.081  15.040  0.1404 -0.1176  0.4426
  282MPD2    H3 4315   1.986   2.975  14.812 -1.3460 -0.1378 -1.1763
  282MPD2     N 4316   1.548   2.991  14.755 -0.4147  0.2483 -0.6419
  282MPD2    H5 4317   1.464   3.026  14.798 -0.5568 -0.6949 -0.1595
  282MPD2    N1 4318   1.728   3.166  15.158  0.4005 -0.3576  0.0635
  282MPD2    H7 4319   1.634   3.199  15.175  0.9102  0.7482  0.7075
  283TMC3    C1 4320   1.768   3.248  15.383 -0.3642 -0.2810  0.0478
  283TMC3    C2 4321   1.859   3.318  15.464 -0.5354  0.9259  1.0745
  283TMC3    C3 4322   1.799   3.380  15.569  0.7240 -0.4182  1.0440
  283TMC3    C4 4323   1.635   3.233  15.421 -0.1078 -0.2349  0.2421
  283TMC3    C5 4324   1.589   3.303  15.525  0.0305 -0.3334  0.0609
  283TMC3    C6 4325   1.666   3.380  15.604  0.5694 -0.0694 -0.0750
  283TMC3     C 4326   1.820   3.184  15.259 -0.3547 -0.2445 -0.3845
  283TMC3     O 4327   1.941   3.159  15.260 -0.2046 -0.4957 -0.1424
  283TMC3     H 4328   1.961   3.336  15.434 -0.1314 -1.0502  1.2738
  283TMC3    H1 4329   1.573   3.163  15.366  2.3681 -2.5608  0.4670
  283TMC3    H2 4330   1.626   3.418  15.697  0.6887  0.8791 -0.4157
  283TMC3    C7 4331   1.447   3.286  15.564  0.1929  0.6594 -0.9908
  283TMC3    C8 4332   1.872   3.489  15.626 -0.2131  0.6031 -0.2222
  283TMC3    O1 4333   1.427   3.321  15.679 -0.2894  0.0354 -0.1439
  283TMC3    O2 4334   1.994   3.494  15.625  0.0835 -0.0065 -0.2092
  284MPD2     C 4335   3.843   2.659  12.280 -0.2803  0.0386 -1.1312
  284MPD2    C1 4336   3.941   2.666  12.182 -0.4543  0.7164  0.1011
  284MPD2    C2 4337   4.078   2.652  12.221 -0.3698  0.2267 -0.0396
  284MPD2    C3 4338   4.112   2.630  12.351 -0.5394  0.0829 -0.7318
  284MPD2    C4 4339   4.015   2.630  12.448  0.2799  0.0632  0.2572
  284MPD2    C5 4340   3.884   2.652  12.412  0.2115  0.2894  0.1844
  284MPD2     H 4341   4.152   2.667  12.143  1.7060 -2.0059  1.5274
  284MPD2    H1 4342   4.031   2.621  12.555  0.8530  1.1100  0.2644
  284MPD2    H2 4343   3.738   2.646  12.258  0.0348 -0.2450 -2.4758
  284MPD2    H3 4344   3.812   2.649  12.493 -1.7305  1.0098 -1.5291
  284MPD2     N 4345   4.240   2.596  12.393  0.1338  0.9195  0.0413
  284MPD2    H5 4346   4.238   2.575  12.493 -3.9635  2.0428  0.1711
  284MPD2    N1 4347   3.915   2.685  12.046 -0.3098  0.2715 -0.3492
  284MPD2    H7 4348   3.993   2.667  11.984 -0.0073  0.2895  0.0278
  285TMC3    C1 4349   3.792   2.744  11.859 -0.3326 -0.2986 -0.3107
  285TMC3    C2 4350   3.878   2.673  11.775  0.2800  0.1509  0.1697
  285TMC3    C3 4351   3.906   2.720  11.651 -0.2767 -0.6796 -1.3795
  285TMC3    C4 4352   3.712   2.848  11.807  0.0661 -0.1028  0.0960
  285TMC3    C5 4353   3.742   2.889  11.679 -0.3722 -0.5567 -0.3670
  285TMC3    C6 4354   3.838   2.831  11.600  0.0618  0.6369 -0.6555
  285TMC3     C 4355   3.800   2.735  12.000  0.6582  0.5038  0.3690
  285TMC3     O 4356   3.703   2.785  12.059  0.6477  0.2013 -0.4038
  285TMC3     H 4357   3.930   2.585  11.812  1.4626  0.2333 -1.3270
  285TMC3    H1 4358   3.651   2.910  11.871  0.0050 -0.9305  0.8368
  285TMC3    H2 4359   3.837   2.860  11.496 -0.7607  0.6735 -0.6389
  285TMC3    C7 4360   3.659   2.997  11.622  0.4472 -0.0193 -0.7234
  285TMC3    C8 4361   4.013   2.662  11.577 -0.4499 -0.5170 -0.1325
  285TMC3    O1 4362   3.557   3.015  11.688 -0.1732 -0.5860  0.1524
  285TMC3    O2 4363   4.031   2.544  11.603  0.7405 -0.3035  0.1743
  286MPD2     C 4364   0.187   2.160   1.809  0.0695 -0.6307  0.5715
  286MPD2    C1 4365   0.203   2.104   1.685 -0.3993  0.3054 -0.3295
  286MPD2    C2 4366   0.304   2.013   1.663 -0.7787 -1.2653  0.5772
  286MPD2    C3 4367   0.409   1.995   1.757 -0.0808 -0.3890 -0.4940
  286MPD2    C4 4368   0.396   2.067   1.877 -0.0227  0.2383 -0.2900
  286MPD2    C5 4369   0.286   2.146   1.907  0.2318 -0.8933 -0.3406
  286MPD2     H 4370   0.310   1.981   1.559  1.1766  0.0071  0.3043
  286MPD2    H1 4371   0.470   2.067   1.956  0.5824  1.7330 -0.8686
  286MPD2    H2 4372   0.105   2.227   1.831  1.3571  1.1191  0.0914
  286MPD2    H3 4373   0.279   2.200   2.000  1.2181 -0.5456 -0.4663
  286MPD2     N 4374   0.528   1.924   1.730  0.0453  0.0340  0.0629
  286MPD2    H5 4375   0.610   1.925   1.791  2.5358  1.5647 -3.3221
  286MPD2    N1 4376   0.122   2.128   1.576  0.2755 -0.5939 -0.4165
  286MPD2    H7 4377   0.134   2.063   1.499  2.6394 -1.8545  1.0311
  287TMC3    C1 4378   0.674   1.768   1.611 -0.5371 -0.1636  0.1560
  287TMC3    C2 4379   0.688   1.695   1.494 -0.1481  0.3866 -0.2807
  287TMC3    C3 4380   0.809   1.631   1.487 -0.1209 -0.2189 -0.1903
  287TMC3    C4 4381   0.775   1.786   1.704  0.2807  0.0828  0.2848
  287TMC3    C5 4382   0.892   1.715   1.687  1.0583  0.3152  0.1512
  287TMC3    C6 4383   0.914   1.636   1.578 -0.1699  0.0540  0.2794
  287TMC3     C 4384   0.546   1.837   1.627  0.4720  0.1509 -0.2587
  287TMC3     O 4385   0.469   1.805   1.538 -0.6540  0.0320  0.4642
  287TMC3     H 4386   0.607   1.679   1.424  1.9659  0.7153 -2.8268
  287TMC3    H1 4387   0.771   1.863   1.781 -0.5512  1.5389 -1.2076
  287TMC3    H2 4388   1.002   1.572   1.569  1.0969  1.9710 -0.8902
  287TMC3    C7 4389   1.002   1.754   1.775 -0.0429  0.3594 -0.0392
  287TMC3    C8 4390   0.805   1.529   1.396 -0.0254  0.0208  0.1900
  287TMC3    O1 4391   0.982   1.842   1.854 -0.2078  0.6108  0.2215
  287TMC3    O2 4392   0.691   1.484   1.376 -0.5230 -0.1983 -0.1717
  288TMC3    C1 4393   2.473   0.852  14.175  0.8305  0.0981  0.1808
  288TMC3    C2 4394   2.380   0.908  14.262  0.1621  0.7485  0.3745
  288TMC3    C3 4395   2.287   0.984  14.199 -0.3895  0.2514  0.1566
  288TMC3    C4 4396   2.475   0.865  14.038  0.6221  0.0529 -0.6963
  288TMC3    C5 4397   2.369   0.939  13.985  0.6549  0.4347 -0.0078
  288TMC3    C6 4398   2.269   0.997  14.062 -0.4995 -0.2718  0.7302
  288TMC3     C 4399   2.580   0.781  14.232 -0.6581 -0.4193  0.0361
  288TMC3     O 4400   2.573   0.762  14.352 -0.3692  0.1955 -0.2986
  288TMC3     H 4401   2.400   0.892  14.367 -1.4053 -1.7209  0.3012
  288TMC3    H1 4402   2.524   0.785  13.984  1.0967 -0.7014  0.8488
  288TMC3    H2 4403   2.195   1.062  14.018  0.6879  0.1045 -0.7406
  288TMC3    C7 4404   2.378   0.988  13.845 -0.2844  0.6117  0.0296
  288TMC3    C8 4405   2.192   1.053  14.283 -0.4930 -0.1684  0.0384
  288TMC3    O1 4406   2.303   1.067  13.799 -0.3933  0.4366 -0.0382
  288TMC3    O2 4407   2.154   1.165  14.248  0.7987  0.1864 -0.1335
  289MPD2     C 4408   1.951   0.026  14.868 -0.7240  0.0372  0.5312
  289MPD2    C1 4409   1.987   0.094  14.756 -0.9766 -0.1308 -0.2086
  289MPD2    C2 4410   1.896   0.108  14.655 -0.6437  0.5203 -0.3363
  289MPD2    C3 4411   1.774   0.044  14.655 -0.7210  0.0147  0.2990
  289MPD2    C4 4412   1.739   4.706  14.765 -0.1151  0.8108 -0.1258
  289MPD2    C5 4413   1.829   4.697  14.869 -0.4250  0.0256  0.2995
  289MPD2     H 4414   1.927   0.163  14.567 -2.3550 -0.7585 -1.7343
  289MPD2    H1 4415   1.643   4.655  14.776  0.2775  0.3661  1.2790
  289MPD2    H2 4416   2.018   0.026  14.953 -2.1206  1.9795  1.6195
  289MPD2    H3 4417   1.790   4.645  14.955  3.3146 -0.7883  1.4974
  289MPD2     N 4418   1.678   0.061  14.548 -0.2156  0.6116 -0.1073
  289MPD2    H5 4419   1.591   0.011  14.562 -0.6545  0.9009 -1.7520
  289MPD2    N1 4420   2.111   0.162  14.754 -0.6511 -0.1794 -0.3461
  289MPD2    H7 4421   2.184   0.146  14.823 -1.4115 -1.8830  0.0634
  290TMC3    C1 4422   1.590   0.153  14.352 -0.0764 -0.2074 -0.2448
  290TMC3    C2 4423   1.593   0.265  14.280 -0.0534  0.0793 -0.1501
  290TMC3    C3 4424   1.564   0.258  14.151  0.2698 -0.3837 -0.4563
  290TMC3    C4 4425   1.552   0.030  14.313 -0.2100  0.2716 -0.2762
  290TMC3    C5 4426   1.504   0.027  14.181 -0.4935 -0.1529 -0.4957
  290TMC3    C6 4427   1.521   0.136  14.094  0.3029 -0.3765  0.1051
  290TMC3     C 4428   1.681   0.171  14.467 -0.3310 -0.0764 -0.0908
  290TMC3     O 4429   1.764   0.257  14.462  0.0323  0.0701  0.2735
  290TMC3     H 4430   1.640   0.355  14.318  0.0501  0.3108 -0.8325
  290TMC3    H1 4431   1.550   4.678  14.379 -1.0984  0.8344  0.4372
  290TMC3    H2 4432   1.499   0.123  13.989 -2.6997 -1.8408  0.9077
  290TMC3    C7 4433   1.389   4.684  14.154  0.1897  0.1696 -0.3114
  290TMC3    C8 4434   1.608   0.375  14.075 -0.5658 -0.8522  0.3648
  290TMC3    O1 4435   1.329   4.713  14.054  0.7334 -0.0117 -0.1463
  290TMC3    O2 4436   1.643   0.345  13.963  0.5947 -0.3678 -0.5028
  291MPD2     C 4437   0.927   0.167   0.177 -0.0075 -0.6296 -0.5581
  291MPD2    C1 4438   0.953   0.105   0.052 -0.1151  0.5074  1.2120
  291MPD2    C2 4439   1.054   0.161  17.714  0.1981  0.2642  0.0176
  291MPD2    C3 4440   1.126   0.271   0.016 -0.0079 -0.0464 -0.4794
  291MPD2    C4 4441   1.097   0.332   0.136 -0.0953  0.5207 -0.8830
  291MPD2    C5 4442   0.993   0.283   0.215  0.6564 -0.5543  0.1659
  291MPD2     H 4443   1.067   0.117  17.616 -1.3788 -0.0713 -0.0366
  291MPD2    H1 4444   1.138   0.427   0.168 -0.6062  0.2508  0.5784
  291MPD2    H2 4445   0.868   0.130   0.261  2.1109  3.0576  2.5782
  291MPD2    H3 4446   0.957   0.334   0.304  0.5692  0.0151 -0.1963
  291MPD2     N 4447   1.227   0.339  17.686 -0.4817 -0.1648  0.2874
  291MPD2    H5 4448   1.241   0.438  17.700  0.3097 -0.2555  0.1770
  291MPD2    N1 4449   0.882   4.722   0.013  0.3631 -0.1347 -0.3478
  291MPD2    H7 4450   0.928   4.679  17.673  0.5142  2.0453 -1.4338
  292TMC3    C1 4451   0.723   4.547  17.725 -0.2480  0.3551 -0.0065
  292TMC3    C2 4452   0.590   4.513   0.008 -0.0391 -0.0548 -0.3448
  292TMC3    C3 4453   0.545   4.410  17.665 -1.3928  0.2697  0.1743
  292TMC3    C4 4454   0.803   4.487  17.636  0.5503 -0.0682  0.0105
  292TMC3    C5 4455   0.745   4.396  17.556 -0.1089 -0.5152 -0.6164
  292TMC3    C6 4456   0.621   4.341  17.569  0.6805 -0.1318  0.4639
  292TMC3     C 4457   0.767   4.658   0.065  0.5259  0.8666 -0.4310
  292TMC3     O 4458   0.698   4.682   0.166  0.3149  0.2505  0.1062
  292TMC3     H 4459   0.526   4.572   0.073  0.6715 -0.4174  0.6825
  292TMC3    H1 4460   0.908   4.515  17.628  0.3137  0.6679 -0.5358
  292TMC3    H2 4461   0.592   4.249  17.521  2.3055 -1.1855  1.4973
  292TMC3    C7 4462   0.842   4.314  17.475 -0.1636 -0.0882 -0.5943
  292TMC3    C8 4463   0.406   4.383  17.665  1.3318 -0.0769  0.0343
  292TMC3    O1 4464   0.957   4.345  17.490  0.2325  0.3441 -0.2841
  292TMC3    O2 4465   0.363   4.338  17.561  0.3191  0.2406 -0.0543
  293MPD2     C 4466   2.779   1.241  12.443 -0.6125  0.3531  0.0116
  293MPD2    C1 4467   2.724   1.333  12.526  0.0366 -0.5298  0.3234
  293MPD2    C2 4468   2.767   1.345  12.656 -0.5691 -0.0210 -0.4515
  293MPD2    C3 4469   2.868   1.263  12.702 -0.3504 -0.7088 -0.5164
  293MPD2    C4 4470   2.918   1.164  12.616  0.2085  0.7772 -0.1905
  293MPD2    C5 4471   2.864   1.151  12.491 -0.6005 -0.2246  0.2781
  293MPD2     H 4472   2.712   1.405  12.728  2.0251 -0.2086  1.7030
  293MPD2    H1 4473   2.979   1.081  12.649 -0.3824  0.6824  0.6750
  293MPD2    H2 4474   2.739   1.214  12.346  1.5598  0.0519 -0.8013
  293MPD2    H3 4475   2.894   1.064  12.434 -1.4735 -0.8888  0.8161
  293MPD2     N 4476   2.921   1.285  12.829  0.2021 -0.5773  0.9000
  293MPD2    H5 4477   2.897   1.365  12.886  1.4132 -1.3797  2.5319
  293MPD2    N1 4478   2.620   1.416  12.476 -0.4381  0.1659  0.7245
  293MPD2    H7 4479   2.559   1.465  12.540  0.0590 -0.3816  1.6129
  294TMC3    C1 4480   2.461   1.497  12.341  0.5517  0.4345  1.2034
  294TMC3    C2 4481   2.362   1.434  12.410  0.7303 -0.7201  0.0822
  294TMC3    C3 4482   2.235   1.448  12.360  0.4469  0.1684 -0.5435
  294TMC3    C4 4483   2.437   1.576  12.230  0.6297 -0.0911  0.6340
  294TMC3    C5 4484   2.312   1.585  12.186 -0.7784 -0.2129 -0.7524
  294TMC3    C6 4485   2.211   1.517  12.246 -0.6581  0.7238  0.4134
  294TMC3     C 4486   2.588   1.433  12.350  0.2840 -0.0017  0.3881
  294TMC3     O 4487   2.650   1.402  12.246  0.2566 -0.0687  0.5511
  294TMC3     H 4488   2.384   1.365  12.491  0.5921 -0.9763 -0.0970
  294TMC3    H1 4489   2.512   1.638  12.181 -0.0718 -1.2728 -1.9253
  294TMC3    H2 4490   2.108   1.510  12.214  0.3383  0.1473 -2.5911
  294TMC3    C7 4491   2.276   1.630  12.054  0.0978 -0.5611  0.1654
  294TMC3    C8 4492   2.135   1.367  12.420  0.2193 -0.6429  0.0809
  294TMC3    O1 4493   2.162   1.647  12.038 -0.1548  0.7201  0.5503
  294TMC3    O2 4494   2.031   1.415  12.459  0.1217  0.0152 -1.0242
  295MPD2     C 4495   3.423   1.160   1.626 -0.2825 -0.4224  0.1251
  295MPD2    C1 4496   3.362   1.041   1.580  0.6360  0.3606 -0.5983
  295MPD2    C2 4497   3.309   0.963   1.688  0.0734 -0.1519 -0.4811
  295MPD2    C3 4498   3.312   0.999   1.817  0.3777  0.0049  0.1488
  295MPD2    C4 4499   3.360   1.122   1.850 -0.2788  0.5279  0.1357
  295MPD2    C5 4500   3.417   1.200   1.755 -0.2124  0.6085  0.5216
  295MPD2     H 4501   3.264   0.872   1.650 -1.1243  0.2367  0.0077
  295MPD2    H1 4502   3.372   1.146   1.955  0.4344 -0.6013  0.3059
  295MPD2    H2 4503   3.474   1.229   1.560 -1.2824 -1.7745 -2.0768
  295MPD2    H3 4504   3.466   1.293   1.784  0.3042  0.5132 -0.0518
  295MPD2     N 4505   3.266   0.918   1.931  0.1606 -0.2688  0.1865
  295MPD2    H5 4506   3.290   0.945   2.026 -1.1194 -0.0795  0.4530
  295MPD2    N1 4507   3.352   1.004   1.448  0.1772  0.5865 -0.0496
  295MPD2    H7 4508   3.301   0.919   1.426  0.3120  0.3880  0.4047
  296TMC3    C1 4509   3.180   0.730   2.051 -0.0021  0.0226  0.6515
  296TMC3    C2 4510   3.196   0.798   2.173  0.4344  0.3146 -0.0922
  296TMC3    C3 4511   3.179   0.730   2.287 -0.3221  0.3457 -0.1388
  296TMC3    C4 4512   3.173   0.594   2.048 -0.7891 -0.4806 -0.6335
  296TMC3    C5 4513   3.174   0.528   2.168  0.0987  0.3555 -0.1657
  296TMC3    C6 4514   3.174   0.594   2.286  0.7739 -0.3567  0.3046
  296TMC3     C 4515   3.210   0.795   1.921 -0.3277  0.2832  0.1580
  296TMC3     O 4516   3.166   0.736   1.821  0.4725  0.0183 -0.3638
  296TMC3     H 4517   3.207   0.906   2.171 -1.0673  0.4664  0.3615
  296TMC3    H1 4518   3.159   0.539   1.955  0.9011 -0.0628 -1.1240
  296TMC3    H2 4519   3.170   0.535   2.376  0.3923  0.2443  0.6851
  296TMC3    C7 4520   3.154   0.386   2.176  0.5935 -0.7946  0.6261
  296TMC3    C8 4521   3.206   0.791   2.420  0.1414  0.2770 -0.4369
  296TMC3    O1 4522   3.083   0.349   2.270 -1.1155 -0.1135  0.2103
  296TMC3    O2 4523   3.208   0.718   2.518  0.5991 -0.0847  0.0463
  297MPD2     C 4524   0.907   1.903  16.868 -0.0390  0.4552  0.5097
  297MPD2    C1 4525   0.872   1.979  16.759  0.5265 -0.0718  0.3301
  297MPD2    C2 4526   0.965   2.058  16.698  0.3749  0.2667 -0.5627
  297MPD2    C3 4527   1.098   2.068  16.750  0.2650  0.9582 -0.2259
  297MPD2    C4 4528   1.134   1.984  16.848 -0.4747 -0.4202 -0.1633
  297MPD2    C5 4529   1.036   1.909  16.907  0.1560 -0.1944 -0.2330
  297MPD2     H 4530   0.930   2.119  16.616 -0.4249 -0.2371 -0.6004
  297MPD2    H1 4531   1.235   1.974  16.887 -0.4605 -3.0867 -0.8349
  297MPD2    H2 4532   0.834   1.854  16.931  0.4424 -1.8832 -0.7666
  297MPD2    H3 4533   1.071   1.849  16.991  1.9931  2.2318  0.7390
  297MPD2     N 4534   1.189   2.158  16.690 -0.6188 -0.0659 -0.3153
  297MPD2    H5 4535   1.147   2.237  16.641 -1.5394 -0.2435  0.1817
  297MPD2    N1 4536   0.746   1.977  16.691 -0.0995 -0.4472 -0.2694
  297MPD2    H7 4537   0.752   2.005  16.594 -0.8377 -1.1988 -0.5293
  298TMC3    C1 4538   0.516   1.962  16.645  0.7953  0.3678  0.6032
  298TMC3    C2 4539   0.519   1.909  16.522 -0.1103  0.2579 -0.4843
  298TMC3    C3 4540   0.415   1.939  16.437  0.0874 -0.3802 -0.1453
  298TMC3    C4 4541   0.422   2.052  16.681 -0.0630 -0.5506 -0.3253
  298TMC3    C5 4542   0.324   2.089  16.592  0.3997 -0.0142 -0.3279
  298TMC3    C6 4543   0.308   2.028  16.469  0.0144  0.1187 -0.1217
  298TMC3     C 4544   0.618   1.943  16.742  0.0609  0.9976 -0.2871
  298TMC3     O 4545   0.580   1.904  16.851 -0.4374  0.6402  0.4387
  298TMC3     H 4546   0.595   1.835  16.501  0.6929  0.8549  0.3135
  298TMC3    H1 4547   0.427   2.092  16.782 -0.3624  1.4323 -1.1073
  298TMC3    H2 4548   0.231   2.046  16.394 -0.7337 -1.5768  0.2283
  298TMC3    C7 4549   0.267   2.215  16.619 -0.1622  0.3812 -0.1418
  298TMC3    C8 4550   0.452   1.914  16.300 -0.5432 -0.9907 -0.5916
  298TMC3    O1 4551   0.271   2.262  16.736  1.3605 -0.0912 -0.1824
  298TMC3    O2 4552   0.570   1.909  16.264 -0.0148 -0.5618  0.2186
  299MPD2     C 4553   0.742   1.785  11.223 -0.2274 -0.0849  0.4549
  299MPD2    C1 4554   0.777   1.826  11.098 -0.4917 -0.5750  0.0612
  299MPD2    C2 4555   0.710   1.775  10.988  0.1510  0.7251  0.2888
  299MPD2    C3 4556   0.593   1.700  10.994 -0.3468  0.5155 -0.2265
  299MPD2    C4 4557   0.546   1.668  11.126 -0.1008  1.2331 -0.0350
  299MPD2    C5 4558   0.632   1.703  11.234 -0.4487  0.1098 -0.1396
  299MPD2     H 4559   0.734   1.808  10.888  0.4220 -2.1883 -0.5890
  299MPD2    H1 4560   0.453   1.614  11.141  0.9830 -0.6811 -0.1558
  299MPD2    H2 4561   0.793   1.825  11.310 -0.1849 -0.8581  0.7848
  299MPD2    H3 4562   0.587   1.685  11.331  0.7327 -2.0127  0.0147
  299MPD2     N 4563   0.502   1.673  10.888 -0.4789 -0.1900 -0.3847
  299MPD2    H5 4564   0.407   1.642  10.906  0.5381 -2.0372  1.6865
  299MPD2    N1 4565   0.889   1.912  11.084  0.4112 -0.4360 -0.2287
  299MPD2    H7 4566   0.933   1.929  11.174 -2.0278  1.7665  0.5539
  300TMC3    C1 4567   0.435   1.665  10.674 -0.2715 -0.1268  0.1634
  300TMC3    C2 4568   0.472   1.633  10.545  0.2602  0.3771  0.3368
  300TMC3    C3 4569   0.410   1.700  10.442  0.0770  0.7474 -0.3557
  300TMC3    C4 4570   0.326   1.742  10.701  0.8834 -0.1745  0.0806
  300TMC3    C5 4571   0.248   1.784  10.591  0.2395 -0.7011 -0.2248
  300TMC3    C6 4572   0.298   1.771  10.467  0.6295  0.6573 -0.1165
  300TMC3     C 4573   0.546   1.681  10.764  0.4049 -0.3696 -0.0615
  300TMC3     O 4574   0.661   1.669  10.719 -0.0436  0.6474 -0.8905
  300TMC3     H 4575   0.564   1.581  10.522 -0.5117  0.1756 -2.2893
  300TMC3    H1 4576   0.285   1.741  10.802  2.0001  2.1909  0.5610
  300TMC3    H2 4577   0.254   1.835  10.392  3.2578  2.5913 -0.0136
  300TMC3    C7 4578   0.133   1.871  10.602 -0.6158  0.2939  0.1743
  300TMC3    C8 4579   0.510   1.765  10.349 -0.4851 -0.1863  0.9034
  300TMC3    O1 4580   0.047   1.870  10.513 -0.0961  0.3477 -0.0611
  300TMC3    O2 4581   0.580   1.698  10.276 -0.2168 -0.2841  0.4400
  301MPD2     C 4582   3.745   3.803   1.245  0.0491 -0.0474 -0.3489
  301MPD2    C1 4583   3.632   3.758   1.182 -0.8032 -0.2650 -0.0333
  301MPD2    C2 4584   3.619   3.627   1.160  0.1216 -0.3337  1.1324
  301MPD2    C3 4585   3.727   3.542   1.195  0.2732  0.0880  0.3422
  301MPD2    C4 4586   3.834   3.585   1.267  0.6140  0.3910  0.5463
  301MPD2    C5 4587   3.848   3.722   1.285 -0.0229 -0.1340  0.0371
  301MPD2     H 4588   3.535   3.597   1.098 -0.6184  1.0390  1.4625
  301MPD2    H1 4589   3.917   3.523   1.301 -1.4423 -2.4833  0.3232
  301MPD2    H2 4590   3.766   3.908   1.263 -0.8786  0.0167  0.3773
  301MPD2    H3 4591   3.943   3.755   1.326  0.3148 -1.9378  0.6819
  301MPD2     N 4592   3.727   3.409   1.153  0.5198 -0.2579 -0.1952
  301MPD2    H5 4593   3.799   3.345   1.185 -1.3736 -1.3711  1.8793
  301MPD2    N1 4594   3.520   3.830   1.135  0.1023  0.1998 -0.2103
  301MPD2    H7 4595   3.449   3.775   1.086 -0.7341  0.5970  0.5602
  302TMC3    C1 4596   3.637   3.211   1.058 -0.2488 -0.1732 -0.0540
  302TMC3    C2 4597   3.677   3.149   1.170  0.1683  0.3948 -0.3305
  302TMC3    C3 4598   3.699   3.012   1.157 -0.3919 -0.2361 -0.3985
  302TMC3    C4 4599   3.597   3.149   0.943  0.1061  0.0232  0.7398
  302TMC3    C5 4600   3.625   3.016   0.937  0.3496  0.8855  0.1006
  302TMC3    C6 4601   3.681   2.946   1.041 -0.0556  0.0066  0.6456
  302TMC3     C 4602   3.643   3.358   1.061 -0.7148 -0.9062 -0.4382
  302TMC3     O 4603   3.578   3.418   0.974 -0.3835  0.6467 -0.2543
  302TMC3     H 4604   3.701   3.199   1.262  0.2052  0.9249 -0.6296
  302TMC3    H1 4605   3.555   3.197   0.856  2.0718  0.1249 -0.1685
  302TMC3    H2 4606   3.701   2.840   1.041  1.2475  0.2506 -1.3123
  302TMC3    C7 4607   3.527   2.936   0.871  0.4827  0.3305  0.1899
  302TMC3    C8 4608   3.763   2.943   1.270 -0.3643 -0.0823 -0.2016
  302TMC3    O1 4609   3.552   2.821   0.845 -0.4886  0.4651 -0.0992
  302TMC3    O2 4610   3.831   2.850   1.233  0.2730 -0.2720 -0.2979
  303MPD2     C 4611   2.711   1.966  10.739  0.0606  0.3556 -0.6470
  303MPD2    C1 4612   2.690   1.830  10.758 -0.0940  0.1417  0.1318
  303MPD2    C2 4613   2.588   1.767  10.684 -0.3124 -0.9822 -0.0461
  303MPD2    C3 4614   2.502   1.838  10.598 -0.0386  0.0725 -0.0464
  303MPD2    C4 4615   2.534   1.970  10.580  0.5251 -0.0220  0.3271
  303MPD2    C5 4616   2.635   2.033  10.652  0.3898 -0.0874  0.5039
  303MPD2     H 4617   2.576   1.659  10.688 -0.5179 -0.9257  0.9836
  303MPD2    H1 4618   2.478   2.021  10.502  0.1049  1.0780  1.3496
  303MPD2    H2 4619   2.790   2.020  10.792 -0.9887  0.1698  1.1037
  303MPD2    H3 4620   2.647   2.140  10.642 -0.0963 -0.2303 -1.6749
  303MPD2     N 4621   2.414   1.777  10.501  0.5812 -0.7112  0.3352
  303MPD2    H5 4622   2.359   1.842  10.446 -1.5235 -2.5023  0.3231
  303MPD2    N1 4623   2.793   1.761  10.826 -0.6744  0.0803 -0.1127
  303MPD2    H7 4624   2.884   1.804  10.840 -0.6013 -0.0341 -0.2384
  304TMC3    C1 4625   2.896   1.573  10.929  0.2709  0.2572 -0.5436
  304TMC3    C2 4626   2.884   1.523  11.055  0.1783  0.5996  0.3766
  304TMC3    C3 4627   2.940   1.400  11.084 -0.3041  0.3644  0.1863
  304TMC3    C4 4628   2.960   1.506  10.836  0.3508 -0.3725  0.0432
  304TMC3    C5 4629   3.025   1.387  10.860  0.5407  0.6988  0.0565
  304TMC3    C6 4630   3.021   1.334  10.990 -0.1141  0.2719  0.3367
  304TMC3     C 4631   2.780   1.637  10.880  0.2821 -0.2418  0.0225
  304TMC3     O 4632   2.676   1.572  10.914  0.8231 -0.1473 -0.3830
  304TMC3     H 4633   2.804   1.546  11.124  0.0606 -1.8086  1.0495
  304TMC3    H1 4634   2.953   1.537  10.733 -2.3251  0.0699  0.3604
  304TMC3    H2 4635   3.065   1.242  11.027 -0.6122 -0.1287 -0.0763
  304TMC3    C7 4636   2.996   1.277  10.765  0.1995 -0.1623 -0.4608
  304TMC3    C8 4637   2.856   1.306  11.160  0.2774 -0.0370 -0.3247
  304TMC3    O1 4638   2.969   1.169  10.818  0.2206 -0.2026 -0.3844
  304TMC3    O2 4639   2.804   1.355  11.259 -0.1435 -0.0803  0.2946
  305MPD2     C 4640   1.143   3.214  14.481  0.6500  0.5615 -1.5268
  305MPD2    C1 4641   1.254   3.253  14.408 -0.5566 -0.4539  0.3883
  305MPD2    C2 4642   1.242   3.293  14.270  0.7114 -0.4917  0.1505
  305MPD2    C3 4643   1.121   3.280  14.205 -0.7394  0.2525  0.2357
  305MPD2    C4 4644   1.014   3.231  14.281  0.1168  0.1749  0.7683
  305MPD2    C5 4645   1.022   3.205  14.421 -0.2143  0.1944 -0.2919
  305MPD2     H 4646   1.321   3.351  14.224 -0.2421 -0.6167 -1.6700
  305MPD2    H1 4647   0.919   3.230  14.228 -0.7072 -1.5892  2.2571
  305MPD2    H2 4648   1.140   3.189  14.586 -0.7073 -2.9536 -2.4047
  305MPD2    H3 4649   0.928   3.187  14.471  1.2164 -0.7242  2.0750
  305MPD2     N 4650   1.087   3.333  14.075  0.1547  0.4032 -0.4022
  305MPD2    H5 4651   0.989   3.321  14.053  0.6429 -1.0807 -1.8294
  305MPD2    N1 4652   1.373   3.258  14.481  0.5914  0.6594  0.4281
  305MPD2    H7 4653   1.372   3.248  14.582  2.9738 -1.5209  0.2294
  306TMC3    C1 4654   1.607   3.263  14.526  0.0706 -0.6123 -0.1020
  306TMC3    C2 4655   1.733   3.224  14.481  0.4046 -0.6867  0.1193
  306TMC3    C3 4656   1.841   3.247  14.557 -0.3771 -0.5054 -0.3224
  306TMC3    C4 4657   1.588   3.328  14.646  0.3562  0.5846 -0.2367
  306TMC3    C5 4658   1.703   3.355  14.715  0.7382 -0.2894 -0.2612
  306TMC3    C6 4659   1.828   3.312  14.678 -0.0834  0.7556  0.4744
  306TMC3     C 4660   1.500   3.263  14.427 -0.0783  0.7181 -0.0246
  306TMC3     O 4661   1.535   3.273  14.312  0.1735 -0.1057 -0.6851
  306TMC3     H 4662   1.742   3.171  14.387  3.3850  2.0217 -1.0893
  306TMC3    H1 4663   1.490   3.374  14.652  0.7407  1.0183  2.8818
  306TMC3    H2 4664   1.909   3.345  14.742 -0.6045 -1.3307  2.2371
  306TMC3    C7 4665   1.682   3.431  14.841 -0.0651  0.2674 -0.1334
  306TMC3    C8 4666   1.976   3.203  14.517 -0.1285 -0.6807  0.3087
  306TMC3    O1 4667   1.573   3.483  14.841  0.0345  0.0094 -0.3321
  306TMC3    O2 4668   1.977   3.141  14.412  0.4498 -0.4686 -0.0261
  307MPD2     C 4669   4.453   1.687   0.411 -0.3003 -0.2694 -0.5414
  307MPD2    C1 4670   4.429   1.821   0.397  0.0102 -0.5055  0.1680
  307MPD2    C2 4671   4.411   1.906   0.510 -0.2351 -0.0348  0.5602
  307MPD2    C3 4672   4.423   1.847   0.634  0.1371 -0.9955  0.1939
  307MPD2    C4 4673   4.445   1.711   0.649 -0.0409 -1.3042  0.0578
  307MPD2    C5 4674   4.461   1.633   0.535  0.8261  0.5579  0.3638
  307MPD2     H 4675   4.377   2.007   0.490  0.4293  0.4099  1.6919
  307MPD2    H1 4676   4.443   1.663   0.747 -0.8373 -2.9788 -0.7845
  307MPD2    H2 4677   4.462   1.624   0.323 -2.9514  0.9721 -1.7101
  307MPD2    H3 4678   4.481   1.527   0.545  3.4262  1.5011  5.2512
  307MPD2     N 4679   4.402   1.923   0.754 -0.1206 -0.5092 -0.2823
  307MPD2    H5 4680   4.412   1.875   0.842 -0.6660  0.3564  0.2494
  307MPD2    N1 4681   4.444   1.891   0.275  0.0179 -0.0995  0.3047
  307MPD2    H7 4682   4.454   1.992   0.278  0.6783 -0.2045  1.7614
  308TMC3    C1 4683   4.130   2.048   1.038 -0.1256 -0.0269 -0.5257
  308TMC3    C2 4684   4.102   2.181   1.060  0.1197 -0.1155 -0.8972
  308TMC3    C3 4685   4.179   2.268   0.989 -0.2647 -0.9824  0.7571
  308TMC3    C4 4686   4.235   2.002   0.961 -0.2690  0.0846  0.1247
  308TMC3    C5 4687   4.309   2.091   0.890 -0.6588 -0.1303  0.0794
  308TMC3    C6 4688   4.280   2.231   0.905  0.4599  0.1342  0.1356
  308TMC3     C 4689   4.025   1.953   1.045 -0.2173  0.1935 -0.5260
  308TMC3     O 4690   4.049   1.833   1.025 -0.5395  0.0819 -0.9723
  308TMC3     H 4691   4.035   2.221   1.135 -0.9183 -1.1150 -1.2913
  308TMC3    H1 4692   4.239   1.895   0.942 -0.0023  0.1745 -0.3165
  308TMC3    H2 4693   4.334   2.303   0.845 -0.2624 -1.0566 -1.9373
  308TMC3    C7 4694   4.343   2.046   0.755  0.1401 -0.8161 -0.2169
  308TMC3    C8 4695   4.138   2.408   1.003 -0.3508  0.2508  0.2742
  308TMC3    O1 4696   4.345   2.127   0.663  0.2095 -0.3450  0.1063
  308TMC3    O2 4697   4.065   2.444   1.096  0.2909 -0.0123  0.1300
  309MPD2     C 4698   3.493   2.037  17.298 -0.0330  0.4434 -0.1202
  309MPD2    C1 4699   3.434   2.126  17.209  0.5975 -0.3005 -0.0657
  309MPD2    C2 4700   3.312   2.180  17.247 -0.6083 -0.1762 -0.2314
  309MPD2    C3 4701   3.261   2.152  17.375  0.3163  0.6647  0.3652
  309MPD2    C4 4702   3.324   2.060  17.460 -0.0903  0.3825  0.1991
  309MPD2    C5 4703   3.429   1.989  17.410 -0.1217 -0.1323 -0.3904
  309MPD2     H 4704   3.266   2.248  17.175  1.8345 -0.8557 -2.4303
  309MPD2    H1 4705   3.287   2.026  17.556 -0.6845  0.6968  0.0863
  309MPD2    H2 4706   3.589   1.990  17.277  0.1536  1.1994 -0.9481
  309MPD2    H3 4707   3.465   1.910  17.475 -0.8259 -1.0235 -1.0627
  309MPD2     N 4708   3.144   2.222  17.420 -0.3790  0.1782 -0.0042
  309MPD2    H5 4709   3.109   2.284  17.349 -1.0367 -0.9451 -0.6592
  309MPD2    N1 4710   3.507   2.177  17.091  0.2758  0.2132  0.0207
  309MPD2    H7 4711   3.451   2.233  17.028  1.4497 -0.1061 -1.3087
  310TMC3    C1 4712   3.702   2.201  16.952  0.3701  0.2451  0.4998
  310TMC3    C2 4713   3.624   2.267  16.860 -0.6237 -0.1450 -0.3326
  310TMC3    C3 4714   3.682   2.300  16.743 -0.9178 -0.2351  0.1503
  310TMC3    C4 4715   3.840   2.180  16.935  0.0334  0.0788  0.4423
  310TMC3    C5 4716   3.892   2.209  16.810  0.7055 -0.1280  0.5299
  310TMC3    C6 4717   3.820   2.272  16.718 -0.3251  0.6142 -0.2089
  310TMC3     C 4718   3.645   2.163  17.079  0.0451  0.5815  0.0639
  310TMC3     O 4719   3.721   2.112  17.160  0.4963  0.4053  0.0490
  310TMC3     H 4720   3.518   2.284  16.872 -0.0306  2.5274  0.9561
  310TMC3    H1 4721   3.897   2.115  17.000 -1.9284 -0.4046  1.6806
  310TMC3    H2 4722   3.862   2.272  16.618  0.2850  0.8330  0.0532
  310TMC3    C7 4723   4.001   2.122  16.771 -0.0680 -0.4129 -0.2381
  310TMC3    C8 4724   3.599   2.351  16.628 -0.0127  0.2271  0.1574
  310TMC3    O1 4725   3.998   2.090  16.652 -0.0034 -0.5385 -0.3431
  310TMC3    O2 4726   3.478   2.371  16.644 -0.1820 -1.0578 -0.1093
  311MPD2     C 4727   0.268   3.573  12.464  0.0744  0.3145  0.6507
  311MPD2    C1 4728   0.351   3.590  12.572 -0.2763  0.1985  0.3003
  311MPD2    C2 4729   0.326   3.522  12.689  0.2165 -0.4369  0.4457
  311MPD2    C3 4730   0.216   3.436  12.694  0.8266 -0.7332  0.0030
  311MPD2    C4 4731   0.136   3.428  12.586  0.0384  0.1251  0.3984
  311MPD2    C5 4732   0.159   3.498  12.470 -0.1333 -0.2837 -0.1160
  311MPD2     H 4733   0.381   3.538  12.781 -0.4225 -1.7305  1.0581
  311MPD2    H1 4734   0.044   3.373  12.574  0.5980 -0.2602 -2.1113
  311MPD2    H2 4735   0.294   3.624  12.372  1.0448  0.7882  1.1881
  311MPD2    H3 4736   0.089   3.487  12.388 -0.8022 -2.7147  0.7906
  311MPD2     N 4737   0.198   3.355  12.816  0.5555  0.1896 -0.4987
  311MPD2    H5 4738   0.265   3.356  12.892  1.8249 -1.8166 -1.6060
  311MPD2    N1 4739   0.466   3.672  12.565 -0.1457 -0.1317 -0.2218
  311MPD2    H7 4740   0.513   3.672  12.655  0.7865 -1.0637 -0.7217
  312TMC3    C1 4741   0.090   3.209  12.956 -0.2796  0.1435  0.2601
  312TMC3    C2 4742   0.009   3.105  12.951  0.3954  0.2646 -0.0294
  312TMC3    C3 4743   4.674   3.058  13.061 -0.0035 -0.5964  0.5256
  312TMC3    C4 4744   0.088   3.284  13.077  0.5465 -1.3095  0.0954
  312TMC3    C5 4745   0.008   3.241  13.182  0.0767 -0.0595 -0.0124
  312TMC3    C6 4746   4.678   3.124  13.179 -0.2791  0.9194 -0.3502
  312TMC3     C 4747   0.091   3.276  12.832 -0.4626 -0.4733  0.4307
  312TMC3     O 4748   0.006   3.232  12.754  0.0007  0.0589  0.5623
  312TMC3     H 4749   4.730   3.048  12.860 -0.9135 -0.7173  0.7880
  312TMC3    H1 4750   0.136   3.381  13.076  0.1238 -1.1020 -0.2023
  312TMC3    H2 4751   4.599   3.100  13.248  1.5103 -0.2072  1.3004
  312TMC3    C7 4752   0.003   3.322  13.299 -0.3962  0.3417  0.4287
  312TMC3    C8 4753   4.545   3.008  13.026  0.0841 -0.1020 -0.7529
  312TMC3    O1 4754   0.010   3.441  13.279  0.5966  0.5539 -0.0650
  312TMC3    O2 4755   4.504   2.912  13.087 -0.0817  0.1668 -0.6439
  313MPD2     C 4756   0.308   2.345  10.436 -0.0358  0.4162 -0.1501
  313MPD2    C1 4757   0.204   2.295  10.507  1.0153  0.6089  0.0845
  313MPD2    C2 4758   0.133   2.186  10.449  0.2888  0.2369 -0.3339
  313MPD2    C3 4759   0.165   2.140  10.321  0.5726  0.2224 -0.1710
  313MPD2    C4 4760   0.275   2.198  10.258 -0.0217 -0.0484  0.2266
  313MPD2    C5 4761   0.353   2.299  10.313  0.2735  0.5881 -0.1716
  313MPD2     H 4762   0.038   2.153  10.488  0.6201  1.1370  1.2210
  313MPD2    H1 4763   0.313   2.164  10.163 -0.7024  1.7280 -0.6708
  313MPD2    H2 4764   0.360   2.432  10.475 -1.2006  0.7726  0.6103
  313MPD2    H3 4765   0.427   2.355  10.256  0.1456  1.0557  0.1157
  313MPD2     N 4766   0.075   2.040  10.272  0.3573  0.6316 -0.2042
  313MPD2    H5 4767   0.009   2.001  10.339  0.4424  0.9483  0.0653
  313MPD2    N1 4768   0.160   2.337  10.632  0.0504 -0.6420  0.3484
  313MPD2    H7 4769   0.080   2.279  10.659  0.2225 -1.1073 -0.1343
  314TMC3    C1 4770   0.104   2.477  10.810 -0.3598 -0.1853 -0.2128
  314TMC3    C2 4771   0.142   2.569  10.897  0.0201  0.2886  0.0794
  314TMC3    C3 4772   0.062   2.608  10.997 -0.3881  0.7401  0.3763
  314TMC3    C4 4773   4.706   2.427  10.828  0.1823 -1.1729 -0.0555
  314TMC3    C5 4774   4.622   2.486  10.919 -0.4820 -0.6279  0.2996
  314TMC3    C6 4775   4.669   2.574  11.009 -0.6769 -0.0290 -0.1720
  314TMC3     C 4776   0.193   2.446  10.701 -0.3350  0.5364  0.7292
  314TMC3     O 4777   0.292   2.519  10.688  0.0298 -0.3669  0.4964
  314TMC3     H 4778   0.242   2.609  10.888  0.4937 -0.5705  1.4896
  314TMC3    H1 4779   4.683   2.344  10.762 -0.0029 -0.9836 -0.2264
  314TMC3    H2 4780   4.602   2.639  11.063 -0.7567 -0.8137  0.6800
  314TMC3    C7 4781   4.480   2.474  10.908 -0.2940 -0.0628  0.6748
  314TMC3    C8 4782   0.084   2.738  11.058  0.1571 -0.4343  0.1908
  314TMC3    O1 4783   4.420   2.488  11.007 -0.0964 -0.0967  0.2080
  314TMC3    O2 4784   0.102   2.822  10.976  0.7047  0.2631 -0.5040
  315MPD2     C 4785   0.092   1.689   0.044 -0.3132 -0.1362  0.3475
  315MPD2    C1 4786   0.071   1.737   0.169 -0.3180  0.3467 -0.2998
  315MPD2    C2 4787   0.085   1.873   0.192  0.1574  0.3263 -0.0651
  315MPD2    C3 4788   0.105   1.959   0.090  0.6428 -0.7599 -0.5967
  315MPD2    C4 4789   0.113   1.913  17.703  0.4525 -0.5422  0.2062
  315MPD2    C5 4790   0.095   1.777  17.680 -0.0934  0.2426  0.1916
  315MPD2     H 4791   0.064   1.919   0.288  0.4152 -0.5387  0.4108
  315MPD2    H1 4792   0.138   1.979  17.621  2.3595  0.4821  1.6196
  315MPD2    H2 4793   0.085   1.586   0.011 -1.5389  0.3635 -0.9459
  315MPD2    H3 4794   0.103   1.731  17.582  1.0330  1.1872 -0.1606
  315MPD2     N 4795   0.130   2.095   0.121  0.4503  0.5759  0.0793
  315MPD2    H5 4796   0.127   2.102   0.223 -1.1334 -0.5583  0.1068
  315MPD2    N1 4797   0.045   1.665   0.284 -0.2975 -0.0843  0.3699
  315MPD2    H7 4798   0.056   1.717   0.370  0.0155  2.0129 -0.9111
  316TMC3    C1 4799   0.143   2.325   0.101 -0.1590  0.4231  0.5178
  316TMC3    C2 4800   0.185   2.336   0.232 -0.5576 -0.8789  0.0916
  316TMC3    C3 4801   0.176   2.449   0.300 -0.0780  0.4887  0.1461
  316TMC3    C4 4802   0.108   2.439   0.032  0.3301 -0.3734 -0.4006
  316TMC3    C5 4803   0.092   2.555   0.105 -0.8120  0.2092 -0.2134
  316TMC3    C6 4804   0.134   2.562   0.235 -0.5625 -0.1533  0.4618
  316TMC3     C 4805   0.136   2.201   0.031 -0.2020 -0.0467  0.0162
  316TMC3     O 4806   0.105   2.206  17.652 -0.5525  0.0650 -0.5713
  316TMC3     H 4807   0.214   2.240   0.274 -0.0950  0.1176  2.0412
  316TMC3    H1 4808   0.089   2.441  17.665 -1.4710 -2.8683 -0.1226
  316TMC3    H2 4809   0.130   2.656   0.289 -2.1956 -0.5763  1.0742
  316TMC3    C7 4810   4.723   2.647   0.063 -0.1666  0.1298 -0.3257
  316TMC3    C8 4811   0.223   2.464   0.431 -0.1526 -0.1707 -0.7673
  316TMC3    O1 4812   4.670   2.693   0.161 -0.5048 -0.3557  0.6614
  316TMC3    O2 4813   0.246   2.581   0.463 -0.3901 -0.1381 -0.1958
  317MPD2     C 4814   1.946   0.620  12.770  0.3750  0.2775  0.0537
  317MPD2    C1 4815   1.992   0.495  12.746  0.0076  0.4873 -0.8134
  317MPD2    C2 4816   2.060   0.436  12.851  0.5542  0.7086  0.0430
  317MPD2    C3 4817   2.087   0.504  12.969 -0.1339  0.2347 -0.3527
  317MPD2    C4 4818   2.040   0.635  12.990 -0.3971  0.5005 -0.5507
  317MPD2    C5 4819   1.972   0.696  12.882  0.0193  0.8043 -0.6240
  317MPD2     H 4820   2.083   0.331  12.838 -3.8103 -0.3030  0.6514
  317MPD2    H1 4821   2.063   0.683  13.085 -0.7560  1.3174 -0.8702
  317MPD2    H2 4822   1.871   0.665  12.705  0.4549  0.9407  0.4251
  317MPD2    H3 4823   1.922   0.791  12.898  1.7515  2.0863 -2.8647
  317MPD2     N 4824   2.140   0.427  13.075 -0.9959 -0.3441  0.1059
  317MPD2    H5 4825   2.155   0.330  13.047 -0.2473 -0.7403  1.9264
  317MPD2    N1 4826   1.974   0.417  12.628  0.9451 -0.0554  0.4862
  317MPD2    H7 4827   2.013   0.324  12.640  0.8298 -0.2470 -0.6193
  318TMC3    C1 4828   2.183   0.354  13.291 -0.1768 -0.1775  0.3874
  318TMC3    C2 4829   2.115   0.242  13.271  0.2807 -0.1059 -0.2442
  318TMC3    C3 4830   2.123   0.140  13.362  0.1744  0.2785  1.1131
  318TMC3    C4 4831   2.250   0.375  13.410 -0.2572 -0.8175  0.0808
  318TMC3    C5 4832   2.244   0.273  13.507  0.9857 -0.1997  0.6190
  318TMC3    C6 4833   2.187   0.151  13.482 -0.3894  0.3574 -0.1571
  318TMC3     C 4834   2.159   0.464  13.203 -0.0629  0.6493 -0.2916
  318TMC3     O 4835   2.172   0.576  13.251 -0.2099  0.8573 -0.6662
  318TMC3     H 4836   2.052   0.221  13.185  0.0166  0.8198 -0.2746
  318TMC3    H1 4837   2.293   0.473  13.431 -2.2007  0.3339 -1.3355
  318TMC3    H2 4838   2.178   0.073  13.557 -2.6148 -1.2268 -2.0684
  318TMC3    C7 4839   2.349   0.289  13.608 -0.3517 -0.6239 -0.5707
  318TMC3    C8 4840   2.029   0.027  13.341 -0.0522 -0.1007 -0.5227
  318TMC3    O1 4841   2.378   0.399  13.645  0.1898 -0.0612 -0.3591
  318TMC3    O2 4842   1.942   0.041  13.254 -0.0677 -0.3901  0.4630
  319MPD2     C 4843   2.830   0.856  16.839  0.0971  0.8798  0.1459
  319MPD2    C1 4844   2.781   0.983  16.810 -0.6486  0.3162 -0.2120
  319MPD2    C2 4845   2.765   1.023  16.681  0.0057  0.2269 -0.3445
  319MPD2    C3 4846   2.783   0.927  16.581 -0.3636  0.0418  0.2396
  319MPD2    C4 4847   2.825   0.802  16.613 -0.3903  0.1472  0.5243
  319MPD2    C5 4848   2.853   0.771  16.740 -0.1005 -0.4465 -0.0075
  319MPD2     H 4849   2.740   1.126  16.658  2.0102  0.2909 -2.2476
  319MPD2    H1 4850   2.846   0.720  16.546 -1.1143  0.2297  0.1953
  319MPD2    H2 4851   2.854   0.842  16.944  0.6442 -0.1107 -0.1113
  319MPD2    H3 4852   2.892   0.672  16.762 -0.5657 -0.9010 -1.2109
  319MPD2     N 4853   2.759   0.949  16.443  0.2090  0.2598  0.4021
  319MPD2    H5 4854   2.784   0.874  16.379  1.9189 -0.9344  2.4383
  319MPD2    N1 4855   2.753   1.075  16.912 -0.3930 -0.2880 -0.0722
  319MPD2    H7 4856   2.698   1.156  16.885  0.1789 -0.3236 -1.3749
  320TMC3    C1 4857   2.681   1.055  16.242 -0.1384 -0.5601 -0.0509
  320TMC3    C2 4858   2.654   1.177  16.191  0.2655  0.2216  0.3091
  320TMC3    C3 4859   2.614   1.181  16.060  0.5961 -0.5117  0.4599
  320TMC3    C4 4860   2.639   0.936  16.180  0.0795 -0.1010 -0.1967
  320TMC3    C5 4861   2.592   0.949  16.054  0.1713 -0.8952 -0.4634
  320TMC3    C6 4862   2.580   1.066  15.995  0.3387  0.2761  0.7715
  320TMC3     C 4863   2.700   1.062  16.389 -0.5382 -0.1109 -0.4174
  320TMC3     O 4864   2.680   1.170  16.447  0.3078 -0.2112 -0.0411
  320TMC3     H 4865   2.699   1.264  16.238  0.0300  0.8858 -0.6878
  320TMC3    H1 4866   2.657   0.841  16.229 -1.3994 -0.9049 -1.1954
  320TMC3    H2 4867   2.541   1.060  15.894  1.7867  0.3208  0.2073
  320TMC3    C7 4868   2.537   0.835  15.981 -0.1127 -0.1543  0.0812
  320TMC3    C8 4869   2.579   1.314  15.999  0.5028  1.0578 -0.2128
  320TMC3    O1 4870   2.478   0.860  15.877  0.2792 -0.0917 -0.7695
  320TMC3    O2 4871   2.585   1.408  16.074  0.9138  0.2413  0.1537
  321TMC3    C1 4872   2.718   1.169  17.120 -0.3026 -0.2835 -1.0031
  321TMC3    C2 4873   2.635   1.154  17.227 -0.1562 -0.4820 -0.0302
  321TMC3    C3 4874   2.591   1.278  17.261 -0.0555  0.2341 -0.3572
  321TMC3    C4 4875   2.760   1.289  17.065  0.2630  0.3679 -0.5604
  321TMC3    C5 4876   2.724   1.405  17.122  0.2319 -0.1328  0.8503
  321TMC3    C6 4877   2.621   1.405  17.211 -0.8556 -0.1382  0.1532
  321TMC3     C 4878   2.758   1.051  17.049  0.7256  0.2789 -0.3588
  321TMC3     O 4879   2.772   0.945  17.111  0.1834  0.0544 -0.0749
  321TMC3     H 4880   2.599   1.056  17.258 -1.6594  0.1929  0.3635
  321TMC3    H1 4881   2.840   1.285  16.992 -1.3392 -2.7081 -2.1611
  321TMC3    H2 4882   2.581   1.494  17.258 -0.5004  1.0768 -1.8479
  321TMC3    C7 4883   2.832   1.479  17.176 -0.2146  0.2597  0.4067
  321TMC3    C8 4884   2.600   1.296  17.404  0.3918 -0.2559  0.7774
  321TMC3    O1 4885   2.938   1.416  17.192  0.9136  0.0815 -0.1760
  321TMC3    O2 4886   2.638   1.404  17.445 -0.1245 -1.0476  0.7845
  322MPD2     C 4887   1.710   2.906  13.640  0.8526  0.3328 -0.4604
  322MPD2    C1 4888   1.714   2.804  13.734 -0.3816 -0.1798  0.4314
  322MPD2    C2 4889   1.794   2.692  13.705  0.2673 -0.0591 -0.4987
  322MPD2    C3 4890   1.881   2.692  13.595  0.1780 -0.1322 -0.0857
  322MPD2    C4 4891   1.883   2.800  13.511  0.3440  0.3688 -0.4070
  322MPD2    C5 4892   1.794   2.901  13.527 -0.1375  0.8359  0.8083
  322MPD2     H 4893   1.793   2.606  13.772  1.0406  0.9434  0.8014
  322MPD2    H1 4894   1.951   2.818  13.428  1.5581 -3.0671 -0.1414
  322MPD2    H2 4895   1.633   2.982  13.643  0.4519 -0.0491 -1.0470
  322MPD2    H3 4896   1.796   2.974  13.447  0.7931  0.8917  0.8830
  322MPD2     N 4897   1.963   2.580  13.588  0.2710  0.3194 -1.0091
  322MPD2    H5 4898   1.973   2.515  13.665  2.1561 -0.4345 -1.8578
  322MPD2    N1 4899   1.628   2.803  13.839 -0.0247  0.0167 -0.5173
  322MPD2    H7 4900   1.554   2.872  13.835  1.0414  1.1522 -0.4342
  323TMC3    C1 4901   1.614   2.779  14.063 -0.7364  0.2003  0.3707
  323TMC3    C2 4902   1.621   2.921  14.052 -0.0291  0.5276  0.5330
  323TMC3    C3 4903   1.699   2.988  14.137  0.1250  0.5196  0.5044
  323TMC3    C4 4904   1.682   2.708  14.161 -0.8812  0.0913  0.2879
  323TMC3    C5 4905   1.736   2.790  14.259  0.2197 -0.1472  0.0372
  323TMC3    C6 4906   1.771   2.922  14.231  0.5329  0.1570  0.5704
  323TMC3     C 4907   1.622   2.709  13.941  0.7610 -0.7850  0.1724
  323TMC3     O 4908   1.649   2.589  13.940 -0.7786  0.3275 -0.0130
  323TMC3     H 4909   1.560   2.984  13.989 -1.1418  0.0333  1.1199
  323TMC3    H1 4910   1.659   2.602  14.169 -1.4947  0.0356 -2.5296
  323TMC3    H2 4911   1.845   2.978  14.287 -0.4526  0.5661  1.4494
  323TMC3    C7 4912   1.820   2.719  14.353 -0.4139 -0.0499  0.0755
  323TMC3    C8 4913   1.801   3.058  14.062 -0.2289  0.2084 -0.7891
  323TMC3    O1 4914   1.793   2.599  14.360 -0.1383  0.5231  0.2784
  323TMC3    O2 4915   1.923   3.027  14.070 -0.3676  0.1896 -0.1029
  324MPD2     C 4916   3.093   3.221  14.281 -0.1754 -0.1980 -0.7114
  324MPD2    C1 4917   3.123   3.345  14.240  0.3637  0.0838 -0.6592
  324MPD2    C2 4918   3.034   3.447  14.276 -0.0073 -0.3876  0.0703
  324MPD2    C3 4919   2.929   3.425  14.359  0.0030 -0.1727 -0.3607
  324MPD2    C4 4920   2.900   3.298  14.400 -0.1011 -0.5182 -0.4120
  324MPD2    C5 4921   2.978   3.195  14.354  0.0746 -0.4124  0.3418
  324MPD2     H 4922   3.048   3.546  14.235 -2.4908 -1.1833 -2.7081
  324MPD2    H1 4923   2.810   3.271  14.454  0.8039  0.0987  1.3961
  324MPD2    H2 4924   3.164   3.144  14.253 -0.3633 -0.2654 -0.9969
  324MPD2    H3 4925   2.943   3.101  14.394  0.1999 -0.0590  1.2884
  324MPD2     N 4926   2.837   3.525  14.402  0.1488 -0.1637  0.9169
  324MPD2    H5 4927   2.755   3.497  14.454 -0.1095 -1.5311 -0.2486
  324MPD2    N1 4928   3.234   3.363  14.156 -0.0340  0.0266 -0.3035
  324MPD2    H7 4929   3.306   3.293  14.147  0.5020  0.3654  1.3349
  325TMC3    C1 4930   2.749   3.732  14.442  0.7061 -0.0413 -0.0699
  325TMC3    C2 4931   2.661   3.685  14.534 -0.3251  0.8388  0.2895
  325TMC3    C3 4932   2.544   3.757  14.554  0.6178 -0.0881 -0.0853
  325TMC3    C4 4933   2.741   3.860  14.385  0.1229  0.2053 -0.0581
  325TMC3    C5 4934   2.626   3.921  14.416 -0.1286  0.0092  0.8131
  325TMC3    C6 4935   2.531   3.879  14.498  0.0920 -0.6184 -0.0185
  325TMC3     C 4936   2.852   3.657  14.383  0.2591  0.1048  0.8337
  325TMC3     O 4937   2.942   3.724  14.329 -0.5963  0.1840  0.2049
  325TMC3     H 4938   2.665   3.582  14.567 -2.7378  0.4217 -0.6858
  325TMC3    H1 4939   2.800   3.890  14.299  0.9996  1.3256  0.9374
  325TMC3    H2 4940   2.434   3.928  14.505  0.6170 -0.1662  3.8440
  325TMC3    C7 4941   2.612   4.061  14.376  0.0338 -0.1804 -0.3641
  325TMC3    C8 4942   2.426   3.675  14.554 -0.0629 -0.4193 -1.2364
  325TMC3    O1 4943   2.672   4.093  14.270  0.1105  0.0772  0.0059
  325TMC3    O2 4944   2.434   3.557  14.536 -1.0958  0.9296  0.0960
  326MPD2     C 4945   3.917   0.332  11.202 -0.1939 -1.1547 -0.3293
  326MPD2    C1 4946   3.846   0.381  11.098 -0.1330 -0.2020  0.4545
  326MPD2    C2 4947   3.914   0.445  10.996 -0.1663  0.2400 -0.1628
  326MPD2    C3 4948   4.050   0.455  10.999 -0.1814 -0.8496  0.0887
  326MPD2    C4 4949   4.123   0.388  11.094  0.4294 -0.4300 -0.1465
  326MPD2    C5 4950   4.052   0.339  11.200  0.5711 -0.6727  0.0831
  326MPD2     H 4951   3.861   0.501  10.920  1.5209  0.8627 -0.8801
  326MPD2    H1 4952   4.231   0.375  11.098  0.3513 -0.8698  0.7365
  326MPD2    H2 4953   3.885   0.273  11.286  0.0512 -2.5359 -1.2050
  326MPD2    H3 4954   4.105   0.294  11.284  2.0557 -0.7390 -0.8829
  326MPD2     N 4955   4.119   0.543  10.912 -0.0075  0.0246 -0.8031
  326MPD2    H5 4956   4.219   0.527  10.911  0.4480  2.9374  0.5094
  326MPD2    N1 4957   3.702   0.388  11.094  0.5428  0.4440 -0.0481
  326MPD2    H7 4958   3.667   0.421  11.004 -2.3348  1.1580  1.3421
  327TMC3    C1 4959   3.506   0.280  11.090  0.8374  1.2271 -0.1731
  327TMC3    C2 4960   3.445   0.379  11.016 -0.4884 -0.3919  0.0696
  327TMC3    C3 4961   3.362   0.341  10.915 -0.2665  0.5751 -0.0660
  327TMC3    C4 4962   3.494   0.146  11.064  0.4590 -0.2954 -0.3295
  327TMC3    C5 4963   3.404   0.113  10.964  0.3037  0.2558  0.0607
  327TMC3    C6 4964   3.338   0.208  10.885 -0.3194 -0.1022 -0.7513
  327TMC3     C 4965   3.611   0.322  11.175  0.2428  0.4967  0.1376
  327TMC3     O 4966   3.641   0.248  11.264 -0.3000  0.3757 -0.2106
  327TMC3     H 4967   3.460   0.486  11.023  0.7541 -0.5213 -0.4287
  327TMC3    H1 4968   3.541   0.075  11.131 -0.9727  0.3582  1.3615
  327TMC3    H2 4969   3.275   0.163  10.809 -0.2422  1.3728 -1.6827
  327TMC3    C7 4970   3.400   4.704  10.914  0.6631 -0.0285 -1.0092
  327TMC3    C8 4971   3.308   0.441  10.832 -0.9031  0.2553 -0.5993
  327TMC3    O1 4972   3.318   4.673  10.834  0.0191  0.6119 -0.2603
  327TMC3    O2 4973   3.282   0.550  10.879 -0.1816  0.2466 -1.1290
  328MPD2     C 4974   2.426   0.810  16.522 -0.2215  0.0929 -0.0625
  328MPD2    C1 4975   2.420   0.869  16.646  0.1138  0.3303 -0.2368
  328MPD2    C2 4976   2.348   0.983  16.663 -0.0452 -0.7660 -0.1990
  328MPD2    C3 4977   2.284   1.051  16.564  0.1777  0.2813 -0.0871
  328MPD2    C4 4978   2.298   0.986  16.439 -0.0143  0.0464  0.4588
  328MPD2    C5 4979   2.360   0.866  16.417  0.7530  0.4493 -0.5278
  328MPD2     H 4980   2.347   1.019  16.766  1.1726 -2.1093  0.2818
  328MPD2    H1 4981   2.238   1.015  16.354  0.9960 -1.8337 -0.8802
  328MPD2    H2 4982   2.480   0.718  16.502  1.0055  0.7132  0.3292
  328MPD2    H3 4983   2.340   0.806  16.329  1.2089  0.3980 -0.5967
  328MPD2     N 4984   2.193   1.150  16.575 -0.2901  0.0183  0.1364
  328MPD2    H5 4985   2.145   1.188  16.494 -0.0790  0.2191  0.1070
  328MPD2    N1 4986   2.477   0.799  16.752  0.3100 -0.5103  0.2270
  328MPD2    H7 4987   2.521   0.710  16.728  2.2383  0.2485  0.9062
  329TMC3    C1 4988   2.494   0.703  16.961 -0.6948 -0.3373 -0.7458
  329TMC3    C2 4989   2.418   0.593  16.933 -0.2232  0.1722  0.0821
  329TMC3    C3 4990   2.413   0.500  17.032 -0.0258  0.7133  0.7627
  329TMC3    C4 4991   2.570   0.718  17.076  0.4119 -0.6441  0.2465
  329TMC3    C5 4992   2.566   0.606  17.162 -0.0717  0.4605 -0.2119
  329TMC3    C6 4993   2.477   0.502  17.148 -0.1549  0.1643  0.3866
  329TMC3     C 4994   2.464   0.822  16.888  0.0784 -0.5555 -0.2813
  329TMC3     O 4995   2.408   0.910  16.948  1.3844  0.1795  0.1361
  329TMC3     H 4996   2.365   0.589  16.838 -1.1831 -0.3330  0.6328
  329TMC3    H1 4997   2.612   0.816  17.095 -0.2530 -0.3799  0.3434
  329TMC3    H2 4998   2.466   0.420  17.218  0.2043 -0.9166 -0.8114
  329TMC3    C7 4999   2.623   0.621  17.296  0.1929  0.5565  0.6428
  329TMC3    C8 5000   2.308   0.408  17.008 -0.2658  0.7385 -0.7782
  329TMC3    O1 5001   2.578   0.545  17.378 -0.8358  0.0604 -0.5055
  329TMC3    O2 5002   2.282   0.381  16.889 -0.2331 -0.0745 -0.0333
  330TMC3    C1 5003   4.277   4.294   9.934 -0.1371  0.8337 -0.1294
  330TMC3    C2 5004   4.183   4.218   9.862  0.5380  0.1686  0.6379
  330TMC3    C3 5005   4.177   4.085   9.902 -0.1979 -1.2005  0.4524
  330TMC3    C4 5006   4.356   4.248  10.040 -0.0559 -0.2506  0.6094
  330TMC3    C5 5007   4.339   4.116  10.073 -0.0331 -0.6427 -0.4383
  330TMC3    C6 5008   4.259   4.030  10.006  0.0520  0.4196  0.1416
  330TMC3     C 5009   4.276   4.440   9.918 -1.1889 -0.0542 -0.4084
  330TMC3     O 5010   4.314   4.504  10.015 -0.8226  0.4339  0.1783
  330TMC3     H 5011   4.128   4.258   9.778  2.7768  1.0489 -0.4022
  330TMC3    H1 5012   4.401   4.315  10.113  0.1180  0.6110 -0.2962
  330TMC3    H2 5013   4.269   3.926  10.036 -1.1729  0.7372  1.6784
  330TMC3    C7 5014   4.387   4.066  10.202 -0.4938  0.3330  0.3770
  330TMC3    C8 5015   4.096   4.003   9.816  0.0979  0.2035 -0.1574
  330TMC3    O1 5016   4.331   3.973  10.263  0.4328 -0.0055  0.3875
  330TMC3    O2 5017   4.071   4.047   9.702 -0.1430 -0.4865 -0.1611
  331MPD2     C 5018   2.311   3.017  13.186  0.1082  0.2988 -0.0803
  331MPD2    C1 5019   2.401   3.060  13.097 -0.4069  0.4308 -0.6439
  331MPD2    C2 5020   2.458   2.968  13.013  0.2962 -0.4278 -0.8717
  331MPD2    C3 5021   2.426   2.837  13.010 -0.3986  0.2298  0.0470
  331MPD2    C4 5022   2.330   2.789  13.093 -0.3648 -0.2865 -0.0260
  331MPD2    C5 5023   2.276   2.888  13.178 -0.4333 -0.2356 -0.1538
  331MPD2     H 5024   2.538   3.003  12.950  0.5480 -1.4961 -1.1506
  331MPD2    H1 5025   2.293   2.687  13.102  2.6968 -1.4931 -1.1644
  331MPD2    H2 5026   2.263   3.072  13.266  0.8212 -1.4578  1.5557
  331MPD2    H3 5027   2.215   2.850  13.259  0.7930 -4.0123 -1.0218
  331MPD2     N 5028   2.497   2.753  12.915 -0.5252 -0.7456  0.2029
  331MPD2    H5 5029   2.562   2.796  12.849  0.2909  2.0363  2.8426
  331MPD2    N1 5030   2.456   3.187  13.108 -0.2448  0.3692 -0.1434
  331MPD2    H7 5031   2.426   3.245  13.186  0.0529  1.2958 -0.7205
  332TMC3    C1 5032   2.600   2.554  12.844 -0.0274  0.4941  0.6472
  332TMC3    C2 5033   2.607   2.628  12.723  0.2560  0.4574 -0.3389
  332TMC3    C3 5034   2.732   2.631  12.661 -0.4423  0.0830 -0.0450
  332TMC3    C4 5035   2.708   2.492  12.902  0.4507  0.3547 -0.3928
  332TMC3    C5 5036   2.824   2.503  12.828 -0.7113  0.7111  0.8116
  332TMC3    C6 5037   2.840   2.566  12.708  0.6933  0.2450  1.1861
  332TMC3     C 5038   2.506   2.611  12.935  0.7023  0.3475 -0.0941
  332TMC3     O 5039   2.466   2.545  13.023  0.7009  0.7377 -0.0514
  332TMC3     H 5040   2.511   2.665  12.688  0.0052 -0.7328 -0.9298
  332TMC3    H1 5041   2.695   2.430  12.989 -0.3177  2.8849  1.3207
  332TMC3    H2 5042   2.933   2.572  12.652 -0.7034 -1.1077 -1.3252
  332TMC3    C7 5043   2.927   2.412  12.875 -0.2454  0.3488 -0.8271
  332TMC3    C8 5044   2.749   2.706  12.535  0.1503  0.0338  0.2821
  332TMC3    O1 5045   2.878   2.307  12.913 -0.2160 -0.0145  0.0784
  332TMC3    O2 5046   2.862   2.742  12.510 -0.2480 -0.0630 -0.2614
  333MPD2     C 5047   2.777   3.123  10.856  0.0744 -0.0912 -0.0947
  333MPD2    C1 5048   2.769   3.035  10.749 -0.1898 -0.2541 -0.2214
  333MPD2    C2 5049   2.779   2.904  10.777 -0.0267 -0.5255  0.1393
  333MPD2    C3 5050   2.761   2.851  10.905  0.0111  0.0997 -0.0195
  333MPD2    C4 5051   2.757   2.943  11.006 -0.4083  0.0082 -0.3658
  333MPD2    C5 5052   2.768   3.079  10.978  0.2663  0.5017 -0.8612
  333MPD2     H 5053   2.809   2.837  10.698  1.1218 -0.1179  0.2169
  333MPD2    H1 5054   2.748   2.917  11.111  0.8552 -1.5572 -0.6277
  333MPD2    H2 5055   2.769   3.229  10.835 -0.2081 -0.3408 -1.2586
  333MPD2    H3 5056   2.769   3.157  11.054 -1.0103  1.2275 -1.5888
  333MPD2     N 5057   2.770   2.711  10.919  0.2328  1.1657  0.2568
  333MPD2    H5 5058   2.761   2.657  10.834 -2.8840 -1.2115  2.0750
  333MPD2    N1 5059   2.798   3.088  10.619 -0.0453  0.8709 -0.1285
  333MPD2    H7 5060   2.793   3.189  10.616 -3.3767  0.6969 -0.0827
  334TMC3    C1 5061   2.855   3.104  10.395  0.8500  1.1359  0.0845
  334TMC3    C2 5062   2.988   3.069  10.369  0.7074  0.1915 -0.4809
  334TMC3    C3 5063   3.092   3.155  10.389 -0.5851  0.4501  0.5845
  334TMC3    C4 5064   2.828   3.234  10.420 -0.8219 -0.9872 -0.2964
  334TMC3    C5 5065   2.935   3.320  10.427 -0.3816 -0.1280  0.5154
  334TMC3    C6 5066   3.067   3.286  10.412 -0.1260 -1.3184  0.2349
  334TMC3     C 5067   2.809   3.009  10.497 -0.3383  0.1789  0.2245
  334TMC3     O 5068   2.803   2.889  10.476 -0.3730  0.1754 -0.6180
  334TMC3     H 5069   3.002   2.965  10.343 -1.3469 -1.0684  3.4491
  334TMC3    H1 5070   2.728   3.269  10.442  0.6401  2.2482  1.2694
  334TMC3    H2 5071   3.147   3.351  10.446 -2.1622  0.3706  1.8030
  334TMC3    C7 5072   2.911   3.460  10.436 -0.6976  0.6182  0.0886
  334TMC3    C8 5073   3.197   3.083  10.454  0.9865  0.1703  0.4868
  334TMC3    O1 5074   3.007   3.537  10.441 -0.8327 -0.0088  0.5088
  334TMC3    O2 5075   3.184   2.962  10.476  0.7223  0.0038  0.2162
  335TMC3    C1 5076   3.132   0.136  16.871 -0.9026  0.9946 -0.3078
  335TMC3    C2 5077   3.014   0.075  16.839 -0.1651 -0.0876 -0.1882
  335TMC3    C3 5078   3.012   4.727  16.734 -0.0804  0.1749  0.2903
  335TMC3    C4 5079   3.240   0.114  16.789 -0.4702 -0.0910  0.4034
  335TMC3    C5 5080   3.236   0.028  16.684  0.5787 -1.0406  0.1608
  335TMC3    C6 5081   3.123   4.696  16.658  0.6902 -0.0942  0.6176
  335TMC3     C 5082   3.152   0.219  16.978  0.3761 -0.0664 -0.6536
  335TMC3     O 5083   3.266   0.260  16.995  0.1011 -0.3817  0.6153
  335TMC3     H 5084   2.918   0.102  16.880  0.0936 -1.7048  1.4800
  335TMC3    H1 5085   3.339   0.154  16.809  0.0074 -1.6125  1.0788
  335TMC3    H2 5086   3.120   4.614  16.587  2.6658  0.6261 -0.2752
  335TMC3    C7 5087   3.360   4.731  16.617 -0.1589  0.0186 -0.2914
  335TMC3    C8 5088   2.879   4.708  16.676 -0.2091  0.0246 -0.5453
  335TMC3    O1 5089   3.459   0.064  16.632 -0.5307  0.0511 -0.8227
  335TMC3    O2 5090   2.878   4.707  16.555  0.0528  0.4823  0.6089
  336MPD2     C 5091   2.277   2.919  16.330 -0.8083 -0.5842  0.1181
  336MPD2    C1 5092   2.309   2.807  16.257  0.8443  0.7011 -0.3484
  336MPD2    C2 5093   2.382   2.700  16.323 -0.6655  0.0340  0.1049
  336MPD2    C3 5094   2.422   2.710  16.452  0.1434  0.0174  0.3610
  336MPD2    C4 5095   2.387   2.823  16.521 -0.0561 -0.8968  0.1956
  336MPD2    C5 5096   2.310   2.927  16.462 -0.2056  0.5461  0.0159
  336MPD2     H 5097   2.404   2.617  16.257 -0.7613  0.2143 -0.1550
  336MPD2    H1 5098   2.410   2.833  16.626 -1.0440  0.4308  0.2883
  336MPD2    H2 5099   2.220   3.006  16.301  0.6819 -0.0938 -1.3112
  336MPD2    H3 5100   2.282   3.019  16.512  1.1729  2.6548 -3.0873
  336MPD2     N 5101   2.490   2.602  16.528  0.0832 -0.7985 -0.7144
  336MPD2    H5 5102   2.540   2.632  16.611 -1.4501  1.6785 -0.6820
  336MPD2    N1 5103   2.273   2.798  16.119  0.3909  0.3041  0.0006
  336MPD2    H7 5104   2.280   2.703  16.083 -0.4402 -0.5083  1.9984
  337TMC3    C1 5105   2.186   2.856  15.904 -0.4665 -0.2960 -0.4768
  337TMC3    C2 5106   2.078   2.917  15.844  0.1835 -0.7056 -0.8980
  337TMC3    C3 5107   2.047   2.903  15.716 -0.3671  0.3136 -0.0974
  337TMC3    C4 5108   2.267   2.766  15.842 -0.1446  0.0878  0.1533
  337TMC3    C5 5109   2.234   2.745  15.709 -0.0222 -0.3478 -0.7541
  337TMC3    C6 5110   2.127   2.817  15.649  0.3581 -1.0082  0.8488
  337TMC3     C 5111   2.202   2.891  16.043 -0.0222 -0.0452 -0.0232
  337TMC3     O 5112   2.155   2.999  16.075 -0.2480  0.3511 -0.4554
  337TMC3     H 5113   2.017   2.981  15.908  2.3844 -0.4529  0.9188
  337TMC3    H1 5114   2.347   2.718  15.898  0.0173 -0.0121 -0.1684
  337TMC3    H2 5115   2.111   2.800  15.543  2.6268 -0.8771  0.4695
  337TMC3    C7 5116   2.329   2.676  15.624  0.7553  0.4000 -0.5870
  337TMC3    C8 5117   1.909   2.923  15.673  0.0703  0.2037 -0.9625
  337TMC3    O1 5118   2.446   2.671  15.661  0.0237 -0.3527 -0.4460
  337TMC3    O2 5119   1.826   2.943  15.758  0.6631  0.2731 -0.5351
  338MPD2     C 5120   3.358   2.697   1.157 -0.0491 -1.0422  0.0364
  338MPD2    C1 5121   3.245   2.701   1.081  0.4869  0.2568  1.1267
  338MPD2    C2 5122   3.170   2.812   1.083  0.2475 -0.0783 -0.2816
  338MPD2    C3 5123   3.214   2.931   1.134 -0.3780  0.1642 -0.0690
  338MPD2    C4 5124   3.339   2.937   1.195  0.3364 -0.2798 -0.4100
  338MPD2    C5 5125   3.408   2.813   1.209 -0.4681  0.4150  0.2391
  338MPD2     H 5126   3.077   2.814   1.028  1.2921  1.6000 -1.9413
  338MPD2    H1 5127   3.387   3.028   1.227 -0.3890  0.4048 -1.2817
  338MPD2    H2 5128   3.421   2.613   1.183  0.6533 -0.8455 -1.0596
  338MPD2    H3 5129   3.504   2.807   1.259 -0.0824  1.9336 -0.3293
  338MPD2     N 5130   3.126   3.043   1.132 -0.7794 -0.1205 -0.4472
  338MPD2    H5 5131   3.042   3.037   1.075 -1.4005 -1.3467  0.5978
  338MPD2    N1 5132   3.197   2.586   1.004  0.8872  0.6593 -0.1283
  338MPD2    H7 5133   3.100   2.578   0.976  0.7702  1.5827  0.0215
  339TMC3    C1 5134   3.018   3.224   1.198 -0.0389 -0.6026 -0.0207
  339TMC3    C2 5135   2.983   3.296   1.309  0.0687 -0.1865  0.0978
  339TMC3    C3 5136   2.846   3.318   1.331 -0.2142  0.8366 -0.5076
  339TMC3    C4 5137   2.929   3.213   1.094  0.0007  0.1893 -0.1218
  339TMC3    C5 5138   2.797   3.251   1.107 -0.8229  0.0819  0.5719
  339TMC3    C6 5139   2.758   3.298   1.225  1.0312 -0.4957 -0.2447
  339TMC3     C 5140   3.134   3.145   1.220  0.5588 -0.4728  0.1042
  339TMC3     O 5141   3.211   3.166   1.310 -0.1016 -0.0900  0.2897
  339TMC3     H 5142   3.045   3.300   1.398  1.4031 -0.4346 -0.8356
  339TMC3    H1 5143   2.954   3.167   0.999 -0.6846  1.5503 -0.9538
  339TMC3    H2 5144   2.656   3.305   1.261  0.4482  0.7844 -2.1029
  339TMC3    C7 5145   2.706   3.182   1.021 -0.1017 -0.0162  0.2500
  339TMC3    C8 5146   2.815   3.398   1.450  0.7857 -0.4745  0.3464
  339TMC3    O1 5147   2.735   3.172   0.903  0.0428 -0.2212 -0.0411
  339TMC3    O2 5148   2.908   3.428   1.519  0.2334  0.1768 -0.1626
  340MPD2     C 5149   2.139   4.036  10.326 -0.2197 -0.1561  0.2820
  340MPD2    C1 5150   2.201   4.083  10.214 -0.2254 -0.5572 -0.1581
  340MPD2    C2 5151   2.260   4.216  10.222 -0.3603 -0.3627  0.3504
  340MPD2    C3 5152   2.270   4.284  10.341  0.4964  0.2187  0.1250
  340MPD2    C4 5153   2.222   4.228  10.459  0.9492 -0.6827  0.6101
  340MPD2    C5 5154   2.138   4.109  10.444 -0.1948  0.7979 -0.4189
  340MPD2     H 5155   2.310   4.250  10.133 -2.4299  2.2172  0.1911
  340MPD2    H1 5156   2.216   4.282  10.553  1.8857 -0.2369  0.4134
  340MPD2    H2 5157   2.075   3.948  10.322 -0.6392  0.1929 -0.5635
  340MPD2    H3 5158   2.086   4.079  10.534 -0.0192  1.5755 -0.0638
  340MPD2     N 5159   2.330   4.409  10.357  0.5355  0.3566 -0.8733
  340MPD2    H5 5160   2.333   4.446  10.452 -0.5069  1.0219 -1.1051
  340MPD2    N1 5161   2.201   4.000  10.094  0.3821 -0.9364 -0.2379
  340MPD2    H7 5162   2.151   3.913  10.107 -0.3355 -1.1202 -4.2114
  341TMC3    C1 5163   2.280   3.923   9.883 -0.1675  0.2496  0.1815
  341TMC3    C2 5164   2.179   3.832   9.876 -0.7876 -0.1092 -0.0320
  341TMC3    C3 5165   2.201   3.723   9.794  0.7359 -0.7188 -0.0036
  341TMC3    C4 5166   2.392   3.911   9.804 -0.0981 -0.6282 -0.1031
  341TMC3    C5 5167   2.396   3.805   9.710  0.4311 -0.3975 -0.3469
  341TMC3    C6 5168   2.308   3.699   9.712  0.0099 -0.0783 -0.5604
  341TMC3     C 5169   2.289   4.023   9.993  0.6980 -0.4073 -0.2835
  341TMC3     O 5170   2.383   4.101   9.986  0.0615 -0.0052  0.4522
  341TMC3     H 5171   2.093   3.836   9.942  0.4390  1.8673  1.4364
  341TMC3    H1 5172   2.480   3.973   9.813 -2.5581  2.6511  1.4890
  341TMC3    H2 5173   2.303   3.628   9.630 -1.5317  0.3571 -0.8547
  341TMC3    C7 5174   2.495   3.832   9.605  0.2002  0.7961  0.4577
  341TMC3    C8 5175   2.087   3.627   9.772 -0.0549 -0.2005 -0.0454
  341TMC3    O1 5176   2.597   3.894   9.625 -0.2559  0.2107  0.2617
  341TMC3    O2 5177   2.121   3.518   9.730 -0.2094 -0.0954  0.5305
  342MPD2     C 5178   0.899   3.499  17.720 -0.1818 -0.0463 -0.2025
  342MPD2    C1 5179   0.955   3.427  17.613 -0.0253 -0.2121  0.0982
  342MPD2    C2 5180   1.066   3.474  17.547 -0.4088 -0.0413 -0.5074
  342MPD2    C3 5181   1.124   3.590  17.596 -0.0208  0.6447 -0.0158
  342MPD2    C4 5182   1.073   3.658  17.706  0.0885 -0.4214 -0.1428
  342MPD2    C5 5183   0.960   3.613   0.024  0.0984  0.4037 -0.4613
  342MPD2     H 5184   1.110   3.424  17.462  1.0049 -0.6332  0.5541
  342MPD2    H1 5185   1.124   3.742   0.013 -1.2623 -0.5718  1.6134
  342MPD2    H2 5186   0.819   3.460   0.042 -0.8300  1.1636 -0.2708
  342MPD2    H3 5187   0.917   3.660   0.112 -0.2561 -0.9798  0.1094
  342MPD2     N 5188   1.241   3.643  17.526  0.5925 -0.3386 -0.7240
  342MPD2    H5 5189   1.268   3.740  17.541  0.1147 -0.0698 -1.5745
  342MPD2    N1 5190   0.901   3.305  17.566  0.2459 -0.0687 -0.5363
  342MPD2    H7 5191   0.949   3.264  17.486  0.4594 -1.1942  0.1638
  343TMC3    C1 5192   0.800   3.103  17.579 -0.6529  0.1753  0.9991
  343TMC3    C2 5193   0.881   3.080  17.471 -0.0830 -0.0383  0.4137
  343TMC3    C3 5194   0.954   2.966  17.461 -0.5026 -0.4897  0.1839
  343TMC3    C4 5195   0.779   3.003  17.671  0.1811  0.2966 -0.1830
  343TMC3    C5 5196   0.843   2.887  17.653  0.8408 -0.0726 -0.0856
  343TMC3    C6 5197   0.943   2.876  17.561  0.9768 -0.1717  1.0032
  343TMC3     C 5198   0.794   3.236  17.621 -0.1118  0.7589  0.0363
  343TMC3     O 5199   0.716   3.270  17.712  0.2349  0.0698 -0.1531
  343TMC3     H 5200   0.873   3.135  17.377  3.5205  1.0885  0.7861
  343TMC3    H1 5201   0.705   3.002   0.012  0.8093 -2.4856  0.3528
  343TMC3    H2 5202   1.003   2.787  17.575  0.9538 -0.3790 -0.2720
  343TMC3    C7 5203   0.776   2.763  17.687 -0.0824  0.1068 -0.0018
  343TMC3    C8 5204   1.075   2.981  17.385 -0.5479  0.3405  0.1796
  343TMC3    O1 5205   0.760   2.687  17.593 -0.4641  0.0173 -0.5669
  343TMC3    O2 5206   1.104   3.098  17.358  0.3060  0.0962  0.1785
  344MPD2     C 5207   1.025   2.399  10.547  0.2772 -0.6052  0.4914
  344MPD2    C1 5208   1.081   2.459  10.662  0.1501 -0.1225  0.3499
  344MPD2    C2 5209   1.150   2.580  10.657  0.5203  1.0432  0.0273
  344MPD2    C3 5210   1.159   2.636  10.523 -0.0473 -0.3475  0.2717
  344MPD2    C4 5211   1.111   2.575  10.410 -0.0547 -0.1678 -1.0411
  344MPD2    C5 5212   1.047   2.460  10.425 -0.6809 -0.7867 -0.6569
  344MPD2     H 5213   1.193   2.630  10.743  0.1898 -0.7295  1.2305
  344MPD2    H1 5214   1.132   2.611  10.310 -0.7894  0.7573 -0.8594
  344MPD2    H2 5215   0.982   2.300  10.549  0.3785 -0.6035  2.6522
  344MPD2    H3 5216   1.004   2.412  10.338  2.5203 -1.6838 -1.7324
  344MPD2     N 5217   1.227   2.758  10.500  0.1556  0.2080  0.6079
  344MPD2    H5 5218   1.232   2.778  10.400 -1.3648 -1.7923  0.1281
  344MPD2    N1 5219   1.075   2.383  10.782  0.2858  0.4178  0.0682
  344MPD2    H7 5220   1.020   2.298  10.775  0.0896  0.4579  1.0699
  345TMC3    C1 5221   1.407   2.919  10.514  0.2028  0.2991 -0.3792
  345TMC3    C2 5222   1.518   2.953  10.589 -0.3169 -0.4795 -0.0365
  345TMC3    C3 5223   1.614   3.028  10.526  0.3782  0.6628 -0.1434
  345TMC3    C4 5224   1.396   2.941  10.377  0.4647  0.0324  0.0206
  345TMC3    C5 5225   1.507   2.990  10.309 -0.6403 -0.2348 -0.1519
  345TMC3    C6 5226   1.613   3.035  10.391  0.0989 -0.3218 -0.5319
  345TMC3     C 5227   1.318   2.820  10.581  0.7546  0.2765  0.5961
  345TMC3     O 5228   1.344   2.787  10.697 -0.1146 -0.2872  0.0137
  345TMC3     H 5229   1.518   2.944  10.697  0.4028  0.6691  0.0593
  345TMC3    H1 5230   1.307   2.917  10.320  0.8138  0.2831 -0.6313
  345TMC3    H2 5231   1.699   3.082  10.346  0.3455 -0.3781 -0.1099
  345TMC3    C7 5232   1.485   3.071  10.189  0.4818 -0.2647  0.4777
  345TMC3    C8 5233   1.685   3.140  10.596  0.1431  0.0498  0.1550
  345TMC3    O1 5234   1.576   3.154  10.163  0.0356 -0.0450 -0.7664
  345TMC3    O2 5235   1.726   3.220  10.519  0.1885  0.4546 -0.1715
  346MPD2     C 5236   1.562   4.075  14.418 -0.7485  0.8524 -0.1675
  346MPD2    C1 5237   1.699   4.058  14.397 -0.5498  0.2408 -0.4688
  346MPD2    C2 5238   1.788   4.106  14.494  0.3370  0.4704 -0.3433
  346MPD2    C3 5239   1.740   4.173  14.609 -0.0912  0.3399 -0.0387
  346MPD2    C4 5240   1.605   4.188  14.627 -0.2923 -0.7872  0.2263
  346MPD2    C5 5241   1.524   4.139  14.531 -0.0118  0.1889  0.5705
  346MPD2     H 5242   1.896   4.101  14.480  0.2899 -0.3334 -0.3975
  346MPD2    H1 5243   1.561   4.234  14.714  1.8021 -0.1972  0.9816
  346MPD2    H2 5244   1.485   4.045  14.348 -0.0942  0.8588 -0.8869
  346MPD2    H3 5245   1.416   4.140  14.542 -0.0193  0.5839  0.4471
  346MPD2     N 5246   1.833   4.240  14.695  0.1982  0.4380  0.1511
  346MPD2    H5 5247   1.933   4.224  14.682  0.8725  3.3672  1.7585
  346MPD2    N1 5248   1.725   3.991  14.278 -0.4300  0.6828 -0.4407
  346MPD2    H7 5249   1.647   3.970  14.217 -1.1814  5.2623 -1.0453
  347TMC3    C1 5250   1.908   4.387  14.869 -0.2242 -0.8846 -0.8988
  347TMC3    C2 5251   2.018   4.418  14.796 -0.2164 -0.1898  0.1802
  347TMC3    C3 5252   2.139   4.434  14.856 -0.0329  0.2264 -0.2641
  347TMC3    C4 5253   1.913   4.365  15.002  0.2520  0.0487 -0.7513
  347TMC3    C5 5254   2.036   4.350  15.062 -0.2670  0.7599  0.1534
  347TMC3    C6 5255   2.150   4.381  14.985 -0.3366 -0.3238  0.6251
  347TMC3     C 5256   1.796   4.323  14.794  0.2883 -0.2516 -0.2636
  347TMC3     O 5257   1.690   4.342  14.852 -0.3718  0.2031 -0.4910
  347TMC3     H 5258   2.002   4.429  14.689 -0.0316 -0.1987  0.1514
  347TMC3    H1 5259   1.820   4.319  15.036  0.4744  0.1136 -0.0485
  347TMC3    H2 5260   2.249   4.384  15.027 -1.1613  1.4194  2.4414
  347TMC3    C7 5261   2.040   4.218  15.120 -0.5168  0.1104 -0.5981
  347TMC3    C8 5262   2.257   4.412  14.771  0.5980  0.5285 -0.4440
  347TMC3    O1 5263   1.935   4.165  15.156  0.3668 -0.0442  0.0977
  347TMC3    O2 5264   2.346   4.337  14.817  0.0815  0.3207  0.0076
  348MPD2     C 5265   0.256   4.102  11.897  0.1253  0.4325  0.5061
  348MPD2    C1 5266   0.244   4.056  11.769  0.0200  0.2585  0.1779
  348MPD2    C2 5267   0.234   4.149  11.670  0.0128 -0.0645  0.7160
  348MPD2    C3 5268   0.216   4.282  11.692 -0.1608  0.1135 -0.1804
  348MPD2    C4 5269   0.216   4.325  11.821 -0.1505 -0.1617  0.3918
  348MPD2    C5 5270   0.242   4.236  11.920  0.2335 -0.4421 -0.3151
  348MPD2     H 5271   0.237   4.110  11.569  0.1555  3.4350 -0.6267
  348MPD2    H1 5272   0.194   4.426  11.851 -0.0411 -0.6221  2.0532
  348MPD2    H2 5273   0.270   4.041  11.986 -0.4188  0.4602  0.6089
  348MPD2    H3 5274   0.241   4.266  12.024  3.0290 -0.1496 -0.3611
  348MPD2     N 5275   0.200   4.366  11.576 -0.5339 -0.3202  0.5204
  348MPD2    H5 5276   0.199   4.319  11.486  0.5777 -0.1452  0.4190
  348MPD2    N1 5277   0.233   3.921  11.735  0.3916 -0.4675 -0.1347
  348MPD2    H7 5278   0.217   3.902  11.637  2.2836 -1.5641 -0.2230
  349TMC3    C1 5279   0.209   3.685  11.759 -0.1631  0.4032 -0.4001
  349TMC3    C2 5280   0.203   3.573  11.838  0.0371 -0.4497  0.1153
  349TMC3    C3 5281   0.161   3.449  11.784 -0.1373  0.3816 -0.4900
  349TMC3    C4 5282   0.158   3.683  11.632  0.1050 -0.2848  0.3530
  349TMC3    C5 5283   0.116   3.562  11.578 -0.9065  0.7481  0.1702
  349TMC3    C6 5284   0.119   3.447  11.657  0.7917 -0.0840 -0.1138
  349TMC3     C 5285   0.240   3.812  11.822  0.4307 -0.1720  0.4162
  349TMC3     O 5286   0.247   3.814  11.941 -0.2376 -0.4141 -0.1943
  349TMC3     H 5287   0.255   3.580  11.933  0.9157 -0.0768 -0.3917
  349TMC3    H1 5288   0.146   3.776  11.579  0.6408 -0.9243 -0.8786
  349TMC3    H2 5289   0.073   3.357  11.616 -3.0176  1.4459  0.8520
  349TMC3    C7 5290   0.025   3.558  11.465  0.0399 -0.1907  0.6090
  349TMC3    C8 5291   0.131   3.339  11.873  0.5212 -0.0263 -0.1172
  349TMC3    O1 5292   4.677   3.466  11.463  1.1478  0.0601 -0.4020
  349TMC3    O2 5293   0.062   3.246  11.831 -0.4869  0.3431  0.6343
  350MPD2     C 5294   3.903   2.102   9.877  0.2424 -0.4386  0.0113
  350MPD2    C1 5295   3.914   1.983   9.949 -0.0931  1.4154 -0.1369
  350MPD2    C2 5296   4.044   1.934   9.960 -0.0459 -0.2021 -0.3940
  350MPD2    C3 5297   4.157   2.003   9.915  1.0143 -0.0961  0.2384
  350MPD2    C4 5298   4.138   2.120   9.842 -0.2469  0.7992  0.1925
  350MPD2    C5 5299   4.013   2.171   9.823  0.1847 -0.2950 -0.7177
  350MPD2     H 5300   4.061   1.837  10.006  1.6575  0.0114 -0.5601
  350MPD2    H1 5301   4.227   2.173   9.811  0.1240 -0.7591 -1.3645
  350MPD2    H2 5302   3.806   2.143   9.855  0.0368  1.6189  4.7884
  350MPD2    H3 5303   3.994   2.266   9.774  0.7324  0.3025  0.2200
  350MPD2     N 5304   4.279   1.939   9.948 -0.1100  1.0914  0.1604
  350MPD2    H5 5305   4.280   1.844   9.982  1.8821  1.8974  2.3267
  350MPD2    N1 5306   3.810   1.909  10.001  0.5464  0.0323  0.1872
  350MPD2    H7 5307   3.824   1.817  10.042 -0.8279  0.0282  0.6508
  351TMC3    C1 5308   3.591   1.849  10.069  0.0632 -0.0314 -0.9560
  351TMC3    C2 5309   3.648   1.729  10.086  0.3073  0.4592 -0.6433
  351TMC3    C3 5310   3.569   1.637  10.134  0.0961 -0.8534  0.6206
  351TMC3    C4 5311   3.459   1.881  10.081 -0.2637 -0.4078 -0.6825
  351TMC3    C5 5312   3.384   1.777  10.130  0.6218  0.0289 -0.1959
  351TMC3    C6 5313   3.434   1.657  10.157  0.3391 -0.2068 -0.1522
  351TMC3     C 5314   3.675   1.939   9.998 -0.3507 -0.1334  0.6100
  351TMC3     O 5315   3.612   2.032   9.948  0.0742  0.4907 -0.2711
  351TMC3     H 5316   3.750   1.694  10.092  0.2232  0.3746  0.2537
  351TMC3    H1 5317   3.416   1.980  10.088 -0.9655 -0.7109 -0.6790
  351TMC3    H2 5318   3.370   1.579  10.195 -1.5614  2.5479  2.2905
  351TMC3    C7 5319   3.246   1.809  10.162 -0.5724 -0.8250  0.2052
  351TMC3    C8 5320   3.611   1.511  10.091 -0.2338  0.3700  0.4238
  351TMC3    O1 5321   3.202   1.925  10.156  0.1095 -0.1277 -0.1610
  351TMC3    O2 5322   3.665   1.509   9.980 -0.0178  0.4149 -0.0600
  352MPD2     C 5323   3.253   0.118   1.148 -0.2648 -0.5350  0.4018
  352MPD2    C1 5324   3.173   0.056   1.045  0.1697 -0.5395  0.5571
  352MPD2    C2 5325   3.176   4.652   1.033  0.1939  0.0805 -0.9929
  352MPD2    C3 5326   3.254   4.574   1.118  0.1172  0.3762  0.6737
  352MPD2    C4 5327   3.326   4.639   1.217  0.6496 -0.4448  0.2150
  352MPD2    C5 5328   3.322   0.039   1.238 -0.3058 -0.5159  0.0696
  352MPD2     H 5329   3.115   4.607   0.956 -2.4956 -1.2421  1.9152
  352MPD2    H1 5330   3.383   4.580   1.287 -0.2451 -1.2525  0.2550
  352MPD2    H2 5331   3.258   0.226   1.154 -2.6253 -0.5626  2.6519
  352MPD2    H3 5332   3.389   0.088   1.307  0.4873  1.5760 -2.1876
  352MPD2     N 5333   3.267   4.429   1.109  0.2321 -0.1782  0.1207
  352MPD2    H5 5334   3.323   4.375   1.174 -0.8331  1.2961  2.2569
  352MPD2    N1 5335   3.090   0.134   0.962 -0.0778  0.5705  0.3470
  352MPD2    H7 5336   3.085   0.233   0.986 -1.6673  1.0281 -1.8153
  353TMC3    C1 5337   3.235   4.204   1.035 -0.4902 -0.2059  0.7758
  353TMC3    C2 5338   3.346   4.157   1.098 -0.8060  0.3652 -0.0472
  353TMC3    C3 5339   3.368   4.019   1.108 -0.2858 -0.1224 -0.2982
  353TMC3    C4 5340   3.155   4.115   0.975  0.4190  0.3341 -0.8199
  353TMC3    C5 5341   3.175   3.984   0.985  0.2064 -1.0489 -0.9594
  353TMC3    C6 5342   3.283   3.931   1.047 -0.3419  0.7080 -0.1912
  353TMC3     C 5343   3.211   4.348   1.017 -0.2903  0.2638  0.4164
  353TMC3     O 5344   3.121   4.377   0.941 -0.0601  0.1683  0.2752
  353TMC3     H 5345   3.413   4.224   1.150  1.2307 -0.9315 -0.9852
  353TMC3    H1 5346   3.059   4.139   0.931  0.2252  0.4535 -0.3297
  353TMC3    H2 5347   3.284   3.824   1.065 -2.7295  0.6094 -0.7431
  353TMC3    C7 5348   3.105   3.896   0.894 -0.6503  0.3536 -0.8677
  353TMC3    C8 5349   3.499   3.964   1.152  0.0369  0.5579 -0.1605
  353TMC3    O1 5350   3.084   3.779   0.932  0.0753 -0.1940  0.7316
  353TMC3    O2 5351   3.571   4.046   1.200 -0.1690  0.0126 -0.1017
  354TMC3    C1 5352   4.700   0.029  13.235  0.2233 -0.2169  0.2680
  354TMC3    C2 5353   4.637   0.144  13.257  0.0182 -0.3892 -0.0156
  354TMC3    C3 5354   4.634   0.229  13.149 -0.5459  0.3626 -0.7621
  354TMC3    C4 5355   0.033   4.733  13.116 -0.2224 -0.6391  0.0811
  354TMC3    C5 5356   0.043   0.098  13.020 -0.4050  0.2090  0.3664
  354TMC3    C6 5357   4.690   0.206  13.026 -0.1041 -0.6205 -0.4654
  354TMC3     C 5358   4.705   4.660  13.333 -0.3275  0.5416 -0.3922
  354TMC3     O 5359   4.726   4.546  13.296  0.0483  0.6396 -0.5268
  354TMC3     H 5360   4.579   0.171  13.344  0.1711 -3.5898  1.0679
  354TMC3    H1 5361   0.080   4.636  13.107  2.6518  0.9189 -1.6416
  354TMC3    H2 5362   4.677   0.282  12.949 -0.7724 -1.4330 -1.1445
  354TMC3    C7 5363   0.101   0.061  12.888 -0.4435  0.4953  1.2513
  354TMC3    C8 5364   4.583   0.364  13.186 -0.1873 -0.2518 -0.1663
  354TMC3    O1 5365   0.130   4.680  12.883 -0.5652  0.1690  0.3828
  354TMC3    O2 5366   4.529   0.375  13.295 -0.0323 -0.3847 -0.3106
  355MPD2     C 5367   4.263   1.297  12.003  0.7690 -0.6356  0.1498
  355MPD2    C1 5368   4.344   1.294  11.891 -0.5586  0.5220 -0.2502
  355MPD2    C2 5369   4.479   1.275  11.907  0.4261 -0.0847 -0.3881
  355MPD2    C3 5370   4.532   1.271  12.033  0.3360  0.0388  0.1232
  355MPD2    C4 5371   4.454   1.285  12.146 -0.5836  0.1417  0.7554
  355MPD2    C5 5372   4.316   1.302  12.128  0.2673  0.1919 -0.0697
  355MPD2     H 5373   4.544   1.250  11.824  0.8558  0.4242 -0.2075
  355MPD2    H1 5374   4.487   1.282  12.249  1.0089  0.0717  0.2518
  355MPD2    H2 5375   4.155   1.302  11.998  0.8265  0.8916  0.4906
  355MPD2    H3 5376   4.249   1.313  12.212 -0.6981 -1.3970 -0.6351
  355MPD2     N 5377   4.672   1.259  12.036  0.0742 -0.1398  0.8386
  355MPD2    H5 5378   4.726   1.250  11.951 -0.0338 -1.5914  0.9201
  355MPD2    N1 5379   4.278   1.276  11.768  0.5616 -0.2711 -0.3186
  355MPD2    H7 5380   4.181   1.247  11.775  1.1802 -1.7720  1.9310
  356TMC3    C1 5381   0.152   1.262  12.129 -0.1265 -0.1642 -0.0701
  356TMC3    C2 5382   0.183   1.325  12.008  0.7078  0.2349 -0.1270
  356TMC3    C3 5383   0.276   1.418  12.016  0.0334 -0.1211 -0.3922
  356TMC3    C4 5384   0.215   1.300  12.247 -0.1527  0.3720  0.3894
  356TMC3    C5 5385   0.301   1.403  12.252  0.5790 -0.3905  0.2994
  356TMC3    C6 5386   0.339   1.461  12.134  0.0471  0.4333  0.4191
  356TMC3     C 5387   0.008   1.240  12.154  1.0567  0.2218 -0.0387
  356TMC3     O 5388   4.711   1.232  12.276 -0.1060  0.2685  0.3845
  356TMC3     H 5389   0.141   1.289  11.914  1.5264 -0.5921 -0.1750
  356TMC3    H1 5390   0.185   1.257  12.343 -0.9157 -0.0070 -0.0222
  356TMC3    H2 5391   0.435   1.510  12.130  1.7926 -2.9926 -0.0624
  356TMC3    C7 5392   0.348   1.449  12.376  0.3503  0.1970 -0.6979
  356TMC3    C8 5393   0.325   1.461  11.887 -0.0320 -0.5807  0.1898
  356TMC3    O1 5394   0.332   1.382  12.481  0.1197 -0.4426  0.1099
  356TMC3    O2 5395   0.302   1.389  11.792  0.3773  0.2513  0.1406
  357MPD2     C 5396   4.236   0.345   0.713 -0.6335  0.0083  0.1601
  357MPD2    C1 5397   4.250   0.481   0.722  0.3204 -0.2872 -0.0076
  357MPD2    C2 5398   4.144   0.562   0.765  0.4995 -0.0538  0.0313
  357MPD2    C3 5399   4.025   0.497   0.791  0.3663  0.2487  0.2923
  357MPD2    C4 5400   4.019   0.363   0.786  0.3622 -0.6609 -0.9083
  357MPD2    C5 5401   4.120   0.284   0.739  0.0379  0.3932  1.0960
  357MPD2     H 5402   4.130   0.668   0.782  2.4028  0.6239 -2.6847
  357MPD2    H1 5403   3.927   0.309   0.806  1.6445 -1.6532  2.4113
  357MPD2    H2 5404   4.316   0.282   0.674 -1.1150 -0.7709  0.4339
  357MPD2    H3 5405   4.104   0.181   0.708  3.0697  0.3927 -0.4049
  357MPD2     N 5406   3.908   0.573   0.826  0.1643  0.2476 -0.0099
  357MPD2    H5 5407   3.918   0.674   0.834  1.1386 -0.0167  2.0685
  357MPD2    N1 5408   4.369   0.535   0.690 -0.3327  0.3401 -0.0553
  357MPD2    H7 5409   4.436   0.480   0.637 -1.2797 -0.7336 -0.1343
  358TMC3    C1 5410   4.532   0.696   0.675  0.6246 -0.5317  0.0260
  358TMC3    C2 5411   4.530   0.681   0.538 -0.2517  0.1477  0.0266
  358TMC3    C3 5412   4.642   0.715   0.475  0.2416 -0.5449  0.5898
  358TMC3    C4 5413   4.632   0.757   0.747  0.0399  0.3907 -0.0708
  358TMC3    C5 5414   4.734   0.815   0.670  0.0138 -0.1691  0.1559
  358TMC3    C6 5415   4.727   0.806   0.531 -0.1216  0.0231  0.2551
  358TMC3     C 5416   4.407   0.661   0.730  0.7372  0.4814 -0.0166
  358TMC3     O 5417   4.358   0.723   0.822  0.0704 -0.2455 -0.3362
  358TMC3     H 5418   4.454   0.620   0.490 -0.4160 -1.0850  1.8694
  358TMC3    H1 5419   4.608   0.770   0.852  2.5808  2.8454  0.2108
  358TMC3    H2 5420   0.085   0.831   0.482 -0.9593 -0.2797 -1.5140
  358TMC3    C7 5421   0.110   0.879   0.736  0.3284 -0.0331  0.0739
  358TMC3    C8 5422   4.657   0.696   0.331 -0.4938 -0.0460  0.2257
  358TMC3    O1 5423   0.203   0.910   0.665 -0.6342  0.4462 -0.3756
  358TMC3    O2 5424   4.726   0.778   0.266 -0.1678  0.3837 -0.1916
  359MPD2     C 5425   4.694   4.256  12.603 -0.4510 -0.5805 -0.0412
  359MPD2    C1 5426   4.632   4.233  12.487 -0.3959 -0.2317  0.3443
  359MPD2    C2 5427   4.544   4.129  12.485  0.2272  0.7157  0.1020
  359MPD2    C3 5428   4.524   4.043  12.595  0.2327 -0.4126 -0.4837
  359MPD2    C4 5429   4.599   4.070  12.706 -0.1838 -0.3687 -0.2073
  359MPD2    C5 5430   4.684   4.174  12.710  0.2175 -0.2440 -0.0736
  359MPD2     H 5431   4.495   4.111  12.390 -0.7752 -1.8411  1.0786
  359MPD2    H1 5432   4.580   4.001  12.787 -1.8679 -0.0761 -0.3439
  359MPD2    H2 5433   0.023   4.344  12.613 -0.2020 -0.5079 -2.2921
  359MPD2    H3 5434   0.005   4.208  12.796 -0.4872  0.4387  0.1181
  359MPD2     N 5435   4.446   3.924  12.587 -1.0689 -0.0058  0.3753
  359MPD2    H5 5436   4.456   3.858  12.663 -0.6976  2.2460  2.2515
  359MPD2    N1 5437   4.630   4.320  12.380  0.1106  0.4979  0.8821
  359MPD2    H7 5438   4.560   4.301  12.309  0.8370 -1.6820  0.7731
  360TMC3    C1 5439   4.704   4.502  12.248 -0.3407 -0.0968  0.0256
  360TMC3    C2 5440   0.072   4.592  12.217 -0.1709 -0.6205  0.0922
  360TMC3    C3 5441   0.051   4.688  12.116 -0.2798  0.5894  0.1308
  360TMC3    C4 5442   4.585   4.498  12.180 -0.5265 -0.0658 -0.3411
  360TMC3    C5 5443   4.562   4.603  12.091 -0.0338 -0.1893  0.5257
  360TMC3    C6 5444   4.662   4.696  12.060  0.4807  0.1860  0.0652
  360TMC3     C 5445   4.727   4.413  12.366 -0.1108 -0.5722  0.6527
  360TMC3     O 5446   0.096   4.419  12.430  0.1271 -0.5983  0.4987
  360TMC3     H 5447   0.155   4.596  12.287 -0.0455 -0.7624 -0.0507
  360TMC3    H1 5448   4.498   4.437  12.205 -0.8382 -0.1907 -1.7195
  360TMC3    H2 5449   4.638   0.038  11.987  1.3208  1.9377  1.6409
  360TMC3    C7 5450   4.441   4.603  12.010  0.4581  0.1223  0.4509
  360TMC3    C8 5451   0.155   0.036  12.056 -0.8124 -0.1808 -0.6294
  360TMC3    O1 5452   4.458   4.645  11.894 -0.1156 -0.4217  0.2347
  360TMC3    O2 5453   0.114   0.133  11.992 -0.5813  0.5729 -0.2889
  361MPD2     C 5454   2.172   3.716  16.817  0.0038 -0.2928 -0.1032
  361MPD2    C1 5455   2.082   3.742  16.916  0.1292  0.2554  0.0722
  361MPD2    C2 5456   2.103   3.688  17.042  0.2081 -0.4330 -0.0341
  361MPD2    C3 5457   2.214   3.604  17.067 -0.7246 -0.1949  0.4542
  361MPD2    C4 5458   2.300   3.573  16.962 -0.0014 -0.0602 -0.0781
  361MPD2    C5 5459   2.287   3.637  16.847 -0.2826  0.4083 -0.4292
  361MPD2     H 5460   2.022   3.693  17.113  0.4517  1.4000  0.1244
  361MPD2    H1 5461   2.387   3.510  16.978 -1.2516 -1.9031 -0.5832
  361MPD2    H2 5462   2.169   3.759  16.717 -1.1567  1.7112  0.7855
  361MPD2    H3 5463   2.355   3.614  16.766  0.3193  0.1156  0.1560
  361MPD2     N 5464   2.231   3.526  17.188  0.0784 -0.1746 -0.9627
  361MPD2    H5 5465   2.314   3.468  17.191  0.0264 -0.2625 -1.2252
  361MPD2    N1 5466   1.965   3.821  16.903 -0.5205  0.1766 -0.7640
  361MPD2    H7 5467   1.915   3.828  16.990  0.9134 -1.3762  0.1899
  362TMC3    C1 5468   1.802   3.950  16.792 -0.1719  0.1823 -0.4326
  362TMC3    C2 5469   1.749   3.978  16.914 -1.1012  0.1346 -0.5814
  362TMC3    C3 5470   1.667   4.084  16.927 -0.3176 -0.6273  0.0690
  362TMC3    C4 5471   1.779   4.034  16.688  0.5637  0.2638  0.5555
  362TMC3    C5 5472   1.700   4.142  16.709  0.4972 -0.4494  0.4561
  362TMC3    C6 5473   1.644   4.172  16.826  0.0176  0.2872  0.1705
  362TMC3     C 5474   1.921   3.872  16.778 -0.3191  0.4099 -0.7616
  362TMC3     O 5475   1.982   3.887  16.673 -0.3761  0.6130  0.0696
  362TMC3     H 5476   1.749   3.907  16.996 -2.4063  0.4150 -0.3451
  362TMC3    H1 5477   1.817   4.019  16.587 -1.4409 -2.5045  0.2131
  362TMC3    H2 5478   1.580   4.259  16.835 -0.1716 -0.0212  1.7068
  362TMC3    C7 5479   1.690   4.251  16.609 -0.3265 -1.4286  0.4190
  362TMC3    C8 5480   1.627   4.117  17.063  0.1444 -0.1931  0.3338
  362TMC3    O1 5481   1.652   4.360  16.651  0.2196 -0.0063  0.0252
  362TMC3    O2 5482   1.693   4.085  17.163  0.2813 -0.1811  0.4482
  363TMC3    C1 5483   4.319   1.107   9.248  0.4318 -1.2786  0.2721
  363TMC3    C2 5484   4.361   1.073   9.371  0.3433  0.4394  0.1760
  363TMC3    C3 5485   4.325   1.162   9.473 -0.3581  0.0797 -0.2098
  363TMC3    C4 5486   4.225   1.203   9.226  0.4719  0.1477 -0.0348
  363TMC3    C5 5487   4.179   1.281   9.329 -0.3555  0.6280 -0.3440
  363TMC3    C6 5488   4.217   1.246   9.454  0.3846  0.3056  0.0757
  363TMC3     C 5489   4.349   1.016   9.139 -0.4889 -0.0744  0.0784
  363TMC3     O 5490   4.344   1.067   9.030 -0.3781  0.3962  0.3025
  363TMC3     H 5491   4.437   0.998   9.395 -0.0978 -0.6873 -1.9503
  363TMC3    H1 5492   4.189   1.210   9.124 -0.5515 -1.4085  0.2118
  363TMC3    H2 5493   4.168   1.303   9.532  1.3003  1.1642  0.0250
  363TMC3    C7 5494   4.095   1.399   9.303  0.2531  0.0751  0.0384
  363TMC3    C8 5495   4.348   1.138   9.616  1.0248  0.1732  0.2720
  363TMC3    O1 5496   4.066   1.464   9.403  0.2280  0.1028  0.1139
  363TMC3    O2 5497   4.310   1.217   9.695 -0.2223 -0.0049  0.1119
  364MPD2     C 5498   3.111   0.569  10.376 -0.2920  0.3027  0.5635
  364MPD2    C1 5499   3.161   0.649  10.477 -1.4115  0.5334 -0.3231
  364MPD2    C2 5500   3.206   0.599  10.597 -0.0507  0.9194 -0.9031
  364MPD2    C3 5501   3.201   0.461  10.609  0.1344 -0.3509 -0.1963
  364MPD2    C4 5502   3.150   0.377  10.511 -0.0503 -0.3368 -0.1472
  364MPD2    C5 5503   3.109   0.433  10.397  0.4576  0.4860  0.4798
  364MPD2     H 5504   3.250   0.661  10.674  0.5208  1.4935 -1.6943
  364MPD2    H1 5505   3.146   0.268  10.504  0.6671 -0.3675 -0.0122
  364MPD2    H2 5506   3.067   0.614  10.288  0.0705 -0.1198  0.1655
  364MPD2    H3 5507   3.077   0.359  10.324 -0.3620  0.3438  0.9910
  364MPD2     N 5508   3.268   0.389  10.712 -0.2330 -0.1667  0.8075
  364MPD2    H5 5509   3.303   0.299  10.680 -1.6076 -0.4104 -0.0093
  364MPD2    N1 5510   3.162   0.790  10.450  0.9470 -0.0114  0.0727
  364MPD2    H7 5511   3.137   0.808  10.354  2.0657  0.5353 -0.1192
  365TMC3    C1 5512   3.235   1.012  10.468 -0.2382  0.2321 -0.7411
  365TMC3    C2 5513   3.289   1.013  10.338 -0.4313  0.0122 -1.3355
  365TMC3    C3 5514   3.332   1.132  10.286 -0.6044  0.5788 -0.5923
  365TMC3    C4 5515   3.246   1.123  10.551  0.3492 -0.5320 -0.2650
  365TMC3    C5 5516   3.299   1.235  10.490  0.3625  0.1977  0.1512
  365TMC3    C6 5517   3.336   1.245  10.359  0.5496  0.0600  0.5273
  365TMC3     C 5518   3.213   0.887  10.532  0.1696 -0.0213 -0.0332
  365TMC3     O 5519   3.262   0.881  10.643  0.1757  0.3071  0.3588
  365TMC3     H 5520   3.288   0.921  10.280  0.9476 -0.2648 -0.9095
  365TMC3    H1 5521   3.206   1.122  10.651  2.7805  1.6072  0.7397
  365TMC3    H2 5522   3.368   1.342  10.323  1.5944 -1.1728 -1.8523
  365TMC3    C7 5523   3.312   1.354  10.572 -0.5333 -0.3009 -0.1390
  365TMC3    C8 5524   3.382   1.130  10.148  0.2997 -0.4561 -0.5294
  365TMC3    O1 5525   3.309   1.467  10.525 -0.0208 -0.2247 -0.1964
  365TMC3    O2 5526   3.372   1.241  10.097  0.6435 -0.5581 -0.0874
  366MPD2     C 5527   2.509   1.505  15.320  0.4593  0.3238  0.6214
  366MPD2    C1 5528   2.524   1.599  15.420 -1.0236  0.2679 -0.5278
  366MPD2    C2 5529   2.627   1.587  15.511 -0.0533 -0.2328  0.1139
  366MPD2    C3 5530   2.715   1.481  15.512  0.3033 -0.6525  0.6397
  366MPD2    C4 5531   2.699   1.381  15.417  0.0471 -0.0351 -0.4763
  366MPD2    C5 5532   2.595   1.396  15.321  0.3042  0.6313  0.4970
  366MPD2     H 5533   2.641   1.665  15.585 -0.1666 -0.5036  0.4215
  366MPD2    H1 5534   2.761   1.292  15.413 -0.0234 -0.1733  1.3827
  366MPD2    H2 5535   2.433   1.512  15.244  0.3777  1.7490  0.8217
  366MPD2    H3 5536   2.585   1.322  15.243  4.8307  1.8237 -1.2036
  366MPD2     N 5537   2.830   1.466  15.602  0.5518  0.1655 -0.1447
  366MPD2    H5 5538   2.879   1.378  15.592 -0.0987 -0.1333 -0.7280
  366MPD2    N1 5539   2.454   1.718  15.419  0.8711  0.2197 -0.1984
  366MPD2    H7 5540   2.481   1.796  15.478 -0.2858  0.8816 -0.5320
  367TMC3    C1 5541   2.299   1.879  15.390  0.9922  0.1061 -0.3591
  367TMC3    C2 5542   2.372   1.955  15.483 -0.1980  0.2854  0.3920
  367TMC3    C3 5543   2.314   2.073  15.520 -0.3393 -0.8362 -0.8196
  367TMC3    C4 5544   2.191   1.936  15.327  0.4846 -0.4143 -0.0203
  367TMC3    C5 5545   2.150   2.065  15.359 -0.4652  0.6805 -0.4912
  367TMC3    C6 5546   2.212   2.134  15.457  0.7081 -0.0029 -0.4461
  367TMC3     C 5547   2.338   1.741  15.361 -0.4320  0.4262 -0.0480
  367TMC3     O 5548   2.265   1.674  15.287  0.1944 -0.1633  0.3088
  367TMC3     H 5549   2.457   1.918  15.539 -0.2666  0.7982  0.8370
  367TMC3    H1 5550   2.134   1.868  15.265  0.2504  0.3891 -0.6798
  367TMC3    H2 5551   2.194   2.241  15.456 -3.2990 -0.6891 -1.2008
  367TMC3    C7 5552   2.072   2.140  15.252 -0.1710 -0.2793 -1.5244
  367TMC3    C8 5553   2.395   2.151  15.614  0.4249  0.8197  0.1633
  367TMC3    O1 5554   2.052   2.260  15.269  0.5572  0.4847  0.1229
  367TMC3    O2 5555   2.514   2.115  15.616 -0.9004  0.8010 -0.3935
  368MPD2     C 5556   2.766   3.423  13.433 -0.5413 -1.1255  0.4102
  368MPD2    C1 5557   2.773   3.525  13.342 -0.6374  0.4498  0.7619
  368MPD2    C2 5558   2.893   3.535  13.263  0.4729  0.4126  0.1326
  368MPD2    C3 5559   2.999   3.446  13.275 -0.5066 -0.7503  1.1431
  368MPD2    C4 5560   2.979   3.344  13.364 -0.7425 -0.2509  0.0963
  368MPD2    C5 5561   2.866   3.329  13.446  0.4839 -0.0630  0.6318
  368MPD2     H 5562   2.902   3.621  13.197 -1.3270 -0.3468 -1.1205
  368MPD2    H1 5563   3.057   3.272  13.386  1.2513  0.9543 -3.0451
  368MPD2    H2 5564   2.679   3.425  13.497 -0.8115  0.4430  0.0086
  368MPD2    H3 5565   2.846   3.244  13.510 -0.0055  0.5026  1.2275
  368MPD2     N 5566   3.120   3.447  13.210  0.5067  0.3187  1.1530
  368MPD2    H5 5567   3.188   3.375  13.233  0.5931 -0.1410 -0.5301
  368MPD2    N1 5568   2.668   3.620  13.331 -0.2388  0.3916 -0.7972
  368MPD2    H7 5569   2.591   3.615  13.398 -0.7049 -0.7165 -1.4134
  369TMC3    C1 5570   2.524   3.777  13.213 -0.5101  0.4076  0.1344
  369TMC3    C2 5571   2.523   3.891  13.145  0.2288  0.7643  0.0203
  369TMC3    C3 5572   2.398   3.943  13.110 -0.1299 -0.3784 -0.3572
  369TMC3    C4 5573   2.415   3.713  13.259 -0.7411 -0.4989  0.2478
  369TMC3    C5 5574   2.296   3.774  13.226 -0.0523  0.3951 -0.3710
  369TMC3    C6 5575   2.283   3.891  13.157  0.2467  0.0280 -0.2475
  369TMC3     C 5576   2.656   3.730  13.245 -0.1168 -0.6560  0.0954
  369TMC3     O 5577   2.743   3.784  13.183 -0.2207 -1.2696 -0.1048
  369TMC3     H 5578   2.609   3.942  13.104  0.3939  0.6433  0.2125
  369TMC3    H1 5579   2.421   3.619  13.313  1.5646  0.1853  1.1912
  369TMC3    H2 5580   2.181   3.928  13.147  0.4009  0.7782  0.9815
  369TMC3    C7 5581   2.188   3.737  13.313  0.3597  0.5782 -0.4249
  369TMC3    C8 5582   2.385   4.072  13.043  0.0916  0.5374  0.4895
  369TMC3    O1 5583   2.196   3.621  13.348  0.4417  0.0339  0.0050
  369TMC3    O2 5584   2.276   4.094  12.989  0.1027  0.0378  0.3293
  370TMC3    C1 5585   3.044   4.295  15.905  0.6125 -0.0856 -0.6588
  370TMC3    C2 5586   2.980   4.251  16.024  0.7751 -1.0966  0.0933
  370TMC3    C3 5587   2.940   4.119  16.050  1.0322  0.1247 -0.7651
  370TMC3    C4 5588   3.080   4.193  15.824  0.4662  0.3275 -0.3856
  370TMC3    C5 5589   3.057   4.058  15.857  0.1110  0.3000 -0.7072
  370TMC3    C6 5590   2.989   4.016  15.973 -0.1265  0.3274 -0.1655
  370TMC3     C 5591   3.170   4.363  15.946  0.4252  0.9233 -0.1545
  370TMC3     O 5592   3.192   4.378  16.066  0.0743  0.2491  0.5184
  370TMC3     H 5593   2.944   4.335  16.083  1.2825 -1.6465  1.1864
  370TMC3    H1 5594   3.137   4.210  15.733  0.0487  0.5093 -0.6148
  370TMC3    H2 5595   2.954   3.916  15.990 -0.3749  0.2207 -1.2597
  370TMC3    C7 5596   3.101   3.952  15.770  0.3644 -0.4897  0.4052
  370TMC3    C8 5597   2.875   4.084  16.184 -0.4763 -0.4380  0.0750
  370TMC3    O1 5598   3.090   3.978  15.647 -0.2852  0.4477  0.7712
  370TMC3    O2 5599   2.884   3.968  16.220  0.3173  0.2683 -0.1918
  371TMC3    C1 5600   4.201   2.283  15.583  0.0372 -0.1851 -0.6103
  371TMC3    C2 5601   4.137   2.305  15.703 -0.2621 -0.1118  0.5096
  371TMC3    C3 5602   4.090   2.432  15.726  0.7175 -0.1268 -0.0181
  371TMC3    C4 5603   4.213   2.381  15.484 -0.2526 -0.4318  0.1362
  371TMC3    C5 5604   4.155   2.503  15.509 -0.1917 -0.4078  0.1769
  371TMC3    C6 5605   4.095   2.529  15.627 -0.0909 -0.7247  0.0029
  371TMC3     C 5606   4.279   2.172  15.564  0.4314  0.4284  0.9352
  371TMC3     O 5607   4.374   2.179  15.489 -0.6920 -0.2030 -0.3222
  371TMC3     H 5608   4.142   2.242  15.791 -1.4822 -0.7746  0.1150
  371TMC3    H1 5609   4.260   2.358  15.389 -0.1324 -0.2971  0.1641
  371TMC3    H2 5610   4.051   2.626  15.648 -1.7234 -1.3708 -0.3738
  371TMC3    C7 5611   4.163   2.617  15.417  0.3796 -0.1991  0.2606
  371TMC3    C8 5612   4.114   2.477  15.857 -0.3133 -0.3012  0.9371
  371TMC3    O1 5613   4.081   2.708  15.419 -0.4442 -0.2077 -0.2983
  371TMC3    O2 5614   4.218   2.454  15.913 -0.8521  0.2570  0.5725
  372MPD2     C 5615   3.339   3.665  13.464 -0.6192 -0.5962  0.0430
  372MPD2    C1 5616   3.432   3.565  13.457  0.0631 -0.8197  0.4165
  372MPD2    C2 5617   3.405   3.439  13.514  0.0407 -0.2777  0.0095
  372MPD2    C3 5618   3.287   3.418  13.579 -0.2713 -0.9938  0.1615
  372MPD2    C4 5619   3.195   3.525  13.596 -0.0565 -0.0284  0.3002
  372MPD2    C5 5620   3.220   3.639  13.521  0.0700  0.2099 -0.2439
  372MPD2     H 5621   3.479   3.360  13.515 -1.3803 -1.6011 -0.0723
  372MPD2    H1 5622   3.098   3.515  13.642  0.0316 -0.9150  0.2873
  372MPD2    H2 5623   3.352   3.766  13.426  0.2999 -1.0236 -0.7571
  372MPD2    H3 5624   3.147   3.718  13.534  3.5422  3.1160  1.5574
  372MPD2     N 5625   3.270   3.285  13.643 -0.0070 -0.3690  0.4864
  372MPD2    H5 5626   3.339   3.215  13.618 -0.1463 -0.5857  0.7094
  372MPD2    N1 5627   3.551   3.595  13.382  0.0935 -0.3038 -0.9402
  372MPD2    H7 5628   3.629   3.532  13.396  0.8514  1.2149  1.6635
  373TMC3    C1 5629   3.196   3.132  13.809  0.0842  0.1514 -0.2554
  373TMC3    C2 5630   3.132   3.107  13.923 -0.6768 -0.0499 -0.2955
  373TMC3    C3 5631   3.142   2.985  13.984  0.8748  0.3393  0.1093
  373TMC3    C4 5632   3.290   3.041  13.762  0.9094  0.1393  0.2739
  373TMC3    C5 5633   3.313   2.924  13.837 -0.1657 -0.0274  1.0749
  373TMC3    C6 5634   3.226   2.887  13.931  0.1624  0.1381 -0.5800
  373TMC3     C 5635   3.176   3.256  13.735  0.7624 -0.6427 -1.0353
  373TMC3     O 5636   3.091   3.333  13.776 -0.0936  0.4689 -0.0068
  373TMC3     H 5637   3.066   3.184  13.961  0.3448  0.0558  1.2500
  373TMC3    H1 5638   3.355   3.044  13.676  0.9640  1.2860  0.3482
  373TMC3    H2 5639   3.230   2.791  13.981  1.2121  0.3680 -0.2144
  373TMC3    C7 5640   3.425   2.841  13.801 -0.8453  0.2704  0.2172
  373TMC3    C8 5641   3.048   2.956  14.087 -0.0367 -0.4555  0.4699
  373TMC3    O1 5642   3.473   2.865  13.695 -0.5228  0.4078 -0.2376
  373TMC3    O2 5643   2.943   3.013  14.086  0.5523  0.7117 -0.4398
  374TMC3    C1 5644   3.635   3.747   9.844 -0.3445  0.0929 -0.2678
  374TMC3    C2 5645   3.679   3.879   9.863  0.6927 -0.1228  0.1241
  374TMC3    C3 5646   3.694   3.960   9.750  0.1795  0.3464 -0.1533
  374TMC3    C4 5647   3.609   3.700   9.718 -0.6041  0.5614 -0.3476
  374TMC3    C5 5648   3.613   3.784   9.611  0.2534 -0.3921 -0.0666
  374TMC3    C6 5649   3.667   3.906   9.624 -0.5055  0.1316  0.6076
  374TMC3     C 5650   3.622   3.653   9.954  0.4557 -0.0216  0.6356
  374TMC3     O 5651   3.582   3.545   9.921 -0.1431  0.0503 -0.0685
  374TMC3     H 5652   3.685   3.924   9.961 -0.8281  1.1989 -0.3857
  374TMC3    H1 5653   3.580   3.597   9.698  3.7624 -0.6545 -0.3545
  374TMC3    H2 5654   3.695   3.969   9.541 -0.4088  0.4775  0.9001
  374TMC3    C7 5655   3.589   3.744   9.473 -0.7329  0.1867  0.3186
  374TMC3    C8 5656   3.716   4.104   9.765  0.1413  0.5459 -0.0626
  374TMC3    O1 5657   3.631   3.811   9.382 -0.3464 -0.4477 -0.3142
  374TMC3    O2 5658   3.697   4.172   9.664 -0.2141 -0.0696  0.0582
  375MPD2     C 5659   4.533   4.517  16.532  0.0826 -0.5496  0.4835
  375MPD2    C1 5660   4.470   4.421  16.447 -1.0982 -0.0476  0.1837
  375MPD2    C2 5661   4.517   4.291  16.449 -1.3497 -0.2608  0.1003
  375MPD2    C3 5662   4.593   4.250  16.558 -0.0246 -0.1781  0.7120
  375MPD2    C4 5663   4.637   4.339  16.652  0.3958  0.2514  0.4900
  375MPD2    C5 5664   4.599   4.469  16.640  0.7262  0.3009  0.4191
  375MPD2     H 5665   4.479   4.220  16.377 -1.2051  0.7405 -0.9740
  375MPD2    H1 5666   4.697   4.318  16.740  2.3982 -0.9951 -1.1530
  375MPD2    H2 5667   4.501   4.620  16.542 -1.5050 -0.9027 -0.9333
  375MPD2    H3 5668   4.627   4.542  16.716 -2.1356  1.0727  0.7184
  375MPD2     N 5669   4.651   4.117  16.569  0.0375 -0.1901  0.2476
  375MPD2    H5 5670   4.713   4.102  16.649  0.6204  1.9674  0.2032
  375MPD2    N1 5671   4.371   4.459  16.353  0.9824  0.0197 -0.3988
  375MPD2    H7 5672   4.308   4.386  16.321  2.0995 -1.0871 -0.1235
  376TMC3    C1 5673   4.694   3.905  16.472 -0.0351 -0.3283 -0.2111
  376TMC3    C2 5674   0.093   3.934  16.502  0.4125 -0.0291  0.5673
  376TMC3    C3 5675   0.193   3.905  16.416  0.3206  0.3267 -0.3772
  376TMC3    C4 5676   4.672   3.842  16.354 -0.6447  0.2298 -0.5694
  376TMC3    C5 5677   0.038   3.821  16.263  0.1982  0.5962  0.2778
  376TMC3    C6 5678   0.166   3.860  16.296 -0.1462  0.2062  0.3803
  376TMC3     C 5679   4.600   4.013  16.502  0.1936 -0.1042  0.4334
  376TMC3     O 5680   4.485   4.003  16.457 -0.4336  0.3784 -0.1096
  376TMC3     H 5681   0.115   3.984  16.596  0.0669  1.6338 -0.2292
  376TMC3    H1 5682   4.570   3.829  16.319  0.3560  0.8334 -3.6128
  376TMC3    H2 5683   0.240   3.853  16.218 -2.2940 -1.8897 -1.4800
  376TMC3    C7 5684   0.004   3.800  16.130  0.5563  1.1359  0.3635
  376TMC3    C8 5685   0.304   3.998  16.424  0.3860 -0.2894 -0.9347
  376TMC3    O1 5686   0.089   3.833  16.049  0.1755 -0.6835 -0.0405
  376TMC3    O2 5687   0.361   4.050  16.327  0.2017 -0.0569  0.0518
  377MPD2     C 5688   1.961   4.120  13.006 -0.2927  0.6481  0.1082
  377MPD2    C1 5689   1.930   4.073  12.885  0.0452  0.1262 -0.2008
  377MPD2    C2 5690   1.798   4.068  12.845 -0.0724 -0.8962 -0.5060
  377MPD2    C3 5691   1.701   4.118  12.925 -0.4544 -0.4442 -0.1537
  377MPD2    C4 5692   1.732   4.162  13.054  0.3035 -0.4882 -0.0287
  377MPD2    C5 5693   1.864   4.168  13.091 -0.0091  0.2317  0.0416
  377MPD2     H 5694   1.773   4.026  12.748  1.6293 -0.9971 -0.8936
  377MPD2    H1 5695   1.657   4.208  13.118  0.6244 -2.2528  1.6117
  377MPD2    H2 5696   2.063   4.133  13.039  0.4355  1.3655 -2.3561
  377MPD2    H3 5697   1.895   4.213  13.185 -0.0124 -0.6166  0.4437
  377MPD2     N 5698   1.567   4.128  12.878  0.0704  0.2739  0.6258
  377MPD2    H5 5699   1.500   4.173  12.940  2.0936 -0.2368  3.1587
  377MPD2    N1 5700   2.037   4.028  12.804  0.7989 -0.4595 -0.9304
  377MPD2    H7 5701   2.129   4.052  12.838  1.1155 -0.5176 -1.7393
  378TMC3    C1 5702   2.271   3.967  12.422  0.7617  0.4199 -0.2878
  378TMC3    C2 5703   2.150   3.955  12.482 -0.3108  0.1377 -0.2749
  378TMC3    C3 5704   2.148   3.948  12.615 -0.4603  0.2541  0.6253
  378TMC3    C4 5705   2.389   3.939  12.483 -0.1361  0.9894  0.3439
  378TMC3    C5 5706   2.384   3.938  12.623 -0.3992 -0.3290  0.4972
  378TMC3    C6 5707   2.261   3.938  12.689 -0.3650  0.3131 -0.1829
  378TMC3     C 5708   2.263   3.972  12.272 -0.0920 -0.2024  0.2674
  378TMC3     O 5709   2.151   3.980  12.223  0.6162 -0.3441 -0.3621
  378TMC3     H 5710   2.064   3.986  12.423 -1.3615  1.5751  2.0114
  378TMC3    H1 5711   2.481   3.944  12.426  0.8434 -2.7416  1.5914
  378TMC3    H2 5712   2.261   3.933  12.798  0.9361 -0.6622 -0.2274
  378TMC3    C7 5713   2.506   3.914  12.697  0.1627 -0.5252 -0.1308
  378TMC3    C8 5714   2.029   3.969  12.679 -0.6261 -0.2546 -0.0963
  378TMC3    O1 5715   2.494   3.915  12.816 -0.0210 -0.2301 -0.0370
  378TMC3    O2 5716   1.932   3.936  12.618 -0.3592 -0.5590  0.2691
  379MPD2     C 5717   3.543   2.446  16.130  0.3609 -0.0699 -0.1531
  379MPD2    C1 5718   3.443   2.409  16.218  1.3438 -0.3601 -0.5142
  379MPD2    C2 5719   3.487   2.383  16.348  0.5501 -0.2023 -0.0758
  379MPD2    C3 5720   3.620   2.410  16.393 -0.0382 -0.3256  0.0700
  379MPD2    C4 5721   3.711   2.446  16.290 -0.1765 -0.0529  0.1080
  379MPD2    C5 5722   3.674   2.466  16.163 -0.3804  0.0355  0.5630
  379MPD2     H 5723   3.423   2.334  16.420 -1.6888  1.0717 -1.2047
  379MPD2    H1 5724   3.816   2.459  16.313 -0.2196  0.7388 -0.1280
  379MPD2    H2 5725   3.530   2.460  16.023  1.4209  1.2929 -0.1097
  379MPD2    H3 5726   3.743   2.488  16.083 -2.2074 -0.2044 -1.0875
  379MPD2     N 5727   3.672   2.371  16.518  0.4684  0.1404  0.4076
  379MPD2    H5 5728   3.774   2.371  16.524  0.5071  0.2227 -0.2115
  379MPD2    N1 5729   3.316   2.371  16.170 -0.6045 -0.0286 -0.0339
  379MPD2    H7 5730   3.310   2.361  16.069  1.2613 -2.7638  0.1167
  380TMC3    C1 5731   3.102   2.293  16.155 -0.1070 -0.3215  0.4675
  380TMC3    C2 5732   3.151   2.245  16.032 -0.4452  0.4779  0.4419
  380TMC3    C3 5733   3.069   2.252  15.927  0.1207  0.1773  0.2423
  380TMC3    C4 5734   2.975   2.344  16.171  0.5648  0.7517  0.2884
  380TMC3    C5 5735   2.904   2.356  16.055  0.2026 -0.5558  0.5999
  380TMC3    C6 5736   2.945   2.307  15.934  0.4689  0.4887 -0.2927
  380TMC3     C 5737   3.204   2.339  16.246 -0.6901 -0.2849  0.2752
  380TMC3     O 5738   3.172   2.354  16.364  0.4511  0.4868  0.1063
  380TMC3     H 5739   3.247   2.196  16.022 -0.1294  1.5497 -1.7516
  380TMC3    H1 5740   2.932   2.382  16.263 -0.9421 -0.2379 -0.0065
  380TMC3    H2 5741   2.887   2.314  15.843  0.7130 -3.9465 -0.8118
  380TMC3    C7 5742   2.771   2.398  16.074  0.3985 -0.4540  0.0391
  380TMC3    C8 5743   3.136   2.223  15.799 -0.0278 -0.1716 -0.0987
  380TMC3    O1 5744   2.742   2.470  16.167 -0.1650 -0.6821 -0.4324
  380TMC3    O2 5745   3.255   2.188  15.801  0.6786  0.3372 -0.0687
  381TMC3    C1 5746   2.843   3.400  16.228 -0.3778  0.4080  0.1751
  381TMC3    C2 5747   2.904   3.500  16.159 -0.2651  0.0136  0.1822
  381TMC3    C3 5748   2.937   3.615  16.228  0.0105 -0.5119 -0.1480
  381TMC3    C4 5749   2.797   3.428  16.355  0.3962  0.1990 -0.2581
  381TMC3    C5 5750   2.818   3.551  16.414 -0.9691  0.2131 -0.1224
  381TMC3    C6 5751   2.881   3.655  16.350  0.1212  0.7809  0.2406
  381TMC3     C 5752   2.809   3.281  16.153  0.2538  0.3492  0.3961
  381TMC3     O 5753   2.798   3.291  16.033  0.2144  0.3294  0.3269
  381TMC3     H 5754   2.939   3.474  16.060 -0.9071 -0.9264  0.2025
  381TMC3    H1 5755   2.739   3.361  16.417  0.3307 -0.3358 -0.8876
  381TMC3    H2 5756   2.912   3.742  16.407  0.6249  0.4816  0.4253
  381TMC3    C7 5757   2.787   3.550  16.553  0.5379 -0.0394  0.6766
  381TMC3    C8 5758   3.047   3.696  16.181 -0.3990  0.3128  0.2900
  381TMC3    O1 5759   2.829   3.450  16.604 -0.1715  0.2428 -0.0859
  381TMC3    O2 5760   3.099   3.653  16.080 -0.1211 -0.3406  0.0420
  382MPD2     C 5761   2.110   1.255  17.128 -0.0677 -0.1679  0.0647
  382MPD2    C1 5762   2.105   1.327  17.242  0.1882 -0.1595  1.0829
  382MPD2    C2 5763   1.997   1.303  17.330  0.4053 -0.5583  0.9099
  382MPD2    C3 5764   1.903   1.209  17.307 -0.1328 -0.0139  0.3229
  382MPD2    C4 5765   1.910   1.133  17.195  0.1885  0.3804  0.0742
  382MPD2    C5 5766   2.015   1.161  17.107  0.3807  1.0011 -0.9110
  382MPD2     H 5767   1.997   1.359  17.423  0.5857  1.6229 -0.3914
  382MPD2    H1 5768   1.823   1.083  17.155 -0.5770  1.6971  0.0815
  382MPD2    H2 5769   2.193   1.259  17.059  0.1246 -0.1794  0.2971
  382MPD2    H3 5770   2.014   1.111  17.011 -0.4187 -0.3110 -0.2242
  382MPD2     N 5771   1.785   1.196  17.383  0.5027  0.2711  0.3907
  382MPD2    H5 5772   1.723   1.120  17.356  0.9065  0.3180 -0.6819
  382MPD2    N1 5773   2.203   1.431  17.260 -0.2439  0.2976 -0.2473
  382MPD2    H7 5774   2.271   1.445  17.186 -0.7039 -1.0586 -0.9308
  383TMC3    C1 5775   1.637   1.202  17.568  0.4337  0.3962  0.0675
  383TMC3    C2 5776   1.543   1.125  17.505  0.0410 -0.2784  1.0352
  383TMC3    C3 5777   1.439   1.080  17.582  0.0162  0.2714  0.0862
  383TMC3    C4 5778   1.623   1.243  17.695  0.2258  0.4097 -0.2070
  383TMC3    C5 5779   1.519   1.201   0.029 -0.2257  0.0796  0.5372
  383TMC3    C6 5780   1.424   1.125  17.712 -0.9620  0.4254 -0.2316
  383TMC3     C 5781   1.756   1.247  17.506  0.1894  0.5338  0.0387
  383TMC3     O 5782   1.832   1.321  17.562  0.0386 -0.7457  0.9333
  383TMC3     H 5783   1.544   1.115  17.397  0.0440  2.5521  0.7746
  383TMC3    H1 5784   1.696   1.303   0.010 -1.1651  1.4218  0.5291
  383TMC3    H2 5785   1.350   1.079   0.037 -0.4365  0.3845  0.3461
  383TMC3    C7 5786   1.491   1.253   0.162  0.2954  1.0495  0.3818
  383TMC3    C8 5787   1.347   0.976  17.535  0.4268  0.0189  0.8528
  383TMC3    O1 5788   1.587   1.305   0.220 -0.5186  0.1255  0.0472
  383TMC3    O2 5789   1.238   0.966  17.591  0.2399 -0.2898 -1.1537
  384MPD2     C 5790   3.397   2.598  11.954  0.3548  0.2414  0.2029
  384MPD2    C1 5791   3.439   2.572  12.085 -0.3095 -0.5351 -0.3209
  384MPD2    C2 5792   3.562   2.511  12.098  0.4315 -0.5847 -0.2941
  384MPD2    C3 5793   3.635   2.466  11.985  0.6112  0.7629  0.0878
  384MPD2    C4 5794   3.586   2.482  11.856 -0.7368 -0.3411  0.3654
  384MPD2    C5 5795   3.468   2.547  11.850  0.6595 -0.0960 -0.1693
  384MPD2     H 5796   3.607   2.490  12.194  0.0427 -0.2192 -0.0295
  384MPD2    H1 5797   3.635   2.444  11.767 -0.6127  1.1061 -0.1754
  384MPD2    H2 5798   3.311   2.660  11.931  0.4265 -0.4970 -2.0894
  384MPD2    H3 5799   3.420   2.558  11.754  0.7148 -1.2136 -0.3299
  384MPD2     N 5800   3.759   2.392  12.008 -0.6987 -0.3582  0.8703
  384MPD2    H5 5801   3.777   2.365  12.104  1.6156  1.5999  0.9801
  384MPD2    N1 5802   3.373   2.607  12.200 -0.3062 -0.3477 -0.3958
  384MPD2    H7 5803   3.405   2.575  12.291 -0.3124  0.9534  0.0656
  385TMC3    C1 5804   3.932   2.241  11.991 -0.5769 -1.1557 -0.9699
  385TMC3    C2 5805   3.922   2.109  11.968  0.2436  0.2157  0.3336
  385TMC3    C3 5806   3.959   2.027  12.073 -0.0298 -0.0372 -0.0968
  385TMC3    C4 5807   3.961   2.289  12.118 -0.5762 -0.0536  0.0306
  385TMC3    C5 5808   3.970   2.202  12.225  0.6667  0.4411 -0.2940
  385TMC3    C6 5809   3.971   2.064  12.206 -0.7877 -0.3232  0.4016
  385TMC3     C 5810   3.844   2.329  11.917  0.4369 -0.3321 -0.3160
  385TMC3     O 5811   3.840   2.316  11.796 -0.2840 -0.4209 -0.2631
  385TMC3     H 5812   3.888   2.082  11.869  0.2053 -0.3207  0.4891
  385TMC3    H1 5813   3.977   2.396  12.127  1.0784 -0.2306 -0.9025
  385TMC3    H2 5814   3.985   1.993  12.287  0.3223 -0.4859  0.0760
  385TMC3    C7 5815   3.873   2.250  12.319 -0.3376 -0.6797 -0.2675
  385TMC3    C8 5816   3.978   1.888  12.060 -0.6050 -0.2699  1.6252
  385TMC3    O1 5817   3.800   2.336  12.274  0.1626  0.5869  0.3556
  385TMC3    O2 5818   4.062   1.838  12.139  0.0647 -0.6069  0.1945
  386TMC3    C1 5819   3.247   4.100  11.876 -0.8619  0.0290 -0.4673
  386TMC3    C2 5820   3.259   4.059  11.742 -0.6005  0.1362 -0.0310
  386TMC3    C3 5821   3.142   4.027  11.676  0.3972 -0.6335  0.0044
  386TMC3    C4 5822   3.122   4.117  11.936  0.8704 -0.8569  0.3335
  386TMC3    C5 5823   3.012   4.090  11.860  0.2138  0.4970  0.1524
  386TMC3    C6 5824   3.020   4.044  11.731  0.2676 -0.4108  0.2900
  386TMC3     C 5825   3.355   4.143  11.964 -0.6074  0.7471 -0.5006
  386TMC3     O 5826   3.324   4.225  12.053  0.2858  0.4275 -0.1051
  386TMC3     H 5827   3.359   4.058  11.699 -0.4178 -0.2012  0.3970
  386TMC3    H1 5828   3.097   4.147  12.037  0.1108 -1.4936  0.3296
  386TMC3    H2 5829   2.927   4.032  11.677  0.3706 -0.1516  0.0575
  386TMC3    C7 5830   2.890   4.165  11.897  0.3476 -0.4191  0.2392
  386TMC3    C8 5831   3.143   4.013  11.534 -0.1651 -0.0137  1.0407
  386TMC3    O1 5832   2.865   4.172  12.018  0.9692 -0.1568 -0.8347
  386TMC3    O2 5833   3.033   3.986  11.487  0.0144  0.0763  0.3388
  387MPD2     C 5834   1.058   4.503   9.908 -0.1513 -0.4187 -0.6986
  387MPD2    C1 5835   1.193   4.478   9.930  0.0001 -0.3112  1.4339
  387MPD2    C2 5836   1.240   4.358   9.882  0.6868  0.2731  0.5372
  387MPD2    C3 5837   1.159   4.273   9.820  0.1836 -0.1802 -0.3380
  387MPD2    C4 5838   1.024   4.288   9.807 -0.6110 -0.7526 -0.0171
  387MPD2    C5 5839   0.977   4.411   9.842  0.2690  0.2592 -0.4815
  387MPD2     H 5840   1.343   4.330   9.902 -0.1880 -0.9614  3.2793
  387MPD2    H1 5841   0.956   4.221   9.756 -2.0968  1.6136 -1.1441
  387MPD2    H2 5842   1.012   4.593   9.946  0.1618 -0.1357 -0.9918
  387MPD2    H3 5843   0.870   4.429   9.841  0.3065  0.3646 -2.1167
  387MPD2     N 5844   1.215   4.146   9.791  0.7529 -0.1819  0.3264
  387MPD2    H5 5845   1.316   4.142   9.786  0.8691  1.5957  1.2303
  387MPD2    N1 5846   1.282   4.559  10.004  0.5643 -0.1922  0.0774
  387MPD2    H7 5847   1.378   4.527   9.998 -0.0516 -2.2900  1.2397
  388TMC3    C1 5848   1.386   4.704  10.139 -0.0612  0.1045 -0.0929
  388TMC3    C2 5849   1.421   0.099  10.175 -0.2648  0.1257  0.6003
  388TMC3    C3 5850   1.543   0.121  10.233  0.0334 -0.1131 -0.1300
  388TMC3    C4 5851   1.468   4.599  10.177  0.1269 -0.7843 -0.0172
  388TMC3    C5 5852   1.593   4.629  10.227 -0.3126 -0.0470  0.7284
  388TMC3    C6 5853   1.627   0.020  10.273 -0.1646 -0.3638  0.0380
  388TMC3     C 5854   1.267   4.682  10.058  0.9683  0.6261  0.3596
  388TMC3     O 5855   1.185   0.032  10.047 -0.2777 -0.1715  0.2702
  388TMC3     H 5856   1.364   0.187  10.151  0.2732  0.9765  2.4181
  388TMC3    H1 5857   1.454   4.496  10.147  2.7946 -0.5709 -1.9957
  388TMC3    H2 5858   1.725   0.034  10.318  0.2198 -0.3845 -0.7818
  388TMC3    C7 5859   1.696   4.532  10.244 -0.5808 -0.0067 -0.1718
  388TMC3    C8 5860   1.572   0.249  10.289 -0.3055 -0.3530  0.8468
  388TMC3    O1 5861   1.740   4.535  10.362  0.3215  0.0789 -0.3593
  388TMC3    O2 5862   1.525   0.346  10.230 -0.1773  0.4631  0.2253
  389MPD2     C 5863   0.541   2.920  11.031  0.2608  0.2869  0.2852
  389MPD2    C1 5864   0.545   2.792  10.983  0.0171  0.0739 -0.2300
  389MPD2    C2 5865   0.508   2.700  11.076  0.0498  0.0161  0.7182
  389MPD2    C3 5866   0.483   2.736  11.209 -0.7710 -0.7542 -0.4573
  389MPD2    C4 5867   0.487   2.864  11.247  0.5679 -0.0815 -0.7924
  389MPD2    C5 5868   0.513   2.960  11.158 -0.0556  0.8334  0.2339
  389MPD2     H 5869   0.501   2.595  11.053  2.2841 -0.1178  0.6243
  389MPD2    H1 5870   0.479   2.887  11.353  0.3628  0.0071 -0.8276
  389MPD2    H2 5871   0.562   2.992  10.953  0.6413 -1.1562 -0.9379
  389MPD2    H3 5872   0.499   3.065  11.181  2.6955  1.1149  0.6165
  389MPD2     N 5873   0.449   2.646  11.309  0.9383 -0.6329 -0.8560
  389MPD2    H5 5874   0.434   2.692  11.398  0.8070 -2.0498 -0.1433
  389MPD2    N1 5875   0.598   2.776  10.850 -0.2315 -0.6439  0.7475
  389MPD2    H7 5876   0.602   2.863  10.797  2.2173 -1.0648  0.2555
  390TMC3    C1 5877   0.345   2.474  11.411 -0.1119  0.1491 -0.4271
  390TMC3    C2 5878   0.342   2.338  11.430  1.1334 -0.2757  0.0702
  390TMC3    C3 5879   0.266   2.283  11.530 -0.4484  0.7600 -0.3085
  390TMC3    C4 5880   0.283   2.559  11.492 -0.0643  0.1253 -0.7390
  390TMC3    C5 5881   0.205   2.502  11.588 -0.5467 -0.2678  0.5208
  390TMC3    C6 5882   0.199   2.370  11.611  0.3487 -0.2175  0.5339
  390TMC3     C 5883   0.403   2.520  11.287  0.0688 -0.9090 -0.1562
  390TMC3     O 5884   0.411   2.445  11.189 -0.6151  0.2475  0.4771
  390TMC3     H 5885   0.385   2.269  11.358 -0.4511 -0.1721 -0.9765
  390TMC3    H1 5886   0.276   2.666  11.476  0.1754  0.2362 -0.1365
  390TMC3    H2 5887   0.119   2.330  11.672 -3.1572  1.3568 -3.0157
  390TMC3    C7 5888   0.145   2.586  11.689 -0.0314  1.1476  0.3385
  390TMC3    C8 5889   0.266   2.139  11.549 -0.9117 -0.0301 -0.1280
  390TMC3    O1 5890   0.046   2.544  11.745  0.3798 -0.2180  0.0206
  390TMC3    O2 5891   0.282   2.055  11.459 -0.1380 -0.2110 -0.5643
  391MPD2     C 5892   4.527   4.174  11.166  0.4898  0.6737  0.1708
  391MPD2    C1 5893   4.606   4.269  11.099  0.1285  0.1970 -0.2778
  391MPD2    C2 5894   4.573   4.311  10.967 -0.0122 -0.4817  0.2481
  391MPD2    C3 5895   4.466   4.247  10.900  0.9337 -0.4458 -0.4092
  391MPD2    C4 5896   4.396   4.149  10.964 -0.3213 -0.7237 -0.4499
  391MPD2    C5 5897   4.421   4.120  11.093  0.0031 -0.0396 -0.3952
  391MPD2     H 5898   4.631   4.391  10.923 -0.1770  0.1148  1.1108
  391MPD2    H1 5899   4.303   4.112  10.922 -0.1842 -0.1264 -1.2960
  391MPD2    H2 5900   4.546   4.127  11.262  0.7211  1.3623  0.4587
  391MPD2    H3 5901   4.374   4.038  11.147 -1.2148  1.1482  0.3426
  391MPD2     N 5902   4.423   4.287  10.777 -0.6030  0.0557 -0.2977
  391MPD2    H5 5903   4.476   4.368  10.747  0.5871 -0.0591  1.4487
  391MPD2    N1 5904   4.715   4.321  11.177  0.0476 -0.2179  0.3385
  391MPD2    H7 5905   4.711   4.287  11.272  0.7504  0.4562  0.6101
  392TMC3    C1 5906   4.305   4.307  10.570 -0.2272 -0.1693 -0.1714
  392TMC3    C2 5907   4.194   4.281  10.485  0.6084 -0.0012 -0.0665
  392TMC3    C3 5908   4.174   4.363  10.378 -0.5756 -0.0304  0.5112
  392TMC3    C4 5909   4.399   4.403  10.542 -0.0484  0.3629 -0.0320
  392TMC3    C5 5910   4.379   4.479  10.432  0.0977  0.1075  0.4951
  392TMC3    C6 5911   4.273   4.458  10.345 -0.2156 -0.3162  0.4786
  392TMC3     C 5912   4.323   4.231  10.696  0.0560 -0.1121  0.3316
  392TMC3     O 5913   4.257   4.126  10.708  0.9797  0.2231 -0.0983
  392TMC3     H 5914   4.119   4.210  10.518  0.3355 -0.9212 -2.6330
  392TMC3    H1 5915   4.497   4.394  10.588 -0.7249 -0.0327  1.3286
  392TMC3    H2 5916   4.270   4.509  10.249  1.1865 -0.4981  0.3355
  392TMC3    C7 5917   4.488   4.570  10.399  0.1403 -0.2428  0.0924
  392TMC3    C8 5918   4.077   4.312  10.279 -0.8039  0.8030 -0.8535
  392TMC3    O1 5919   4.599   4.553  10.454 -0.0646 -0.1601 -0.0528
  392TMC3    O2 5920   4.030   4.197  10.285 -0.1128 -0.1685 -0.0867
  393TMC3    C1 5921   3.745   1.717  10.777 -0.1121 -0.6121 -0.5139
  393TMC3    C2 5922   3.672   1.718  10.888 -0.1430  0.0642 -0.0570
  393TMC3    C3 5923   3.745   1.694  11.004 -0.1565  0.1084  0.8075
  393TMC3    C4 5924   3.880   1.689  10.770 -0.2682 -0.1032  0.6719
  393TMC3    C5 5925   3.950   1.664  10.888 -0.2526 -0.2865  0.5578
  393TMC3    C6 5926   3.883   1.671  11.008  0.5489 -0.4448 -0.4077
  393TMC3     C 5927   3.684   1.774  10.662  0.7800 -0.0559  0.1838
  393TMC3     O 5928   3.562   1.769  10.636 -0.3955  0.4923 -0.0315
  393TMC3     H 5929   3.566   1.743  10.890 -0.3599 -1.0739  1.8968
  393TMC3    H1 5930   3.916   1.665  10.670 -1.6405 -0.6320  0.3075
  393TMC3    H2 5931   3.936   1.662  11.102  2.0039  1.0193 -1.1070
  393TMC3    C7 5932   4.095   1.652  10.901  0.4775 -0.2415  0.4046
  393TMC3    C8 5933   3.692   1.767  11.118 -0.7757 -0.6798 -0.0653
  393TMC3    O1 5934   4.138   1.646  11.016  0.4008  0.2121 -0.0973
  393TMC3    O2 5935   3.736   1.727  11.226 -0.2820 -0.7101  0.3588
  394TMC3    C1 5936   0.648   2.676  10.634  0.2516  0.0867 -0.1544
  394TMC3    C2 5937   0.664   2.556  10.559 -0.5958  0.1973  0.0077
  394TMC3    C3 5938   0.697   2.576  10.425  0.9777  0.5150  0.1492
  394TMC3    C4 5939   0.675   2.799  10.584  0.6118  0.0744 -0.0985
  394TMC3    C5 5940   0.685   2.807  10.449  0.0047 -0.5052 -0.1186
  394TMC3    C6 5941   0.706   2.696  10.375 -0.2822  0.9679 -0.1507
  394TMC3     C 5942   0.619   2.659  10.777 -0.1469  0.5075  0.7071
  394TMC3     O 5943   0.630   2.547  10.826 -0.0888  0.3750 -0.1723
  394TMC3     H 5944   0.673   2.461  10.611 -0.6182 -0.2621 -0.8192
  394TMC3    H1 5945   0.668   2.895  10.634 -0.6826 -0.9129  1.6061
  394TMC3    H2 5946   0.698   2.703  10.267 -0.5545 -1.0879 -0.2608
  394TMC3    C7 5947   0.720   2.944  10.392  0.0362 -0.2339  0.4066
  394TMC3    C8 5948   0.729   2.462  10.343  0.3634  0.2112  1.4756
  394TMC3    O1 5949   0.772   3.018  10.467  0.3730  0.6491  0.0690
  394TMC3    O2 5950   0.752   2.485  10.225  0.0559 -0.1129  0.5026
  395TMC3    C1 5951   0.897   4.410  14.642 -0.3128 -0.5426  0.5150
  395TMC3    C2 5952   0.784   4.402  14.570 -0.5794 -0.2167 -0.7769
  395TMC3    C3 5953   0.755   4.503  14.478  0.6213 -0.2465 -0.4532
  395TMC3    C4 5954   0.980   4.515  14.628 -0.0158  0.3341 -0.7150
  395TMC3    C5 5955   0.948   4.614  14.540  0.5175  0.4257  0.7131
  395TMC3    C6 5956   0.843   4.603  14.451 -0.3573  0.2439 -0.0072
  395TMC3     C 5957   0.908   4.319  14.753  0.4142 -0.1055 -0.5671
  395TMC3     O 5958   0.997   4.340  14.835  0.5246  0.1005 -0.0434
  395TMC3     H 5959   0.707   4.328  14.586  0.9489 -1.6143  0.0163
  395TMC3    H1 5960   1.071   4.518  14.688 -0.0881 -1.5958 -0.4825
  395TMC3    H2 5961   0.828   4.658  14.359 -2.5264 -0.2138  0.0839
  395TMC3    C7 5962   1.043   4.715  14.536 -0.5240 -0.1141  0.4556
  395TMC3    C8 5963   0.637   4.487  14.401  0.7213  0.3741 -0.4169
  395TMC3    O1 5964   1.097   0.006  14.639  0.4164 -0.1755 -0.1716
  395TMC3    O2 5965   0.635   4.533  14.288  0.1459  0.2941  0.1312
  396MPD2     C 5966   0.208   1.181  17.724 -0.6743 -0.2403  0.0299
  396MPD2    C1 5967   0.299   1.119  17.635  0.3548 -0.3184  0.2178
  396MPD2    C2 5968   0.328   1.177  17.513 -0.3836  0.6018 -0.1070
  396MPD2    C3 5969   0.266   1.299  17.472  0.2223  0.3709 -0.3064
  396MPD2    C4 5970   0.175   1.356  17.563  0.1003 -1.4863 -0.5748
  396MPD2    C5 5971   0.145   1.293  17.681  0.7163 -0.2835  0.2235
  396MPD2     H 5972   0.411   1.139  17.453 -0.3545 -2.1104  1.6239
  396MPD2    H1 5973   0.126   1.451  17.549 -0.3230 -1.2772  2.2745
  396MPD2    H2 5974   0.192   1.135   0.082 -2.1131 -1.4218 -0.7624
  396MPD2    H3 5975   0.067   1.333   0.006 -0.0447 -0.9778 -0.2683
  396MPD2     N 5976   0.300   1.369  17.355 -0.6548 -0.2792 -0.3452
  396MPD2    H5 5977   0.255   1.456  17.331  1.0157 -0.2419 -3.3735
  396MPD2    N1 5978   0.359   0.996  17.675  0.7050 -0.1317  0.0448
  396MPD2    H7 5979   0.341   0.939   0.018  0.5376  1.2695  1.0011
  397TMC3    C1 5980   0.489   0.794  17.657 -0.6624 -0.6441  0.1979
  397TMC3    C2 5981   0.500   0.714  17.552 -0.3887  0.2021  0.3810
  397TMC3    C3 5982   0.454   0.589  17.562  0.0872  0.2013  0.0497
  397TMC3    C4 5983   0.408   0.762   0.026  0.4837  0.4064 -0.7596
  397TMC3    C5 5984   0.349   0.637   0.032  0.1709 -0.0341  0.2059
  397TMC3    C6 5985   0.380   0.549  17.671  0.4439 -0.1906 -0.1078
  397TMC3     C 5986   0.460   0.925  17.609  0.0047 -0.3907 -0.5005
  397TMC3     O 5987   0.523   0.953  17.508 -0.2535  0.2170 -0.1116
  397TMC3     H 5988   0.579   0.723  17.478 -0.6810  1.9168  0.2756
  397TMC3    H1 5989   0.372   0.832   0.100  2.9988 -1.4175  2.1780
  397TMC3    H2 5990   0.365   0.442  17.680 -0.1940  0.1112  2.1803
  397TMC3    C7 5991   0.302   0.581   0.160 -0.1220 -0.0681 -0.2989
  397TMC3    C8 5992   0.451   0.505  17.445 -0.4995  0.1298  1.0137
  397TMC3    O1 5993   0.236   0.481   0.146 -0.1643 -0.3954  0.8325
  397TMC3    O2 5994   0.533   0.527  17.360 -0.1518 -0.0822  0.0659
  398MPD2     C 5995   3.272   2.613   0.310 -0.4523  0.1323 -0.0169
  398MPD2    C1 5996   3.387   2.540   0.343  0.0580 -0.3393  0.2518
  398MPD2    C2 5997   3.512   2.598   0.321 -0.0532  0.1456  0.3720
  398MPD2    C3 5998   3.524   2.727   0.268  0.9579  0.6618  0.2608
  398MPD2    C4 5999   3.406   2.790   0.221  0.9145  0.1431  0.1334
  398MPD2    C5 6000   3.282   2.739   0.246 -0.1524  0.1972 -0.4422
  398MPD2     H 6001   3.601   2.543   0.346  1.6459  2.5569 -0.4045
  398MPD2    H1 6002   3.413   2.881   0.163  0.1595  0.1212  0.0129
  398MPD2    H2 6003   3.174   2.573   0.332 -0.5312  1.2607  1.6574
  398MPD2    H3 6004   3.193   2.787   0.206 -1.4112 -1.1668  0.7240
  398MPD2     N 6005   3.653   2.782   0.252 -0.1999 -0.0908 -0.7752
  398MPD2    H5 6006   3.730   2.720   0.273  1.3731  2.5052  1.1347
  398MPD2    N1 6007   3.390   2.409   0.395 -0.7387  0.9994 -0.1254
  398MPD2    H7 6008   3.478   2.372   0.431  0.6557  0.9091 -3.5115
  399TMC3    C1 6009   3.296   2.199   0.466 -0.0254 -0.6623  0.3743
  399TMC3    C2 6010   3.417   2.172   0.536 -0.6439  0.1748  0.6509
  399TMC3    C3 6011   3.441   2.045   0.572 -0.4841  0.3245  0.6649
  399TMC3    C4 6012   3.205   2.100   0.436  0.3522 -0.2547 -0.4101
  399TMC3    C5 6013   3.249   1.977   0.466  0.2347  0.5393 -0.9714
  399TMC3    C6 6014   3.361   1.938   0.538 -0.7927 -0.2302 -0.2828
  399TMC3     C 6015   3.274   2.332   0.404 -1.0352 -0.5645 -0.7471
  399TMC3     O 6016   3.157   2.357   0.362 -0.9008  0.1807 -0.5429
  399TMC3     H 6017   3.484   2.252   0.565  0.3447 -0.5184  0.2999
  399TMC3    H1 6018   3.110   2.114   0.384  0.7024  0.7880 -0.7771
  399TMC3    H2 6019   3.382   1.832   0.549 -1.4331 -0.1949  1.2580
  399TMC3    C7 6020   3.157   1.871   0.450  0.6047  0.0102  0.0794
  399TMC3    C8 6021   3.572   2.016   0.620  0.1732  0.3589 -0.3678
  399TMC3    O1 6022   3.174   1.774   0.526  0.2458  0.1639  0.0935
  399TMC3    O2 6023   3.637   2.102   0.682 -0.0352  0.6393 -0.5104
  400TMC3    C1 6024   2.040   1.278  16.696  0.0544 -0.0191 -0.3530
  400TMC3    C2 6025   1.942   1.190  16.660  0.2398 -0.1712 -0.3469
  400TMC3    C3 6026   1.832   1.161  16.738  0.9870  0.3004  0.0656
  400TMC3    C4 6027   2.020   1.365  16.794  0.4088 -0.1103  0.4803
  400TMC3    C5 6028   1.893   1.359  16.853  0.1774 -0.3511 -0.6782
  400TMC3    C6 6029   1.806   1.255  16.832 -0.0562  0.0639  0.5068
  400TMC3     C 6030   2.171   1.217  16.691  0.5162  0.4780 -0.1732
  400TMC3     O 6031   2.233   1.214  16.799 -0.4937  0.2066  0.0167
  400TMC3     H 6032   1.961   1.124  16.575  0.4980  0.9417 -1.1484
  400TMC3    H1 6033   2.099   1.432  16.828  0.4634 -0.3219  0.7690
  400TMC3    H2 6034   1.714   1.237  16.888 -0.0205 -1.5440  0.0692
  400TMC3    C7 6035   1.865   1.455  16.964 -0.4793 -0.0177  0.2879
  400TMC3    C8 6036   1.846   1.027  16.783 -0.6978  1.3097  0.8218
  400TMC3    O1 6037   1.961   1.522  16.995 -0.6493 -0.4653 -0.0066
  400TMC3    O2 6038   1.825   1.009  16.905 -0.2272  0.2146  0.2343
  401MPD2     C 6039   4.252   4.151   0.491  0.0837  0.3434  0.1420
  401MPD2    C1 6040   4.346   4.114   0.590 -0.2877 -0.0477  0.4520
  401MPD2    C2 6041   4.338   3.983   0.642 -0.5506 -0.5657 -0.1908
  401MPD2    C3 6042   4.251   3.889   0.601  0.1363  0.1346  0.1840
  401MPD2    C4 6043   4.160   3.922   0.497 -0.0358  0.0738 -0.0337
  401MPD2    C5 6044   4.159   4.056   0.456  0.5231 -0.4087  0.0299
  401MPD2     H 6045   4.402   3.947   0.722 -0.0067 -1.6160 -1.0984
  401MPD2    H1 6046   4.091   3.855   0.447  1.0018 -1.2950  0.3891
  401MPD2    H2 6047   4.237   4.250   0.451  4.6217  0.1668 -1.9669
  401MPD2    H3 6048   4.089   4.083   0.379 -0.6118 -0.9630  0.8736
  401MPD2     N 6049   4.271   3.761   0.662 -0.0576 -0.0415  0.0867
  401MPD2    H5 6050   4.345   3.748   0.730  0.7351  1.7652 -0.4239
  401MPD2    N1 6051   4.435   4.209   0.640  0.1194  0.9441  0.0717
  401MPD2    H7 6052   4.447   4.298   0.593  0.3226  1.4222  1.0188
  402TMC3    C1 6053   4.293   3.533   0.664  0.5291 -0.6605  0.4352
  402TMC3    C2 6054   4.333   3.534   0.797  0.2664 -0.4510 -0.2965
  402TMC3    C3 6055   4.395   3.422   0.850  0.4345 -0.0547  0.5985
  402TMC3    C4 6056   4.316   3.427   0.582 -0.3130  0.1539 -0.1135
  402TMC3    C5 6057   4.398   3.329   0.637 -0.3563  1.1732 -0.2575
  402TMC3    C6 6058   4.435   3.321   0.770 -0.2233  0.1202  0.0550
  402TMC3     C 6059   4.217   3.646   0.610  0.7030  0.3141 -0.6364
  402TMC3     O 6060   4.139   3.637   0.517  0.7869 -0.5832 -0.0863
  402TMC3     H 6061   4.272   3.601   0.855 -1.0261  1.2817 -3.6682
  402TMC3    H1 6062   4.283   3.418   0.479 -1.5586 -0.6634  0.3624
  402TMC3    H2 6063   4.499   3.238   0.796 -0.2005  0.1643  0.1386
  402TMC3    C7 6064   4.470   3.251   0.534 -0.5016 -0.0142  0.7021
  402TMC3    C8 6065   4.467   3.418   0.975  0.3775 -0.2001 -0.6118
  402TMC3    O1 6066   4.416   3.220   0.431 -0.4967 -0.4952  0.4799
  402TMC3    O2 6067   4.545   3.322   0.981 -0.0427  0.3289 -0.0315
  403MPD2     C 6068   3.512   1.466  12.924 -0.3237  0.0185  0.7613
  403MPD2    C1 6069   3.463   1.490  13.045  0.0779 -0.0331 -0.1966
  403MPD2    C2 6070   3.542   1.535  13.150  0.3801 -0.8387  0.0907
  403MPD2    C3 6071   3.671   1.564  13.119 -1.1589 -0.1431 -0.1680
  403MPD2    C4 6072   3.724   1.526  13.001  0.4362 -0.3458  0.0733
  403MPD2    C5 6073   3.645   1.480  12.902  0.5373  0.2027  0.1901
  403MPD2     H 6074   3.488   1.566  13.239 -0.2566 -1.4169 -0.0971
  403MPD2    H1 6075   3.829   1.537  12.976  0.4218  0.0219  0.1751
  403MPD2    H2 6076   3.460   1.414  12.844  0.0161  2.2356 -0.8749
  403MPD2    H3 6077   3.682   1.460  12.802  2.6168 -0.0981  1.0118
  403MPD2     N 6078   3.768   1.602  13.219  0.2643 -0.1176  0.1359
  403MPD2    H5 6079   3.862   1.600  13.179  0.7076  0.1628  1.1572
  403MPD2    N1 6080   3.326   1.452  13.067  0.3569 -0.0625  0.0472
  403MPD2    H7 6081   3.276   1.427  12.982  0.5539 -0.1677 -0.0383
  404TMC3    C1 6082   3.134   1.374  13.192 -1.0892  0.9574  0.1667
  404TMC3    C2 6083   3.128   1.276  13.290 -0.1300  0.5104  0.1920
  404TMC3    C3 6084   3.071   1.155  13.256 -0.0115 -0.5924  0.0034
  404TMC3    C4 6085   3.083   1.348  13.066 -0.8980 -0.2272  0.8546
  404TMC3    C5 6086   3.015   1.234  13.045  0.6014 -0.4659 -0.1531
  404TMC3    C6 6087   3.024   1.131  13.136  0.3475 -0.2217  0.5650
  404TMC3     C 6088   3.263   1.453  13.190 -0.1670 -0.3921 -0.3095
  404TMC3     O 6089   3.300   1.466  13.306  1.0163 -0.0563 -0.6664
  404TMC3     H 6090   3.199   1.292  13.370 -0.9906  1.2963  0.7974
  404TMC3    H1 6091   3.090   1.425  12.991  0.4322 -0.7039  0.4842
  404TMC3    H2 6092   2.985   1.034  13.106 -0.4027  0.3666 -0.3701
  404TMC3    C7 6093   2.988   1.193  12.908 -0.0741 -0.1354  0.1125
  404TMC3    C8 6094   3.080   1.040  13.351 -0.0875  0.3576  0.6606
  404TMC3    O1 6095   3.034   1.086  12.882 -0.1546 -0.5207  0.9511
  404TMC3    O2 6096   3.030   0.934  13.311 -0.4307 -0.2993 -0.2666
  405MPD2     C 6097   3.418   2.199  14.499 -0.2457 -0.9035 -0.6269
  405MPD2    C1 6098   3.425   2.102  14.403  0.3643  0.0927 -0.3557
  405MPD2    C2 6099   3.417   2.140  14.267 -0.6319  0.8163  0.1691
  405MPD2    C3 6100   3.414   2.273  14.233 -0.3612 -0.5141  0.4052
  405MPD2    C4 6101   3.423   2.372  14.329  0.4223 -0.2137 -0.3146
  405MPD2    C5 6102   3.414   2.330  14.459  0.4321  0.0155 -0.1739
  405MPD2     H 6103   3.402   2.070  14.186  1.2674 -0.1926  0.6791
  405MPD2    H1 6104   3.419   2.476  14.302  0.1111 -0.1091  0.1420
  405MPD2    H2 6105   3.401   2.170  14.602 -1.0133  1.3087 -0.1421
  405MPD2    H3 6106   3.408   2.407  14.536 -0.6041  0.8132 -1.0524
  405MPD2     N 6107   3.387   2.300  14.099  0.6904 -0.0177 -0.1556
  405MPD2    H5 6108   3.379   2.218  14.039 -1.9010  0.4386 -0.4163
  405MPD2    N1 6109   3.416   1.965  14.435 -0.7435 -0.1141 -0.3329
  405MPD2    H7 6110   3.406   1.933  14.531 -1.2166 -0.5092 -0.5164
  406TMC3    C1 6111   3.326   2.469  13.678 -0.2103 -0.0087 -0.1982
  406TMC3    C2 6112   3.419   2.390  13.623 -0.6760  0.6740  1.0732
  406TMC3    C3 6113   3.490   2.306  13.700  0.1314 -0.4251  0.5559
  406TMC3    C4 6114   3.319   2.480  13.819  0.0513 -0.1491  0.3582
  406TMC3    C5 6115   3.394   2.394  13.891 -0.5093 -1.4454 -0.3334
  406TMC3    C6 6116   3.493   2.319  13.834  0.2223 -0.2449 -0.2820
  406TMC3     C 6117   3.283   2.588  13.603 -1.0358  0.0526 -0.3863
  406TMC3     O 6118   3.346   2.616  13.501 -0.1148 -0.4679  0.2623
  406TMC3     H 6119   3.436   2.380  13.517  0.9345  0.2682  1.3640
  406TMC3    H1 6120   3.254   2.549  13.871 -1.1314 -0.5107 -0.6378
  406TMC3    H2 6121   3.572   2.267  13.887 -0.9033 -0.9370  0.7019
  406TMC3    C7 6122   3.380   2.421  14.035 -0.2800  1.1998  0.4891
  406TMC3    C8 6123   3.493   2.171  13.651 -0.3176 -0.3358 -0.2415
  406TMC3    O1 6124   3.355   2.537  14.066 -0.7231 -0.3055  0.1394
  406TMC3    O2 6125   3.501   2.151  13.530 -0.0270 -0.2821 -0.2655
  407MPD2     C 6126   0.544   3.940   9.865 -0.3924  0.2692 -0.1901
  407MPD2    C1 6127   0.679   3.974   9.845  0.8207 -0.1953 -0.1850
  407MPD2    C2 6128   0.724   4.071   9.931 -0.7820 -0.9606 -0.0956
  407MPD2    C3 6129   0.648   4.137  10.030  0.4069 -0.4942  0.2570
  407MPD2    C4 6130   0.516   4.103  10.033 -0.5307 -0.0990  0.0129
  407MPD2    C5 6131   0.468   3.997   9.961 -0.3184 -0.0368 -0.6600
  407MPD2     H 6132   0.830   4.097   9.925 -0.1665 -2.7520  2.8248
  407MPD2    H1 6133   0.449   4.163  10.093 -0.3642 -1.1104  1.2059
  407MPD2    H2 6134   0.494   3.872   9.798 -1.2813 -1.0376  1.8132
  407MPD2    H3 6135   0.362   3.977   9.972 -0.3512 -0.4316 -1.7491
  407MPD2     N 6136   0.697   4.243  10.107 -0.8079  0.0080  0.0619
  407MPD2    H5 6137   0.632   4.311  10.145  0.9471  1.7787 -0.1305
  407MPD2    N1 6138   0.774   3.909   9.759 -0.3385  0.5304  0.3505
  407MPD2    H7 6139   0.861   3.960   9.743  0.8257 -0.9048  2.1458
  408TMC3    C1 6140   0.842   3.768   9.582  0.2100  1.0941 -0.1925
  408TMC3    C2 6141   0.914   3.868   9.523 -0.1083  0.1964 -0.3011
  408TMC3    C3 6142   0.975   3.838   9.401 -0.3411  0.3245 -0.0221
  408TMC3    C4 6143   0.825   3.646   9.530  0.5880  0.0295  0.8526
  408TMC3    C5 6144   0.881   3.617   9.406  0.4072 -0.4253  0.3517
  408TMC3    C6 6145   0.948   3.717   9.340 -0.0565  0.3930 -0.5103
  408TMC3     C 6146   0.750   3.798   9.692 -0.6315 -0.2008 -0.8888
  408TMC3     O 6147   0.645   3.733   9.702  0.0990  0.3463 -0.4542
  408TMC3     H 6148   0.917   3.967   9.566 -1.8901  1.0206 -2.1207
  408TMC3    H1 6149   0.753   3.586   9.583  1.4075  1.5819  3.7008
  408TMC3    H2 6150   1.009   3.698   9.252  0.4905  0.8722 -0.2360
  408TMC3    C7 6151   0.926   3.481   9.375  0.0325  0.2522 -0.1742
  408TMC3    C8 6152   1.089   3.912   9.362 -0.0612 -0.4418  0.9230
  408TMC3    O1 6153   0.967   3.470   9.263  0.0302  0.0182 -0.2207
  408TMC3    O2 6154   1.174   3.862   9.291  0.7054 -0.5568  0.4652
  409MPD2     C 6155   0.838   0.092  16.639 -0.0507 -0.5338  0.0386
  409MPD2    C1 6156   0.923   0.051  16.740 -0.0407 -0.0878 -0.5561
  409MPD2    C2 6157   1.052   0.104  16.747 -0.0993 -0.0382 -0.7135
  409MPD2    C3 6158   1.095   0.197  16.649  0.3008 -1.1694 -1.1071
  409MPD2    C4 6159   1.010   0.225  16.542 -0.5501  0.0612  0.1162
  409MPD2    C5 6160   0.878   0.183  16.543 -0.4844 -0.7741 -0.1097
  409MPD2     H 6161   1.117   0.074  16.828  0.7237  0.7409 -1.0793
  409MPD2    H1 6162   1.045   0.302  16.473 -0.5424  1.3827  1.6056
  409MPD2    H2 6163   0.741   0.047  16.624  0.1053 -0.3264 -1.6326
  409MPD2    H3 6164   0.809   0.211  16.464  0.1415  0.8586 -0.0776
  409MPD2     N 6165   1.223   0.263  16.651  0.1894  0.0075 -0.1225
  409MPD2    H5 6166   1.240   0.336  16.582  3.2481 -0.3805  0.2009
  409MPD2    N1 6167   0.883   4.696  16.835  0.3518  0.3262  0.9342
  409MPD2    H7 6168   0.955   4.676  16.904  1.4287  0.5833 -0.1150
  410TMC3    C1 6169   1.420   0.351  16.756  0.1873  0.3166  1.3538
  410TMC3    C2 6170   1.433   0.421  16.867  0.0664 -0.3323  0.1877
  410TMC3    C3 6171   1.486   0.544  16.858 -0.5867 -0.4572  0.4193
  410TMC3    C4 6172   1.450   0.405  16.633 -0.0094 -0.5726  0.6739
  410TMC3    C5 6173   1.496   0.538  16.628 -0.3560 -0.1519  0.5023
  410TMC3    C6 6174   1.514   0.608  16.741  0.4750 -0.3450  0.0983
  410TMC3     C 6175   1.308   0.260  16.757  0.2633 -0.5341  0.2014
  410TMC3     O 6176   1.304   0.199  16.866  0.1920 -0.1757  0.1559
  410TMC3     H 6177   1.403   0.382  16.964  1.6031  1.3320  1.3454
  410TMC3    H1 6178   1.415   0.351  16.546  2.2922  1.4215 -1.4793
  410TMC3    H2 6179   1.545   0.712  16.734 -0.1599 -0.3818 -3.1938
  410TMC3    C7 6180   1.487   0.601  16.493 -0.0644  0.1880  0.0953
  410TMC3    C8 6181   1.472   0.634  16.973 -0.4888 -0.3994  0.3491
  410TMC3    O1 6182   1.512   0.521  16.396 -0.2081  0.7099  0.1022
  410TMC3    O2 6183   1.549   0.728  16.970  0.0696  0.9533 -0.0987
  411MPD2     C 6184   1.087   1.152  14.476 -0.0264 -0.3770 -0.4755
  411MPD2    C1 6185   1.067   1.020  14.466  0.5697  0.1318  0.1856
  411MPD2    C2 6186   1.122   0.951  14.360  0.4263  0.1612 -0.2927
  411MPD2    C3 6187   1.199   1.017  14.264  0.1634 -0.0644  0.3128
  411MPD2    C4 6188   1.221   1.152  14.281  0.2521 -0.2620  0.2799
  411MPD2    C5 6189   1.160   1.216  14.382 -0.0667  0.2229 -0.2004
  411MPD2     H 6190   1.098   0.848  14.336 -0.3646 -0.0825  1.5379
  411MPD2    H1 6191   1.263   1.215  14.204 -0.6827 -0.0680 -0.0701
  411MPD2    H2 6192   1.048   1.208  14.561 -1.2761 -0.0827 -1.2447
  411MPD2    H3 6193   1.180   1.321  14.399 -1.8746  0.2238  1.8356
  411MPD2     N 6194   1.243   0.946  14.155  0.2736  0.6074  0.0347
  411MPD2    H5 6195   1.286   0.995  14.077  0.2981  1.8589  0.8481
  411MPD2    N1 6196   0.977   0.957  14.555  0.5057  0.4580 -0.6205
  411MPD2    H7 6197   0.939   1.025  14.619  3.2250 -1.0338  2.6124
  412TMC3    C1 6198   1.277   0.767  14.005  0.8300  0.1237  0.4416
  412TMC3    C2 6199   1.332   0.641  13.980  0.6617 -0.2045  0.0936
  412TMC3    C3 6200   1.333   0.594  13.851 -0.1746 -0.0516 -0.0343
  412TMC3    C4 6201   1.207   0.834  13.910  0.0145 -0.8960 -0.0436
  412TMC3    C5 6202   1.198   0.774  13.785 -0.6969  0.0332  0.0164
  412TMC3    C6 6203   1.283   0.664  13.753 -0.0232 -0.1771 -0.5827
  412TMC3     C 6204   1.244   0.807  14.144  0.5088  0.4276  0.0400
  412TMC3     O 6205   1.241   0.717  14.226  0.1030  0.2830 -0.1217
  412TMC3     H 6206   1.366   0.572  14.056  1.5147 -1.7902 -1.7208
  412TMC3    H1 6207   1.156   0.927  13.929  0.6614 -0.1997 -1.7050
  412TMC3    H2 6208   1.266   0.605  13.663 -0.3221 -1.2136  0.1557
  412TMC3    C7 6209   1.065   0.769  13.722 -0.1240  0.4017  0.0652
  412TMC3    C8 6210   1.284   0.452  13.857  0.4446 -0.4019 -0.7028
  412TMC3    O1 6211   1.024   0.660  13.678 -0.4493 -0.2409  0.2018
  412TMC3    O2 6212   1.350   0.377  13.922  0.4557  0.1227 -0.0290
  413MPD2     C 6213   2.975   3.725  15.268 -0.8563 -0.7270 -0.3162
  413MPD2    C1 6214   2.869   3.640  15.242  0.2203 -0.4531 -0.1254
  413MPD2    C2 6215   2.903   3.512  15.197  0.4844  0.0658  0.0140
  413MPD2    C3 6216   3.035   3.469  15.187 -0.0515 -0.3341  0.6379
  413MPD2    C4 6217   3.135   3.557  15.211 -0.2449 -0.2541 -0.1869
  413MPD2    C5 6218   3.105   3.685  15.251 -0.2731  0.0875  0.1811
  413MPD2     H 6219   2.826   3.436  15.183 -0.5770  1.1027  0.2239
  413MPD2    H1 6220   3.237   3.527  15.229 -0.7939 -1.4852  0.8114
  413MPD2    H2 6221   2.955   3.817  15.321  0.4929  0.4253 -1.8039
  413MPD2    H3 6222   3.189   3.748  15.277 -1.1532  1.1847  0.3697
  413MPD2     N 6223   3.047   3.327  15.167  0.2382  0.1614 -0.0337
  413MPD2    H5 6224   2.962   3.280  15.137 -0.6695  0.3285  2.3160
  413MPD2    N1 6225   2.740   3.675  15.282 -0.1217  0.0147  0.3390
  413MPD2    H7 6226   2.728   3.769  15.318  0.9602  0.6719 -1.0275
  414TMC3    C1 6227   3.116   3.105  15.180  0.3208 -0.2897  0.0888
  414TMC3    C2 6228   3.170   3.019  15.269 -0.4114 -0.5697  0.0469
  414TMC3    C3 6229   3.144   2.889  15.251 -0.2444  0.2144  0.1426
  414TMC3    C4 6230   3.046   3.062  15.071 -0.2921 -0.0085 -0.1310
  414TMC3    C5 6231   3.034   2.925  15.052 -0.3914  0.0420 -0.2273
  414TMC3    C6 6232   3.061   2.840  15.156  0.3635 -0.0382  0.4475
  414TMC3     C 6233   3.157   3.246  15.189  0.2202 -0.6278 -0.0319
  414TMC3     O 6234   3.267   3.272  15.235  0.1680 -0.6976 -0.0312
  414TMC3     H 6235   3.213   3.058  15.361 -0.5067 -0.3367 -0.0082
  414TMC3    H1 6236   3.024   3.131  14.990  0.5308 -1.4095 -1.5446
  414TMC3    H2 6237   3.037   2.735  15.147 -2.0971  0.4269  1.7078
  414TMC3    C7 6238   2.934   2.877  14.959  0.2243  0.2576  0.2931
  414TMC3    C8 6239   3.214   2.788  15.325  0.2607 -0.1385  0.4906
  414TMC3    O1 6240   2.830   2.939  14.962  0.6434  0.1824 -0.2163
  414TMC3    O2 6241   3.191   2.672  15.298  0.2453 -0.4032 -0.1192
  415TMC3    C1 6242   2.291   1.606  10.397 -0.5324  0.2261  0.6209
  415TMC3    C2 6243   2.305   1.655  10.271 -0.1795  0.4303  0.2915
  415TMC3    C3 6244   2.237   1.601  10.168  0.4366 -0.4250 -0.6280
  415TMC3    C4 6245   2.217   1.489  10.417  0.2913 -0.0026 -0.2318
  415TMC3    C5 6246   2.141   1.439  10.316 -0.4278 -1.2577  0.4909
  415TMC3    C6 6247   2.158   1.487  10.189  0.0845 -0.7030 -0.0437
  415TMC3     C 6248   2.374   1.642  10.510  0.1893  0.3481  0.2467
  415TMC3     O 6249   2.416   1.548  10.582 -0.3081  0.2583 -0.1146
  415TMC3     H 6250   2.367   1.742  10.251 -1.2278  1.0755 -0.1157
  415TMC3    H1 6251   2.196   1.465  10.521 -0.6047 -0.1211 -0.4376
  415TMC3    H2 6252   2.107   1.445  10.103 -1.5991  0.6403  0.3124
  415TMC3    C7 6253   2.084   1.304  10.322  0.3286  0.2665  0.1382
  415TMC3    C8 6254   2.302   1.595  10.038  0.2570 -1.0785 -0.2125
  415TMC3    O1 6255   1.996   1.276  10.242  0.0845 -0.3480 -0.2059
  415TMC3    O2 6256   2.244   1.534   9.950 -0.1470 -0.3932 -0.6037
  416MPD2     C 6257   4.519   0.141  11.081 -0.1112 -0.0555  0.0083
  416MPD2    C1 6258   4.488   0.130  11.217  0.6491  0.2557 -0.1258
  416MPD2    C2 6259   4.452   0.004  11.273  0.0720 -0.7958  0.5738
  416MPD2    C3 6260   4.439   4.638  11.180 -0.3472  0.6170  0.3867
  416MPD2    C4 6261   4.474   4.645  11.044  0.6751  0.2105 -0.5421
  416MPD2    C5 6262   4.506   0.036  10.992  0.2742  0.0034 -0.6451
  416MPD2     H 6263   4.416   4.725  11.374  0.6209  0.0780  0.9023
  416MPD2    H1 6264   4.458   4.566  10.971  1.4112 -0.7887  0.3653
  416MPD2    H2 6265   4.536   0.236  11.033  0.3080 -0.2266 -0.1796
  416MPD2    H3 6266   4.542   0.053  10.892  0.5744 -1.6082 -0.8108
  416MPD2     N 6267   4.379   4.518  11.221 -0.1432  0.4242 -0.1780
  416MPD2    H5 6268   4.373   4.518  11.322  0.1519  0.3932 -0.1606
  416MPD2    N1 6269   4.492   0.242  11.301  0.1410  0.0448  0.1033
  416MPD2    H7 6270   4.493   0.332  11.254  3.5395  0.8036  1.6753
  417TMC3    C1 6271   4.448   0.366  11.502 -0.4436 -0.2600 -0.3258
  417TMC3    C2 6272   4.478   0.385  11.636 -0.2158 -0.7957  0.2732
  417TMC3    C3 6273   4.399   0.456  11.712 -0.1083  0.6054  0.0594
  417TMC3    C4 6274   4.347   0.440  11.437  0.5609 -0.4418 -0.0594
  417TMC3    C5 6275   4.255   0.493  11.525 -0.2249 -0.3157 -0.2229
  417TMC3    C6 6276   4.281   0.509  11.659  0.4446 -0.5627 -0.2289
  417TMC3     C 6277   4.483   0.235  11.437  0.3713  0.7711  0.3319
  417TMC3     O 6278   4.502   0.145  11.516  0.0954 -0.5947 -0.3546
  417TMC3     H 6279   4.564   0.331  11.675  0.9645  1.0172  0.1530
  417TMC3    H1 6280   4.302   0.421  11.340 -1.5412  2.6422  0.3094
  417TMC3    H2 6281   4.204   0.538  11.729  0.2146  0.7614 -1.0417
  417TMC3    C7 6282   4.153   0.577  11.468 -0.5156 -0.1889 -0.5903
  417TMC3    C8 6283   4.456   0.532  11.824 -0.0986 -0.2379 -0.1651
  417TMC3    O1 6284   4.167   0.622  11.354  0.1737  0.4806 -0.3076
  417TMC3    O2 6285   4.407   0.639  11.854 -0.0586 -0.1452 -0.0895
  418TMC3    C1 6286   4.027   2.850   0.114 -0.8780 -0.5804  0.3235
  418TMC3    C2 6287   3.909   2.918   0.100 -0.4863  0.5271  0.5160
  418TMC3    C3 6288   3.829   2.926   0.212 -0.2997  0.4142  0.3831
  418TMC3    C4 6289   4.085   2.817   0.238  0.2023  0.1310 -0.1180
  418TMC3    C5 6290   3.996   2.833   0.342 -0.0633 -0.3007 -0.5112
  418TMC3    C6 6291   3.872   2.883   0.331  0.1216  0.6098 -0.2657
  418TMC3     C 6292   4.105   2.843  17.734 -0.0288  0.3270  0.2601
  418TMC3     O 6293   4.083   2.912  17.638 -0.3979 -0.8493 -0.5986
  418TMC3     H 6294   3.874   2.932  17.737  0.5212 -1.2212 -0.0620
  418TMC3    H1 6295   4.177   2.760   0.248  0.0120  0.2118  1.9969
  418TMC3    H2 6296   3.814   2.880   0.422 -1.3548  0.5933 -1.2200
  418TMC3    C7 6297   4.025   2.751   0.461 -0.4169  0.1609 -0.0733
  418TMC3    C8 6298   3.687   2.902   0.197  0.4475 -0.0139  0.8213
  418TMC3    O1 6299   4.075   2.641   0.440  0.4054 -0.1360  0.1589
  418TMC3    O2 6300   3.615   2.973   0.123  0.8016  0.1171 -0.1566
  419MPD2     C 6301   2.564   0.399  12.821  0.0614  0.0280 -0.0472
  419MPD2    C1 6302   2.494   0.499  12.770 -0.3332  0.3750 -0.7575
  419MPD2    C2 6303   2.435   0.599  12.853 -0.9158  1.0377  0.8102
  419MPD2    C3 6304   2.475   0.594  12.989 -0.5826 -0.2180 -0.0993
  419MPD2    C4 6305   2.562   0.499  13.037  0.0193  0.0360 -0.1610
  419MPD2    C5 6306   2.603   0.403  12.955  0.5226 -0.2599 -0.3208
  419MPD2     H 6307   2.364   0.676  12.825 -1.1237  0.2447 -0.7844
  419MPD2    H1 6308   2.601   0.496  13.138 -1.0935  1.8919  0.3216
  419MPD2    H2 6309   2.604   0.316  12.764 -3.3379 -0.0130 -2.3349
  419MPD2    H3 6310   2.686   0.345  12.993  0.5968  0.5809  0.7689
  419MPD2     N 6311   2.421   0.693  13.073 -0.5033  0.2364 -0.2551
  419MPD2    H5 6312   2.353   0.748  13.022 -0.0423 -0.4431 -1.5953
  419MPD2    N1 6313   2.459   0.509  12.635 -0.1371  0.5244  0.0137
  419MPD2    H7 6314   2.424   0.598  12.599  0.5665  0.0305 -1.8523
  420TMC3    C1 6315   2.361   0.808  13.265  0.2161  0.3477 -0.1286
  420TMC3    C2 6316   2.263   0.852  13.187 -0.4453  0.5630 -0.0670
  420TMC3    C3 6317   2.146   0.879  13.246  0.2506  0.2981 -0.3683
  420TMC3    C4 6318   2.348   0.785  13.397  0.4820  0.4842  0.2177
  420TMC3    C5 6319   2.225   0.811  13.450 -0.0375 -0.4625  0.0800
  420TMC3    C6 6320   2.118   0.866  13.380  0.2298 -0.3504 -0.1339
  420TMC3     C 6321   2.453   0.714  13.203 -0.2632  0.2281 -0.8746
  420TMC3     O 6322   2.535   0.654  13.269 -0.4549  0.2864 -0.1988
  420TMC3     H 6323   2.276   0.884  13.084  1.4081  1.6876  0.5091
  420TMC3    H1 6324   2.435   0.767  13.459 -0.4435  0.1273  1.3935
  420TMC3    H2 6325   2.020   0.882  13.423 -0.5199 -1.5568 -1.3842
  420TMC3    C7 6326   2.205   0.770  13.585 -0.1760 -0.1155  0.2460
  420TMC3    C8 6327   2.053   0.954  13.165  0.4190  0.3025 -0.1601
  420TMC3    O1 6328   2.261   0.661  13.612  0.3144 -0.2005  0.0477
  420TMC3    O2 6329   2.100   1.015  13.069  0.6453 -0.0692 -0.1090
  421TMC3    C1 6330   3.828   1.653  13.447  0.7579  0.0932  0.3152
  421TMC3    C2 6331   3.776   1.701  13.561 -0.1482 -0.5054  0.7986
  421TMC3    C3 6332   3.807   1.635  13.676  0.9717 -0.0163  0.7521
  421TMC3    C4 6333   3.917   1.542  13.443 -0.8553  0.9139  0.1256
  421TMC3    C5 6334   3.938   1.477  13.558  0.1810  0.9149 -0.0637
  421TMC3    C6 6335   3.887   1.525  13.680  0.0392 -0.2232 -0.1496
  421TMC3     C 6336   3.731   1.657  13.343 -0.0707 -0.6196  0.2940
  421TMC3     O 6337   3.626   1.685  13.393  0.6186 -0.5237  0.6290
  421TMC3     H 6338   3.700   1.779  13.564  2.3244  1.9026  0.6056
  421TMC3    H1 6339   3.952   1.503  13.349  0.0897 -0.8726  1.2315
  421TMC3    H2 6340   3.925   1.476  13.769 -0.4398  1.2869  0.8903
  421TMC3    C7 6341   4.073   1.431  13.559  0.1805  0.4688 -0.0150
  421TMC3    C8 6342   3.825   1.707  13.798 -0.2247  0.4929 -0.1134
  421TMC3    O1 6343   4.153   1.473  13.476 -0.1230 -0.2853 -0.7250
  421TMC3    O2 6344   3.871   1.652  13.896  0.4414 -0.1774 -0.3415
  422TMC3    C1 6345   0.772   3.986  12.387  0.4188 -0.3529 -0.8909
  422TMC3    C2 6346   0.805   4.035  12.508  0.0096 -0.0614 -0.3305
  422TMC3    C3 6347   0.763   3.965  12.616  0.0194 -0.4578 -0.3872
  422TMC3    C4 6348   0.690   3.872  12.372 -0.4238  0.5097  0.5815
  422TMC3    C5 6349   0.642   3.809  12.484 -0.3842  0.0401 -0.0488
  422TMC3    C6 6350   0.681   3.855  12.605 -0.0050 -0.4644  0.4270
  422TMC3     C 6351   0.853   4.020  12.274  0.4553 -0.1091  0.2623
  422TMC3     O 6352   0.888   3.930  12.203  0.2721 -0.1503  0.9203
  422TMC3     H 6353   0.881   4.112  12.510  0.2721 -0.3565  1.5463
  422TMC3    H1 6354   0.664   3.837  12.273 -1.1829 -1.1230  1.3485
  422TMC3    H2 6355   0.621   3.811  12.684 -0.4221 -0.9321 -0.1508
  422TMC3    C7 6356   0.514   3.743  12.460  0.4981 -0.1413  0.4733
  422TMC3    C8 6357   0.793   4.023  12.746  0.3250  0.5075  0.2708
  422TMC3    O1 6358   0.466   3.762  12.347 -0.0103 -0.3601  0.2459
  422TMC3    O2 6359   0.862   4.129  12.744 -0.1534 -0.1507  0.8370
  423MPD2     C 6360   2.910   0.296   0.151 -0.0676  0.0472  0.1002
  423MPD2    C1 6361   2.896   0.184   0.236 -0.1993 -0.7096 -0.1723
  423MPD2    C2 6362   2.889   0.057   0.184 -0.5080  0.1265  0.0741
  423MPD2    C3 6363   2.899   0.031   0.046 -0.1539  0.5311 -0.0499
  423MPD2    C4 6364   2.917   0.136  17.704 -0.5400 -0.2393  0.0344
  423MPD2    C5 6365   2.928   0.258   0.021  0.4337  0.8605  0.6269
  423MPD2     H 6366   2.863   4.712   0.252 -1.3866  1.1783  0.9680
  423MPD2    H1 6367   2.941   0.118  17.600 -1.8207 -0.0809 -0.2837
  423MPD2    H2 6368   2.922   0.400   0.178  0.7827  0.1445 -0.6525
  423MPD2    H3 6369   2.944   0.335  17.685  0.1848  1.2132  0.9344
  423MPD2     N 6370   2.908   4.640  17.725  0.3296  0.3408  0.4680
  423MPD2    H5 6371   2.915   4.632  17.624 -0.5268 -0.1126  0.4479
  423MPD2    N1 6372   2.885   0.192   0.377 -0.2040  0.7110 -0.1353
  423MPD2    H7 6373   2.859   0.105   0.423 -1.4531  0.3327 -1.5568
  424TMC3    C1 6374   2.884   0.297   0.597  0.4448 -0.1926 -0.2256
  424TMC3    C2 6375   2.909   0.177   0.667  0.6469  0.2890 -0.0728
  424TMC3    C3 6376   2.927   0.187   0.801 -0.7774 -0.3803  0.1234
  424TMC3    C4 6377   2.855   0.410   0.667 -0.9395 -0.2727 -0.3336
  424TMC3    C5 6378   2.853   0.408   0.805  0.3691  0.5676 -0.3150
  424TMC3    C6 6379   2.898   0.299   0.873  0.4272 -0.0290  0.0364
  424TMC3     C 6380   2.898   0.310   0.453  0.1106 -0.2568 -0.7451
  424TMC3     O 6381   2.905   0.425   0.416 -0.0966 -0.0019  0.4211
  424TMC3     H 6382   2.949   0.091   0.615 -1.2248 -0.9694  0.5707
  424TMC3    H1 6383   2.825   0.501   0.615  0.9331  1.9411  2.4474
  424TMC3    H2 6384   2.892   0.303   0.981 -0.7588 -0.0877 -0.0235
  424TMC3    C7 6385   2.805   0.524   0.886  0.0809  0.5199  0.2039
  424TMC3    C8 6386   3.011   0.085   0.857 -0.3997 -0.2597  0.8227
  424TMC3    O1 6387   2.769   0.619   0.818  0.2711  0.5576 -0.0164
  424TMC3    O2 6388   3.006   4.710   0.802 -0.1709 -0.0823 -0.2274
  425MPD2     C 6389   1.979   3.325  16.899 -0.0030  0.1141  0.5811
  425MPD2    C1 6390   1.937   3.284  17.021  0.2189  0.0501 -0.2483
  425MPD2    C2 6391   1.851   3.365  17.095  0.0694  0.5403 -0.7465
  425MPD2    C3 6392   1.812   3.488  17.035  0.1000 -0.4530 -0.5141
  425MPD2    C4 6393   1.842   3.524  16.903 -0.1772 -0.0954 -0.7769
  425MPD2    C5 6394   1.928   3.439  16.843  0.7424 -0.3956 -0.1203
  425MPD2     H 6395   1.809   3.331  17.189 -0.0483  4.1094  0.4999
  425MPD2    H1 6396   1.806   3.609  16.845  2.3109  1.6190  0.1896
  425MPD2    H2 6397   2.046   3.262  16.842 -0.0986 -0.2012  0.8145
  425MPD2    H3 6398   1.970   3.476  16.750 -1.6158  1.9469 -0.2691
  425MPD2     N 6399   1.708   3.555  17.106  0.0078 -0.5455  0.1207
  425MPD2    H5 6400   1.698   3.539  17.206 -0.4241 -1.6568 -0.0952
  425MPD2    N1 6401   1.989   3.162  17.065 -0.3635  0.0229  0.6429
  425MPD2    H7 6402   2.064   3.123  17.008 -0.3483 -1.8008  1.9011
  426TMC3    C1 6403   2.015   2.960  17.185  0.2048 -0.2680 -0.3079
  426TMC3    C2 6404   2.034   2.886  17.072  0.4024  0.8170  0.2099
  426TMC3    C3 6405   2.068   2.755  17.093 -0.6166  0.7464 -0.2208
  426TMC3    C4 6406   2.030   2.905  17.311 -0.5933 -0.0870 -0.3384
  426TMC3    C5 6407   2.051   2.771  17.322 -0.0887 -0.2783 -0.2174
  426TMC3    C6 6408   2.073   2.690  17.213 -0.6618  0.7437  0.5804
  426TMC3     C 6409   1.961   3.098  17.182  0.3537  0.1624 -0.4787
  426TMC3     O 6410   1.880   3.119  17.271  0.3554  0.7118 -0.1651
  426TMC3     H 6411   2.025   2.920  16.970  2.4368 -0.8262 -0.5327
  426TMC3    H1 6412   2.019   2.968  17.399  1.2415  0.1387 -0.2837
  426TMC3    H2 6413   2.112   2.591  17.234 -0.5914  0.0731 -2.8208
  426TMC3    C7 6414   1.977   2.700  17.421  0.3875  0.0191 -0.1012
  426TMC3    C8 6415   2.059   2.667  16.981  0.3131  0.5175  0.0124
  426TMC3    O1 6416   1.997   2.582  17.437 -0.5540  0.2566 -0.3551
  426TMC3    O2 6417   2.141   2.686  16.893 -0.3206 -0.8355  0.1527
  427MPD2     C 6418   4.638   0.789  15.465  0.1374 -0.0684 -0.5263
  427MPD2    C1 6419   4.665   0.667  15.397 -0.3999 -0.0337 -0.0063
  427MPD2    C2 6420   4.577   0.626  15.301  0.4816 -0.0975 -0.8556
  427MPD2    C3 6421   4.452   0.678  15.293 -0.1049  0.0742  0.3950
  427MPD2    C4 6422   4.424   0.794  15.366 -0.0027 -0.1822 -0.2709
  427MPD2    C5 6423   4.518   0.857  15.443 -0.0203  0.7383  0.0282
  427MPD2     H 6424   4.603   0.536  15.246 -2.0962 -1.2670 -0.1493
  427MPD2    H1 6425   4.322   0.832  15.366 -0.2205 -0.7804  0.6080
  427MPD2    H2 6426   4.710   0.833  15.534  1.1401 -1.1552 -0.8792
  427MPD2    H3 6427   4.511   0.955  15.488 -1.6648  0.2689  0.7833
  427MPD2     N 6428   4.345   0.627  15.216  0.2703 -0.2288  0.2206
  427MPD2    H5 6429   4.263   0.681  15.194  2.0164  1.7626 -1.3879
  427MPD2    N1 6430   0.039   0.581  15.422 -0.1376 -0.0275 -0.0093
  427MPD2    H7 6431   0.054   0.508  15.353  0.2126 -2.0476  2.2167
  428TMC3    C1 6432   0.238   0.492  15.494 -0.3091  0.4207  1.0779
  428TMC3    C2 6433   0.193   0.368  15.462 -0.3986 -0.3711  0.8869
  428TMC3    C3 6434   0.286   0.268  15.454 -0.0035 -0.1137  0.1154
  428TMC3    C4 6435   0.370   0.516  15.521 -0.2573  0.0046 -0.3951
  428TMC3    C5 6436   0.453   0.410  15.518  0.3265  0.3379 -0.3117
  428TMC3    C6 6437   0.418   0.290  15.478  0.5705  0.2616  0.0316
  428TMC3     C 6438   0.143   0.599  15.507 -0.2328  0.2104  1.2899
  428TMC3     O 6439   0.161   0.694  15.584  0.1152  0.2792 -0.3618
  428TMC3     H 6440   0.090   0.339  15.446 -1.0390  2.3107  0.2476
  428TMC3    H1 6441   0.407   0.612  15.552  0.8540 -0.3150 -0.7159
  428TMC3    H2 6442   0.494   0.212  15.468 -2.0497 -2.4101  1.1297
  428TMC3    C7 6443   0.592   0.455  15.501 -1.0807  0.3669 -0.6783
  428TMC3    C8 6444   0.249   0.137  15.403 -0.0745  0.3905  0.0516
  428TMC3    O1 6445   0.639   0.515  15.598 -0.2243 -0.4461  0.1678
  428TMC3    O2 6446   0.149   0.140  15.335  0.4092  0.6481 -0.3362
  429MPD2     C 6447   0.751   1.020   0.260 -0.9061 -0.5089  0.4600
  429MPD2    C1 6448   0.756   0.967   0.134  0.4121 -0.2681 -0.9572
  429MPD2    C2 6449   0.798   1.050   0.033  0.1417 -0.3881 -0.1465
  429MPD2    C3 6450   0.809   1.191   0.049  0.6401 -0.9478 -0.1106
  429MPD2    C4 6451   0.772   1.249   0.170  0.4268 -0.0788  0.1073
  429MPD2    C5 6452   0.755   1.155   0.272  0.4998  0.2749  0.4262
  429MPD2     H 6453   0.836   0.996  17.686  1.3282 -0.0078  0.1394
  429MPD2    H1 6454   0.762   1.355   0.190  0.2344  0.0398 -0.6136
  429MPD2    H2 6455   0.737   0.960   0.349  1.0422  1.1526  1.9000
  429MPD2    H3 6456   0.738   1.208   0.365 -0.7928 -1.8669  1.4138
  429MPD2     N 6457   0.861   1.263  17.681 -0.7852 -0.2905  0.3764
  429MPD2    H5 6458   0.878   1.224  17.588 -1.6052 -1.5344  0.7553
  429MPD2    N1 6459   0.758   0.822   0.126  0.1079  0.0280  0.3545
  429MPD2    H7 6460   0.816   0.780   0.054 -0.0258 -0.5769  0.6008
  430TMC3    C1 6461   0.980   1.435  17.565 -0.0844  0.0122 -0.0980
  430TMC3    C2 6462   0.920   1.405  17.443 -0.1994  0.6761  0.5995
  430TMC3    C3 6463   1.002   1.413  17.331 -0.2016 -0.1774  0.9676
  430TMC3    C4 6464   1.112   1.453  17.579  0.4544  0.5287  0.0742
  430TMC3    C5 6465   1.190   1.453  17.469  0.3053 -0.1607  0.0360
  430TMC3    C6 6466   1.138   1.429  17.340 -0.3861  0.0103  0.2049
  430TMC3     C 6467   0.919   1.386  17.693 -0.0926 -0.2967 -0.0262
  430TMC3     O 6468   0.936   1.453   0.055  0.4788 -0.0009  0.0427
  430TMC3     H 6469   0.814   1.390  17.435 -0.2850  0.5532  1.9117
  430TMC3    H1 6470   1.146   1.475  17.679  0.2054 -0.1484  0.2992
  430TMC3    H2 6471   1.202   1.444  17.253  0.2226 -0.6628  0.5370
  430TMC3    C7 6472   1.328   1.468  17.484  0.1883  0.5424 -0.1898
  430TMC3    C8 6473   0.961   1.379  17.199 -0.3526  0.0490 -0.3812
  430TMC3    O1 6474   1.358   1.514  17.595  0.2822  0.1564  0.8574
  430TMC3    O2 6475   1.018   1.447  17.119  0.0541 -0.2078  0.6196
  431MPD2     C 6476   2.015   1.130  12.564 -0.0974 -0.1580  0.2391
  431MPD2    C1 6477   2.111   1.125  12.469  0.4294  0.5274  0.0670
  431MPD2    C2 6478   2.142   1.003  12.414 -0.0908 -0.0053 -0.1138
  431MPD2    C3 6479   2.081   0.881  12.449  0.3295  0.0607 -0.6149
  431MPD2    C4 6480   1.986   0.886  12.550  0.2723  0.1250 -0.6327
  431MPD2    C5 6481   1.960   1.012  12.604 -0.3821 -0.6159  0.2180
  431MPD2     H 6482   2.223   0.998  12.342 -1.1332  1.3300 -1.3660
  431MPD2    H1 6483   1.924   0.807  12.591  1.1706  0.9463  2.2627
  431MPD2    H2 6484   1.989   1.224  12.611 -1.0043  0.2597 -1.1202
  431MPD2    H3 6485   1.875   1.011  12.672  0.2638 -3.1880  0.9691
  431MPD2     N 6486   2.115   0.755  12.407 -0.2919 -0.2384 -0.4154
  431MPD2    H5 6487   2.055   0.681  12.443 -0.8601  0.9356  1.0697
  431MPD2    N1 6488   2.181   1.235  12.419  0.2261  0.2209  0.5170
  431MPD2    H7 6489   2.266   1.214  12.368  0.3682  1.5909  0.1879
  432TMC3    C1 6490   2.241   0.581  12.312 -0.7475  0.0353 -0.4156
  432TMC3    C2 6491   2.281   0.535  12.187  0.1936 -0.0243  0.0344
  432TMC3    C3 6492   2.353   0.421  12.191 -0.1827 -0.5126  0.3736
  432TMC3    C4 6493   2.282   0.541  12.433 -0.4975  0.1506  1.1576
  432TMC3    C5 6494   2.365   0.435  12.432  0.5460  0.5271  0.1454
  432TMC3    C6 6495   2.401   0.376  12.312 -1.0837 -0.3882 -0.2450
  432TMC3     C 6496   2.203   0.721  12.311 -0.3548 -0.2419 -0.5029
  432TMC3     O 6497   2.256   0.787  12.225  0.3803  0.1266  0.2016
  432TMC3     H 6498   2.260   0.583  12.092 -1.1948 -1.2479 -0.2837
  432TMC3    H1 6499   2.268   0.592  12.528  1.1795  0.8674  1.0207
  432TMC3    H2 6500   2.462   0.287  12.321 -2.7491 -1.4729  0.2210
  432TMC3    C7 6501   2.446   0.403  12.552 -0.0381 -0.0276 -0.2183
  432TMC3    C8 6502   2.436   0.381  12.075  0.5327 -0.4498 -0.5602
  432TMC3    O1 6503   2.508   0.294  12.543 -0.4001 -0.1652 -0.2558
  432TMC3    O2 6504   2.390   0.369  11.960  0.1272 -0.5939 -0.0260
  433MPD2     C 6505   0.282   3.999  10.891 -0.2261  0.0987  0.5461
  433MPD2    C1 6506   0.402   3.945  10.910  0.6102 -0.0545  0.2301
  433MPD2    C2 6507   0.474   3.985  11.023 -0.4306 -0.5438 -0.2633
  433MPD2    C3 6508   0.420   4.063  11.124 -0.4075  0.7409  0.4259
  433MPD2    C4 6509   0.291   4.104  11.107 -0.4643  0.9129  0.9467
  433MPD2    C5 6510   0.221   4.072  10.994  0.3628 -0.1160 -0.2716
  433MPD2     H 6511   0.574   3.950  11.044 -0.6008  0.9335  2.9370
  433MPD2    H1 6512   0.243   4.169  11.180 -0.8442  2.4442 -0.6741
  433MPD2    H2 6513   0.226   3.965  10.805  0.9761 -0.4309 -0.0301
  433MPD2    H3 6514   0.118   4.105  10.983  0.5138  1.8045  4.0407
  433MPD2     N 6515   0.493   4.092  11.246 -0.1797 -0.5382  0.4257
  433MPD2    H5 6516   0.583   4.047  11.251  1.1687  2.0750 -0.4295
  433MPD2    N1 6517   0.456   3.858  10.815  0.6077  0.5966 -0.0265
  433MPD2    H7 6518   0.422   3.878  10.721 -0.2114 -0.7706 -0.0109
  434TMC3    C1 6519   0.647   3.768  10.722  0.1097 -0.3636 -0.1340
  434TMC3    C2 6520   0.780   3.763  10.770  0.2397  0.0925 -0.4195
  434TMC3    C3 6521   0.868   3.664  10.727 -0.2775  0.1280 -0.2240
  434TMC3    C4 6522   0.618   3.675  10.629  0.2807 -0.2728  0.6126
  434TMC3    C5 6523   0.706   3.582  10.583  0.1629  0.3690 -0.7277
  434TMC3    C6 6524   0.835   3.585  10.625  0.1527  0.0083  0.2304
  434TMC3     C 6525   0.563   3.781  10.838 -0.5409 -0.2045  0.1105
  434TMC3     O 6526   0.605   3.739  10.944 -0.4015 -0.1243 -0.0500
  434TMC3     H 6527   0.799   3.840  10.844 -0.6905  0.8238 -0.9449
  434TMC3    H1 6528   0.514   3.676  10.595  0.2847  1.0912  0.6533
  434TMC3    H2 6529   0.903   3.504  10.600  1.1062  1.2713 -1.2819
  434TMC3    C7 6530   0.658   3.502  10.472 -0.0930  0.0742 -0.5706
  434TMC3    C8 6531   0.973   3.628  10.820 -0.0880  0.2176 -0.8469
  434TMC3    O1 6532   0.749   3.452  10.410  0.7585  0.1793  0.0964
  434TMC3    O2 6533   0.947   3.671  10.932 -0.3835 -0.0373  0.0837
  435MPD2     C 6534   3.367   3.933  15.245 -0.1576 -0.6004 -0.4868
  435MPD2    C1 6535   3.318   3.965  15.369  0.5807 -0.8030  0.2954
  435MPD2    C2 6536   3.388   3.922  15.478  0.2996 -0.6775  0.2259
  435MPD2    C3 6537   3.510   3.847  15.464 -0.8768  0.0098  0.1237
  435MPD2    C4 6538   3.551   3.807  15.340 -0.5711  0.6627  0.2664
  435MPD2    C5 6539   3.480   3.858  15.230 -0.2971  0.0962  0.5243
  435MPD2     H 6540   3.356   3.956  15.575  1.7143  1.8547 -0.1809
  435MPD2    H1 6541   3.645   3.757  15.320 -0.7863 -0.0793  1.1166
  435MPD2    H2 6542   3.317   3.967  15.156  0.4947 -1.5910 -1.2325
  435MPD2    H3 6543   3.516   3.839  15.130 -0.4554  1.3721  0.2251
  435MPD2     N 6544   3.573   3.807  15.586 -0.0212  0.2782  0.2063
  435MPD2    H5 6545   3.516   3.836  15.664 -1.0544  1.1786 -0.8871
  435MPD2    N1 6546   3.206   4.048  15.388 -0.5385  0.7993  0.1378
  435MPD2    H7 6547   3.172   4.078  15.479 -2.2729 -0.2617 -0.1700
  436TMC3    C1 6548   2.912   4.326  15.497  0.3072  0.6421 -0.5626
  436TMC3    C2 6549   3.022   4.250  15.450 -0.8789  0.4703 -0.6040
  436TMC3    C3 6550   2.993   4.144  15.365 -0.2395  0.2242  0.0182
  436TMC3    C4 6551   2.784   4.304  15.462 -0.1390  0.0406  0.0251
  436TMC3    C5 6552   2.760   4.213  15.365 -0.2289 -0.4679 -0.6183
  436TMC3    C6 6553   2.864   4.130  15.321 -0.2675  0.5563 -0.2063
  436TMC3     C 6554   2.952   4.434  15.584 -0.2632  0.1694 -0.1550
  436TMC3     O 6555   3.073   4.436  15.595 -0.2161 -0.4039  0.0182
  436TMC3     H 6556   3.125   4.273  15.475 -0.8940 -0.1677  0.0429
  436TMC3    H1 6557   2.701   4.365  15.496 -0.0936 -0.3206  0.7887
  436TMC3    H2 6558   2.834   4.035  15.277  0.3339 -0.3123  1.2993
  436TMC3    C7 6559   2.623   4.151  15.364 -0.0300  0.3214 -0.5293
  436TMC3    C8 6560   3.107   4.078  15.297 -0.5021 -0.6489  0.0251
  436TMC3    O1 6561   2.628   4.029  15.355  0.5650 -0.4071 -0.4645
  436TMC3    O2 6562   3.101   4.044  15.184 -0.5075 -0.1204 -0.2369
  437TMC3    C1 6563   1.500   1.805  13.302  0.0321 -0.5078 -0.2989
  437TMC3    C2 6564   1.385   1.841  13.369  0.1260 -0.2289  0.6961
  437TMC3    C3 6565   1.320   1.957  13.338 -0.7428  0.3343 -0.5492
  437TMC3    C4 6566   1.557   1.888  13.207  0.1991 -0.3763 -0.0386
  437TMC3    C5 6567   1.492   2.007  13.179 -0.4212  0.2934  0.0886
  437TMC3    C6 6568   1.370   2.035  13.234 -0.3532 -0.0465 -0.0527
  437TMC3     C 6569   1.539   1.663  13.309 -0.4270 -0.3315  0.4396
  437TMC3     O 6570   1.471   1.587  13.375  0.0218  0.1508 -0.5752
  437TMC3     H 6571   1.338   1.772  13.439 -0.6433 -1.7498 -1.3192
  437TMC3    H1 6572   1.631   1.855  13.136  0.3187  0.7348 -0.4342
  437TMC3    H2 6573   1.326   2.132  13.213 -1.9396 -0.7954 -0.1991
  437TMC3    C7 6574   1.554   2.104  13.097  0.4410  0.2913 -0.1300
  437TMC3    C8 6575   1.207   1.992  13.417  0.4021 -0.4856  0.2572
  437TMC3    O1 6576   1.486   2.200  13.059 -0.2287 -0.2155  0.4338
  437TMC3    O2 6577   1.159   1.898  13.479 -0.2917 -0.1611 -0.7198
  438MPD2     C 6578   4.118   2.517  16.709 -1.2270  0.1750  0.5365
  438MPD2    C1 6579   4.202   2.433  16.789 -0.6189  0.0075  0.4152
  438MPD2    C2 6580   4.174   2.421  16.923 -0.3963  0.7211 -0.3498
  438MPD2    C3 6581   4.067   2.488  16.987 -0.4183 -0.4838  0.0120
  438MPD2    C4 6582   3.983   2.560  16.906  0.0447 -0.4257  0.6476
  438MPD2    C5 6583   4.015   2.588  16.774 -0.0119 -0.3151  0.1657
  438MPD2     H 6584   4.250   2.372  16.983  1.4144  1.6549 -1.8960
  438MPD2    H1 6585   3.900   2.609  16.956  0.3412  1.5647 -0.8463
  438MPD2    H2 6586   4.129   2.526  16.601  0.1957  1.7997  0.8218
  438MPD2    H3 6587   3.957   2.657  16.714 -0.5028 -0.5052  0.4219
  438MPD2     N 6588   4.029   2.473  17.122  0.1224 -0.0361 -0.0964
  438MPD2    H5 6589   3.946   2.524  17.151 -0.5449 -0.8649 -0.5645
  438MPD2    N1 6590   4.305   2.355  16.737  0.3526  0.3500  0.1624
  438MPD2    H7 6591   4.364   2.303  16.802  0.3360 -0.3011 -0.3422
  439TMC3    C1 6592   4.441   2.236  16.592  0.1421  0.3874 -0.0136
  439TMC3    C2 6593   4.471   2.198  16.461  0.5630  0.4072 -0.4038
  439TMC3    C3 6594   4.590   2.125  16.446  0.1076  0.5476  0.1912
  439TMC3    C4 6595   4.532   2.223  16.694  0.1586 -0.3006 -0.3255
  439TMC3    C5 6596   4.645   2.161  16.670 -0.1460  0.1719 -0.1316
  439TMC3    C6 6597   4.670   2.102  16.552  0.1674  0.4267 -0.0053
  439TMC3     C 6598   4.332   2.323  16.609  0.2128  0.0932  0.1129
  439TMC3     O 6599   4.263   2.350  16.511  0.1475 -0.0522 -0.5482
  439TMC3     H 6600   4.403   2.216  16.378 -0.4811 -2.3297 -0.1274
  439TMC3    H1 6601   4.512   2.261  16.793 -0.1514  0.9773 -0.8806
  439TMC3    H2 6602   0.029   2.050  16.540  0.9495  1.8418  0.0153
  439TMC3    C7 6603   4.713   2.118  16.789 -0.7316  0.0151  0.3938
  439TMC3    C8 6604   4.615   2.027  16.341 -0.0356  0.0554 -0.2869
  439TMC3    O1 6605   4.717   2.197  16.879 -0.1451 -0.2363  0.1117
  439TMC3    O2 6606   4.731   1.997  16.319 -0.4397 -0.3309 -0.1837
  440MPD2     C 6607   3.043   2.271  14.953  0.8588  0.2748 -0.8724
  440MPD2    C1 6608   3.097   2.352  15.046  1.0495  0.1741 -0.2542
  440MPD2    C2 6609   3.235   2.345  15.063  0.9231  0.2244 -0.6201
  440MPD2    C3 6610   3.315   2.254  14.988  0.4768  0.2768 -0.6944
  440MPD2    C4 6611   3.257   2.167  14.906  0.2002 -0.2256  0.7432
  440MPD2    C5 6612   3.120   2.175  14.889  0.1823  0.0141  0.0987
  440MPD2     H 6613   3.276   2.390  15.153  1.4824  0.4502 -0.9901
  440MPD2    H1 6614   3.307   2.089  14.851 -0.8883 -0.9123  0.7247
  440MPD2    H2 6615   2.942   2.287  14.917  1.3602  1.7518 -1.6363
  440MPD2    H3 6616   3.076   2.096  14.829  3.2003 -1.5555 -0.1051
  440MPD2     N 6617   3.455   2.225  15.020 -0.2481 -0.3872 -0.1507
  440MPD2    H5 6618   3.507   2.149  14.976  1.4540  1.1989 -0.8967
  440MPD2    N1 6619   3.023   2.434  15.134 -0.8039  0.3643 -0.4568
  440MPD2    H7 6620   3.077   2.499  15.190 -1.2198 -0.6058  1.0443
  441TMC3    C1 6621   3.639   2.240  15.149  0.3757  0.1664  0.6400
  441TMC3    C2 6622   3.717   2.330  15.219  0.2933  0.8174  0.0546
  441TMC3    C3 6623   3.750   2.299  15.347 -0.0525  0.3945  0.3112
  441TMC3    C4 6624   3.593   2.130  15.210  0.3068 -0.2551  0.4978
  441TMC3    C5 6625   3.608   2.111  15.340  0.6396 -0.3771 -0.1318
  441TMC3    C6 6626   3.694   2.191  15.405  0.5525 -1.0919 -0.5105
  441TMC3     C 6627   3.536   2.313  15.082 -0.1720 -0.7459 -0.1894
  441TMC3     O 6628   3.521   2.434  15.100 -0.1216 -0.0187 -0.7383
  441TMC3     H 6629   3.742   2.422  15.167 -0.6007 -0.0519 -1.8887
  441TMC3    H1 6630   3.537   2.051  15.161  1.3781 -0.1497 -0.8636
  441TMC3    H2 6631   3.707   2.183  15.513 -2.5646 -0.1526 -0.0580
  441TMC3    C7 6632   3.486   2.098  15.411 -1.0837  0.2803  0.5767
  441TMC3    C8 6633   3.741   2.413  15.437 -0.0179  0.2985 -0.4634
  441TMC3    O1 6634   3.501   2.108  15.533 -0.1306  0.1010 -0.3758
  441TMC3    O2 6635   3.784   2.396  15.552  0.5018  0.2716  0.3303
  442MPD2     C 6636   1.623   3.028  16.912 -0.4481 -0.2828  0.2872
  442MPD2    C1 6637   1.493   2.983  16.891  0.3501  0.5024 -0.5971
  442MPD2    C2 6638   1.471   2.868  16.818 -0.0857 -0.0927  0.6785
  442MPD2    C3 6639   1.572   2.794  16.764  0.0210  0.5688  0.5721
  442MPD2    C4 6640   1.698   2.841  16.778 -0.2367  0.4211  0.2919
  442MPD2    C5 6641   1.724   2.959  16.852 -0.0201  0.5565 -0.1806
  442MPD2     H 6642   1.370   2.830  16.810  0.0785 -0.0636 -1.3846
  442MPD2    H1 6643   1.785   2.793  16.736  1.3691  0.2940  3.7276
  442MPD2    H2 6644   1.642   3.122  16.962  1.0397 -0.4928  0.1066
  442MPD2    H3 6645   1.821   3.008  16.861  0.7232 -1.2424  1.5641
  442MPD2     N 6646   1.551   2.680  16.685  0.1252 -0.2119  0.2602
  442MPD2    H5 6647   1.634   2.648  16.637 -0.1283  1.7702 -1.5065
  442MPD2    N1 6648   1.376   3.051  16.929 -0.1484  0.0913  0.0493
  442MPD2    H7 6649   1.293   2.994  16.913  0.6889 -1.9154  2.8991
  443TMC3    C1 6650   1.237   3.232  16.957 -0.6686 -0.1389  0.4644
  443TMC3    C2 6651   1.215   3.342  16.876  0.4656 -0.4365  0.0667
  443TMC3    C3 6652   1.095   3.392  16.871  0.4899 -0.8554 -0.7360
  443TMC3    C4 6653   1.147   3.176  17.039  0.0124  0.7812 -0.3392
  443TMC3    C5 6654   1.017   3.232  17.027 -0.6412  0.0467  0.1565
  443TMC3    C6 6655   0.987   3.336  16.942  0.1767 -0.1012  0.2745
  443TMC3     C 6656   1.369   3.181  16.963 -0.0928  0.7406  0.4578
  443TMC3     O 6657   1.462   3.264  16.977 -0.5976  0.6219  0.4925
  443TMC3     H 6658   1.302   3.371  16.818  0.3592 -0.0854  0.0790
  443TMC3    H1 6659   1.182   3.110  17.117  2.3577  1.8587 -0.4864
  443TMC3    H2 6660   0.886   3.373  16.926  1.0456  2.1289 -0.1499
  443TMC3    C7 6661   0.911   3.155  17.067 -0.3785  0.3550  0.6800
  443TMC3    C8 6662   1.049   3.442  16.745  0.7337  0.1405 -0.0694
  443TMC3    O1 6663   0.801   3.201  17.054 -0.3174 -0.6234 -0.1582
  443TMC3    O2 6664   0.936   3.406  16.718 -0.5519 -0.4568 -0.5233
  444MPD2     C 6665   1.357   2.981  17.293 -0.4094  0.3185  0.3025
  444MPD2    C1 6666   1.293   2.868  17.343 -0.5079 -0.2835  0.7047
  444MPD2    C2 6667   1.363   2.746  17.348  0.2164  0.2564 -0.3369
  444MPD2    C3 6668   1.492   2.735  17.302 -0.1085  0.4689 -0.7418
  444MPD2    C4 6669   1.551   2.838  17.243  0.6656  0.1352  0.4834
  444MPD2    C5 6670   1.480   2.959  17.240  0.8974  0.2389 -0.1091
  444MPD2     H 6671   1.328   2.658  17.400  0.8260  0.5593  0.5855
  444MPD2    H1 6672   1.657   2.839  17.219  0.7446 -0.1720  0.8232
  444MPD2    H2 6673   1.308   3.078  17.289 -0.0008  0.5394  0.6942
  444MPD2    H3 6674   1.538   3.043  17.205 -0.0744  1.1198  0.3867
  444MPD2     N 6675   1.558   2.618  17.316 -0.3724  0.5675  0.0455
  444MPD2    H5 6676   1.509   2.544  17.366 -1.2851  1.6888  0.8204
  444MPD2    N1 6677   1.159   2.873  17.383  0.3186  0.4425 -0.2415
  444MPD2    H7 6678   1.116   2.783  17.403  0.0246  0.8159  0.8271
  445TMC3    C1 6679   1.690   2.438  17.232  0.7598 -0.1731 -0.0223
  445TMC3    C2 6680   1.591   2.344  17.213 -0.2029 -0.1180 -0.2597
  445TMC3    C3 6681   1.622   2.226  17.150  0.0361  1.0639 -0.0216
  445TMC3    C4 6682   1.825   2.402  17.223 -0.3622 -0.0749  0.0960
  445TMC3    C5 6683   1.854   2.279  17.167 -0.1755 -0.1032 -0.0161
  445TMC3    C6 6684   1.756   2.198  17.124  0.5443 -0.0925  0.0314
  445TMC3     C 6685   1.662   2.580  17.236  0.1855 -0.5887  0.1381
  445TMC3     O 6686   1.749   2.636  17.176 -0.5437 -0.8922 -0.8504
  445TMC3     H 6687   1.489   2.376  17.196 -0.5302 -0.4463  1.0419
  445TMC3    H1 6688   1.906   2.474  17.231  0.6031 -1.0059 -1.3509
  445TMC3    H2 6689   1.792   2.098  17.100  0.0119 -0.4751  0.8165
  445TMC3    C7 6690   1.994   2.246  17.128 -0.0854  0.1805 -0.1705
  445TMC3    C8 6691   1.529   2.115  17.145  0.5824 -0.2833  0.9259
  445TMC3    O1 6692   2.014   2.169  17.033 -0.4130 -0.3199 -0.2552
  445TMC3    O2 6693   1.430   2.125  17.217 -0.0855 -0.4856  0.6462
  446MPD2     C 6694   0.668   3.644  11.416 -0.8021 -1.0562 -0.5162
  446MPD2    C1 6695   0.664   3.683  11.280  0.8709 -0.0013 -0.3823
  446MPD2    C2 6696   0.785   3.723  11.223  0.4636  0.2107  0.3163
  446MPD2    C3 6697   0.904   3.737  11.301 -0.8723 -0.3733 -0.6189
  446MPD2    C4 6698   0.903   3.702  11.438 -0.7544 -0.2113 -0.2864
  446MPD2    C5 6699   0.782   3.658  11.490 -0.5394 -0.8412 -0.3429
  446MPD2     H 6700   0.773   3.752  11.119  0.6237 -0.8236  0.0081
  446MPD2    H1 6701   0.998   3.694  11.489  0.2526 -2.5750 -2.5105
  446MPD2    H2 6702   0.583   3.600  11.467 -2.9775 -0.1736 -3.3472
  446MPD2    H3 6703   0.777   3.611  11.587 -0.3527  3.6619  1.8501
  446MPD2     N 6704   1.017   3.761  11.228  0.6237 -0.5719 -0.2300
  446MPD2    H5 6705   0.995   3.770  11.129 -0.1719 -1.4099 -0.1335
  446MPD2    N1 6706   0.552   3.663  11.201 -0.1393  0.2247  0.0892
  446MPD2    H7 6707   0.566   3.664  11.101 -0.5286 -2.9957  0.0100
  447TMC3    C1 6708   1.231   3.817  11.167  0.0747  0.2507 -0.1958
  447TMC3    C2 6709   1.191   3.863  11.048 -0.1296  0.1914  0.1052
  447TMC3    C3 6710   1.279   3.877  10.946  0.1055  0.7666  0.1448
  447TMC3    C4 6711   1.365   3.807  11.195 -0.0405 -0.7696 -0.1991
  447TMC3    C5 6712   1.453   3.823  11.095 -0.1208 -0.0156  1.5664
  447TMC3    C6 6713   1.416   3.873  10.973  0.6519  0.1565 -0.6966
  447TMC3     C 6714   1.145   3.777  11.275 -0.5416  0.4257  0.8074
  447TMC3     O 6715   1.187   3.764  11.388 -0.5746 -0.2096 -0.1601
  447TMC3     H 6716   1.094   3.907  11.028 -0.4256 -0.3628  0.3394
  447TMC3    H1 6717   1.390   3.770  11.294 -0.9964 -2.8975 -0.7383
  447TMC3    H2 6718   1.484   3.879  10.889  1.2781 -0.5428 -0.2291
  447TMC3    C7 6719   1.592   3.798  11.111  0.4539 -0.1863  0.1581
  447TMC3    C8 6720   1.237   3.975  10.859 -0.7740 -0.5554  0.9203
  447TMC3    O1 6721   1.661   3.784  11.011 -0.0414 -0.7969 -0.6318
  447TMC3    O2 6722   1.132   3.957  10.798  0.3179  0.1842 -0.0072
  448TMC3    C1 6723   4.026   3.728  16.922  0.6190  0.1102  0.5202
  448TMC3    C2 6724   3.959   3.615  16.897 -0.1050  0.6223 -0.1535
  448TMC3    C3 6725   3.970   3.521  16.991  0.1949  0.4006  0.7819
  448TMC3    C4 6726   4.103   3.755  17.035  0.8416  0.2424  0.3727
  448TMC3    C5 6727   4.109   3.653  17.126 -0.3202  0.1619  0.2584
  448TMC3    C6 6728   4.037   3.537  17.108 -0.2214  0.1785 -0.0971
  448TMC3     C 6729   3.998   3.848  16.848 -0.6795 -0.3048  0.6319
  448TMC3     O 6730   3.892   3.837  16.787  0.2741  0.0888 -0.1885
  448TMC3     H 6731   3.905   3.606  16.804  1.9187 -2.7729 -0.9756
  448TMC3    H1 6732   4.144   3.853  17.054 -1.6929  1.3890 -0.0141
  448TMC3    H2 6733   4.049   3.448  17.168  0.5774  0.6078  0.3742
  448TMC3    C7 6734   4.205   3.656  17.230 -0.2218 -0.2847 -0.2757
  448TMC3    C8 6735   3.943   3.376  16.956 -0.1105  0.0212  0.2237
  448TMC3    O1 6736   4.308   3.723  17.226 -0.3488 -0.4676 -0.0979
  448TMC3    O2 6737   3.952   3.290  17.048 -0.1986 -0.4153  0.4781
  449MPD2     C 6738   1.057   2.224  14.207  0.0553 -0.1205 -0.1362
  449MPD2    C1 6739   0.932   2.251  14.157  0.4530  0.7694  0.7288
  449MPD2    C2 6740   0.849   2.142  14.125  0.2232 -0.8752 -0.2182
  449MPD2    C3 6741   0.881   2.010  14.149 -0.2958 -0.0498 -0.7187
  449MPD2    C4 6742   1.005   1.983  14.203  0.2220  0.4860  0.4400
  449MPD2    C5 6743   1.092   2.088  14.217  0.2823  0.5259  0.2985
  449MPD2     H 6744   0.754   2.173  14.084 -0.1302 -2.5466 -0.6857
  449MPD2    H1 6745   1.035   1.881  14.226 -0.3164 -0.2196 -2.0071
  449MPD2    H2 6746   1.126   2.300  14.242  2.2961 -1.6069 -1.3049
  449MPD2    H3 6747   1.188   2.071  14.264 -0.0701 -1.2218  0.3793
  449MPD2     N 6748   0.780   1.916  14.123  0.5201 -0.1080 -0.0919
  449MPD2    H5 6749   0.687   1.951  14.102 -0.2692 -1.2742  1.4119
  449MPD2    N1 6750   0.882   2.376  14.135  0.0995  0.4377 -1.1528
  449MPD2    H7 6751   0.786   2.379  14.101 -0.2428  1.1956 -0.1459
  450TMC3    C1 6752   0.862   2.601  14.080  0.2386 -0.2290  0.3975
  450TMC3    C2 6753   0.921   2.658  13.970 -0.8554 -0.1603 -0.1201
  450TMC3    C3 6754   0.836   2.695  13.868  1.0260 -1.0123  0.2744
  450TMC3    C4 6755   0.726   2.590  14.085  0.5712  0.1833  0.1616
  450TMC3    C5 6756   0.645   2.614  13.976 -0.0015 -0.9449 -0.0854
  450TMC3    C6 6757   0.702   2.666  13.867  0.2160  0.3188 -0.8463
  450TMC3     C 6758   0.950   2.494  14.134 -0.5902 -0.5303  0.5701
  450TMC3     O 6759   1.072   2.508  14.140  0.1418  0.0412  0.2132
  450TMC3     H 6760   1.026   2.682  13.965 -1.0688  0.4478 -1.5071
  450TMC3    H1 6761   0.683   2.543  14.173 -0.2668 -0.8736 -0.8234
  450TMC3    H2 6762   0.640   2.690  13.781 -0.4353  0.1535 -0.4288
  450TMC3    C7 6763   0.568   2.493  13.953  0.3551  0.0260  0.8625
  450TMC3    C8 6764   0.881   2.783  13.762  1.0906  0.1825  0.1766
  450TMC3    O1 6765   0.618   2.395  14.011  0.4795 -0.4226  0.4361
  450TMC3    O2 6766   0.791   2.847  13.712 -0.7113 -0.7185 -0.3805
  451MPD2     C 6767   2.637   2.397   1.624 -0.2129  0.1813 -0.8653
  451MPD2    C1 6768   2.620   2.304   1.525  0.5691 -0.1837 -0.1367
  451MPD2    C2 6769   2.702   2.190   1.517 -0.0467  0.1650  0.8372
  451MPD2    C3 6770   2.806   2.171   1.610 -0.2656 -0.0610 -0.1971
  451MPD2    C4 6771   2.828   2.274   1.702 -0.7653  0.0064  0.2094
  451MPD2    C5 6772   2.742   2.385   1.712  0.4337  0.6561 -0.8232
  451MPD2     H 6773   2.694   2.118   1.437 -1.4679 -1.8483  2.7681
  451MPD2    H1 6774   2.913   2.288   1.767  1.2503  0.5622 -2.5101
  451MPD2    H2 6775   2.571   2.483   1.628  0.5736  0.8622 -2.4225
  451MPD2    H3 6776   2.772   2.468   1.776  1.6821  1.6478 -2.7003
  451MPD2     N 6777   2.892   2.060   1.606  0.1454  0.7579  0.4682
  451MPD2    H5 6778   2.968   2.051   1.673  0.8907 -3.3468 -0.9284
  451MPD2    N1 6779   2.512   2.325   1.441 -0.0465 -0.0919  0.3622
  451MPD2    H7 6780   2.458   2.409   1.456 -0.1859 -0.0187 -0.5755
  452TMC3    C1 6781   2.946   1.847   1.588  0.4049 -0.2661 -0.7227
  452TMC3    C2 6782   2.925   1.817   1.721 -0.4554 -0.3482  0.5652
  452TMC3    C3 6783   2.947   1.689   1.759  0.5162  0.2068  0.4873
  452TMC3    C4 6784   2.981   1.749   1.500  0.6675  0.0790  0.4976
  452TMC3    C5 6785   2.994   1.624   1.545  0.4915  0.0784 -0.0748
  452TMC3    C6 6786   2.966   1.587   1.671 -0.4358 -0.4921  0.4413
  452TMC3     C 6787   2.878   1.953   1.528 -0.2643 -0.3998 -0.9998
  452TMC3     O 6788   2.836   1.938   1.411  0.2187 -0.2578 -0.3121
  452TMC3     H 6789   2.876   1.883   1.791  0.8523  0.6657  0.5391
  452TMC3    H1 6790   3.009   1.769   1.398 -1.8816  0.5372 -0.0996
  452TMC3    H2 6791   2.970   1.483   1.703 -0.3663 -0.5044  0.3925
  452TMC3    C7 6792   2.984   1.523   1.440  0.0145 -0.6127 -0.4339
  452TMC3    C8 6793   3.006   1.671   1.892 -0.1392  0.1346 -0.5111
  452TMC3    O1 6794   2.959   1.554   1.323  0.7629  0.3855 -0.4641
  452TMC3    O2 6795   3.022   1.555   1.928 -0.2378 -0.0676 -0.1542
  453TMC3    C1 6796   3.029   2.927  12.001  0.1144  0.2018  0.3065
  453TMC3    C2 6797   2.927   2.839  12.017 -0.0597  0.0193  0.5317
  453TMC3    C3 6798   2.861   2.803  11.911 -0.6957  0.2853  0.0859
  453TMC3    C4 6799   3.075   2.961  11.877 -0.5339  0.8409  0.0655
  453TMC3    C5 6800   3.007   2.916  11.768  0.2412  0.5310 -0.0410
  453TMC3    C6 6801   2.887   2.846  11.784 -0.5031 -0.6391  0.2409
  453TMC3     C 6802   3.091   2.975  12.122  0.2856 -0.0141  0.4778
  453TMC3     O 6803   3.013   2.999  12.215 -0.5237 -0.0308  0.2699
  453TMC3     H 6804   2.887   2.808  12.113 -3.7156 -0.4180 -1.1489
  453TMC3    H1 6805   3.160   3.028  11.867  0.8936 -0.8356  1.0601
  453TMC3    H2 6806   2.837   2.806  11.697  0.5621 -2.1019  0.3169
  453TMC3    C7 6807   3.070   2.916  11.642 -0.0422  0.0903 -0.5866
  453TMC3    C8 6808   2.814   2.665  11.914  1.0725  0.6526 -0.4984
  453TMC3    O1 6809   3.006   2.930  11.543 -0.6780 -0.1175  0.2640
  453TMC3    O2 6810   2.734   2.633  11.828  0.5798 -0.9562 -0.0914
  454MPD2     C 6811   2.621   1.698  16.254 -0.0217  0.9267  0.1134
  454MPD2    C1 6812   2.575   1.818  16.292  0.2493  0.2741  0.0793
  454MPD2    C2 6813   2.550   1.848  16.420  0.1684 -0.3152  0.1993
  454MPD2    C3 6814   2.571   1.760  16.525  0.2019  0.2084  0.6714
  454MPD2    C4 6815   2.624   1.637  16.492  0.1240 -0.2149  0.2671
  454MPD2    C5 6816   2.644   1.613  16.361  0.1844  0.0301 -0.3593
  454MPD2     H 6817   2.526   1.952  16.437 -2.1027 -0.9405  0.7718
  454MPD2    H1 6818   2.655   1.566  16.567 -1.8963 -1.5631 -0.1920
  454MPD2    H2 6819   2.662   1.669  16.157 -2.2192 -0.9146 -0.2661
  454MPD2    H3 6820   2.697   1.520  16.340 -1.5938 -1.1467  0.3647
  454MPD2     N 6821   2.562   1.801  16.665 -0.3624 -0.4986  0.0842
  454MPD2    H5 6822   2.630   1.752  16.723 -0.8542 -1.5542 -0.2285
  454MPD2    N1 6823   2.547   1.927  16.204 -0.1693  1.1090  0.3675
  454MPD2    H7 6824   2.532   2.018  16.244  0.2254  1.0582  0.6310
  455TMC3    C1 6825   2.349   1.935  16.635 -0.0677 -0.2287 -0.2058
  455TMC3    C2 6826   2.310   2.063  16.658  0.1179 -0.2281  0.1280
  455TMC3    C3 6827   2.199   2.108  16.602 -0.1337 -0.2421  0.2749
  455TMC3    C4 6828   2.274   1.850  16.567 -0.3333 -0.1224  0.1803
  455TMC3    C5 6829   2.153   1.892  16.520  0.1590 -0.2032  0.4017
  455TMC3    C6 6830   2.118   2.023  16.532 -0.5143 -0.1239 -0.2539
  455TMC3     C 6831   2.471   1.887  16.713  0.0672  0.2736 -0.2482
  455TMC3     O 6832   2.484   1.938  16.822  0.2427  0.2707 -0.3972
  455TMC3     H 6833   2.356   2.122  16.737  0.4130 -1.6456  1.0176
  455TMC3    H1 6834   2.299   1.744  16.569 -0.9085 -0.2620 -0.1371
  455TMC3    H2 6835   2.018   2.052  16.503 -1.2632 -3.4388 -1.0628
  455TMC3    C7 6836   2.103   1.832  16.403  0.4911  0.3192  0.2970
  455TMC3    C8 6837   2.148   2.220  16.677  0.2443 -0.9052  0.2488
  455TMC3    O1 6838   2.012   1.889  16.344  0.0865 -0.1727  0.5737
  455TMC3    O2 6839   2.228   2.287  16.739 -0.3298  0.6851  0.2671
  456MPD2     C 6840   0.072   2.403  16.365  0.7666 -0.4147  0.3346
  456MPD2    C1 6841   0.118   2.377  16.496  0.9338  0.2461  0.2414
  456MPD2    C2 6842   0.065   2.449  16.599 -0.0570 -0.2927 -0.8847
  456MPD2    C3 6843   4.706   2.549  16.582 -0.4003  0.1033  0.0243
  456MPD2    C4 6844   4.668   2.580  16.454  0.2724 -0.0221  0.6601
  456MPD2    C5 6845   4.715   2.501  16.349  0.1029  0.0231  0.7676
  456MPD2     H 6846   0.090   2.423  16.702  0.4496 -2.1459 -1.4758
  456MPD2    H1 6847   4.589   2.649  16.426  1.3855  0.9549 -0.0354
  456MPD2    H2 6848   0.108   2.349  16.278  1.7039 -1.0823  1.1467
  456MPD2    H3 6849   4.670   2.526  16.253 -0.1670 -1.3503  0.5311
  456MPD2     N 6850   4.642   2.607  16.691 -0.3705  0.7550  0.2997
  456MPD2    H5 6851   4.675   2.588  16.784  2.1158  2.6670 -0.2012
  456MPD2    N1 6852   0.198   2.267  16.510 -0.2570 -0.1431 -0.4595
  456MPD2    H7 6853   0.203   2.209  16.426 -0.7837  1.4248 -1.5738
  457TMC3    C1 6854   4.471   2.721  16.820 -0.0249 -0.0429 -0.1987
  457TMC3    C2 6855   4.341   2.756  16.817  0.5056 -0.4109  0.7017
  457TMC3    C3 6856   4.293   2.818  16.929 -0.5903  0.0893 -0.1367
  457TMC3    C4 6857   4.555   2.737  16.930 -0.1292  0.2590 -0.5431
  457TMC3    C5 6858   4.498   2.799  17.034 -0.0273 -0.2450  0.7217
  457TMC3    C6 6859   4.369   2.836  17.041  0.1265 -0.0741  0.1401
  457TMC3     C 6860   4.534   2.689  16.687  0.6357 -1.0499  0.0071
  457TMC3     O 6861   4.467   2.725  16.589  0.1446  0.0832 -0.1445
  457TMC3     H 6862   4.281   2.728  16.731 -0.5145  1.5656  0.7706
  457TMC3    H1 6863   4.660   2.714  16.917 -0.3676 -0.4274 -1.2939
  457TMC3    H2 6864   4.330   2.907  17.113 -1.5787 -1.3211  0.4496
  457TMC3    C7 6865   4.576   2.796  17.164 -0.7370  0.4780 -0.3608
  457TMC3    C8 6866   4.174   2.901  16.918  0.2320 -0.6073  0.7144
  457TMC3    O1 6867   4.672   2.724  17.170  0.7813 -1.0424  0.6086
  457TMC3    O2 6868   4.127   2.950  17.021  0.0301  0.3834 -0.2771
  458MPD2     C 6869   1.854   2.158  12.707 -0.5046 -1.4116  0.0553
  458MPD2    C1 6870   1.931   2.098  12.802 -0.4649 -0.5292  0.4826
  458MPD2    C2 6871   1.875   2.086  12.924 -0.0704 -0.7168  0.3161
  458MPD2    C3 6872   1.746   2.130  12.950 -0.3773 -0.8545 -0.4949
  458MPD2    C4 6873   1.677   2.196  12.846 -0.1048 -0.7024 -0.1596
  458MPD2    C5 6874   1.733   2.208  12.728  1.0369  0.1002  0.3232
  458MPD2     H 6875   1.922   2.026  13.001 -1.1474 -1.6723  0.2242
  458MPD2    H1 6876   1.584   2.249  12.859  1.2178  1.9123 -1.4773
  458MPD2    H2 6877   1.899   2.173  12.610 -0.7018 -0.3062  0.1318
  458MPD2    H3 6878   1.675   2.246  12.644 -0.9917  0.8437  2.0627
  458MPD2     N 6879   1.684   2.076  13.064 -0.1930  0.3848 -0.0163
  458MPD2    H5 6880   1.742   2.009  13.114 -1.9450 -1.1966 -0.1254
  458MPD2    N1 6881   2.059   2.045  12.761 -0.1898 -0.1021 -0.1064
  458MPD2    H7 6882   2.086   2.058  12.664 -0.6269 -0.8762 -0.3318
  459TMC3    C1 6883   2.257   1.916  12.791  0.0034  0.2883  0.9959
  459TMC3    C2 6884   2.331   2.009  12.723 -0.3791 -0.4077 -0.4410
  459TMC3    C3 6885   2.457   1.969  12.676  0.3225 -0.4760  0.9787
  459TMC3    C4 6886   2.290   1.787  12.818 -0.0117  0.8936  0.0104
  459TMC3    C5 6887   2.415   1.750  12.770 -0.1674  0.3227 -0.0298
  459TMC3    C6 6888   2.499   1.843  12.709 -0.1530 -0.2758  0.7939
  459TMC3     C 6889   2.136   1.971  12.846 -0.9016  0.5383 -0.2103
  459TMC3     O 6890   2.108   1.922  12.954  0.0347  0.2638  0.0205
  459TMC3     H 6891   2.298   2.112  12.720  2.3482  0.4828 -0.0897
  459TMC3    H1 6892   2.222   1.706  12.844  0.2286  0.4743 -0.6509
  459TMC3    H2 6893   2.602   1.816  12.690 -0.1444  0.3206  0.0172
  459TMC3    C7 6894   2.455   1.614  12.779 -0.2380 -0.8772 -0.2673
  459TMC3    C8 6895   2.538   2.056  12.594 -0.5543 -0.5645 -0.3877
  459TMC3    O1 6896   2.527   1.562  12.692 -0.4320 -0.1384  0.6961
  459TMC3    O2 6897   2.654   2.021  12.573  0.3390 -0.5127  0.1362
  460MPD2     C 6898   1.401   4.305  10.828  0.2711 -0.2580  0.6644
  460MPD2    C1 6899   1.303   4.213  10.796 -0.8656  0.1709 -1.1483
  460MPD2    C2 6900   1.208   4.245  10.704 -0.1969  0.4705  0.1132
  460MPD2    C3 6901   1.207   4.363  10.640  0.3719 -0.0377 -0.7248
  460MPD2    C4 6902   1.307   4.453  10.666  0.0308 -0.6804 -0.5674
  460MPD2    C5 6903   1.404   4.423  10.760 -0.9608  0.0085  0.5969
  460MPD2     H 6904   1.131   4.174  10.677  1.0027 -1.0614  0.6890
  460MPD2    H1 6905   1.299   4.551  10.621 -1.0788 -0.5610 -0.0972
  460MPD2    H2 6906   1.481   4.290  10.901 -0.1401 -1.9738  0.7649
  460MPD2    H3 6907   1.485   4.490  10.786 -1.0266  0.2918  0.0625
  460MPD2     N 6908   1.110   4.385  10.543  0.3575 -0.5928  0.6243
  460MPD2    H5 6909   1.044   4.312  10.519  2.1316 -2.2272  0.7288
  460MPD2    N1 6910   1.318   4.089  10.869 -0.4199  0.5184 -0.0758
  460MPD2    H7 6911   1.375   4.088  10.953  0.3384  1.2876 -0.5739
  461TMC3    C1 6912   0.986   4.505  10.381  0.4549 -0.5720  0.1510
  461TMC3    C2 6913   0.954   4.381  10.322  0.7578  0.0151 -0.6740
  461TMC3    C3 6914   0.847   4.378  10.237  0.8602 -0.4076 -0.4032
  461TMC3    C4 6915   0.919   4.621  10.357 -0.2160  0.1538  0.3743
  461TMC3    C5 6916   0.831   4.613  10.250 -0.1398 -0.0553  0.0555
  461TMC3    C6 6917   0.783   4.490  10.202 -0.4600 -0.2488 -0.7920
  461TMC3     C 6918   1.098   4.508  10.471 -0.4384  0.6206  0.2611
  461TMC3     O 6919   1.151   4.622  10.477 -0.4333 -0.0558 -0.0935
  461TMC3     H 6920   0.990   4.285  10.355 -1.1323 -0.5832 -0.3682
  461TMC3    H1 6921   0.960   4.707  10.408 -0.8175  0.6142  0.0730
  461TMC3    H2 6922   0.714   4.487  10.119 -2.2228 -1.3388  0.6915
  461TMC3    C7 6923   0.752   4.728  10.216 -0.8899  0.2275 -0.6159
  461TMC3    C8 6924   0.827   4.260  10.143 -0.4963 -0.0530 -0.1264
  461TMC3    O1 6925   0.653   4.701  10.151  0.3478  0.2690  0.7290
  461TMC3    O2 6926   0.927   4.185  10.131  0.0650 -0.0963 -0.1873
  462TMC3    C1 6927   1.526   0.574  17.553 -0.2515 -0.1962  0.0379
  462TMC3    C2 6928   1.581   0.563  17.428 -0.2114 -0.0395  0.2916
  462TMC3    C3 6929   1.540   0.447  17.367 -0.3124  0.1823  0.2436
  462TMC3    C4 6930   1.418   0.497  17.597  0.0386 -0.9067  0.0034
  462TMC3    C5 6931   1.381   0.389  17.524 -0.2796  0.3808  0.5217
  462TMC3    C6 6932   1.440   0.366  17.401  0.4334 -0.1770 -0.0447
  462TMC3     C 6933   1.581   0.674  17.650 -0.7270 -0.2628 -0.0161
  462TMC3     O 6934   1.695   0.710  17.625 -0.1113 -0.5884 -0.0499
  462TMC3     H 6935   1.663   0.627  17.395 -0.8932 -0.0829 -1.4788
  462TMC3    H1 6936   1.418   0.480  17.704 -2.8351 -0.5746  0.0458
  462TMC3    H2 6937   1.437   0.262  17.371  3.7300 -0.2271 -0.1808
  462TMC3    C7 6938   1.293   0.287  17.579  0.8898  0.0040  0.4815
  462TMC3    C8 6939   1.617   0.395  17.255  0.2706 -0.8535 -0.1795
  462TMC3    O1 6940   1.278   0.171  17.530 -0.0887 -0.3368  0.0393
  462TMC3    O2 6941   1.547   0.335  17.171 -0.1470 -0.3778 -0.3449
  463MPD2     C 6942   3.051   3.827   1.372  0.1383  0.6069  0.0370
  463MPD2    C1 6943   2.941   3.911   1.357 -0.0261  0.4836 -0.6711
  463MPD2    C2 6944   2.966   4.044   1.358 -0.0948  0.1658  0.8478
  463MPD2    C3 6945   3.093   4.097   1.371  0.6729  0.5111  0.0496
  463MPD2    C4 6946   3.199   4.010   1.393 -0.1839 -0.2019  0.0778
  463MPD2    C5 6947   3.179   3.872   1.392  0.4256  0.1823 -0.2312
  463MPD2     H 6948   2.873   4.100   1.355 -0.2388 -0.1921 -1.5365
  463MPD2    H1 6949   3.300   4.041   1.417  0.0194  1.6900 -3.2533
  463MPD2    H2 6950   3.043   3.721   1.390 -1.0081  0.4486 -1.3878
  463MPD2    H3 6951   3.255   3.795   1.395  0.7177  0.5363  1.3783
  463MPD2     N 6952   3.108   4.234   1.363 -1.0849  0.2871  0.3484
  463MPD2    H5 6953   3.201   4.267   1.389 -0.3420 -1.2727 -0.3354
  463MPD2    N1 6954   2.805   3.868   1.337 -0.9380 -0.2809 -0.3622
  463MPD2    H7 6955   2.734   3.939   1.329  1.0903  1.8178  0.0817
  464TMC3    C1 6956   2.617   3.725   1.319  0.2148  0.0795 -0.2659
  464TMC3    C2 6957   2.547   3.810   1.401  0.5492 -0.0559 -1.3279
  464TMC3    C3 6958   2.415   3.790   1.415  0.0798  0.1680 -0.5072
  464TMC3    C4 6959   2.555   3.616   1.266 -1.0249  0.6282 -0.1024
  464TMC3    C5 6960   2.422   3.601   1.278  0.4856 -0.4065 -0.8322
  464TMC3    C6 6961   2.352   3.679   1.365  0.3394 -0.1255  1.0891
  464TMC3     C 6962   2.766   3.740   1.317  0.0725  0.6803  0.4120
  464TMC3     O 6963   2.828   3.643   1.279  0.3301 -0.3054 -0.3490
  464TMC3     H 6964   2.597   3.884   1.463 -4.2871 -0.1087  2.6528
  464TMC3    H1 6965   2.605   3.554   1.192 -0.6292  1.0579 -0.1981
  464TMC3    H2 6966   2.246   3.661   1.385  0.2146  2.0623  2.4271
  464TMC3    C7 6967   2.365   3.484   1.220  0.2690 -0.5756  0.0597
  464TMC3    C8 6968   2.341   3.880   1.503  0.1680 -0.4032  0.3016
  464TMC3    O1 6969   2.443   3.397   1.183 -0.0338 -0.3168 -0.1263
  464TMC3    O2 6970   2.409   3.929   1.594  0.0493 -0.2501  0.3593
  465MPD2     C 6971   3.695   2.763  16.939  0.1973 -0.4774 -0.0669
  465MPD2    C1 6972   3.604   2.658  16.935  0.0559  1.0018 -0.0936
  465MPD2    C2 6973   3.552   2.629  16.814  1.4812  0.0970  0.2479
  465MPD2    C3 6974   3.577   2.706  16.700 -0.6558 -0.4499 -0.1329
  465MPD2    C4 6975   3.665   2.810  16.708 -1.1831  0.2795 -0.3799
  465MPD2    C5 6976   3.730   2.838  16.827  0.4758  0.6610  0.3567
  465MPD2     H 6977   3.470   2.558  16.820 -0.5866  2.4695  0.3243
  465MPD2    H1 6978   3.686   2.871  16.621 -0.8958 -0.3201 -0.7342
  465MPD2    H2 6979   3.749   2.797  17.026 -0.8685 -1.2724  0.9077
  465MPD2    H3 6980   3.802   2.919  16.836  0.4130  0.6898  0.5912
  465MPD2     N 6981   3.496   2.683  16.589  0.1374 -0.1807 -0.2910
  465MPD2    H5 6982   3.428   2.609  16.596  1.9446 -1.8398 -0.3028
  465MPD2    N1 6983   3.569   2.580  17.038 -0.6946  0.2663 -0.7874
  465MPD2    H7 6984   3.484   2.524  17.029 -0.4043 -0.4718  1.1153
  466TMC3    C1 6985   3.150   2.659  16.438  0.1892  0.3585  0.4713
  466TMC3    C2 6986   3.117   2.769  16.369 -0.8469 -0.5127 -0.6572
  466TMC3    C3 6987   3.210   2.817  16.288 -0.1353  0.0023 -0.5879
  466TMC3    C4 6988   3.280   2.630  16.456  0.7265 -0.7887  1.1373
  466TMC3    C5 6989   3.379   2.698  16.398  0.2497 -0.4139  0.2211
  466TMC3    C6 6990   3.340   2.780  16.291 -0.3600  0.8370  0.1950
  466TMC3     C 6991   3.060   2.627  16.539  0.6966  0.4740  0.3979
  466TMC3     O 6992   2.986   2.715  16.580 -0.4403 -0.4139 -0.4092
  466TMC3     H 6993   3.013   2.801  16.360 -1.0105 -1.4031 -1.8823
  466TMC3    H1 6994   3.309   2.542  16.512  0.4889 -0.5176  1.6944
  466TMC3    H2 6995   3.416   2.821  16.226  2.2694 -3.4076  0.5433
  466TMC3    C7 6996   3.487   2.753  16.477  0.2644 -0.2943  0.8932
  466TMC3    C8 6997   3.192   2.945  16.231 -0.5524  0.2574  0.4850
  466TMC3    O1 6998   3.532   2.862  16.436 -0.1356  0.1961 -0.0506
  466TMC3    O2 6999   3.229   2.963  16.113  0.1203 -0.4711  0.2498
  467TMC3    C1 7000   0.135   0.669  13.649 -0.3984  0.0332 -0.3435
  467TMC3    C2 7001   0.155   0.781  13.573  0.0661  0.1389 -0.0868
  467TMC3    C3 7002   0.047   0.818  13.488  0.7252  0.3256  0.2320
  467TMC3    C4 7003   0.013   0.608  13.663 -0.3693 -0.5979 -0.2686
  467TMC3    C5 7004   4.645   0.648  13.578 -0.1596 -0.2549  0.1754
  467TMC3    C6 7005   4.662   0.751  13.486  0.4651 -0.5077 -0.7397
  467TMC3     C 7006   0.234   0.624  13.745  0.4524 -0.4004 -0.3628
  467TMC3     O 7007   0.220   0.500  13.767  0.1982  0.0149 -0.2642
  467TMC3     H 7008   0.244   0.842  13.575 -0.4945  0.9903 -0.9826
  467TMC3    H1 7009   4.724   0.533  13.737 -1.6736  0.2258  0.1336
  467TMC3    H2 7010   4.585   0.783  13.416 -0.7066 -1.1806  0.2462
  467TMC3    C7 7011   4.522   0.570  13.571  0.7592  0.1819  0.1031
  467TMC3    C8 7012   0.065   0.934  13.413 -0.1413 -0.4572 -0.1834
  467TMC3    O1 7013   4.536   0.471  13.641 -0.1916 -0.0957  0.3620
  467TMC3    O2 7014   4.697   0.990  13.376  0.4532  0.0828  0.1056
  468MPD2     C 7015   2.617   3.854  10.387 -0.4386 -0.4136 -0.3990
  468MPD2    C1 7016   2.710   3.824  10.479  0.2994  0.3083  1.0567
  468MPD2    C2 7017   2.768   3.702  10.484  0.5614  0.2564 -0.1704
  468MPD2    C3 7018   2.733   3.614  10.387  0.3169 -0.2342 -0.3063
  468MPD2    C4 7019   2.634   3.635  10.293 -0.3743  0.5224 -0.4656
  468MPD2    C5 7020   2.578   3.759  10.293 -0.0183 -0.0798 -0.6489
  468MPD2     H 7021   2.850   3.672  10.548 -0.6087 -2.8455 -0.1175
  468MPD2    H1 7022   2.604   3.556  10.226  0.3211 -0.8897  0.8706
  468MPD2    H2 7023   2.568   3.950  10.377 -1.8125 -1.0153  0.5718
  468MPD2    H3 7024   2.504   3.793  10.222 -0.3425  0.6561  0.0514
  468MPD2     N 7025   2.788   3.484  10.378  0.0221  0.3177 -0.2251
  468MPD2    H5 7026   2.744   3.415  10.317 -0.3022  0.3831 -0.0623
  468MPD2    N1 7027   2.757   3.926  10.567 -0.4802 -0.0793 -0.5139
  468MPD2    H7 7028   2.841   3.899  10.617 -0.0194  1.4821 -0.4308
  469TMC3    C1 7029   2.765   4.115  10.705  0.1766  0.1524  0.3875
  469TMC3    C2 7030   2.897   4.089  10.739  0.2444 -0.2552 -0.9229
  469TMC3    C3 7031   2.940   4.136  10.859 -0.2354 -0.1283 -0.2852
  469TMC3    C4 7032   2.691   4.192  10.792  0.5450  0.2357 -0.8514
  469TMC3    C5 7033   2.737   4.240  10.912  0.5718  0.4471  0.3771
  469TMC3    C6 7034   2.865   4.213  10.945 -0.2718 -0.2545  0.1487
  469TMC3     C 7035   2.693   4.047  10.594  0.2449 -0.3397  0.3266
  469TMC3     O 7036   2.583   4.092  10.553 -0.0327 -0.5593 -0.0124
  469TMC3     H 7037   2.963   4.024  10.683 -0.2734  0.3987 -2.2785
  469TMC3    H1 7038   2.587   4.207  10.765  0.0776  0.0850  0.9103
  469TMC3    H2 7039   2.904   4.259  11.036 -2.5168  0.3987  0.7755
  469TMC3    C7 7040   2.660   4.341  10.982 -0.8100 -0.2705  0.2017
  469TMC3    C8 7041   3.072   4.102  10.897 -0.2086  0.2681  0.1074
  469TMC3    O1 7042   2.560   4.369  10.915 -0.2093 -0.2107  0.4014
  469TMC3    O2 7043   3.153   4.083  10.804 -0.4616  0.0238  0.1716
  470TMC3    C1 7044   1.054   0.944   1.396  0.6235  0.0846 -0.5279
  470TMC3    C2 7045   1.152   1.033   1.432  0.2531  1.1767 -0.2713
  470TMC3    C3 7046   1.109   1.145   1.507  0.1686  0.0658 -0.1716
  470TMC3    C4 7047   0.924   0.955   1.439 -0.2769 -1.1810  0.5924
  470TMC3    C5 7048   0.891   1.068   1.503  0.1776  0.0059  0.1088
  470TMC3    C6 7049   0.983   1.157   1.550  0.4329  1.0359  0.6568
  470TMC3     C 7050   1.093   0.853   1.289  0.3972  0.3743 -0.3889
  470TMC3     O 7051   1.200   0.875   1.236  0.4653  0.4488 -0.4373
  470TMC3     H 7052   1.254   1.017   1.401 -0.5692 -4.1638 -0.2255
  470TMC3    H1 7053   0.847   0.886   1.407  0.2951 -1.5172 -0.0640
  470TMC3    H2 7054   0.951   1.248   1.598  0.1215  1.7602 -0.9375
  470TMC3    C7 7055   0.754   1.110   1.491 -0.0421  0.2110  0.5731
  470TMC3    C8 7056   1.183   1.266   1.535  0.1072  0.6964  0.1524
  470TMC3    O1 7057   0.698   1.059   1.395 -0.1146  0.2970  0.0808
  470TMC3    O2 7058   1.129   1.362   1.597 -0.0834 -0.1691 -0.0862
  471MPD2     C 7059   0.690   1.128  16.858 -0.0518 -0.6400 -0.8411
  471MPD2    C1 7060   0.794   1.216  16.839  0.8944 -0.1498 -0.4161
  471MPD2    C2 7061   0.857   1.269  16.953  0.4594 -0.0514  0.4329
  471MPD2    C3 7062   0.814   1.231  17.078 -0.6700 -0.7287  0.3446
  471MPD2    C4 7063   0.717   1.137  17.088  1.3187  0.7864 -0.6021
  471MPD2    C5 7064   0.660   1.073  16.978  0.0100  0.3766 -0.2325
  471MPD2     H 7065   0.947   1.329  16.939 -0.3214  1.3022  1.2393
  471MPD2    H1 7066   0.689   1.090  17.181 -0.1491 -0.9803 -1.9347
  471MPD2    H2 7067   0.652   1.077  16.770  1.4123  0.3006 -2.0141
  471MPD2    H3 7068   0.581   1.000  16.987  2.8895 -2.7179  0.0680
  471MPD2     N 7069   0.862   1.284  17.195 -0.2955 -0.4717  0.3105
  471MPD2    H5 7070   0.828   1.248  17.284  0.1292  0.2374  0.7637
  471MPD2    N1 7071   0.842   1.253  16.717  0.3519 -0.0397 -0.4232
  471MPD2    H7 7072   0.917   1.321  16.716  0.8032 -0.5350 -0.5042
  472TMC3    C1 7073   0.861   1.282  16.484 -0.0667  0.0769  0.4510
  472TMC3    C2 7074   0.797   1.262  16.364  0.5821  0.7293  0.0403
  472TMC3    C3 7075   0.865   1.204  16.254 -0.2282  0.0200 -0.0132
  472TMC3    C4 7076   0.995   1.266  16.488 -0.4838 -0.2705  0.2045
  472TMC3    C5 7077   1.066   1.234  16.373 -0.0346 -0.1753 -0.6805
  472TMC3    C6 7078   1.001   1.201  16.260 -0.7658 -0.0547 -0.0803
  472TMC3     C 7079   0.796   1.205  16.589  0.2151  0.0081  0.0317
  472TMC3     O 7080   0.710   1.125  16.554  0.2671 -0.4717 -0.1356
  472TMC3     H 7081   0.689   1.274  16.368  0.6551  1.2221  0.7511
  472TMC3    H1 7082   1.046   1.269  16.583 -1.3619  0.9306  0.6348
  472TMC3    H2 7083   1.064   1.142  16.195 -0.8283  0.3271 -0.4941
  472TMC3    C7 7084   1.184   1.159  16.409 -0.9532  0.1467 -0.3832
  472TMC3    C8 7085   0.799   1.096  16.187  0.1628  0.4679  0.3004
  472TMC3    O1 7086   1.191   1.115  16.521 -0.0993  0.1708 -0.3702
  472TMC3    O2 7087   0.830   1.082  16.074 -0.3916 -0.0514 -0.0773
  473MPD2     C 7088   0.632   3.330  14.206 -0.3759  0.5903 -0.0557
  473MPD2    C1 7089   0.693   3.431  14.127  0.4220  0.0610  0.9002
  473MPD2    C2 7090   0.794   3.501  14.179  0.5849 -0.3133  0.1385
  473MPD2    C3 7091   0.825   3.487  14.318  0.3065  0.1185  0.3619
  473MPD2    C4 7092   0.772   3.384  14.392 -0.4801 -0.1771 -0.2272
  473MPD2    C5 7093   0.670   3.305  14.334  0.4680 -0.1400  0.3609
  473MPD2     H 7094   0.835   3.581  14.119  0.2791 -0.2583  0.0027
  473MPD2    H1 7095   0.802   3.363  14.494  0.2893  0.3206 -0.3580
  473MPD2    H2 7096   0.548   3.273  14.169 -0.4966  0.1255  0.9195
  473MPD2    H3 7097   0.623   3.225  14.391  0.7798 -0.2822  0.4153
  473MPD2     N 7098   0.920   3.570  14.384 -0.2491 -0.0864  0.4357
  473MPD2    H5 7099   0.944   3.548  14.480  0.3860  1.8841  0.7296
  473MPD2    N1 7100   0.660   3.454  13.990  0.3536 -0.1431 -0.2950
  473MPD2    H7 7101   0.686   3.545  13.953 -2.8370  0.8627 -0.0224
  474TMC3    C1 7102   1.023   3.774  14.439 -0.7357 -0.1302  0.0323
  474TMC3    C2 7103   0.971   3.902  14.451  0.6768 -0.0379 -0.3400
  474TMC3    C3 7104   1.043   4.002  14.514 -0.0957  0.6962  0.2873
  474TMC3    C4 7105   1.144   3.739  14.485  0.2197  0.5993  0.4756
  474TMC3    C5 7106   1.217   3.841  14.543  0.5787 -0.5206 -0.5692
  474TMC3    C6 7107   1.171   3.972  14.553  0.5031 -0.3325  0.0606
  474TMC3     C 7108   0.963   3.695  14.338 -1.3544  0.4956  0.2562
  474TMC3     O 7109   0.936   3.757  14.235 -0.0726  0.6515 -0.6118
  474TMC3     H 7110   0.878   3.923  14.399 -1.3787 -1.9873  2.5682
  474TMC3    H1 7111   1.177   3.637  14.469 -0.5874  0.0023  2.7220
  474TMC3    H2 7112   1.226   4.044  14.612  1.5390 -0.2976 -0.9546
  474TMC3    C7 7113   1.340   3.802  14.616  0.3349  0.0244 -0.2909
  474TMC3    C8 7114   1.011   4.129  14.456  0.2820 -0.5888 -0.0448
  474TMC3    O1 7115   1.381   3.687  14.603 -0.3725 -0.1731 -0.0662
  474TMC3    O2 7116   0.895   4.147  14.429 -0.3636  0.2958  0.4981
  475MPD2     C 7117   4.565   1.687  10.689 -0.5427 -0.1724  1.1033
  475MPD2    C1 7118   4.472   1.701  10.585 -0.1577 -0.2346 -0.1458
  475MPD2    C2 7119   4.336   1.666  10.617 -0.1266 -0.0349 -0.2881
  475MPD2    C3 7120   4.291   1.652  10.750  0.1548 -0.4881  0.3429
  475MPD2    C4 7121   4.385   1.660  10.852 -0.0334  0.2303  0.0362
  475MPD2    C5 7122   4.518   1.675  10.818 -0.0825  0.0030  0.5998
  475MPD2     H 7123   4.256   1.664  10.544  0.3273 -2.8394 -0.7339
  475MPD2    H1 7124   4.357   1.659  10.957  2.2638  0.7909  0.6540
  475MPD2    H2 7125   4.669   1.707  10.667 -0.6304 -0.7120  0.2196
  475MPD2    H3 7126   4.589   1.684  10.900  0.9869  1.1631 -0.4475
  475MPD2     N 7127   4.154   1.648  10.778 -0.1248  0.4834  0.3829
  475MPD2    H5 7128   4.089   1.653  10.701 -0.5227 -1.0939  0.6115
  475MPD2    N1 7129   4.529   1.750  10.462 -0.1373 -0.2950  0.8233
  475MPD2    H7 7130   4.610   1.810  10.467 -1.9963  2.3195 -0.2253
  476TMC3    C1 7131   4.521   1.815  10.237  0.3447  0.2721 -0.2212
  476TMC3    C2 7132   4.441   1.847  10.136  0.4961  0.6485 -0.2292
  476TMC3    C3 7133   4.496   1.911  10.029  0.1126  0.2008 -0.4151
  476TMC3    C4 7134   4.657   1.837  10.236 -0.9987  0.4847 -0.3680
  476TMC3    C5 7135   4.704   1.900  10.120  0.2323 -0.8772  0.6665
  476TMC3    C6 7136   4.626   1.939  10.018 -0.2646  0.1513 -0.1734
  476TMC3     C 7137   4.466   1.735  10.343  0.4798  0.3902  0.3693
  476TMC3     O 7138   4.356   1.685  10.320 -0.9862 -0.0748 -0.2463
  476TMC3     H 7139   4.334   1.832  10.146  0.5129  0.8396  0.2445
  476TMC3    H1 7140   4.729   1.793  10.304 -0.2402  1.1887 -0.7187
  476TMC3    H2 7141   4.662   2.006   9.941  0.7056  2.1911  2.0358
  476TMC3    C7 7142   0.083   1.986  10.143 -0.3106 -0.1549 -0.2506
  476TMC3    C8 7143   4.408   1.985   9.935  0.2555  0.6087  0.3702
  476TMC3    O1 7144   0.133   2.033  10.043  0.4615 -0.1975  0.3122
  476TMC3    O2 7145   4.442   2.090   9.884  0.4517  0.2262 -0.1337
  477MPD2     C 7146   1.963   3.226  11.404 -0.3400  0.3001  0.3894
  477MPD2    C1 7147   1.888   3.225  11.521 -0.3516 -0.5282 -1.1517
  477MPD2    C2 7148   1.923   3.139  11.627  0.0428 -0.1580  0.3554
  477MPD2    C3 7149   2.034   3.050  11.607 -0.8000 -0.4870 -0.1153
  477MPD2    C4 7150   2.104   3.054  11.485  0.0308 -0.2957 -0.6172
  477MPD2    C5 7151   2.072   3.146  11.392 -0.4318 -0.8188 -0.0602
  477MPD2     H 7152   1.867   3.125  11.720  0.4576  0.7476  0.7337
  477MPD2    H1 7153   2.186   2.989  11.458  0.1823  0.2832 -1.5615
  477MPD2    H2 7154   1.956   3.301  11.326 -1.7220 -1.1434 -0.8435
  477MPD2    H3 7155   2.129   3.157  11.300 -1.2381 -0.8435 -0.5628
  477MPD2     N 7156   2.047   2.940  11.696 -0.4310  0.0864 -0.2522
  477MPD2    H5 7157   1.989   2.942  11.779 -0.6271 -2.1545 -0.3382
  477MPD2    N1 7158   1.763   3.294  11.517 -0.3060 -0.2061 -0.7025
  477MPD2    H7 7159   1.738   3.337  11.429 -0.7568 -0.0892 -0.5155
  478TMC3    C1 7160   1.559   3.382  11.563  0.6509  0.5965 -0.3506
  478TMC3    C2 7161   1.487   3.466  11.639 -0.1184  0.3468 -0.1194
  478TMC3    C3 7162   1.378   3.526  11.590  0.2425 -1.2924 -0.1957
  478TMC3    C4 7163   1.514   3.355  11.434  0.2466  0.3683 -0.2821
  478TMC3    C5 7164   1.402   3.415  11.384 -0.8709 -0.2655 -0.2179
  478TMC3    C6 7165   1.334   3.504  11.462 -0.2375  0.8116 -0.3358
  478TMC3     C 7166   1.677   3.317  11.622 -0.6355 -0.2924  0.2558
  478TMC3     O 7167   1.696   3.303  11.741  0.0893  0.1793  0.3886
  478TMC3     H 7168   1.519   3.474  11.742  1.4932 -0.4454 -0.5456
  478TMC3    H1 7169   1.556   3.276  11.372  2.0007  0.2879  1.0165
  478TMC3    H2 7170   1.247   3.555  11.424 -0.6037  0.2524 -0.2461
  478TMC3    C7 7171   1.435   3.446  11.248 -0.3776  0.0266 -0.8479
  478TMC3    C8 7172   1.288   3.571  11.697 -0.2982  0.7551 -0.4588
  478TMC3    O1 7173   1.558   3.449  11.230 -0.3652 -0.0390  0.3607
  478TMC3    O2 7174   1.320   3.530  11.809 -0.0983 -0.0407  0.4253
  479MPD2     C 7175   0.736   0.554  15.185  0.3667  0.2473  0.0611
  479MPD2    C1 7176   0.736   0.529  15.322 -0.4022 -0.0441  0.5530
  479MPD2    C2 7177   0.844   0.562  15.404 -0.6909  0.6354 -0.0551
  479MPD2    C3 7178   0.950   0.637  15.340 -0.2831  0.6963  0.4570
  479MPD2    C4 7179   0.941   0.663  15.203  0.0666 -0.3595 -0.6546
  479MPD2    C5 7180   0.839   0.618  15.129 -0.8391  0.8413 -0.1996
  479MPD2     H 7181   0.849   0.539  15.510 -0.5421  0.6557 -0.0567
  479MPD2    H1 7182   1.024   0.706  15.148  0.6703 -0.7102 -0.0109
  479MPD2    H2 7183   0.670   0.498  15.120  0.7427 -2.3211  1.8973
  479MPD2    H3 7184   0.836   0.636  15.022 -0.1197  0.6483 -0.2566
  479MPD2     N 7185   1.068   0.671  15.406 -0.1090 -0.4183  0.0365
  479MPD2    H5 7186   1.147   0.688  15.344 -0.2564 -1.0865 -0.3409
  479MPD2    N1 7187   0.628   0.457  15.372 -0.3900 -0.1815  0.1629
  479MPD2    H7 7188   0.556   0.430  15.305 -0.2036 -1.6762  0.5617
  480TMC3    C1 7189   0.875   0.652  15.824 -0.7001  0.4541  0.0196
  480TMC3    C2 7190   0.772   0.741  15.797  0.3116  0.8361  0.2661
  480TMC3    C3 7191   0.782   0.813  15.682 -0.3179  0.0176  0.8005
  480TMC3    C4 7192   0.975   0.621  15.736  0.1633 -0.6161 -0.5473
  480TMC3    C5 7193   0.976   0.691  15.629 -0.0990  0.2231  0.2117
  480TMC3    C6 7194   0.896   0.795  15.603 -0.3874  0.3734  0.3222
  480TMC3     C 7195   0.849   0.541  15.915  0.8314 -0.4193  0.8065
  480TMC3     O 7196   0.942   0.497  15.978 -0.4157 -0.3231 -0.4581
  480TMC3     H 7197   0.678   0.749  15.850  0.4828  2.3525  0.3310
  480TMC3    H1 7198   1.049   0.546  15.761  0.3001  0.0126  0.9420
  480TMC3    H2 7199   0.917   0.855  15.515 -1.3151 -0.9864 -0.8277
  480TMC3    C7 7200   1.090   0.662  15.542 -0.2029 -0.4583 -0.0686
  480TMC3    C8 7201   0.651   0.838  15.623  0.2388 -0.2696  0.2677
  480TMC3    O1 7202   1.199   0.659  15.598  0.3173 -0.5119 -0.4901
  480TMC3    O2 7203   0.547   0.806  15.680  0.4768 -0.1629  0.4488
  481MPD2     C 7204   2.505   0.122  14.205  0.9378  0.2501  0.4068
  481MPD2    C1 7205   2.408   0.121  14.294 -0.0565  0.5902  0.1046
  481MPD2    C2 7206   2.430   0.074  14.421 -1.0507  0.2286  0.1891
  481MPD2    C3 7207   2.550   0.016  14.455  0.6569  1.0744  0.1376
  481MPD2    C4 7208   2.649   0.014  14.361  0.0067  0.7559  0.3346
  481MPD2    C5 7209   2.628   0.066  14.233  0.3849 -0.1150  0.2928
  481MPD2     H 7210   2.349   0.080  14.492  0.2786  1.7489  1.5800
  481MPD2    H1 7211   2.746   4.703  14.379 -0.1660 -0.5257 -1.9973
  481MPD2    H2 7212   2.492   0.174  14.111  0.6128 -0.4965  0.0392
  481MPD2    H3 7213   2.709   0.066  14.161  0.3284 -1.1630  0.2280
  481MPD2     N 7214   2.580   4.691  14.578 -0.5274 -0.0704 -0.2359
  481MPD2    H5 7215   2.679   4.671  14.590 -0.6755 -0.7481 -0.1018
  481MPD2    N1 7216   2.285   0.184  14.262 -0.3882  0.1050 -0.8033
  481MPD2    H7 7217   2.268   0.217  14.167 -1.8854 -0.1424 -0.6321
  482TMC3    C1 7218   2.044   0.210  14.254  0.2951  0.2976  0.3620
  482TMC3    C2 7219   1.957   0.110  14.213 -0.1126 -0.2809 -0.4414
  482TMC3    C3 7220   1.898   0.118  14.096 -0.6829 -0.2793  0.3123
  482TMC3    C4 7221   2.072   0.314  14.174 -0.6712  0.4419 -0.3581
  482TMC3    C5 7222   2.019   0.310  14.049 -0.6593  0.2886  0.9536
  482TMC3    C6 7223   1.930   0.212  14.010  0.2961  0.2120  0.0101
  482TMC3     C 7224   2.162   0.162  14.329 -0.6015  0.5108 -0.3099
  482TMC3     O 7225   2.135   0.083  14.417  0.4191  0.5006 -0.4717
  482TMC3     H 7226   1.939   0.034  14.289 -1.3158  0.0868 -0.3626
  482TMC3    H1 7227   2.147   0.390  14.196  0.6482 -0.9820  0.0879
  482TMC3    H2 7228   1.879   0.211  13.914  1.4379 -0.9477 -0.5858
  482TMC3    C7 7229   2.027   0.432  13.955 -0.3948 -0.1356  0.7801
  482TMC3    C8 7230   1.844   4.724  14.054  0.0330  0.0506 -0.1683
  482TMC3    O1 7231   2.016   0.407  13.836 -0.3174 -0.0158 -0.7621
  482TMC3    O2 7232   1.874   4.632  14.129  0.3765  0.6730  0.0645
  483TMC3    C1 7233   4.614   4.300   0.761  0.3224 -0.8963 -0.4325
  483TMC3    C2 7234   4.647   4.364   0.642  0.4316 -0.8402  0.0187
  483TMC3    C3 7235   0.037   4.418   0.637  0.0662 -0.3618  1.3869
  483TMC3    C4 7236   4.703   4.281   0.860  0.3001 -0.3872  0.6019
  483TMC3    C5 7237   0.091   4.333   0.848 -0.3993 -0.1729  0.4375
  483TMC3    C6 7238   0.121   4.401   0.739 -0.2530 -0.4720  0.4258
  483TMC3     C 7239   4.522   4.197   0.746  0.3573  0.7271 -0.1019
  483TMC3     O 7240   4.523   4.111   0.831  0.3458 -0.8190  0.7876
  483TMC3     H 7241   4.599   4.361   0.545  3.4341 -0.2887 -1.5036
  483TMC3    H1 7242   4.676   4.231   0.953 -2.0068  1.3578  0.8702
  483TMC3    H2 7243   0.228   4.412   0.725 -0.4628  0.4154 -0.4190
  483TMC3    C7 7244   0.204   4.241   0.883 -0.0686 -0.1114  0.0759
  483TMC3    C8 7245   0.109   4.432   0.508  0.5874  0.1344  0.0697
  483TMC3    O1 7246   0.323   4.282   0.877  0.1642  0.1538 -0.3772
  483TMC3    O2 7247   0.228   4.409   0.505 -0.7014 -0.0443 -0.2609
  484MPD2     C 7248   2.424   2.307  12.353 -0.2403 -0.2130 -0.1297
  484MPD2    C1 7249   2.511   2.254  12.449  0.4942  0.0221  0.4474
  484MPD2    C2 7250   2.645   2.285  12.448 -0.2107  0.4290  0.3654
  484MPD2    C3 7251   2.694   2.387  12.367 -0.0098 -0.1517 -0.3580
  484MPD2    C4 7252   2.604   2.435  12.279 -0.1475  0.1827  0.1685
  484MPD2    C5 7253   2.471   2.396  12.267  0.0511  0.2522 -0.6251
  484MPD2     H 7254   2.706   2.236  12.522 -0.9370  1.1175  1.4184
  484MPD2    H1 7255   2.639   2.514  12.214  0.5492  0.3614  0.7649
  484MPD2    H2 7256   2.318   2.283  12.345 -0.9743  1.9637  3.1754
  484MPD2    H3 7257   2.409   2.444  12.192  0.1169 -1.0371 -1.4905
  484MPD2     N 7258   2.827   2.437  12.374  0.1723  0.0395  0.3275
  484MPD2    H5 7259   2.845   2.516  12.314 -0.8086  0.1543  0.1849
  484MPD2    N1 7260   2.462   2.148  12.525 -0.0182  0.2580 -0.2772
  484MPD2    H7 7261   2.361   2.145  12.521  0.0190  1.1228 -1.7726
  485TMC3    C1 7262   3.056   2.464  12.436 -0.2592  0.3658  0.1041
  485TMC3    C2 7263   3.163   2.417  12.509  0.5272 -0.0388 -0.0899
  485TMC3    C3 7264   3.280   2.492  12.506  0.2543 -0.4003  0.4061
  485TMC3    C4 7265   3.060   2.563  12.342 -0.0585 -0.1336  0.1480
  485TMC3    C5 7266   3.184   2.625  12.330  0.7560 -0.1855  0.3028
  485TMC3    C6 7267   3.284   2.602  12.422  0.6702  0.1946 -0.3809
  485TMC3     C 7268   2.933   2.376  12.435 -0.6625 -0.5893  0.2918
  485TMC3     O 7269   2.937   2.267  12.486 -0.5119 -0.0543  0.1789
  485TMC3     H 7270   3.147   2.338  12.583  1.8578  1.3524  1.6910
  485TMC3    H1 7271   2.986   2.582  12.266 -1.3278 -0.2705  1.3418
  485TMC3    H2 7272   3.360   2.679  12.433 -0.8259  1.1416  3.5823
  485TMC3    C7 7273   3.240   2.645  12.200 -0.2246  0.0162  0.1103
  485TMC3    C8 7274   3.405   2.420  12.496  0.1536 -0.7471 -0.1933
  485TMC3    O1 7275   3.159   2.670  12.115  0.2060 -0.3968 -0.3870
  485TMC3    O2 7276   3.488   2.474  12.418 -0.3372  0.6991  0.2478
  486MPD2     C 7277   0.207   0.974  12.776 -0.4464  0.0926 -0.0930
  486MPD2    C1 7278   0.211   0.987  12.643  0.2631  0.8631  0.2478
  486MPD2    C2 7279   0.128   1.074  12.578 -0.8355  0.6694  0.3029
  486MPD2    C3 7280   0.051   1.160  12.653 -0.2945  0.2209 -0.5290
  486MPD2    C4 7281   0.052   1.151  12.787  0.0897  0.6275 -0.5242
  486MPD2    C5 7282   0.128   1.060  12.852  0.3074 -0.5129 -0.8521
  486MPD2     H 7283   0.123   1.073  12.470  2.1127  0.4777  0.1612
  486MPD2    H1 7284   4.731   1.216  12.853  0.0290 -0.6488  0.6878
  486MPD2    H2 7285   0.270   0.909  12.837  0.9381  0.0848 -1.5455
  486MPD2    H3 7286   0.126   1.040  12.959 -1.5753 -1.4141 -1.0480
  486MPD2     N 7287   4.705   1.261  12.592  0.3062 -0.5061  0.4692
  486MPD2    H5 7288   4.710   1.261  12.491  2.5909  1.3260  0.5662
  486MPD2    N1 7289   0.299   0.894  12.570 -0.1524 -0.1134  0.3939
  486MPD2    H7 7290   0.363   0.835  12.622  1.5398  0.0586 -1.4875
  487TMC3    C1 7291   0.393   0.766  12.406 -0.3489 -0.1379  0.2429
  487TMC3    C2 7292   0.343   0.674  12.330  0.3665  0.7605  0.1521
  487TMC3    C3 7293   0.409   0.559  12.331  0.7831 -0.4158 -0.0712
  487TMC3    C4 7294   0.493   0.746  12.496 -0.4228 -0.2837  0.1367
  487TMC3    C5 7295   0.555   0.625  12.485  0.2380 -0.1100 -0.4631
  487TMC3    C6 7296   0.523   0.528  12.402 -0.1407 -0.4868  0.6816
  487TMC3     C 7297   0.305   0.876  12.434 -0.3133  0.3645  0.5179
  487TMC3     O 7298   0.235   0.925  12.342 -0.1264  0.1545  0.4246
  487TMC3     H 7299   0.268   0.700  12.256 -0.1320  1.5659  0.9303
  487TMC3    H1 7300   0.539   0.827  12.553  0.2332 -0.5695  0.0024
  487TMC3    H2 7301   0.586   0.444  12.377  0.3161  0.7002 -2.1274
  487TMC3    C7 7302   0.576   0.577  12.618  0.2730  0.3306 -0.0405
  487TMC3    C8 7303   0.341   0.430  12.309  0.6461  0.2460  0.8125
  487TMC3    O1 7304   0.600   0.662  12.705  0.3826 -0.3708  1.0449
  487TMC3    O2 7305   0.410   0.350  12.245  0.0492  0.0891  0.1876
  488MPD2     C 7306   0.471   2.746  16.178  0.1918 -0.3948 -0.6366
  488MPD2    C1 7307   0.481   2.875  16.237 -0.0140 -0.6074  0.6575
  488MPD2    C2 7308   0.407   2.902  16.353  0.5507  0.6124 -0.4781
  488MPD2    C3 7309   0.349   2.801  16.420 -0.2301  0.4921 -0.0936
  488MPD2    C4 7310   0.350   2.672  16.369  0.9197  0.0768  0.1055
  488MPD2    C5 7311   0.414   2.644  16.249  0.2035  0.2113  0.5026
  488MPD2     H 7312   0.416   2.997  16.405  2.0044  2.0443 -3.3323
  488MPD2    H1 7313   0.308   2.585  16.419 -1.4043  1.9760  1.4781
  488MPD2    H2 7314   0.518   2.720  16.083 -0.1033 -3.2630 -0.0175
  488MPD2    H3 7315   0.425   2.544  16.211 -0.0539  0.8419 -1.2310
  488MPD2     N 7316   0.284   2.833  16.543  0.4321  0.3876 -0.2129
  488MPD2    H5 7317   0.276   2.931  16.568 -1.5894  0.2339 -0.2616
  488MPD2    N1 7318   0.557   2.983  16.177  0.2643  0.2231  0.6409
  488MPD2    H7 7319   0.544   3.073  16.222 -1.1523 -1.2529  3.2128
  489TMC3    C1 7320   0.238   2.813  16.769 -0.4384  0.4982 -0.2019
  489TMC3    C2 7321   0.329   2.793  16.875  0.5437 -0.2485 -1.1966
  489TMC3    C3 7322   0.310   2.871  16.987  0.0661 -0.5164 -0.7501
  489TMC3    C4 7323   0.146   2.914  16.761 -0.0875  0.5802  0.4608
  489TMC3    C5 7324   0.136   2.993  16.878 -0.1943  0.4797  0.2232
  489TMC3    C6 7325   0.218   2.970  16.990 -0.2298  0.6354  0.1738
  489TMC3     C 7326   0.274   2.747  16.650 -0.0110 -0.1274 -0.9178
  489TMC3     O 7327   0.310   2.635  16.663  0.9633 -0.5782 -0.1821
  489TMC3     H 7328   0.403   2.715  16.872  0.2068 -0.7562  2.7017
  489TMC3    H1 7329   0.077   2.907  16.677  0.3541 -0.0214  0.1423
  489TMC3    H2 7330   0.200   3.028  17.080 -2.4353 -0.9349  0.7544
  489TMC3    C7 7331   0.008   3.057  16.901 -0.1015 -0.0677 -0.1442
  489TMC3    C8 7332   0.438   2.915  17.047 -0.0171 -0.1529 -0.3166
  489TMC3    O1 7333   4.656   3.015  16.830  0.5828 -0.4497 -0.1904
  489TMC3    O2 7334   0.446   3.030  17.087 -0.3237  0.3560  0.3251
  490MPD2     C 7335   1.175   2.657   0.206  0.1179  0.6708  0.2549
  490MPD2    C1 7336   1.206   2.527   0.193 -0.7115 -0.1084 -0.5326
  490MPD2    C2 7337   1.322   2.472   0.249  0.4789  0.5287 -0.0069
  490MPD2    C3 7338   1.414   2.562   0.302 -0.8244  0.3656 -0.4232
  490MPD2    C4 7339   1.386   2.697   0.319  0.1442 -0.0603  0.0462
  490MPD2    C5 7340   1.267   2.747   0.264 -0.0167 -0.4700  0.4902
  490MPD2     H 7341   1.333   2.365   0.242 -0.0828  0.3497  2.0090
  490MPD2    H1 7342   1.452   2.767   0.370  0.7696  0.1878 -1.1067
  490MPD2    H2 7343   1.080   2.701   0.175 -0.7533 -0.3261  1.5108
  490MPD2    H3 7344   1.239   2.852   0.259  2.4226  0.1119 -0.9464
  490MPD2     N 7345   1.537   2.517   0.352  0.2223 -0.1343 -1.0857
  490MPD2    H5 7346   1.598   2.587   0.394 -1.6765  1.2815 -0.6769
  490MPD2    N1 7347   1.109   2.437   0.144 -0.5273  0.4064 -0.1036
  490MPD2    H7 7348   1.124   2.337   0.155  2.1178  0.4082 -3.5822
  491TMC3    C1 7349   0.919   2.345   0.043 -0.4121  0.3460 -0.2306
  491TMC3    C2 7350   0.912   2.261   0.153  0.3469 -0.0191  0.0385
  491TMC3    C3 7351   0.887   2.131   0.129  0.4688  0.3548  0.3666
  491TMC3    C4 7352   0.898   2.305  17.655 -0.7268 -0.1317  0.6716
  491TMC3    C5 7353   0.885   2.168  17.638  0.3274 -0.5761  0.3459
  491TMC3    C6 7354   0.865   2.084   0.003  0.1107 -0.1741 -0.5164
  491TMC3     C 7355   0.995   2.463   0.060  0.2396 -0.4696  0.0575
  491TMC3     O 7356   0.981   2.551  17.713  0.2166  0.5193 -0.0649
  491TMC3     H 7357   0.947   2.291   0.251 -0.6186 -0.1228  0.4161
  491TMC3    H1 7358   0.931   2.360  17.568  1.2797 -0.5874  1.1412
  491TMC3    H2 7359   0.848   1.979  17.722 -0.0235 -0.4679  1.1504
  491TMC3    C7 7360   0.844   2.110  17.513 -0.5716  0.4172 -0.1971
  491TMC3    C8 7361   0.916   2.036   0.232  0.4498 -0.5523  0.4690
  491TMC3    O1 7362   0.862   1.988  17.505  0.1382 -0.1988 -0.2931
  491TMC3    O2 7363   0.874   2.049   0.348 -0.2294 -0.2235 -0.2023
  492MPD2     C 7364   1.070   2.496  11.575 -0.0226  0.1918 -0.1215
  492MPD2    C1 7365   1.066   2.359  11.544  0.1463  0.2884  0.1774
  492MPD2    C2 7366   1.036   2.270  11.643 -0.3342 -0.3221 -0.4294
  492MPD2    C3 7367   1.026   2.305  11.777 -0.3845 -1.0841  0.2395
  492MPD2    C4 7368   1.028   2.441  11.806 -0.2162 -0.1973  0.0870
  492MPD2    C5 7369   1.038   2.534  11.705 -0.2851  0.3069 -0.5047
  492MPD2     H 7370   1.033   2.167  11.609  1.6094  0.1176 -1.8725
  492MPD2    H1 7371   1.003   2.469  11.907 -0.5316 -1.5263  0.3731
  492MPD2    H2 7372   1.091   2.577  11.507  0.4403  0.9894  0.9722
  492MPD2    H3 7373   1.020   2.637  11.731  3.8250  0.5367  1.5142
  492MPD2     N 7374   1.004   2.211  11.880  0.1633 -0.6115 -0.1221
  492MPD2    H5 7375   0.993   2.245  11.975  0.5082 -1.0171  0.0624
  492MPD2    N1 7376   1.108   2.327  11.407 -0.3921  0.0835 -0.1646
  492MPD2    H7 7377   1.136   2.406  11.350  1.0791 -0.3222  0.0072
  493TMC3    C1 7378   1.122   2.195  11.203  0.4803  0.1449  0.6610
  493TMC3    C2 7379   1.129   2.304  11.123  0.4539  1.1448 -0.5332
  493TMC3    C3 7380   1.102   2.285  10.988 -0.0821 -0.1578 -0.2273
  493TMC3    C4 7381   1.076   2.079  11.149  0.7166  0.3646  0.3979
  493TMC3    C5 7382   1.045   2.068  11.011 -0.4862  0.4486  0.7781
  493TMC3    C6 7383   1.064   2.168  10.924 -0.6856 -0.0839  0.1493
  493TMC3     C 7384   1.118   2.206  11.350  0.2331  0.1703 -0.4548
  493TMC3     O 7385   1.079   2.100  11.396 -0.3701 -0.6998 -0.0897
  493TMC3     H 7386   1.159   2.404  11.153 -1.9748  1.6489  0.2372
  493TMC3    H1 7387   1.078   1.986  11.204 -1.5477  0.4975  0.7386
  493TMC3    H2 7388   1.042   2.154  10.819 -2.5247  0.9101  0.3947
  493TMC3    C7 7389   0.934   1.981  10.976 -0.0899  0.2046  0.0402
  493TMC3    C8 7390   1.124   2.402  10.904  0.3667  0.5394  0.7519
  493TMC3    O1 7391   0.890   1.982  10.859  0.0236  0.3598  0.1715
  493TMC3    O2 7392   1.188   2.499  10.937 -0.5149 -0.9850  0.1198
  494TMC3    C1 7393   1.815   4.079   0.394  0.0757  0.0106  0.5547
  494TMC3    C2 7394   1.883   3.969   0.430 -0.3994  0.5349  0.2576
  494TMC3    C3 7395   1.935   3.879   0.336  0.5473  0.3370 -0.6237
  494TMC3    C4 7396   1.796   4.103   0.265  0.1965 -0.3074 -0.0397
  494TMC3    C5 7397   1.864   4.030   0.172  0.2193  0.5710 -0.7992
  494TMC3    C6 7398   1.929   3.912   0.205 -0.6158 -0.0990 -0.6030
  494TMC3     C 7399   1.758   4.168   0.503 -0.0263 -0.0045  0.2375
  494TMC3     O 7400   1.816   4.169   0.614  0.4139 -0.3808 -0.1576
  494TMC3     H 7401   1.897   3.950   0.536 -1.8171 -0.7456  0.2259
  494TMC3    H1 7402   1.759   4.201   0.236 -1.1674 -1.3571 -1.8571
  494TMC3    H2 7403   1.968   3.850   0.125 -0.9225 -0.1421 -0.7201
  494TMC3    C7 7404   1.898   4.078   0.038 -0.2222  0.9925 -0.4751
  494TMC3    C8 7405   2.019   3.767   0.378 -0.6493  1.4911  0.1270
  494TMC3    O1 7406   2.002   4.045  17.725  0.1585 -0.5054 -0.2428
  494TMC3    O2 7407   2.100   3.724   0.300  0.2163 -0.2453  0.1254
  495TMC3    C1 7408   0.826   0.800  14.637  0.6742 -0.2966  0.1282
  495TMC3    C2 7409   0.747   0.693  14.598  0.5096  0.0553  0.3251
  495TMC3    C3 7410   0.646   0.655  14.682 -0.7045 -0.0942  0.4285
  495TMC3    C4 7411   0.810   0.859  14.763  0.7443 -0.2355  0.3503
  495TMC3    C5 7412   0.702   0.826  14.836 -0.6022  0.5357 -0.6289
  495TMC3    C6 7413   0.617   0.724  14.795 -0.1567  0.1559 -0.7021
  495TMC3     C 7414   0.940   0.824  14.548  0.1173 -1.0626 -0.5314
  495TMC3     O 7415   0.968   0.733  14.471 -0.2377 -0.0070 -0.6484
  495TMC3     H 7416   0.753   0.651  14.498 -0.8762 -0.5007  0.4798
  495TMC3    H1 7417   0.885   0.928  14.799 -0.6628 -0.2019  3.1988
  495TMC3    H2 7418   0.544   0.685  14.865  0.3700 -1.3440 -0.9868
  495TMC3    C7 7419   0.696   0.879  14.970 -0.0972  0.1225 -0.0381
  495TMC3    C8 7420   0.564   0.541  14.656  0.1331 -0.0436  0.3613
  495TMC3    O1 7421   0.792   0.918  15.031  0.1510  0.4321  0.6168
  495TMC3    O2 7422   0.453   0.540  14.703  0.5289 -0.1194 -0.3014
  496MPD2     C 7423   3.419   1.054  14.640  0.2418 -0.3290  0.4295
  496MPD2    C1 7424   3.404   0.933  14.709 -0.0443  0.1773  0.6710
  496MPD2    C2 7425   3.319   0.934  14.826  0.3745  1.1814 -0.2026
  496MPD2    C3 7426   3.246   1.049  14.865  0.9044  0.6209  0.6641
  496MPD2    C4 7427   3.272   1.168  14.798  0.2957  0.0034  0.2420
  496MPD2    C5 7428   3.348   1.168  14.688 -0.7460  0.1215  0.1745
  496MPD2     H 7429   3.305   0.836  14.871  0.5614  1.4905  0.5213
  496MPD2    H1 7430   3.227   1.261  14.830 -1.7303 -0.9362  0.0732
  496MPD2    H2 7431   3.485   1.065  14.554 -0.2364  1.7482  0.3336
  496MPD2    H3 7432   3.367   1.260  14.634  1.5704 -0.3611  0.1651
  496MPD2     N 7433   3.158   1.051  14.971  0.8430 -0.5043  0.0441
  496MPD2    H5 7434   3.100   1.134  14.981 -0.2623 -1.4952  1.9895
  496MPD2    N1 7435   3.469   0.812  14.666 -0.1649  0.2917  0.0399
  496MPD2    H7 7436   3.501   0.814  14.570 -0.2697 -1.1977 -0.0247
  497TMC3    C1 7437   3.035   0.994  15.160 -0.2312  0.2025 -0.1402
  497TMC3    C2 7438   2.921   1.037  15.099 -0.5850 -0.1230  0.3791
  497TMC3    C3 7439   2.801   1.041  15.170 -0.1384  0.2306 -0.2123
  497TMC3    C4 7440   3.043   0.969  15.292  0.1239  0.0135 -0.1125
  497TMC3    C5 7441   2.922   0.979  15.361 -0.4381 -0.2021 -0.6414
  497TMC3    C6 7442   2.799   1.014  15.302  0.7412  0.8455 -0.3738
  497TMC3     C 7443   3.146   0.959  15.076 -0.2441  0.0936  0.0879
  497TMC3     O 7444   3.216   0.862  15.098 -0.0615  0.0149  0.5547
  497TMC3     H 7445   2.926   1.037  14.990 -0.6865 -0.7647  0.3756
  497TMC3    H1 7446   3.140   0.946  15.335 -0.2164  2.2156  1.8574
  497TMC3    H2 7447   2.704   1.006  15.352  0.3792  0.8575 -1.0631
  497TMC3    C7 7448   2.915   0.922  15.493  0.2697 -0.2614  0.2167
  497TMC3    C8 7449   2.682   1.096  15.109  0.3549 -0.1533  0.3859
  497TMC3    O1 7450   2.808   0.889  15.530  0.3872  0.4541 -0.2349
  497TMC3    O2 7451   2.576   1.091  15.171 -0.4886 -0.6605  0.0488
  498MPD2     C 7452   2.700   1.650   9.722 -0.2456  1.0334  0.1166
  498MPD2    C1 7453   2.731   1.700   9.843 -0.1648 -0.4663 -0.0950
  498MPD2    C2 7454   2.634   1.718   9.941 -0.0381 -0.3827 -0.1669
  498MPD2    C3 7455   2.507   1.667   9.916  0.1743 -0.0210  0.2153
  498MPD2    C4 7456   2.465   1.624   9.786  0.1273 -0.1544  0.1688
  498MPD2    C5 7457   2.566   1.616   9.694 -0.4130  0.5247 -0.7163
  498MPD2     H 7458   2.655   1.760  10.039 -0.7383  0.8771 -0.5642
  498MPD2    H1 7459   2.362   1.594   9.767  0.0039  0.0055  0.6021
  498MPD2    H2 7460   2.771   1.640   9.640  1.5379  1.5142  1.5992
  498MPD2    H3 7461   2.536   1.592   9.592  0.1591  1.3198 -1.0766
  498MPD2     N 7462   2.420   1.660  10.029  0.6109  1.0228 -0.2229
  498MPD2    H5 7463   2.450   1.702  10.116  1.2784  1.1338 -0.5005
  498MPD2    N1 7464   2.859   1.746   9.871  0.3030  0.4548  0.4290
  498MPD2    H7 7465   2.862   1.817   9.943  1.1239 -1.4093  2.2299
  499TMC3    C1 7466   3.096   1.787   9.838 -0.0528 -0.0080  0.0601
  499TMC3    C2 7467   3.211   1.732   9.805  0.4205  0.4312 -0.1086
  499TMC3    C3 7468   3.318   1.816   9.780 -0.7929  0.1955  0.6967
  499TMC3    C4 7469   3.074   1.922   9.860 -0.3140 -0.3605  0.3653
  499TMC3    C5 7470   3.184   2.005   9.827 -0.3569 -0.4065 -0.7031
  499TMC3    C6 7471   3.311   1.955   9.799  0.2094 -0.3063 -0.0441
  499TMC3     C 7472   2.974   1.712   9.800 -0.4112  0.1346 -0.1749
  499TMC3     O 7473   2.985   1.633   9.709  1.0411 -0.2962  0.2145
  499TMC3     H 7474   3.213   1.625   9.793 -0.8607  0.4023 -0.0331
  499TMC3    H1 7475   2.975   1.964   9.872  0.2099  0.8825  0.3103
  499TMC3    H2 7476   3.386   2.031   9.784 -1.6053  1.2640 -1.2929
  499TMC3    C7 7477   3.180   2.143   9.860 -0.3781  0.3900  0.0232
  499TMC3    C8 7478   3.443   1.754   9.757  0.4806  0.0996  0.1478
  499TMC3    O1 7479   3.277   2.209   9.826 -0.4320  0.3958  0.1237
  499TMC3    O2 7480   3.453   1.631   9.772 -0.3521  0.4946 -0.2375
  500MPD2     C 7481   0.150   2.478  10.133  0.5047 -0.3845 -0.5586
  500MPD2    C1 7482   0.049   2.518  10.222 -0.4925  0.6186  0.4238
  500MPD2    C2 7483   4.658   2.471  10.199 -0.1998 -0.3730  0.5570
  500MPD2    C3 7484   4.628   2.384  10.093  0.0749 -0.8476 -0.1964
  500MPD2    C4 7485   4.727   2.346  10.007  0.3795 -0.1668  0.8421
  500MPD2    C5 7486   0.116   2.399  10.021 -0.1158  0.0839 -0.3386
  500MPD2     H 7487   4.576   2.501  10.263  2.1010  2.0418  2.3799
  500MPD2    H1 7488   4.717   2.273   9.928  2.5378  1.7769 -1.2115
  500MPD2    H2 7489   0.254   2.502  10.150  0.6907 -0.6199 -1.3973
  500MPD2    H3 7490   0.203   2.362   9.967 -0.3399  0.6637 -1.0947
  500MPD2     N 7491   4.498   2.341  10.063  0.3242 -0.1461 -0.1268
  500MPD2    H5 7492   4.481   2.303   9.970  2.0999  0.9949 -0.9304
  500MPD2    N1 7493   0.066   2.604  10.330  0.4630  0.0845  0.0634
  500MPD2    H7 7494   4.715   2.634  10.376  1.3093 -0.3655  1.9249
  501TMC3    C1 7495   0.158   2.782  10.432 -0.0903  0.3310  0.1776
  501TMC3    C2 7496   0.080   2.868  10.367 -0.2694  0.6527  0.4797
  501TMC3    C3 7497   0.061   2.994  10.413 -0.2291 -0.7769 -0.2265
  501TMC3    C4 7498   0.235   2.818  10.539  0.4117 -0.5233  0.4477
  501TMC3    C5 7499   0.215   2.947  10.587  0.3772  0.8743  0.5074
  501TMC3    C6 7500   0.121   3.026  10.530 -0.1192  0.2351  0.1079
  501TMC3     C 7501   0.184   2.664  10.360  0.1492  0.0675 -0.3375
  501TMC3     O 7502   0.300   2.647  10.325 -0.4297 -0.3160  0.0713
  501TMC3     H 7503   0.036   2.847  10.270  0.4791 -2.7509  0.8693
  501TMC3    H1 7504   0.307   2.749  10.580 -1.2584 -1.9034  1.0456
  501TMC3    H2 7505   0.078   3.101  10.595  1.0252  1.0570 -0.0832
  501TMC3    C7 7506   0.327   3.004  10.667 -0.6046 -0.2230  0.0034
  501TMC3    C8 7507   0.082   3.086  10.307 -0.2627 -0.1630  0.2070
  501TMC3    O1 7508   0.427   2.940  10.695 -0.1961  0.6075  0.8214
  501TMC3    O2 7509   0.087   3.053  10.191 -0.5796  0.4952  0.2223
  502TMC3    C1 7510   0.358   1.582  15.164  0.4137 -0.2174  0.5744
  502TMC3    C2 7511   0.426   1.683  15.099  0.2300 -0.4564 -0.0571
  502TMC3    C3 7512   0.385   1.700  14.967 -0.3850 -0.5559  0.3111
  502TMC3    C4 7513   0.256   1.514  15.111  0.7601 -0.0078 -0.2375
  502TMC3    C5 7514   0.222   1.533  14.978 -0.2532 -0.0781  0.2854
  502TMC3    C6 7515   0.291   1.619  14.903 -0.1690 -0.1611 -0.3040
  502TMC3     C 7516   0.385   1.562  15.305  0.0968  0.7435 -0.1699
  502TMC3     O 7517   0.289   1.542  15.378 -0.4308 -0.3671 -0.5617
  502TMC3     H 7518   0.492   1.750  15.154 -1.8975  2.2915 -0.8729
  502TMC3    H1 7519   0.204   1.432  15.161  0.0793 -0.4701 -1.7031
  502TMC3    H2 7520   0.275   1.630  14.797 -0.7836 -2.6077 -0.4682
  502TMC3    C7 7521   0.110   1.463  14.917 -0.4187 -0.0689  0.9380
  502TMC3    C8 7522   0.467   1.782  14.881 -0.9268 -0.7217  0.4194
  502TMC3    O1 7523   0.112   1.458  14.793 -0.4889  0.1647  0.0060
  502TMC3    O2 7524   0.419   1.832  14.786 -0.0628 -0.2405  0.3529
  503MPD2     C 7525   2.400   2.846  17.179  0.7087 -0.3615  0.1087
  503MPD2    C1 7526   2.417   2.872  17.314  0.1239  0.7708  0.5552
  503MPD2    C2 7527   2.495   2.790  17.392 -0.0100 -0.7039 -0.2075
  503MPD2    C3 7528   2.553   2.676  17.339  0.3870  0.5279  0.0072
  503MPD2    C4 7529   2.523   2.645  17.206 -0.0247  0.1883  0.2719
  503MPD2    C5 7530   2.461   2.734  17.125 -0.2289 -0.6933  0.1727
  503MPD2     H 7531   2.519   2.828  17.491  2.5773  2.2102 -1.9306
  503MPD2    H1 7532   2.554   2.552  17.160 -0.6119  0.7469 -1.2524
  503MPD2    H2 7533   2.345   2.916  17.117  2.2906  0.1241 -0.7412
  503MPD2    H3 7534   2.445   2.715  17.019 -3.3046 -1.2776  0.7663
  503MPD2     N 7535   2.633   2.596  17.423  0.2186 -0.1725  0.4548
  503MPD2    H5 7536   2.642   2.626  17.520 -1.0969 -3.3547  1.5728
  503MPD2    N1 7537   2.374   2.995  17.366  0.1999 -0.0029  0.1912
  503MPD2    H7 7538   2.381   3.005  17.467  0.7130 -1.0904  0.2579
  504TMC3    C1 7539   2.784   2.420  17.491  0.4711 -1.0182  0.9369
  504TMC3    C2 7540   2.714   2.400  17.603 -0.1204 -0.7729 -0.0540
  504TMC3    C3 7541   2.770   2.327  17.707  0.1099  0.3503  0.4651
  504TMC3    C4 7542   2.903   2.361  17.460 -0.4757 -0.3612  0.4234
  504TMC3    C5 7543   2.954   2.284  17.561 -1.4479 -0.0953  0.1966
  504TMC3    C6 7544   2.888   2.265  17.680  0.2357  0.2855  0.2995
  504TMC3     C 7545   2.726   2.501  17.383 -0.2629  0.6563  0.3424
  504TMC3     O 7546   2.759   2.473  17.268  0.0557  0.8049  0.3315
  504TMC3     H 7547   2.612   2.434  17.621 -0.8126 -1.9955 -1.6824
  504TMC3    H1 7548   2.959   2.385  17.371 -0.2855 -0.1153  0.6086
  504TMC3    H2 7549   2.945   2.222   0.022 -1.6748 -1.0106  0.9301
  504TMC3    C7 7550   3.084   2.214  17.545 -0.0096 -0.2930 -0.6241
  504TMC3    C8 7551   2.683   2.277   0.076  0.3785  0.1735  0.3495
  504TMC3    O1 7552   3.126   2.158  17.646 -0.0772 -0.5152  0.1510
  504TMC3    O2 7553   2.578   2.223   0.044  0.2795 -0.1735 -0.2561
  505MPD2     C 7554   2.543   0.900  11.126 -0.0057 -0.0099  0.1849
  505MPD2    C1 7555   2.625   0.894  11.019 -0.1975 -0.4338  0.5137
  505MPD2    C2 7556   2.722   0.998  11.005 -0.5363  0.2815 -0.3818
  505MPD2    C3 7557   2.727   1.101  11.103 -0.2503  0.2729 -0.6206
  505MPD2    C4 7558   2.647   1.098  11.212 -0.5538 -0.8470  0.3845
  505MPD2    C5 7559   2.560   0.996  11.224 -0.6417  0.7142  0.8213
  505MPD2     H 7560   2.796   1.002  10.926 -0.8916 -0.2404 -0.7381
  505MPD2    H1 7561   2.653   1.171  11.292 -0.5821 -0.8294  0.3705
  505MPD2    H2 7562   2.468   0.826  11.152 -0.1735  0.4523  1.0036
  505MPD2    H3 7563   2.504   0.997  11.317  1.8861 -1.5898  2.3674
  505MPD2     N 7564   2.822   1.201  11.076  0.2952 -0.1121 -0.1469
  505MPD2    H5 7565   2.879   1.186  10.993  0.3868 -0.5707  0.0045
  505MPD2    N1 7566   2.618   0.786  10.925  0.2348 -0.0883  0.1100
  505MPD2    H7 7567   2.537   0.725  10.933 -0.0537  0.3918  0.8212
  506TMC3    C1 7568   2.673   0.672  10.727  0.5644  0.3036  0.0984
  506TMC3    C2 7569   2.539   0.656  10.693  0.3627  0.4226 -0.1545
  506TMC3    C3 7570   2.507   0.641  10.561  0.0128 -0.2546  0.4338
  506TMC3    C4 7571   2.770   0.669  10.632  0.8516  1.3198  0.1576
  506TMC3    C5 7572   2.734   0.667  10.498 -0.1422 -0.3711  0.3401
  506TMC3    C6 7573   2.601   0.651  10.459  0.0804 -0.2272  0.2832
  506TMC3     C 7574   2.710   0.767  10.820 -0.3935 -0.4326  0.1420
  506TMC3     O 7575   2.817   0.820  10.796  0.1985  0.1589  0.2656
  506TMC3     H 7576   2.459   0.692  10.756 -1.4432  2.0540 -3.4099
  506TMC3    H1 7577   2.873   0.644  10.655  0.3663  1.7866  2.8323
  506TMC3    H2 7578   2.571   0.653  10.355  0.2018  0.6664  0.2710
  506TMC3    C7 7579   2.801   0.772  10.415  0.0831 -0.3383  0.4897
  506TMC3    C8 7580   2.377   0.669  10.516  0.3395  0.0370  0.3571
  506TMC3    O1 7581   2.784   0.769  10.293  0.5756  0.2806 -0.0453
  506TMC3    O2 7582   2.308   0.576  10.478  0.1967  0.7208  0.6575
  507TMC3    C1 7583   3.253   1.612  14.359 -0.3061  0.7306  0.1794
  507TMC3    C2 7584   3.307   1.544  14.257 -0.7506 -0.0622 -0.0413
  507TMC3    C3 7585   3.432   1.577  14.209  0.4769  0.9130  0.5604
  507TMC3    C4 7586   3.332   1.705  14.423 -0.5094  0.0733  0.9072
  507TMC3    C5 7587   3.456   1.736  14.373 -0.7326 -0.0650 -0.5384
  507TMC3    C6 7588   3.513   1.669  14.273  0.1050 -0.4739 -0.1260
  507TMC3     C 7589   3.115   1.628  14.382 -0.1240  0.5658  0.1372
  507TMC3     O 7590   3.084   1.673  14.490 -0.5105 -0.3587  0.5971
  507TMC3     H 7591   3.261   1.462  14.204  0.3693  0.3195 -1.6089
  507TMC3    H1 7592   3.280   1.771  14.491 -0.4365 -1.0464  2.0530
  507TMC3    H2 7593   3.613   1.693  14.236 -0.4528  1.5360 -0.3504
  507TMC3    C7 7594   3.466   1.873  14.342 -1.2085  0.7561  0.4065
  507TMC3    C8 7595   3.432   1.581  14.058  0.1728  0.0605  0.2565
  507TMC3    O1 7596   3.519   1.885  14.234  0.2114 -0.3055  0.2944
  507TMC3    O2 7597   3.389   1.489  13.994 -0.1153  0.4336  0.0996
  508MPD2     C 7598   4.500   3.609  15.953 -0.3671 -0.1088 -0.7137
  508MPD2    C1 7599   4.568   3.725  15.983  0.4776 -0.2200 -0.9359
  508MPD2    C2 7600   4.601   3.822  15.887 -0.1588 -0.2208  0.6952
  508MPD2    C3 7601   4.572   3.800  15.765  0.1409 -0.1396 -0.0218
  508MPD2    C4 7602   4.509   3.683  15.725  0.3153 -0.8219  0.2193
  508MPD2    C5 7603   4.474   3.589  15.819 -0.6429  0.9669 -0.3865
  508MPD2     H 7604   4.647   3.916  15.916 -0.4497 -0.3168  1.4569
  508MPD2    H1 7605   4.497   3.659  15.620 -0.2698  0.0395  0.0914
  508MPD2    H2 7606   4.482   3.537  16.032  2.3892 -0.9386 -0.8369
  508MPD2    H3 7607   4.440   3.488  15.798  0.1009  0.2049  2.1553
  508MPD2     N 7608   4.622   3.901  15.677  0.5957 -0.0972  0.0943
  508MPD2    H5 7609   4.655   3.986  15.721 -0.4825  0.1426  0.4482
  508MPD2    N1 7610   4.617   3.744  16.112 -0.7685 -0.5855  0.4946
  508MPD2    H7 7611   4.569   3.697  16.188 -1.3336 -1.5307 -0.4410
  509TMC3    C1 7612   4.548   4.203  15.333  0.1133 -0.2307 -0.8601
  509TMC3    C2 7613   4.610   4.299  15.397  0.0861  0.4814 -0.0640
  509TMC3    C3 7614   4.674   4.267  15.518 -0.4333  0.9374 -0.3444
  509TMC3    C4 7615   4.556   4.074  15.367  0.4013  0.5924 -0.2320
  509TMC3    C5 7616   4.626   4.035  15.481 -0.5959  0.2368 -0.2009
  509TMC3    C6 7617   4.690   4.134  15.561 -0.2441  0.2473  0.0447
  509TMC3     C 7618   4.475   4.239  15.219  0.5815  0.0158 -0.8143
  509TMC3     O 7619   4.470   4.152  15.132  0.2297  0.0819 -0.0007
  509TMC3     H 7620   4.602   4.401  15.361 -1.6654  0.6123  0.6841
  509TMC3    H1 7621   4.503   4.003  15.305  0.6717 -1.7596  2.2247
  509TMC3    H2 7622   0.002   4.107  15.656  1.1236  0.0723 -0.6784
  509TMC3    C7 7623   4.593   3.908  15.540 -0.3224 -0.4271 -0.2095
  509TMC3    C8 7624   0.005   4.365  15.595  0.6247 -0.3473 -0.3947
  509TMC3    O1 7625   4.531   3.833  15.470 -0.2937  0.1163  0.1189
  509TMC3    O2 7626   0.076   4.310  15.680  0.4142 -0.2468  0.0098
  510MPD2     C 7627   2.405   1.298  14.474  0.1473 -0.6356  0.4511
  510MPD2    C1 7628   2.429   1.181  14.542  0.4065  0.0885 -0.3120
  510MPD2    C2 7629   2.544   1.114  14.506  0.2867  0.1372 -0.8288
  510MPD2    C3 7630   2.638   1.160  14.413  0.2919  0.0113  0.5828
  510MPD2    C4 7631   2.613   1.280  14.357 -0.3102  0.0037  0.3909
  510MPD2    C5 7632   2.494   1.341  14.377 -0.0557 -0.6724 -0.0180
  510MPD2     H 7633   2.561   1.020  14.558 -3.0500  0.2017  0.3782
  510MPD2    H1 7634   2.695   1.322  14.300  0.2893 -0.1998  1.0976
  510MPD2    H2 7635   2.316   1.356  14.497  0.1664 -0.6197  0.4847
  510MPD2    H3 7636   2.489   1.443  14.340  0.3839 -0.7437 -0.2724
  510MPD2     N 7637   2.754   1.084  14.392  0.5264  1.2270  0.4961
  510MPD2    H5 7638   2.771   1.003  14.451  2.1193 -0.8928 -2.8630
  510MPD2    N1 7639   2.332   1.131  14.641 -0.4999 -0.0036 -0.1953
  510MPD2    H7 7640   2.270   1.203  14.676 -0.7035 -0.0289 -0.4997
  511TMC3    C1 7641   2.227   0.975  14.785  0.4538 -0.6839  0.7446
  511TMC3    C2 7642   2.140   1.062  14.856  1.1147 -0.0891 -0.3932
  511TMC3    C3 7643   2.038   1.023  14.929  1.0330 -0.4688 -0.3458
  511TMC3    C4 7644   2.202   0.838  14.812 -0.7937 -0.0774 -0.2358
  511TMC3    C5 7645   2.099   0.804  14.902 -0.2103  0.3332  0.0976
  511TMC3    C6 7646   2.012   0.893  14.955  0.3999  0.1572 -0.0271
  511TMC3     C 7647   2.315   1.001  14.679  0.1572  0.3077 -0.2967
  511TMC3     O 7648   2.375   0.904  14.631  0.5352 -0.0138 -0.7034
  511TMC3     H 7649   2.146   1.169  14.836  1.5041  0.0600  0.4929
  511TMC3    H1 7650   2.267   0.764  14.767 -0.1769 -0.2014  0.8750
  511TMC3    H2 7651   1.927   0.857  15.011  1.9134 -1.0127  1.5384
  511TMC3    C7 7652   2.039   0.683  14.845 -0.2859  0.1666  0.5060
  511TMC3    C8 7653   1.963   1.124  14.996  0.2992  0.1073  0.5588
  511TMC3    O1 7654   2.044   0.668  14.724  0.3945  0.0476  0.6659
  511TMC3    O2 7655   2.015   1.230  15.017  0.1374 -0.1744 -0.3046
  512TMC3    C1 7656   0.978   0.835  13.341  0.5460  0.2439 -0.9581
  512TMC3    C2 7657   1.112   0.846  13.370 -0.6448  0.9480 -0.2567
  512TMC3    C3 7658   1.187   0.734  13.384  0.3068  0.5950  0.0413
  512TMC3    C4 7659   0.918   0.713  13.343 -0.3862  0.1204 -0.2808
  512TMC3    C5 7660   0.989   0.597  13.379  1.4267  0.2108 -0.3565
  512TMC3    C6 7661   1.127   0.609  13.388  0.9315  0.2719 -0.4711
  512TMC3     C 7662   0.925   0.942  13.267 -0.1710  0.3077 -0.5342
  512TMC3     O 7663   0.953   1.054  13.308  0.1126 -0.9650  0.5190
  512TMC3     H 7664   1.165   0.938  13.351  2.0648 -0.8787 -1.5000
  512TMC3    H1 7665   0.811   0.716  13.330  0.0160 -1.9902 -3.9353
  512TMC3    H2 7666   1.187   0.521  13.411 -1.7101 -0.4987  3.7293
  512TMC3    C7 7667   0.925   0.475  13.331  0.0922  0.1443 -0.4774
  512TMC3    C8 7668   1.328   0.732  13.408 -0.4226 -0.2938  0.0059
  512TMC3    O1 7669   0.809   0.484  13.291  0.2433  0.4683  0.7872
  512TMC3    O2 7670   1.391   0.627  13.404  0.3217 -0.4045  0.5386
  513MPD2     C 7671   4.050   0.357  13.244  0.3104 -0.2052  0.5078
  513MPD2    C1 7672   3.966   0.260  13.302  0.2502 -0.3783 -0.5785
  513MPD2    C2 7673   4.023   0.151  13.367 -0.8314  0.1906  0.5835
  513MPD2    C3 7674   4.159   0.120  13.351 -0.3558  0.2535 -0.4847
  513MPD2    C4 7675   4.242   0.210  13.284  0.0985  0.2133  0.1752
  513MPD2    C5 7676   4.184   0.335  13.237  0.4191 -0.8751  0.5154
  513MPD2     H 7677   3.959   0.090  13.430 -0.5011 -0.8778 -0.1233
  513MPD2    H1 7678   4.350   0.200  13.274 -0.2938 -3.2896 -0.6743
  513MPD2    H2 7679   4.016   0.455  13.214 -0.1959 -0.4209  0.3818
  513MPD2    H3 7680   4.244   0.410  13.187  0.9788 -0.7763  1.3390
  513MPD2     N 7681   4.204   4.731  13.405  0.3299  0.5595 -0.0457
  513MPD2    H5 7682   4.138   4.684  13.466 -2.4250  1.1907 -2.5248
  513MPD2    N1 7683   3.834   0.284  13.318 -0.4735  0.5937  0.1933
  513MPD2    H7 7684   3.777   0.222  13.374  1.6896 -0.0906  1.6494
  514TMC3    C1 7685   3.623   0.322  13.265  0.2281 -0.1250  0.3641
  514TMC3    C2 7686   3.562   0.271  13.153 -0.6605 -0.2124 -0.0512
  514TMC3    C3 7687   3.472   0.171  13.179  0.2224  0.3616  0.0471
  514TMC3    C4 7688   3.597   0.285  13.393 -0.2590  0.0194  0.1055
  514TMC3    C5 7689   3.522   0.173  13.404 -0.0855 -0.1658 -0.2481
  514TMC3    C6 7690   3.457   0.110  13.301  0.4984  0.4970 -0.1353
  514TMC3     C 7691   3.754   0.366  13.240 -0.9715  0.1655 -0.2174
  514TMC3     O 7692   3.779   0.446  13.151 -0.3619 -0.2244  0.8696
  514TMC3     H 7693   3.586   0.313  13.056  0.4839 -0.5018  0.1074
  514TMC3    H1 7694   3.642   0.346  13.470  1.1144 -1.4565  0.4770
  514TMC3    H2 7695   3.417   0.010  13.310 -2.0164  1.4098 -1.3949
  514TMC3    C7 7696   3.592   0.087  13.495  0.4481  0.5875  0.2704
  514TMC3    C8 7697   3.374   0.120  13.080  0.0718  0.1209  0.8114
  514TMC3    O1 7698   3.710   0.111  13.514  1.1123 -0.2733  0.5928
  514TMC3    O2 7699   3.273   0.079  13.135 -0.1154  0.3425  0.4327
  515MPD2     C 7700   1.430   2.075  14.378  0.7362 -0.7597  0.1180
  515MPD2    C1 7701   1.367   2.120  14.492  0.6806 -0.4759 -0.4872
  515MPD2    C2 7702   1.411   2.234  14.552  0.1053  0.0327 -0.2504
  515MPD2    C3 7703   1.538   2.291  14.509  0.7442  0.7584  0.2908
  515MPD2    C4 7704   1.594   2.242  14.392  0.0827 -0.2157  0.0946
  515MPD2    C5 7705   1.537   2.136  14.329 -0.3341  0.2322 -0.1170
  515MPD2     H 7706   1.352   2.270  14.635  0.0029 -2.7611  0.8610
  515MPD2    H1 7707   1.680   2.294  14.352 -0.0891 -0.4127 -0.5207
  515MPD2    H2 7708   1.378   2.002  14.318 -0.1658 -0.5087  0.5934
  515MPD2    H3 7709   1.589   2.103  14.239  0.6824  0.7518  0.2841
  515MPD2     N 7710   1.601   2.399  14.570  0.0964  0.3119  0.7732
  515MPD2    H5 7711   1.688   2.430  14.528 -1.8859  2.1574 -1.9903
  515MPD2    N1 7712   1.244   2.066  14.529  0.3791 -0.1418 -0.2506
  515MPD2    H7 7713   1.192   2.122  14.596  2.8896  2.4045 -0.4522
  516TMC3    C1 7714   1.060   1.929  14.547 -0.1763 -0.2460 -0.3429
  516TMC3    C2 7715   0.963   2.021  14.515 -0.6420  0.2987  0.6504
  516TMC3    C3 7716   0.833   1.997  14.542 -0.3957  0.1273  0.6399
  516TMC3    C4 7717   1.023   1.808  14.604 -0.8000 -0.1910  0.5919
  516TMC3    C5 7718   0.888   1.785  14.622  0.1563 -0.5910  0.0638
  516TMC3    C6 7719   0.792   1.876  14.599  0.3402  0.6652  0.5990
  516TMC3     C 7720   1.192   1.945  14.502  0.4549 -0.3531 -0.1155
  516TMC3     O 7721   1.259   1.849  14.472  0.0680 -0.0273 -0.0783
  516TMC3     H 7722   0.994   2.103  14.452  0.5558 -0.7365 -0.1177
  516TMC3    H1 7723   1.097   1.730  14.613 -0.4478 -0.1130 -1.7776
  516TMC3    H2 7724   0.688   1.866  14.627  0.1080  0.8216 -0.2229
  516TMC3    C7 7725   0.835   1.662  14.694 -0.0505  0.2894  0.3328
  516TMC3    C8 7726   0.741   2.102  14.511  0.2839 -0.3958 -0.5905
  516TMC3    O1 7727   0.908   1.613  14.782 -0.1432 -0.3958 -0.2419
  516TMC3    O2 7728   0.625   2.063  14.489 -0.4623 -0.4529 -0.0083
  517MPD2     C 7729   0.996   4.056  17.069  0.2212 -0.2546 -0.1235
  517MPD2    C1 7730   1.055   4.072  17.188 -0.3826 -0.3780 -0.0280
  517MPD2    C2 7731   0.989   4.131  17.286  0.5109  0.4028 -0.0638
  517MPD2    C3 7732   0.863   4.186  17.266  0.2561  0.1217  0.3132
  517MPD2    C4 7733   0.808   4.177  17.143  0.1475  0.1997  0.2155
  517MPD2    C5 7734   0.874   4.111  17.047 -0.2267 -0.0410  0.5755
  517MPD2     H 7735   1.038   4.132  17.383 -1.1811  1.3902  0.7809
  517MPD2    H1 7736   0.713   4.225  17.121 -0.8270 -2.1784 -0.7813
  517MPD2    H2 7737   1.032   3.997  16.986  0.2328 -1.6080  0.8413
  517MPD2    H3 7738   0.829   4.084  16.952  1.7793 -0.5615 -0.2228
  517MPD2     N 7739   0.789   4.257  17.363  0.1898  0.0512 -0.2351
  517MPD2    H5 7740   0.689   4.267  17.350  0.1411  0.6661  0.6022
  517MPD2    N1 7741   1.182   4.017  17.215 -0.0205 -0.1049 -0.4449
  517MPD2    H7 7742   1.222   4.044  17.304  2.4615 -0.4215 -1.4638
  518TMC3    C1 7743   1.379   3.882  17.207  0.1355 -0.2115  0.7086
  518TMC3    C2 7744   1.349   3.816  17.321 -0.7254 -0.3691 -0.7969
  518TMC3    C3 7745   1.403   3.697  17.360 -0.8898  0.1155  0.3943
  518TMC3    C4 7746   1.458   3.822  17.119  0.1658 -0.0563  0.8316
  518TMC3    C5 7747   1.520   3.704  17.153  0.6670  0.1233  0.5163
  518TMC3    C6 7748   1.488   3.639  17.266  0.2128  0.1580  0.3553
  518TMC3     C 7749   1.264   3.944  17.135  0.1194  1.0547 -0.0443
  518TMC3     O 7750   1.252   3.908  17.016  0.4895 -0.5554 -0.0217
  518TMC3     H 7751   1.271   3.862  17.380 -0.4441 -0.5951 -0.2516
  518TMC3    H1 7752   1.482   3.858  17.020 -2.7656  0.1517  0.2117
  518TMC3    H2 7753   1.534   3.544  17.290  0.3449 -0.7128 -3.3106
  518TMC3    C7 7754   1.609   3.638  17.052  0.1607  0.9497 -0.5580
  518TMC3    C8 7755   1.304   3.600  17.415  0.4163 -0.1029 -0.1488
  518TMC3    O1 7756   1.605   3.678  16.933 -0.8606  0.0742  0.2321
  518TMC3    O2 7757   1.305   3.489  17.365  0.2299  0.3739  0.7594
  519MPD2     C 7758   2.262   1.442  13.618 -0.0617 -0.3780 -0.3294
  519MPD2    C1 7759   2.325   1.434  13.734  0.0604  0.2646 -0.1806
  519MPD2    C2 7760   2.460   1.418  13.730  0.7594 -0.4362 -0.0629
  519MPD2    C3 7761   2.533   1.413  13.612 -0.4446 -0.9143  0.3206
  519MPD2    C4 7762   2.465   1.424  13.492 -0.4161  0.1307 -0.6453
  519MPD2    C5 7763   2.330   1.446  13.502 -0.3039 -0.1367  0.1088
  519MPD2     H 7764   2.519   1.415  13.821  1.0462 -2.2144 -0.3078
  519MPD2    H1 7765   2.518   1.438  13.399 -0.2866 -0.7476 -0.7009
  519MPD2    H2 7766   2.158   1.468  13.603 -0.4000 -0.1792  2.4631
  519MPD2    H3 7767   2.272   1.458  13.411 -1.1449  0.3941  0.7120
  519MPD2     N 7768   2.671   1.421  13.592  0.0456  0.0921  0.7863
  519MPD2    H5 7769   2.700   1.440  13.497  1.7658 -2.1585  0.8597
  519MPD2    N1 7770   2.242   1.441  13.853 -0.3263 -0.1917 -0.2278
  519MPD2    H7 7771   2.143   1.461  13.843 -0.2914 -0.1653 -0.5377
  520TMC3    C1 7772   2.883   1.480  13.643  0.5671  0.3645  0.8448
  520TMC3    C2 7773   2.875   1.590  13.580  0.3194  0.4759 -0.1328
  520TMC3    C3 7774   2.989   1.638  13.524 -0.3552 -0.1917 -0.1120
  520TMC3    C4 7775   2.995   1.405  13.654 -1.1054 -0.2257 -0.3049
  520TMC3    C5 7776   3.108   1.456  13.596 -1.0552 -0.1419 -0.2760
  520TMC3    C6 7777   3.108   1.574  13.530 -0.1720  0.9554  0.6042
  520TMC3     C 7778   2.759   1.434  13.698  0.0560  0.2528 -0.2549
  520TMC3     O 7779   2.753   1.405  13.818  0.9890 -0.0962 -0.0611
  520TMC3     H 7780   2.779   1.639  13.573 -0.2560 -0.6461 -0.0727
  520TMC3    H1 7781   2.986   1.317  13.717 -0.7653 -1.0557 -1.4324
  520TMC3    H2 7782   3.195   1.624  13.487 -0.1097  1.7808  1.6784
  520TMC3    C7 7783   3.229   1.406  13.656  0.2466  0.2754  0.1476
  520TMC3    C8 7784   2.981   1.757  13.443  0.5600  0.2157 -0.7392
  520TMC3    O1 7785   3.229   1.353  13.765 -0.3258  0.2216  0.4449
  520TMC3    O2 7786   3.041   1.770  13.339 -0.0576  0.9066 -0.3206
  521MPD2     C 7787   3.411   4.452  16.379  0.3929  0.3141  0.3425
  521MPD2    C1 7788   3.442   4.573  16.448 -0.8341 -0.3255 -0.1201
  521MPD2    C2 7789   3.572   4.623  16.425  0.1092 -0.1210  0.1409
  521MPD2    C3 7790   3.663   4.551  16.353  0.7708 -0.0433 -0.3543
  521MPD2    C4 7791   3.627   4.432  16.301 -0.0792  0.6161  0.6817
  521MPD2    C5 7792   3.503   4.383  16.311 -0.5921  0.7977  0.6899
  521MPD2     H 7793   3.606   4.720  16.461  1.6568 -0.2762 -0.9344
  521MPD2    H1 7794   3.704   4.369  16.258 -1.6670 -0.9969  0.2486
  521MPD2    H2 7795   3.310   4.411  16.378  1.7830 -3.0264 -1.4393
  521MPD2    H3 7796   3.471   4.291  16.265  0.0650  0.0628  1.7215
  521MPD2     N 7797   3.788   4.609  16.345  0.1853 -0.1001 -0.0596
  521MPD2    H5 7798   3.804   4.701  16.385  0.0989  0.0809 -0.4348
  521MPD2    N1 7799   3.346   4.627  16.534  0.3906  0.0764  0.4284
  521MPD2    H7 7800   3.259   4.577  16.549  1.2921 -1.3663  0.7574
  522TMC3    C1 7801   4.015   4.632  16.307  0.2826  0.0083  0.4690
  522TMC3    C2 7802   4.131   4.570  16.320  0.0492  0.1177 -0.6514
  522TMC3    C3 7803   4.233   4.628  16.263  0.5053 -0.4246 -0.9931
  522TMC3    C4 7804   4.000   0.020  16.250 -0.3916 -0.4343 -0.3811
  522TMC3    C5 7805   4.105   0.080  16.194 -0.9385 -0.1890  0.4936
  522TMC3    C6 7806   4.229   0.021  16.208 -0.1484 -0.8539 -0.1913
  522TMC3     C 7807   3.898   4.551  16.294  0.4163 -0.5943  0.0939
  522TMC3     O 7808   3.915   4.434  16.257 -0.1736  0.5551  0.2470
  522TMC3     H 7809   4.124   4.478  16.376 -3.2467  0.1164 -1.0631
  522TMC3    H1 7810   3.902   0.067  16.249 -0.1937 -0.0114 -0.2589
  522TMC3    H2 7811   4.314   0.063  16.156 -1.4965  0.6292 -1.1692
  522TMC3    C7 7812   4.092   0.156  16.068  0.3077 -0.4518 -0.1506
  522TMC3    C8 7813   4.362   4.590  16.309 -0.1019  0.1416  0.4418
  522TMC3    O1 7814   4.191   0.166  15.996 -0.5306 -0.4479 -0.3529
  522TMC3    O2 7815   4.454   4.675  16.305 -0.2035  0.0314 -0.2961
  523MPD2     C 7816   0.787   0.358  10.310  0.3851 -0.4207  0.4470
  523MPD2    C1 7817   0.734   0.244  10.253 -0.3911  0.8593 -0.0120
  523MPD2    C2 7818   0.618   0.265  10.182 -0.5754 -0.0938 -0.0078
  523MPD2    C3 7819   0.557   0.385  10.165  0.4095  0.2150  0.0361
  523MPD2    C4 7820   0.600   0.487  10.234  0.4144 -0.2589 -0.3521
  523MPD2    C5 7821   0.714   0.475  10.307 -0.1378  0.2852  0.0507
  523MPD2     H 7822   0.577   0.182  10.126 -0.9338  0.3415 -0.3887
  523MPD2    H1 7823   0.557   0.586  10.220  0.6196 -0.0487  0.4987
  523MPD2    H2 7824   0.883   0.354  10.360  0.3272 -1.1411  0.5048
  523MPD2    H3 7825   0.762   0.559  10.356 -1.6782  1.6107 -0.7334
  523MPD2     N 7826   0.453   0.411  10.075 -0.5567  0.1393 -0.8801
  523MPD2    H5 7827   0.423   0.506  10.057  0.6661  0.1008 -3.1418
  523MPD2    N1 7828   0.801   0.119  10.257 -0.5536 -0.0657 -0.2126
  523MPD2    H7 7829   0.899   0.119  10.284 -0.1277 -2.4177 -1.7950
  524TMC3    C1 7830   0.279   0.371   9.920  0.6820 -0.2202  0.3599
  524TMC3    C2 7831   0.242   0.303   9.806  0.8491  0.2323 -1.3320
  524TMC3    C3 7832   0.146   0.347   9.725  0.3237  0.1871  0.0032
  524TMC3    C4 7833   0.206   0.477   9.963  0.0376  0.3172 -0.1297
  524TMC3    C5 7834   0.099   0.512   9.878 -0.4674  0.2016  0.8670
  524TMC3    C6 7835   0.060   0.444   9.767  0.1282  0.3395 -0.3284
  524TMC3     C 7836   0.398   0.316   9.989  0.7178  0.0226  0.5675
  524TMC3     O 7837   0.440   0.207   9.962 -0.1053 -0.6177 -0.2256
  524TMC3     H 7838   0.313   0.239   9.754 -0.4837 -0.1762 -2.6317
  524TMC3    H1 7839   0.247   0.535  10.045  0.3994 -2.0775  1.3667
  524TMC3    H2 7840   4.708   0.463   9.704 -1.5907 -0.0532  1.9103
  524TMC3    C7 7841   0.017   0.624   9.930  0.2763 -0.4398 -0.9449
  524TMC3    C8 7842   0.118   0.280   9.600 -0.2499  0.1834  0.4712
  524TMC3    O1 7843   0.042   0.658  10.046  0.1712 -0.3437 -0.0945
  524TMC3    O2 7844   0.053   0.353   9.525  0.1542 -0.3010 -0.3386
  525MPD2     C 7845   4.114   1.421  14.150  0.1385 -0.5433 -0.0133
  525MPD2    C1 7846   4.223   1.431  14.238 -0.2068  0.3313  0.4463
  525MPD2    C2 7847   4.311   1.532  14.242  0.1671  0.1382 -0.1832
  525MPD2    C3 7848   4.287   1.638  14.148  0.1206 -0.2268 -0.4575
  525MPD2    C4 7849   4.181   1.634  14.059 -0.3753 -0.1501  0.2647
  525MPD2    C5 7850   4.109   1.516  14.054  1.3018  0.3042 -1.0082
  525MPD2     H 7851   4.397   1.525  14.308  0.3180  1.7019 -0.2157
  525MPD2    H1 7852   4.175   1.699  13.972 -1.7551  0.5898  0.9202
  525MPD2    H2 7853   4.053   1.334  14.131 -1.8411  0.8744 -0.1324
  525MPD2    H3 7854   4.041   1.494  13.973  0.7381  0.8208 -0.6802
  525MPD2     N 7855   4.356   1.761  14.143  0.3454  0.4420 -0.4028
  525MPD2    H5 7856   4.313   1.841  14.098  1.6381  0.6102 -1.3350
  525MPD2    N1 7857   4.245   1.329  14.332  0.0703  0.1381 -0.2730
  525MPD2    H7 7858   4.341   1.320  14.364 -0.5059  1.7039  1.8823
  526TMC3    C1 7859   4.190   1.163  14.485 -0.0329 -0.1356  0.4679
  526TMC3    C2 7860   4.112   1.150  14.603  0.7609  0.0467 -0.0931
  526TMC3    C3 7861   4.144   1.044  14.682 -0.2284 -0.4351  0.0392
  526TMC3    C4 7862   4.300   1.084  14.460 -0.2524  0.1394 -0.0252
  526TMC3    C5 7863   4.325   0.985  14.554 -0.5316 -0.2410 -0.0239
  526TMC3    C6 7864   4.254   0.959  14.666  0.1420  0.3681 -0.4777
  526TMC3     C 7865   4.141   1.259  14.387 -0.0336 -0.4126  0.9070
  526TMC3     O 7866   4.028   1.307  14.393  0.2420 -0.5981  0.4748
  526TMC3     H 7867   4.028   1.218  14.612  1.2464  0.6435 -0.0608
  526TMC3    H1 7868   4.350   1.087  14.364 -0.1754 -1.0962 -0.0310
  526TMC3    H2 7869   4.279   0.878  14.734 -0.0541  0.8455  0.1609
  526TMC3    C7 7870   4.460   0.933  14.563 -0.0019 -0.0641 -0.3401
  526TMC3    C8 7871   4.065   1.035  14.799  0.2316  0.3117 -0.3836
  526TMC3    O1 7872   4.550   1.008  14.529 -0.2741  0.3008  0.3152
  526TMC3    O2 7873   4.128   1.007  14.899  0.2874 -0.1355 -0.3795
  527MPD2     C 7874   2.697   0.797   1.303 -0.5623 -0.4470  0.6237
  527MPD2    C1 7875   2.767   0.684   1.344 -0.5319  0.1518  0.0349
  527MPD2    C2 7876   2.812   0.597   1.249 -0.4524  0.0050 -0.3530
  527MPD2    C3 7877   2.787   0.620   1.117  0.1161  1.2560  0.2792
  527MPD2    C4 7878   2.720   0.728   1.076 -0.3237 -0.1469  0.0909
  527MPD2    C5 7879   2.667   0.810   1.171  0.0600 -0.6380 -0.4121
  527MPD2     H 7880   2.870   0.514   1.286  0.0836  1.5218  2.2099
  527MPD2    H1 7881   2.700   0.751   0.972 -1.3401  0.8072  0.4952
  527MPD2    H2 7882   2.663   0.870   1.375  0.9467  1.1555 -0.3040
  527MPD2    H3 7883   2.604   0.890   1.135 -0.5533 -2.0834 -2.5881
  527MPD2     N 7884   2.820   0.519   1.020  0.1255  0.9109 -0.3260
  527MPD2    H5 7885   2.877   0.452   1.070  0.3729  1.9888  0.8411
  527MPD2    N1 7886   2.803   0.660   1.475 -0.4024  0.4606 -0.0928
  527MPD2    H7 7887   2.857   0.575   1.490 -2.6340 -1.3953 -2.4366
  528TMC3    C1 7888   2.805   0.657   1.710  0.6989  0.1927 -0.0431
  528TMC3    C2 7889   2.818   0.721   1.831 -0.0289 -0.4835 -0.5103
  528TMC3    C3 7890   2.862   0.656   1.945 -0.0381 -0.9015  0.4617
  528TMC3    C4 7891   2.819   0.521   1.711  0.5530  0.3682  0.2284
  528TMC3    C5 7892   2.843   0.452   1.825  0.7992 -0.0375 -0.2141
  528TMC3    C6 7893   2.875   0.520   1.941  0.1567  0.1224  0.9278
  528TMC3     C 7894   2.768   0.728   1.594 -0.1185  0.0102 -0.0940
  528TMC3     O 7895   2.712   0.838   1.615  0.3441 -0.1534  0.2465
  528TMC3     H 7896   2.809   0.829   1.830  0.5136 -0.4425 -0.9777
  528TMC3    H1 7897   2.789   0.462   1.625 -0.0167 -1.0664  1.4206
  528TMC3    H2 7898   2.906   0.468   2.030  1.4483  0.9320  0.9463
  528TMC3    C7 7899   2.835   0.308   1.823  0.9926  0.6803 -0.3420
  528TMC3    C8 7900   2.846   0.738   2.063 -0.6066 -0.0999  0.2199
  528TMC3    O1 7901   2.825   0.265   1.711 -0.2976 -0.3094 -0.4106
  528TMC3    O2 7902   2.877   0.857   2.051  0.4160  0.2879 -0.1871
  529MPD2     C 7903   4.040   3.375   1.023  0.1774 -0.7258  0.1048
  529MPD2    C1 7904   4.104   3.273   0.957 -0.1873 -0.3325  0.3658
  529MPD2    C2 7905   4.081   3.255   0.823 -0.7644 -0.6400 -0.2999
  529MPD2    C3 7906   4.004   3.343   0.749  0.2803  0.0429  0.0467
  529MPD2    C4 7907   3.952   3.452   0.817 -0.4200 -0.3913 -0.2535
  529MPD2    C5 7908   3.971   3.465   0.949  0.2525 -0.4060  0.0528
  529MPD2     H 7909   4.129   3.168   0.779  0.2003  0.9082 -2.2899
  529MPD2    H1 7910   3.893   3.530   0.771  0.7071  1.1566  0.9361
  529MPD2    H2 7911   4.044   3.405   1.127  1.3306  2.1281 -0.7554
  529MPD2    H3 7912   3.938   3.552   1.004 -1.2473 -0.6968 -0.3782
  529MPD2     N 7913   3.979   3.322   0.611 -0.8171  0.1600 -0.2447
  529MPD2    H5 7914   3.920   3.391   0.566 -1.8658 -0.7541 -0.2769
  529MPD2    N1 7915   4.199   3.188   1.018  0.6298  0.4671  0.4519
  529MPD2    H7 7916   4.242   3.120   0.956  1.3888  0.9266  0.4813
  530TMC3    C1 7917   4.346   3.116   1.187  0.0097 -0.1809 -0.2649
  530TMC3    C2 7918   4.457   3.180   1.232  0.3043 -0.7964  0.2170
  530TMC3    C3 7919   4.581   3.118   1.220 -0.6194 -0.3241 -0.0466
  530TMC3    C4 7920   4.352   3.002   1.118  0.0512 -0.7045  0.1993
  530TMC3    C5 7921   4.480   2.948   1.097 -0.1937 -0.6193  0.2650
  530TMC3    C6 7922   4.593   3.004   1.147  0.1491 -0.0999 -0.1537
  530TMC3     C 7923   4.245   3.210   1.143  0.2622  1.1829  0.0842
  530TMC3     O 7924   4.216   3.296   1.227 -0.6044  0.1086 -0.4711
  530TMC3     H 7925   4.454   3.278   1.278 -0.3188 -2.1081  2.9484
  530TMC3    H1 7926   4.262   2.963   1.073 -0.3242  0.7590 -0.2890
  530TMC3    H2 7927   4.687   2.953   1.131 -0.3481 -0.6984 -1.1440
  530TMC3    C7 7928   4.485   2.808   1.071  0.3734 -0.6266  0.0940
  530TMC3    C8 7929   4.692   3.179   1.298  0.3464  0.1656 -0.2585
  530TMC3    O1 7930   4.592   2.770   1.033 -0.2391 -0.3733 -0.0834
  530TMC3    O2 7931   4.668   3.272   1.382 -0.1868 -0.2881 -0.1863
  531MPD2     C 7932   3.682   4.357  13.659 -0.1488  0.1349  0.4586
  531MPD2    C1 7933   3.767   4.450  13.625 -0.9160  0.3890 -0.2234
  531MPD2    C2 7934   3.719   4.578  13.591 -0.3948 -0.4995 -0.3247
  531MPD2    C3 7935   3.579   4.596  13.587  0.1372  0.1524  0.0310
  531MPD2    C4 7936   3.492   4.494  13.622  0.0246  0.0035 -0.0429
  531MPD2    C5 7937   3.549   4.378  13.668 -0.0788 -0.0278 -0.5111
  531MPD2     H 7938   3.796   4.652  13.571  0.7180 -0.6256  3.3908
  531MPD2    H1 7939   3.385   4.499  13.611 -0.2594 -0.7875  2.2953
  531MPD2    H2 7940   3.718   4.260  13.691 -3.3855 -0.8898  0.9666
  531MPD2    H3 7941   3.492   4.288  13.687 -0.9707  0.0650 -2.7874
  531MPD2     N 7942   3.520   4.711  13.535  0.5569  0.1157  1.1136
  531MPD2    H5 7943   3.420   4.718  13.520  0.3624 -2.5420  1.0729
  531MPD2    N1 7944   3.901   4.418  13.616  0.2516  0.3560 -0.9331
  531MPD2    H7 7945   3.933   4.333  13.661 -0.6274  0.3273 -0.3795
  532TMC3    C1 7946   4.119   4.433  13.530  0.3966 -0.1772 -0.2048
  532TMC3    C2 7947   4.225   4.516  13.531 -0.0112  0.0403  0.2143
  532TMC3    C3 7948   4.310   4.524  13.423 -0.0846 -0.5244 -0.5622
  532TMC3    C4 7949   4.094   4.352  13.420  0.0392 -0.3342  0.0518
  532TMC3    C5 7950   4.175   4.361  13.315 -0.4108 -0.4474 -0.4929
  532TMC3    C6 7951   4.277   4.447  13.320 -0.0860 -0.4472  0.2077
  532TMC3     C 7952   4.004   4.505  13.584  0.7868  1.2423  0.1203
  532TMC3     O 7953   4.007   4.626  13.565 -0.8841  0.1754 -0.0041
  532TMC3     H 7954   4.231   4.579  13.619 -3.9816  0.0172  0.4762
  532TMC3    H1 7955   4.020   4.273  13.425 -2.9672  2.5204  0.2988
  532TMC3    H2 7956   4.336   4.461  13.230 -1.9592  0.5715 -0.8432
  532TMC3    C7 7957   4.133   4.335  13.182  0.3269 -0.2308 -0.6488
  532TMC3    C8 7958   4.315   4.664  13.373 -0.4197  0.1163 -0.3493
  532TMC3    O1 7959   4.210   4.298  13.097  0.0178  0.4611  0.2122
  532TMC3    O2 7960   4.396   4.692  13.288  0.6209  0.5311 -0.1920
  533TMC3    C1 7961   4.452   1.931  14.261  0.9098  0.3600  0.2348
  533TMC3    C2 7962   4.572   1.978  14.307 -0.5962  0.1061  0.2330
  533TMC3    C3 7963   4.553   2.088  14.385 -0.4471  0.3972 -0.4268
  533TMC3    C4 7964   4.328   1.977  14.298  0.2685  0.0596 -0.1953
  533TMC3    C5 7965   4.325   2.077  14.383 -1.1888  0.1097  0.4632
  533TMC3    C6 7966   4.437   2.142  14.427 -0.5033 -0.3784  0.1049
  533TMC3     C 7967   4.458   1.788  14.224  0.5547 -0.3643  0.3489
  533TMC3     O 7968   4.539   1.717  14.275  0.3457  0.7529  0.6342
  533TMC3     H 7969   4.668   1.932  14.288 -0.7057  0.7302 -1.7816
  533TMC3    H1 7970   4.236   1.929  14.267  1.3848 -0.2386 -3.0145
  533TMC3    H2 7971   4.439   2.205  14.516  0.6800 -0.6654  0.2789
  533TMC3    C7 7972   4.218   2.066  14.483 -0.0771  0.8033 -0.0674
  533TMC3    C8 7973   4.667   2.162  14.431 -0.1318 -0.4196  0.5845
  533TMC3    O1 7974   4.164   1.957  14.484 -0.0352 -0.0983 -0.4369
  533TMC3    O2 7975   0.040   2.107  14.443  0.4543 -0.0902  0.2302
  534MPD2     C 7976   2.178   3.272   1.132  0.7575  0.1869  0.0788
  534MPD2    C1 7977   2.140   3.397   1.158 -0.6542  0.9749 -0.5638
  534MPD2    C2 7978   2.003   3.421   1.151  0.4351 -0.1625 -0.1379
  534MPD2    C3 7979   1.901   3.331   1.121  0.0162 -0.7000  0.5551
  534MPD2    C4 7980   1.950   3.201   1.105  0.3173 -0.3771  0.5299
  534MPD2    C5 7981   2.082   3.177   1.108 -0.3888 -0.1533 -0.3273
  534MPD2     H 7982   1.982   3.527   1.163  0.7167 -0.2255  0.9433
  534MPD2    H1 7983   1.885   3.114   1.106 -0.5877  0.2637 -2.6505
  534MPD2    H2 7984   2.277   3.230   1.148  0.6107  0.2626  1.2092
  534MPD2    H3 7985   2.114   3.076   1.086  1.5147  1.0773 -3.1217
  534MPD2     N 7986   1.762   3.365   1.083  1.0274  0.5653 -0.1863
  534MPD2    H5 7987   1.713   3.285   1.044  1.6546  0.2743 -0.3905
  534MPD2    N1 7988   2.223   3.494   1.207  0.5228 -0.2718  0.3503
  534MPD2    H7 7989   2.176   3.579   1.234  0.3812 -0.1398 -0.3210
  535TMC3    C1 7990   1.610   3.507   0.973  0.3008 -0.2400 -0.2273
  535TMC3    C2 7991   1.514   3.606   0.975  0.1154  0.1212  0.0225
  535TMC3    C3 7992   1.420   3.622   0.881 -0.0500  0.7030  0.3645
  535TMC3    C4 7993   1.632   3.433   0.860 -0.4008 -1.2108 -0.0983
  535TMC3    C5 7994   1.540   3.449   0.761 -0.4720 -1.3706 -0.7391
  535TMC3    C6 7995   1.432   3.536   0.768 -0.0144  0.1467 -0.6387
  535TMC3     C 7996   1.708   3.492   1.078 -0.4448  0.0767 -0.7040
  535TMC3     O 7997   1.711   3.592   1.149  0.0240  0.0139  0.1716
  535TMC3     H 7998   1.509   3.669   1.063  1.2357  0.6293 -0.2657
  535TMC3    H1 7999   1.714   3.366   0.835  1.7469  0.1401  3.3063
  535TMC3    H2 8000   1.358   3.545   0.689 -1.0068  0.5136  0.3407
  535TMC3    C7 8001   1.579   3.393   0.633 -0.6468 -0.4302  0.5928
  535TMC3    C8 8002   1.289   3.671   0.907 -0.4737  0.4588 -0.4832
  535TMC3    O1 8003   1.639   3.285   0.641  0.2880  0.4674 -0.3915
  535TMC3    O2 8004   1.197   3.620   0.836 -0.4152 -0.2359 -0.4471
  536MPD2     C 8005   0.801   1.632  16.611  0.2721  0.2536  0.0363
  536MPD2    C1 8006   0.682   1.575  16.647 -0.2786 -0.0778 -0.1207
  536MPD2    C2 8007   0.590   1.547  16.545  0.0012  0.2183  0.6776
  536MPD2    C3 8008   0.622   1.566  16.411  0.2678  0.4059 -0.3123
  536MPD2    C4 8009   0.752   1.615  16.380 -0.2144  0.5323  0.0014
  536MPD2    C5 8010   0.840   1.650  16.484  0.2801  0.5941 -0.3499
  536MPD2     H 8011   0.488   1.519  16.569  0.2694  1.0395  2.7998
  536MPD2    H1 8012   0.782   1.642  16.280 -0.5061  0.7474 -0.0257
  536MPD2    H2 8013   0.864   1.678  16.687  1.4033 -0.2239 -0.6013
  536MPD2    H3 8014   0.928   1.713  16.473 -0.6019  1.7746 -0.6131
  536MPD2     N 8015   0.528   1.540  16.302  0.3270 -0.3620 -0.4218
  536MPD2    H5 8016   0.569   1.567  16.213  0.6676  1.0874  0.1800
  536MPD2    N1 8017   0.665   1.538  16.780  0.0558 -0.0740 -0.0122
  536MPD2    H7 8018   0.729   1.565  16.854 -0.1898  0.6433 -0.0613
  537TMC3    C1 8019   0.551   1.489  16.981 -0.2017 -0.0157  0.2195
  537TMC3    C2 8020   0.581   1.606  17.029  0.5904  0.0746 -0.1436
  537TMC3    C3 8021   0.547   1.638  17.150  0.5026 -0.1468 -0.5423
  537TMC3    C4 8022   0.473   1.397  17.046 -0.1237 -0.4506 -0.1867
  537TMC3    C5 8023   0.434   1.434  17.173  0.0095 -0.4743  0.4015
  537TMC3    C6 8024   0.473   1.555  17.231 -0.1085 -0.2596  0.2374
  537TMC3     C 8025   0.554   1.472  16.837  0.3313 -0.3518 -0.2864
  537TMC3     O 8026   0.462   1.414  16.784 -0.7212 -0.3667 -0.4487
  537TMC3     H 8027   0.634   1.680  16.970 -0.5077  0.5870 -0.4899
  537TMC3    H1 8028   0.468   1.292  17.021 -1.7979 -0.9622  2.2578
  537TMC3    H2 8029   0.448   1.583  17.332  1.5703 -0.2021  0.6348
  537TMC3    C7 8030   0.389   1.326  17.256  0.4324  0.5131 -0.2691
  537TMC3    C8 8031   0.585   1.760  17.213 -0.2071  0.3077  0.2483
  537TMC3    O1 8032   0.445   1.221  17.237  0.2205  0.4172 -0.1830
  537TMC3    O2 8033   0.566   1.763  17.333  0.3690  0.3737  0.1971
  538TMC3    C1 8034   1.284   4.630  11.126 -0.3985  0.4822  0.0348
  538TMC3    C2 8035   1.402   4.695  11.104 -0.2148  0.4270  0.4566
  538TMC3    C3 8036   1.413   0.021  10.977  0.0404  0.1663 -0.1841
  538TMC3    C4 8037   1.173   4.633  11.046  0.0733  0.0099  1.0216
  538TMC3    C5 8038   1.195   4.689  10.924  0.3655 -0.0979  0.5492
  538TMC3    C6 8039   1.309   0.023  10.889  0.1223  1.0290 -0.3848
  538TMC3     C 8040   1.278   4.554  11.252  0.0289  0.5109 -0.5859
  538TMC3     O 8041   1.174   4.537  11.310  0.0644  0.3138  0.0593
  538TMC3     H 8042   1.474   4.697  11.185  0.4981  0.0916 -0.1757
  538TMC3    H1 8043   1.077   4.585  11.063  0.8713 -1.6739  0.7005
  538TMC3    H2 8044   1.317   0.074  10.794 -1.5135  0.5300 -0.7961
  538TMC3    C7 8045   1.077   4.708  10.838 -0.2475 -0.6432  0.0086
  538TMC3    C8 8046   1.544   0.061  10.926  0.2862  0.3332  0.8121
  538TMC3    O1 8047   1.068   0.075  10.769 -0.1046  0.7076 -0.2770
  538TMC3    O2 8048   1.554   0.086  10.807  0.2694 -0.5736 -0.4329
  539MPD2     C 8049   1.068   3.660  11.859 -0.2099 -0.0792  0.2698
  539MPD2    C1 8050   1.101   3.725  11.739  0.1143 -0.7167 -0.4367
  539MPD2    C2 8051   1.041   3.843  11.707 -0.0839 -0.0008  0.7980
  539MPD2    C3 8052   0.930   3.889  11.779  0.0996  0.1700  0.4934
  539MPD2    C4 8053   0.906   3.831  11.902  0.5341 -0.2201  0.4989
  539MPD2    C5 8054   0.975   3.713  11.938 -0.0539  0.9885 -0.0594
  539MPD2     H 8055   1.068   3.892  11.614 -0.6272  0.7692  1.0541
  539MPD2    H1 8056   0.815   3.858  11.953 -0.1445  0.0573 -0.8692
  539MPD2    H2 8057   1.106   3.562  11.884  2.1109  0.9466  0.7735
  539MPD2    H3 8058   0.944   3.655  12.024 -0.9035 -0.6502 -1.4777
  539MPD2     N 8059   0.850   3.996  11.737  0.0167 -0.1639  0.1611
  539MPD2    H5 8060   0.777   4.023  11.802 -0.8097  1.2024 -1.3384
  539MPD2    N1 8061   1.197   3.662  11.656 -0.1499 -0.4804 -0.4100
  539MPD2    H7 8062   1.211   3.711  11.569  2.4343  0.4904  0.5665
  540TMC3    C1 8063   0.724   4.120  11.591 -0.2908  0.1327 -0.0460
  540TMC3    C2 8064   0.654   4.109  11.473  1.0069  0.4469  0.2106
  540TMC3    C3 8065   0.564   4.210  11.446 -0.1038  0.1585 -0.1317
  540TMC3    C4 8066   0.727   4.237  11.668 -0.4106  0.2199 -0.0660
  540TMC3    C5 8067   0.644   4.338  11.627  0.0590 -0.0219 -0.0332
  540TMC3    C6 8068   0.565   4.334  11.518  0.5798  0.3697  0.2131
  540TMC3     C 8069   0.831   4.020  11.602  0.5164 -0.4510 -0.6073
  540TMC3     O 8070   0.895   3.998  11.506  0.6947  0.4259 -0.2814
  540TMC3     H 8071   0.664   4.012  11.426  1.0440  0.8520 -0.6129
  540TMC3    H1 8072   0.783   4.249  11.760  0.7300 -0.2925 -0.7012
  540TMC3    H2 8073   0.484   4.405  11.508 -0.6761 -0.6003  3.3678
  540TMC3    C7 8074   0.603   4.424  11.733  0.9502 -0.4697 -0.2827
  540TMC3    C8 8075   0.464   4.195  11.334  0.0605  0.1315 -0.0175
  540TMC3    O1 8076   0.602   4.379  11.843 -0.4988  0.1478  0.0129
  540TMC3    O2 8077   0.367   4.270  11.331  0.2291  0.1617 -0.6091
  541MPD2     C 8078   4.464   0.624  13.197 -0.4128 -0.7083  0.0841
  541MPD2    C1 8079   4.541   0.581  13.094  0.6791 -0.3363 -0.4562
  541MPD2    C2 8080   4.577   0.673  12.994 -1.0717 -0.2870  0.4970
  541MPD2    C3 8081   4.507   0.789  12.974  0.3461  0.0657  0.3085
  541MPD2    C4 8082   4.424   0.826  13.082 -0.3401  0.5549 -0.0691
  541MPD2    C5 8083   4.399   0.745  13.185 -0.2155  0.4792  0.0422
  541MPD2     H 8084   4.640   0.628  12.918 -1.2643  0.8872 -0.3718
  541MPD2    H1 8085   4.379   0.924  13.075  1.0169  1.2037  0.3869
  541MPD2    H2 8086   4.432   0.560  13.279  0.4809 -0.7900  0.3710
  541MPD2    H3 8087   4.339   0.789  13.264  0.0649 -1.3014  1.2286
  541MPD2     N 8088   4.515   0.868  12.857  0.6651  0.2437  0.5824
  541MPD2    H5 8089   4.447   0.943  12.859  1.2128  0.7116  1.9229
  541MPD2    N1 8090   4.597   0.457  13.090 -0.4328  0.3690  0.4468
  541MPD2    H7 8091   4.658   0.438  13.012 -3.2134  0.0221 -1.6430
  542TMC3    C1 8092   4.559   0.920  12.626  0.5978 -0.1253  0.1382
  542TMC3    C2 8093   4.605   0.880  12.505 -0.0650  0.0331  0.0775
  542TMC3    C3 8094   4.551   0.913  12.386  0.1533  0.9079  0.9319
  542TMC3    C4 8095   4.456   1.014  12.629 -0.1804  0.5871 -0.2349
  542TMC3    C5 8096   4.407   1.050  12.505  0.0903  0.0884 -0.3834
  542TMC3    C6 8097   4.447   1.002  12.384  0.1933  0.0643  0.3420
  542TMC3     C 8098   4.585   0.835  12.741 -0.3174  0.1454 -0.0859
  542TMC3     O 8099   4.655   0.740  12.718  0.0553 -0.0394  0.1766
  542TMC3     H 8100   4.701   0.828  12.504 -0.8522 -1.4481  0.9140
  542TMC3    H1 8101   4.411   1.061  12.715  0.9621 -2.1849  1.8586
  542TMC3    H2 8102   4.413   1.035  12.286  0.7178 -0.3425  0.0195
  542TMC3    C7 8103   4.286   1.135  12.502 -0.5890  0.2034 -0.5975
  542TMC3    C8 8104   4.587   0.836  12.269  0.5859  0.5052 -0.7027
  542TMC3    O1 8105   4.271   1.225  12.580 -0.2338 -0.1977 -0.6222
  542TMC3    O2 8106   4.564   0.876  12.155 -0.7030 -0.0132 -0.0494
  543TMC3    C1 8107   4.050   2.405  17.346  0.7846 -0.0656  0.2395
  543TMC3    C2 8108   4.115   2.318  17.435  0.7876  0.1689 -0.0105
  543TMC3    C3 8109   4.073   2.335  17.563 -0.2428 -1.0329  0.1467
  543TMC3    C4 8110   3.972   2.510  17.384 -0.1548 -0.5409  0.2559
  543TMC3    C5 8111   3.949   2.528  17.520 -1.0434 -0.3409  0.4161
  543TMC3    C6 8112   3.997   2.439  17.610 -0.4763  0.0931 -0.6284
  543TMC3     C 8113   4.102   2.397  17.212  0.6878  0.0513  0.3649
  543TMC3     O 8114   4.205   2.333  17.189  0.2239 -0.4589 -0.2210
  543TMC3     H 8115   4.175   2.233  17.404 -0.5692 -0.4757 -0.8798
  543TMC3    H1 8116   3.954   2.593  17.317  0.2079 -1.0727 -0.4975
  543TMC3    H2 8117   3.946   2.442  17.706 -0.4947  1.0572 -0.6681
  543TMC3    C7 8118   3.844   2.620  17.564  0.2308  0.6742 -0.0382
  543TMC3    C8 8119   4.097   2.212  17.645 -0.0485  0.7265 -0.4417
  543TMC3    O1 8120   3.810   2.635  17.677 -0.4712 -0.7261 -0.5997
  543TMC3    O2 8121   4.135   2.111  17.588  0.1817 -0.5681 -0.5143
  544MPD2     C 8122   4.130   1.955   0.346  0.4330 -0.1126  0.0472
  544MPD2    C1 8123   4.110   1.912   0.215 -0.1681  0.2048 -0.2869
  544MPD2    C2 8124   4.096   2.006   0.118  0.1327  0.2887  0.2542
  544MPD2    C3 8125   4.104   2.144   0.143  0.7383  0.7808 -0.6737
  544MPD2    C4 8126   4.115   2.181   0.276 -0.0159 -0.0395  0.1808
  544MPD2    C5 8127   4.132   2.094   0.375 -0.3484 -0.1809  0.7612
  544MPD2     H 8128   4.080   1.978   0.014  1.4870  0.0074  0.1308
  544MPD2    H1 8129   4.117   2.284   0.310  0.7199  0.3330 -0.9832
  544MPD2    H2 8130   4.152   1.883   0.424 -1.6349  0.6685  1.3525
  544MPD2    H3 8131   4.144   2.125   0.478 -0.6011  0.9564  0.4424
  544MPD2     N 8132   4.101   2.238   0.041 -0.1237  0.3018 -0.6302
  544MPD2    H5 8133   4.108   2.333   0.077  0.3592 -0.0897  0.2806
  544MPD2    N1 8134   4.113   1.773   0.187  0.2964  0.3185 -0.1881
  544MPD2    H7 8135   4.153   1.714   0.259 -2.0452 -0.6701  0.2942
  545TMC3    C1 8136   4.115   1.575   0.061  0.5493 -0.2114  0.4322
  545TMC3    C2 8137   4.171   1.517   0.174  0.6395  0.2632  0.1597
  545TMC3    C3 8138   4.256   1.414   0.157 -0.1015  0.1978  0.6591
  545TMC3    C4 8139   4.141   1.527  17.671 -0.2608 -0.3272  0.2255
  545TMC3    C5 8140   4.233   1.431  17.659 -0.3695 -0.2242 -0.5123
  545TMC3    C6 8141   4.289   1.369   0.030 -0.2946 -0.3184  0.2548
  545TMC3     C 8142   4.091   1.718   0.060 -0.3926  0.0013  0.5543
  545TMC3     O 8143   4.063   1.769  17.693 -0.1284  0.1224 -0.0681
  545TMC3     H 8144   4.133   1.543   0.272  0.2394  1.2288 -0.2532
  545TMC3    H1 8145   4.105   1.583  17.585 -0.4605 -2.5577 -1.1379
  545TMC3    H2 8146   4.360   1.288   0.017  0.8228  0.2322  3.0022
  545TMC3    C7 8147   4.279   1.407  17.522 -0.7671 -0.6363  0.1297
  545TMC3    C8 8148   4.317   1.358   0.273 -0.1404 -0.3537  0.1785
  545TMC3    O1 8149   4.238   1.488  17.439  0.3250 -0.6269 -0.2792
  545TMC3    O2 8150   4.268   1.390   0.379  0.5774  0.3397 -0.3993
  546MPD2     C 8151   0.555   2.421   0.238 -0.1504  0.2559 -0.1828
  546MPD2    C1 8152   0.545   2.435   0.103  0.4591  0.2529  0.3665
  546MPD2    C2 8153   0.606   2.552   0.050  0.3130 -0.6528  0.0661
  546MPD2    C3 8154   0.676   2.641   0.132 -0.0426 -0.1552 -0.4747
  546MPD2    C4 8155   0.668   2.628   0.269  0.2728 -0.2226 -0.0050
  546MPD2    C5 8156   0.616   2.513   0.323  0.1281  0.0792 -0.1955
  546MPD2     H 8157   0.575   2.578  17.688 -0.1990 -0.0632  0.3743
  546MPD2    H1 8158   0.708   2.703   0.337 -0.7852 -1.6689  2.2029
  546MPD2    H2 8159   0.510   2.338   0.292 -2.6112  0.5291 -1.8240
  546MPD2    H3 8160   0.610   2.500   0.431  0.7361 -1.4632 -0.3484
  546MPD2     N 8161   0.739   2.754   0.081  0.3304  0.1950  0.2716
  546MPD2    H5 8162   0.781   2.815   0.150  0.5590 -0.3550  0.6148
  546MPD2    N1 8163   0.477   2.335   0.022  0.6023 -0.5303 -0.0664
  546MPD2    H7 8164   0.470   2.245   0.069  2.4631 -1.3357 -1.2930
  547TMC3    C1 8165   0.438   2.209  17.560  0.6180 -0.7230 -1.1496
  547TMC3    C2 8166   0.372   2.195  17.438 -0.2374 -0.3071 -0.0283
  547TMC3    C3 8167   0.330   2.074  17.398 -0.3609  0.3522  0.9041
  547TMC3    C4 8168   0.466   2.104  17.640  0.0491 -0.8327 -0.0729
  547TMC3    C5 8169   0.437   1.977  17.590  0.5031 -0.1653  0.1471
  547TMC3    C6 8170   0.365   1.960  17.472  0.0775  0.3077 -0.2859
  547TMC3     C 8171   0.450   2.342  17.626  0.3790 -0.4579 -0.3205
  547TMC3     O 8172   0.449   2.437  17.548 -0.0274 -0.4719  1.0970
  547TMC3     H 8173   0.341   2.279  17.377  1.5334  0.6538  0.3783
  547TMC3    H1 8174   0.537   2.111  17.721  0.6096  0.4610 -0.6562
  547TMC3    H2 8175   0.347   1.857  17.446  1.1177  0.1134 -0.2254
  547TMC3    C7 8176   0.461   1.869  17.684 -0.1350  0.5204  0.1972
  547TMC3    C8 8177   0.259   2.070  17.272  0.4861 -0.2967  0.1491
  547TMC3    O1 8178   0.489   1.899   0.059  0.1425 -0.3758 -0.4794
  547TMC3    O2 8179   0.209   2.166  17.217  0.7975  0.0395  0.0658
  548MPD2     C 8180   0.311   2.587  13.005  0.4108  0.1176  0.3973
  548MPD2    C1 8181   0.246   2.496  12.919 -0.4377  1.1692  0.4697
  548MPD2    C2 8182   0.316   2.437  12.819  0.6111  0.0937  0.5170
  548MPD2    C3 8183   0.446   2.479  12.793  0.0697  0.6455  0.3869
  548MPD2    C4 8184   0.510   2.561  12.889 -0.2559  0.0389  0.0788
  548MPD2    C5 8185   0.444   2.627  12.984  0.5692  0.2743 -0.3255
  548MPD2     H 8186   0.266   2.369  12.750  0.9548  0.6192 -0.2498
  548MPD2    H1 8187   0.615   2.580  12.871  0.0664 -1.4529  0.3536
  548MPD2    H2 8188   0.258   2.644  13.081  1.4272 -0.8510  1.8243
  548MPD2    H3 8189   0.503   2.687  13.053  1.4386  1.9069 -2.5126
  548MPD2     N 8190   0.504   2.436  12.670 -0.0750 -0.3182  0.1138
  548MPD2    H5 8191   0.437   2.394  12.606  0.5466 -0.4452 -0.4524
  548MPD2    N1 8192   0.108   2.468  12.949  0.2899 -0.7166 -0.4784
  548MPD2    H7 8193   0.063   2.539  13.006  2.6190  0.3837 -0.0243
  549TMC3    C1 8194   4.623   2.408  12.906  0.2075 -0.5477 -0.3306
  549TMC3    C2 8195   4.596   2.536  12.875 -0.0452  0.4584 -0.3129
  549TMC3    C3 8196   4.461   2.570  12.865 -0.6977  0.1665  0.1392
  549TMC3    C4 8197   4.531   2.317  12.943 -0.1419  0.5262 -0.1822
  549TMC3    C5 8198   4.401   2.361  12.939  0.0916 -0.3260 -0.1874
  549TMC3    C6 8199   4.356   2.487  12.902 -0.0461 -0.0183 -0.0475
  549TMC3     C 8200   0.029   2.367  12.901 -0.6054 -0.5439 -0.1262
  549TMC3     O 8201   0.062   2.265  12.844 -0.2573 -0.2506  0.4572
  549TMC3     H 8202   4.673   2.597  12.827 -0.0431  1.3943  0.8759
  549TMC3    H1 8203   4.567   2.221  12.980  0.4171  0.7057 -0.2664
  549TMC3    H2 8204   4.251   2.510  12.885 -0.0681  0.1521  0.3246
  549TMC3    C7 8205   4.299   2.256  12.952  0.2287 -0.0778  0.2110
  549TMC3    C8 8206   4.422   2.680  12.768 -0.1521  0.1274 -0.4916
  549TMC3    O1 8207   4.193   2.288  13.005  0.1040 -0.1349 -0.2788
  549TMC3    O2 8208   4.311   2.670  12.720 -0.8233  0.1623  0.2061
  550TMC3    C1 8209   4.313   0.118  12.277  0.0782  0.6481  0.2363
  550TMC3    C2 8210   4.346   0.197  12.384 -0.3804 -0.1181  0.2365
  550TMC3    C3 8211   4.364   0.334  12.364 -0.0198  0.0578 -0.2166
  550TMC3    C4 8212   4.323   0.172  12.150  0.4681 -0.7200 -0.3539
  550TMC3    C5 8213   4.330   0.310  12.131  0.6767 -0.2472 -1.0371
  550TMC3    C6 8214   4.353   0.384  12.240 -0.0678  0.1017  0.2543
  550TMC3     C 8215   4.187   0.050  12.300 -0.4166 -0.0936 -0.6523
  550TMC3     O 8216   4.169   0.014  12.416 -0.1036 -0.0692 -0.6988
  550TMC3     H 8217   4.344   0.151  12.482  0.6478 -0.3636  0.1422
  550TMC3    H1 8218   4.312   0.112  12.060  0.2811  0.2977 -1.0182
  550TMC3    H2 8219   4.359   0.492  12.236 -0.7060  0.1199 -0.0412
  550TMC3    C7 8220   4.212   0.357  12.062 -0.5738 -0.1969 -0.4216
  550TMC3    C8 8221   4.280   0.412  12.446 -0.7091  0.0145 -0.3318
  550TMC3    O1 8222   4.131   0.272  12.029  0.4565  0.4810 -0.2113
  550TMC3    O2 8223   4.296   0.533  12.454 -0.3062  0.0028 -0.6688
  551TMC3    C1 8224   0.985   3.366  13.675 -0.1289  0.0436 -0.8196
  551TMC3    C2 8225   1.075   3.423  13.587  0.6639 -0.0566 -0.2106
  551TMC3    C3 8226   1.192   3.467  13.641 -0.8045  0.2472  0.1977
  551TMC3    C4 8227   1.002   3.371  13.815  0.0801 -0.1821 -0.2701
  551TMC3    C5 8228   1.118   3.430  13.862 -0.6842  0.1324 -0.7690
  551TMC3    C6 8229   1.214   3.474  13.777  0.1669  0.3345  0.5762
  551TMC3     C 8230   0.876   3.288  13.624 -0.1704  0.7113  0.1544
  551TMC3     O 8231   0.830   3.213  13.709  0.5555 -0.1299 -0.4698
  551TMC3     H 8232   1.067   3.405  13.480 -0.9654  0.2352 -0.1427
  551TMC3    H1 8233   0.934   3.312  13.876  0.0583  0.2612  0.1292
  551TMC3    H2 8234   1.309   3.504  13.819  0.3485  0.0588  0.3553
  551TMC3    C7 8235   1.173   3.394  13.990 -0.0414 -0.2109 -0.4405
  551TMC3    C8 8236   1.307   3.495  13.565  0.4643 -0.0567 -0.1168
  551TMC3    O1 8237   1.294   3.401  14.013 -0.1942  0.0142  0.3246
  551TMC3    O2 8238   1.415   3.467  13.615  0.3234 -0.3727 -0.0104
  552MPD2     C 8239   3.404   3.758  14.248 -0.4733  0.7238  0.7484
  552MPD2    C1 8240   3.473   3.840  14.156 -0.4362  0.1839  0.3038
  552MPD2    C2 8241   3.601   3.870  14.184 -0.2930  0.4166 -0.5958
  552MPD2    C3 8242   3.664   3.818  14.294  0.3250  0.4687 -0.6400
  552MPD2    C4 8243   3.603   3.733  14.381  0.1517  0.1520  0.0549
  552MPD2    C5 8244   3.473   3.701  14.354 -0.5065 -0.6670 -0.4998
  552MPD2     H 8245   3.651   3.931  14.110 -1.8766  0.9875 -1.1890
  552MPD2    H1 8246   3.654   3.674  14.457  0.2487 -1.3299 -1.1599
  552MPD2    H2 8247   3.299   3.737  14.234 -0.4109  0.6253  0.4195
  552MPD2    H3 8248   3.423   3.635  14.425 -0.7137 -0.1823 -0.1944
  552MPD2     N 8249   3.803   3.825  14.323  0.0039  0.6692  0.2486
  552MPD2    H5 8250   3.818   3.790  14.417  3.4056 -1.9182 -1.2463
  552MPD2    N1 8251   3.414   3.899  14.044 -0.3136  0.1730 -1.3605
  552MPD2    H7 8252   3.484   3.940  13.983  0.0546 -2.1599 -2.5132
  553TMC3    C1 8253   3.262   3.998  13.892 -0.2598  0.4158 -0.7820
  553TMC3    C2 8254   3.195   4.117  13.905  0.2065  0.3043  0.6028
  553TMC3    C3 8255   3.178   4.190  13.793  0.2451  0.4288  0.3161
  553TMC3    C4 8256   3.330   3.957  13.779  0.1307  0.6712 -0.1330
  553TMC3    C5 8257   3.295   4.023  13.668  0.2180 -0.3116  0.1968
  553TMC3    C6 8258   3.222   4.141  13.669  0.3926  0.0666 -0.7140
  553TMC3     C 8259   3.282   3.917  14.017 -0.0250  0.0041 -0.4188
  553TMC3     O 8260   3.180   3.908  14.082 -0.3540  0.2915  0.5149
  553TMC3     H 8261   3.162   4.162  13.998 -1.7044 -0.8886  0.5031
  553TMC3    H1 8262   3.393   3.868  13.781  0.0161  0.5736 -1.1367
  553TMC3    H2 8263   3.211   4.193  13.574  0.4836  0.1419 -0.6841
  553TMC3    C7 8264   3.401   4.022  13.564 -0.0146 -0.1557  0.0342
  553TMC3    C8 8265   3.156   4.328  13.798  0.3389  0.1656 -0.6180
  553TMC3    O1 8266   3.366   4.064  13.453  0.4136  0.1860  0.1931
  553TMC3    O2 8267   3.188   4.387  13.900  0.9728 -0.0712  0.6543
  554TMC3    C1 8268   0.148   4.560  11.448 -0.0656 -0.2768 -0.1802
  554TMC3    C2 8269   0.118   4.459  11.360 -0.1149  0.0317 -0.6241
  554TMC3    C3 8270   0.170   4.461  11.234  1.0482  0.0128  0.2203
  554TMC3    C4 8271   0.233   4.665  11.415  0.3806 -0.0883  1.1555
  554TMC3    C5 8272   0.293   4.655  11.293  0.5274  0.0539  0.1090
  554TMC3    C6 8273   0.258   4.555  11.198 -0.0051 -0.4240 -0.0997
  554TMC3     C 8274   0.187   4.502  11.579  0.5963 -0.1201  0.2438
  554TMC3     O 8275   0.204   4.579  11.673  0.5644  0.6267  0.0145
  554TMC3     H 8276   0.049   4.386  11.400  0.5616 -0.3652 -0.1717
  554TMC3    H1 8277   0.267   4.734  11.491 -0.7484  1.6622  0.0669
  554TMC3    H2 8278   0.286   4.562  11.094  2.6814 -1.7209  0.5335
  554TMC3    C7 8279   0.350   0.043  11.231 -0.3634 -0.0741 -0.0472
  554TMC3    C8 8280   0.083   4.404  11.131  0.3969 -0.3782 -0.0976
  554TMC3    O1 8281   0.442   0.024  11.146  0.1459 -0.1872 -0.1343
  554TMC3    O2 8282   0.106   4.441  11.018  0.2786 -0.4126 -0.2982
  555TMC3    C1 8283   4.088   3.297  14.789 -0.1060  0.1242 -0.2534
  555TMC3    C2 8284   4.186   3.389  14.797  0.1532  0.5767  0.0526
  555TMC3    C3 8285   4.277   3.367  14.900  0.1281  0.9516  0.8530
  555TMC3    C4 8286   4.070   3.192  14.868 -0.1347  0.7535 -0.6398
  555TMC3    C5 8287   4.165   3.168  14.964  0.5272  0.3403 -0.4332
  555TMC3    C6 8288   4.270   3.260  14.991  0.0616  0.4982  0.0021
  555TMC3     C 8289   3.999   3.320  14.672  0.4947 -0.8262  0.6040
  555TMC3     O 8290   3.874   3.314  14.672 -0.5036 -0.5720 -0.0830
  555TMC3     H 8291   4.191   3.477  14.733 -2.0080 -0.4905 -1.6044
  555TMC3    H1 8292   3.974   3.142  14.863 -0.8214  2.0371 -0.2091
  555TMC3    H2 8293   4.349   3.238  15.062  0.2591 -0.4073 -0.4935
  555TMC3    C7 8294   4.170   3.043  15.034  0.0329  0.2261  0.3944
  555TMC3    C8 8295   4.362   3.478  14.927  0.4010  1.0296  0.3126
  555TMC3    O1 8296   4.070   2.993  15.085  0.2818 -0.3558  0.2130
  555TMC3    O2 8297   4.381   3.556  14.834 -0.0110 -0.5890 -1.1863
  556MPD2     C 8298   2.808   0.388  10.851 -0.1102  0.0832 -0.3032
  556MPD2    C1 8299   2.685   0.405  10.911  0.3632  0.2136  0.4503
  556MPD2    C2 8300   2.569   0.364  10.845 -0.2045  0.1759  0.0500
  556MPD2    C3 8301   2.578   0.319  10.708  0.3092 -0.3594 -0.3355
  556MPD2    C4 8302   2.702   0.299  10.648 -0.3084 -0.1998  0.5425
  556MPD2    C5 8303   2.814   0.330  10.722 -0.3819  0.1524 -0.7356
  556MPD2     H 8304   2.470   0.358  10.889 -0.6370  0.5745 -0.8540
  556MPD2    H1 8305   2.712   0.273  10.543  0.8406 -0.5685  0.7365
  556MPD2    H2 8306   2.903   0.403  10.900 -0.3039 -0.5287  0.2584
  556MPD2    H3 8307   2.912   0.326  10.676 -0.8615  0.4349 -1.7872
  556MPD2     N 8308   2.457   0.295  10.643 -0.6560  0.3512 -0.4768
  556MPD2    H5 8309   2.380   0.285  10.709 -1.9464  1.5894 -1.8171
  556MPD2    N1 8310   2.666   0.459  11.039 -0.1765  0.3501 -0.4437
  556MPD2    H7 8311   2.576   0.483  11.078 -0.3156 -1.1231  0.1280
  557TMC3    C1 8312   2.304   0.219  10.473  0.3312  0.5677  0.5917
  557TMC3    C2 8313   2.254   0.250  10.348 -0.1698 -0.8098 -0.0932
  557TMC3    C3 8314   2.122   0.218  10.324  0.2108 -0.2440  0.6071
  557TMC3    C4 8315   2.226   0.150  10.569  0.5641 -0.4722 -0.2912
  557TMC3    C5 8316   2.098   0.113  10.534 -0.3868  0.0604 -0.2188
  557TMC3    C6 8317   2.046   0.144  10.412  0.1103  0.3866  0.6322
  557TMC3     C 8318   2.442   0.254  10.514  0.1098  0.0040  0.0077
  557TMC3     O 8319   2.522   0.260  10.419  0.0451 -0.5485 -0.2999
  557TMC3     H 8320   2.301   0.321  10.282  0.5094 -1.1202  0.0550
  557TMC3    H1 8321   2.267   0.122  10.664 -0.6940 -0.0498  0.3812
  557TMC3    H2 8322   1.938   0.148  10.403  0.0300  1.5110  1.9873
  557TMC3    C7 8323   1.999   0.077  10.633  0.0092  0.0541  0.8969
  557TMC3    C8 8324   2.050   0.315  10.244 -0.7951  0.4201 -0.3013
  557TMC3    O1 8325   1.893   0.023  10.593  0.1612  0.2180  0.0958
  557TMC3    O2 8326   2.071   0.430  10.270  0.6646 -0.0299  0.5722
  558TMC3    C1 8327   4.255   2.332  10.096  0.1855 -0.2983 -0.2156
  558TMC3    C2 8328   4.171   2.290  10.192  0.0495  0.3906  0.7508
  558TMC3    C3 8329   4.051   2.356  10.203  0.0454  0.3786  0.1149
  558TMC3    C4 8330   4.211   2.420  10.003 -0.2952  0.1159 -0.5206
  558TMC3    C5 8331   4.085   2.478  10.013  0.2478  0.5144  0.3447
  558TMC3    C6 8332   3.999   2.441  10.111 -0.4717  0.1479 -0.0130
  558TMC3     C 8333   4.386   2.367  10.148 -0.0011  0.1618 -0.5589
  558TMC3     O 8334   4.388   2.388  10.267  0.2388  0.2082 -0.3630
  558TMC3     H 8335   4.204   2.212  10.259  0.7293 -1.4907 -1.7758
  558TMC3    H1 8336   4.284   2.455   9.930 -1.5152 -0.6567 -2.1228
  558TMC3    H2 8337   3.908   2.498  10.126  0.5112  0.8488  3.1450
  558TMC3    C7 8338   4.053   2.577   9.915 -0.7386 -0.4514  0.4158
  558TMC3    C8 8339   4.019   2.404  10.332 -0.1679  0.6932  0.7084
  558TMC3    O1 8340   4.151   2.620   9.855  0.0446  0.3455  0.1356
  558TMC3    O2 8341   3.906   2.446  10.344 -0.4202 -0.4842  0.2928
  559MPD2     C 8342   4.407   3.685  10.624 -1.1313  0.7359  0.0083
  559MPD2    C1 8343   4.377   3.610  10.732  0.3735  0.1151 -0.5684
  559MPD2    C2 8344   4.468   3.582  10.828 -0.3861  0.7198 -0.1971
  559MPD2    C3 8345   4.602   3.613  10.808 -0.8225  0.0646  0.5296
  559MPD2    C4 8346   4.629   3.670  10.687  0.5206 -0.7459 -0.3721
  559MPD2    C5 8347   4.536   3.711  10.599  0.6688  0.3625  0.3761
  559MPD2     H 8348   4.428   3.547  10.923  2.7688 -2.2025  0.0681
  559MPD2    H1 8349   4.732   3.686  10.658  1.6329 -1.8255  2.9623
  559MPD2    H2 8350   4.333   3.715  10.550  0.9933  3.6532 -0.9524
  559MPD2    H3 8351   4.557   3.763  10.506  0.2453 -2.0157 -1.0293
  559MPD2     N 8352   4.704   3.583  10.905  0.1260  0.7299 -0.4887
  559MPD2    H5 8353   4.681   3.536  10.992  0.9350  1.5101  0.1432
  559MPD2    N1 8354   4.245   3.585  10.758 -0.2025  0.3159 -0.2691
  559MPD2    H7 8355   4.171   3.627  10.701 -0.7950  0.1942  0.4139
  560TMC3    C1 8356   0.170   3.576  11.021 -0.3070 -0.2217  0.3268
  560TMC3    C2 8357   0.144   3.443  11.044 -0.3499 -0.1996  0.3961
  560TMC3    C3 8358   0.238   3.380  11.116 -0.9459  0.3326  0.0995
  560TMC3    C4 8359   0.281   3.649  11.078 -0.2855  0.1606  0.3630
  560TMC3    C5 8360   0.355   3.571  11.161  0.4714  0.9034 -0.7135
  560TMC3    C6 8361   0.337   3.434  11.181 -0.3654 -0.4592 -0.4540
  560TMC3     C 8362   0.102   3.629  10.905  0.1884 -0.4218 -0.0695
  560TMC3     O 8363   0.148   3.727  10.842  0.6274 -0.1015  0.1529
  560TMC3     H 8364   0.064   3.386  10.999  1.2805 -1.5398 -0.7898
  560TMC3    H1 8365   0.295   3.753  11.051 -3.3504  0.2688 -0.8149
  560TMC3    H2 8366   0.407   3.369  11.233 -0.7324  0.8307  1.6739
  560TMC3    C7 8367   0.431   3.633  11.252 -0.0118 -0.4923  0.5977
  560TMC3    C8 8368   0.211   3.236  11.141 -0.7232  0.6022  0.2481
  560TMC3    O1 8369   0.391   3.629  11.366  0.2441  0.0693  0.3724
  560TMC3    O2 8370   0.194   3.160  11.047 -0.1862  0.1363 -0.2768
  561TMC3    C1 8371   2.872   2.305  10.971  0.6909 -0.0605 -0.4393
  561TMC3    C2 8372   2.803   2.233  11.059  1.0923 -0.1159  0.2335
  561TMC3    C3 8373   2.725   2.297  11.153  0.5390  0.0681 -0.8594
  561TMC3    C4 8374   2.851   2.433  10.953 -0.0218  0.0999 -0.8291
  561TMC3    C5 8375   2.755   2.492  11.036  0.4561 -0.3844  0.2370
  561TMC3    C6 8376   2.695   2.427  11.142 -0.1852 -0.3453 -0.7557
  561TMC3     C 8377   2.985   2.241  10.918  0.0335  0.2134  0.4991
  561TMC3     O 8378   2.983   2.121  10.935 -0.2385 -0.2132  0.2065
  561TMC3     H 8379   2.833   2.131  11.082  1.9449 -0.1784 -1.1670
  561TMC3    H1 8380   2.891   2.487  10.868  0.2251 -2.4078 -2.3245
  561TMC3    H2 8381   2.619   2.472  11.205  0.9241  0.2658  0.1388
  561TMC3    C7 8382   2.762   2.641  11.040  0.2023 -0.1876 -0.3867
  561TMC3    C8 8383   2.687   2.214  11.268  1.2668 -0.1955  0.2988
  561TMC3    O1 8384   2.756   2.696  11.147  0.3579 -0.5207 -0.0203
  561TMC3    O2 8385   2.709   2.092  11.268  0.6888 -0.0882  0.2541
  562TMC3    C1 8386   4.184   3.839  16.344  0.4065 -0.3203 -0.5418
  562TMC3    C2 8387   4.219   3.971  16.338  0.3006  0.2433  0.3453
  562TMC3    C3 8388   4.270   4.023  16.220 -0.2374  0.6487  0.5538
  562TMC3    C4 8389   4.190   3.761  16.235 -0.2446 -0.0404 -0.7693
  562TMC3    C5 8390   4.246   3.804  16.114  0.1212 -0.5634 -0.3383
  562TMC3    C6 8391   4.289   3.933  16.120  0.6703  0.8592  0.5115
  562TMC3     C 8392   4.195   3.769  16.463 -0.2786 -0.6903  0.1619
  562TMC3     O 8393   4.158   3.654  16.466  0.5317  0.3275 -0.6919
  562TMC3     H 8394   4.223   4.043  16.418 -1.7463  0.7042  0.0187
  562TMC3    H1 8395   4.165   3.657  16.246 -0.5010 -0.1088 -1.9871
  562TMC3    H2 8396   4.360   3.963  16.043 -0.4216 -0.9308 -1.1960
  562TMC3    C7 8397   4.181   3.773  15.986 -0.6496  0.6900 -0.1833
  562TMC3    C8 8398   4.230   4.157  16.177 -0.3458 -0.2083  0.1145
  562TMC3    O1 8399   4.163   3.872  15.918  0.2107  0.3073 -0.1696
  562TMC3    O2 8400   4.217   4.253  16.254 -0.2365  0.6112 -0.1982
  563MPD2     C 8401   1.898   1.020  15.444 -0.5088 -0.1260 -0.1594
  563MPD2    C1 8402   2.005   1.019  15.526 -1.0188  0.3398  0.0950
  563MPD2    C2 8403   2.109   0.919  15.495 -0.7019 -0.0346 -1.4190
  563MPD2    C3 8404   2.073   0.822  15.397 -0.7025 -0.5642 -0.5753
  563MPD2    C4 8405   1.968   0.838  15.315 -0.1274 -0.2447 -0.0912
  563MPD2    C5 8406   1.876   0.927  15.348 -0.2146 -0.4572  0.4180
  563MPD2     H 8407   2.202   0.910  15.549 -1.2042  2.4893 -0.1471
  563MPD2    H1 8408   1.941   0.764  15.240 -1.3902 -1.1956  1.2917
  563MPD2    H2 8409   1.820   1.095  15.453  2.4356  3.0776 -1.0186
  563MPD2    H3 8410   1.781   0.931  15.296  0.6252  0.1214 -1.1072
  563MPD2     N 8411   2.165   0.713  15.382  0.1219 -0.3227 -0.5489
  563MPD2    H5 8412   2.234   0.689  15.453 -0.4164 -0.4874 -0.0875
  563MPD2    N1 8413   2.011   1.109  15.631 -0.1462  0.2645 -0.5731
  563MPD2    H7 8414   1.921   1.155  15.643 -0.2085  0.2475 -0.9496
  564TMC3    C1 8415   2.122   1.140  15.839 -0.3643  0.0428 -0.6047
  564TMC3    C2 8416   2.002   1.166  15.894  0.3959 -0.1329  0.0036
  564TMC3    C3 8417   1.972   1.130  16.021  0.9680 -0.8534 -0.4280
  564TMC3    C4 8418   2.212   1.064  15.910  0.2297 -0.3718 -0.7483
  564TMC3    C5 8419   2.183   1.019  16.030  0.2497  0.4642  0.2119
  564TMC3    C6 8420   2.062   1.054  16.091 -0.4601 -0.5064  0.0644
  564TMC3     C 8421   2.131   1.130  15.695  0.4425  0.3531  0.3033
  564TMC3     O 8422   2.244   1.094  15.663 -0.0458  0.0092  0.2762
  564TMC3     H 8423   1.935   1.234  15.842  0.6463 -0.1991 -0.4007
  564TMC3    H1 8424   2.307   1.035  15.867 -0.2061  0.8532 -2.4934
  564TMC3    H2 8425   2.053   1.012  16.190  1.1446  1.4994  1.0733
  564TMC3    C7 8426   2.180   0.874  16.022  0.1554 -0.1953  0.1068
  564TMC3    C8 8427   1.845   1.056  16.027 -0.1648 -0.2172 -0.9350
  564TMC3    O1 8428   2.208   0.814  16.124 -0.4095  0.3502 -0.5212
  564TMC3    O2 8429   1.829   1.000  16.133 -0.0661 -0.1718 -0.4875
  565TMC3    C1 8430   1.699   1.997  10.725 -0.4799 -0.3828 -0.3589
  565TMC3    C2 8431   1.791   1.921  10.789 -0.1005 -0.4371  0.8078
  565TMC3    C3 8432   1.738   1.815  10.866  0.0658 -0.3416 -0.3635
  565TMC3    C4 8433   1.569   1.978  10.739 -0.2459  0.1032 -0.0130
  565TMC3    C5 8434   1.519   1.882  10.823  0.1984  0.1887  0.0735
  565TMC3    C6 8435   1.606   1.789  10.882 -0.3671  0.1080  0.4171
  565TMC3     C 8436   1.741   2.109  10.639  1.0479  0.1381 -1.0027
  565TMC3     O 8437   1.670   2.147  10.548  0.5916 -0.0732  0.1821
  565TMC3     H 8438   1.898   1.932  10.771 -0.0977 -0.1988  0.9806
  565TMC3    H1 8439   1.504   2.044  10.681 -1.1273 -1.5366 -0.9004
  565TMC3    H2 8440   1.572   1.716  10.954 -0.6069  0.7007  0.9009
  565TMC3    C7 8441   1.375   1.858  10.826 -0.7431  0.6255 -0.4290
  565TMC3    C8 8442   1.831   1.735  10.942  0.2047 -0.5564  0.3179
  565TMC3    O1 8443   1.310   1.906  10.734 -0.7655  0.1918  0.0749
  565TMC3    O2 8444   1.810   1.613  10.940  0.6243 -0.2910  0.1861
  566MPD2     C 8445   3.463   2.782  14.358 -0.3150  0.1276 -0.6957
  566MPD2    C1 8446   3.453   2.888  14.272  1.2804  0.4011  0.1683
  566MPD2    C2 8447   3.327   2.928  14.224  0.3993  0.4431 -0.5730
  566MPD2    C3 8448   3.213   2.850  14.246  0.0179  0.2858  0.5366
  566MPD2    C4 8449   3.225   2.747  14.338 -0.1444 -0.1497  0.1167
  566MPD2    C5 8450   3.345   2.714  14.378  0.0877 -0.1743  0.8467
  566MPD2     H 8451   3.313   3.024  14.175 -1.9090  0.2022 -0.3873
  566MPD2    H1 8452   3.144   2.687  14.377 -0.7441 -0.0542 -1.0130
  566MPD2    H2 8453   3.555   2.749  14.404 -1.4835 -2.7054 -0.3913
  566MPD2    H3 8454   3.347   2.628  14.444  0.7826 -1.6569 -1.1144
  566MPD2     N 8455   3.086   2.868  14.187  0.5701  0.3435 -0.3103
  566MPD2    H5 8456   3.006   2.820  14.227  0.9616  0.3030  0.4108
  566MPD2    N1 8457   3.571   2.956  14.250 -0.3982  0.2398  0.2567
  566MPD2    H7 8458   3.653   2.916  14.294 -0.9154 -1.0918  0.0101
  567TMC3    C1 8459   3.718   3.114  14.164 -0.1667 -0.1234  0.3538
  567TMC3    C2 8460   3.759   3.138  14.030  0.0075 -0.5235  0.0067
  567TMC3    C3 8461   3.894   3.161  14.012 -0.2726 -1.5248  0.1499
  567TMC3    C4 8462   3.799   3.094  14.269 -0.4541  0.0673 -0.1237
  567TMC3    C5 8463   3.933   3.117  14.245  0.6905 -0.1119 -0.1588
  567TMC3    C6 8464   3.978   3.158  14.121  0.1974  0.2392 -0.4489
  567TMC3     C 8465   3.586   3.065  14.169  0.4449  0.5236 -0.0287
  567TMC3     O 8466   3.506   3.115  14.094 -0.1250  0.7020  0.0479
  567TMC3     H 8467   3.688   3.126  13.949  0.0239 -0.2154 -0.0524
  567TMC3    H1 8468   3.754   3.082  14.367 -1.4089  0.1398 -0.5468
  567TMC3    H2 8469   4.081   3.188  14.110  0.6707 -0.6197  1.7477
  567TMC3    C7 8470   4.030   3.048  14.330 -0.7705 -0.3006 -0.5495
  567TMC3    C8 8471   3.931   3.222  13.887 -0.2979 -0.2801  0.0399
  567TMC3    O1 8472   4.143   3.084  14.314  0.4527 -0.1372 -0.0950
  567TMC3    O2 8473   3.831   3.245  13.811  0.3271 -0.3519 -0.1479
  568MPD2     C 8474   1.746   4.226  16.245 -0.9448 -0.0242 -0.3778
  568MPD2    C1 8475   1.736   4.289  16.365  0.0460  0.5242  0.0122
  568MPD2    C2 8476   1.755   4.426  16.370  0.2628 -0.2777 -0.2434
  568MPD2    C3 8477   1.781   4.500  16.256  0.3394  0.0213 -0.3791
  568MPD2    C4 8478   1.809   4.430  16.140  0.0604  0.3294 -0.1172
  568MPD2    C5 8479   1.786   4.300  16.137 -0.5854 -0.1714 -0.0717
  568MPD2     H 8480   1.756   4.475  16.467 -0.8354  2.0428 -1.3995
  568MPD2    H1 8481   1.837   4.478  16.046  0.0772  1.1723  0.3213
  568MPD2    H2 8482   1.726   4.119  16.248  1.2421 -0.4559 -1.3960
  568MPD2    H3 8483   1.785   4.245  16.044 -0.1125  1.9169 -1.3000
  568MPD2     N 8484   1.780   4.647  16.257  0.0683 -0.1253 -0.1454
  568MPD2    H5 8485   1.720   4.692  16.326  0.8294 -2.2849  1.8816
  568MPD2    N1 8486   1.712   4.209  16.476  0.3812  0.4057 -0.4393
  568MPD2    H7 8487   1.718   4.109  16.459 -2.1072 -0.0427  1.4337
  569TMC3    C1 8488   1.785   0.129  16.166  0.5505  0.3553  0.4029
  569TMC3    C2 8489   1.796   0.186  16.288 -0.0541  0.0003 -1.1785
  569TMC3    C3 8490   1.783   0.323  16.300 -0.6588 -0.1045  0.6720
  569TMC3    C4 8491   1.757   0.202  16.057  0.3679 -0.6639 -0.3842
  569TMC3    C5 8492   1.743   0.339  16.077  0.2163  0.2804  0.0428
  569TMC3    C6 8493   1.738   0.399  16.197 -0.1438 -0.9515 -0.1900
  569TMC3     C 8494   1.815   4.726  16.148 -0.2516  0.6914  0.0419
  569TMC3     O 8495   1.886   4.699  16.052 -0.5633 -0.1820  0.0585
  569TMC3     H 8496   1.851   0.130  16.363 -1.1706  0.6101  0.1003
  569TMC3    H1 8497   1.740   0.148  15.964 -2.9699 -0.5751  0.2019
  569TMC3    H2 8498   1.689   0.493  16.220  0.4475 -0.6830 -0.0281
  569TMC3    C7 8499   1.711   0.422  15.959 -0.2642  0.7873 -0.3403
  569TMC3    C8 8500   1.812   0.374  16.440 -0.1482  0.3456 -0.0983
  569TMC3    O1 8501   1.680   0.353  15.865  0.7300  0.2469 -0.0845
  569TMC3    O2 8502   1.832   0.285  16.527 -0.5879 -0.2686 -0.0815
  570TMC3    C1 8503   0.732   3.083  16.059 -0.3912 -0.2637  0.1161
  570TMC3    C2 8504   0.813   3.087  15.945  0.3248  0.4983 -0.3944
  570TMC3    C3 8505   0.887   3.198  15.935 -0.0634  0.0451  0.1615
  570TMC3    C4 8506   0.737   3.180  16.152  0.1128 -0.1413 -0.1751
  570TMC3    C5 8507   0.827   3.280  16.142 -0.3433 -0.9775 -0.2578
  570TMC3    C6 8508   0.888   3.300  16.018  0.2120 -0.3653  0.0691
  570TMC3     C 8509   0.652   2.967  16.076  0.4222  0.8467 -0.7890
  570TMC3     O 8510   0.691   2.863  16.025 -0.3759 -0.4091 -0.3432
  570TMC3     H 8511   0.815   3.007  15.873  0.5875 -0.1153  0.2964
  570TMC3    H1 8512   0.693   3.165  16.250  1.8131 -2.1628  0.2877
  570TMC3    H2 8513   0.932   3.397  15.998  1.8811 -0.5962  2.6300
  570TMC3    C7 8514   0.846   3.377  16.250 -0.5416 -0.6533  0.5282
  570TMC3    C8 8515   0.975   3.224  15.829  0.6005 -0.2284  0.1524
  570TMC3    O1 8516   0.809   3.346  16.360  0.5024  0.1066 -0.2786
  570TMC3    O2 8517   1.062   3.309  15.842 -0.1814  0.8035 -0.6515
  571MPD2     C 8518   3.252   0.365   0.701 -0.2177 -0.1402 -0.3656
  571MPD2    C1 8519   3.320   0.371   0.822  0.4337 -0.4579  0.2288
  571MPD2    C2 8520   3.296   0.476   0.908 -0.1463 -0.1959 -0.1906
  571MPD2    C3 8521   3.213   0.579   0.873  1.1293  0.4312 -0.1780
  571MPD2    C4 8522   3.141   0.575   0.761 -0.1568 -0.1300 -0.0476
  571MPD2    C5 8523   3.170   0.472   0.677 -0.6995 -0.0571 -0.2310
  571MPD2     H 8524   3.355   0.486   0.998  0.9708  0.4510 -0.9974
  571MPD2    H1 8525   3.070   0.652   0.735  0.7595  0.4216 -0.9349
  571MPD2    H2 8526   3.275   0.294   0.622 -1.1719 -0.3681 -0.4387
  571MPD2    H3 8527   3.112   0.475   0.586 -0.3194 -0.0283 -0.4743
  571MPD2     N 8528   3.206   0.704   0.942  0.2870  0.1723  0.4928
  571MPD2    H5 8529   3.129   0.766   0.917  0.4833  0.8589  1.6004
  571MPD2    N1 8530   3.410   0.266   0.846 -0.1812  0.2502  0.9732
  571MPD2    H7 8531   3.402   0.190   0.779  0.8441  1.5923 -0.6987
  572TMC3    C1 8532   3.246   0.874   1.084 -0.0446 -0.0131 -0.4004
  572TMC3    C2 8533   3.302   0.912   1.201 -0.3280 -0.2244  0.0407
  572TMC3    C3 8534   3.323   1.047   1.217  1.3031 -0.0968  0.0142
  572TMC3    C4 8535   3.212   0.968   0.994  0.7764  0.0764  0.2776
  572TMC3    C5 8536   3.237   1.102   1.011 -0.5112 -0.0924  1.0366
  572TMC3    C6 8537   3.286   1.146   1.134 -0.2187  0.6427 -0.7504
  572TMC3     C 8538   3.291   0.745   1.043  0.0390 -0.5771  0.3233
  572TMC3     O 8539   3.387   0.688   1.091 -0.5063  0.4456  0.0665
  572TMC3     H 8540   3.358   0.844   1.264  0.3207  0.0728 -0.2185
  572TMC3    H1 8541   3.170   0.939   0.898  0.1070  0.8820  0.3304
  572TMC3    H2 8542   3.316   1.249   1.148 -0.1795  0.7415 -1.5461
  572TMC3    C7 8543   3.261   1.191   0.895 -0.4027  0.1525  0.4757
  572TMC3    C8 8544   3.381   1.090   1.344 -0.0438  0.3687 -0.9272
  572TMC3    O1 8545   3.173   1.180   0.810 -0.2790 -0.1376  0.0032
  572TMC3    O2 8546   3.432   1.203   1.347  0.0623  0.2479 -0.1888
  573MPD2     C 8547   4.575   0.385   0.150  0.3913 -0.4642  0.3391
  573MPD2    C1 8548   4.628   0.506   0.168  0.3990  0.4090  0.6501
  573MPD2    C2 8549   4.685   0.562   0.050 -0.3226 -0.7521 -0.6642
  573MPD2    C3 8550   4.686   0.500  17.664  0.8829 -0.8933  0.1330
  573MPD2    C4 8551   4.606   0.386  17.651  1.0234  1.0329  0.0354
  573MPD2    C5 8552   4.565   0.323   0.026 -0.1610  1.0107  0.4820
  573MPD2     H 8553   4.721   0.663   0.064 -0.6764 -0.8841  1.1864
  573MPD2    H1 8554   4.593   0.343  17.553 -0.0677 -1.6552  1.3665
  573MPD2    H2 8555   4.529   0.329   0.230  0.8149 -0.9976  0.2129
  573MPD2    H3 8556   4.514   0.229   0.010  2.6181 -0.4523  0.2362
  573MPD2     N 8557   0.019   0.544  17.547 -0.0590 -0.2207 -0.2384
  573MPD2    H5 8558   4.734   0.492  17.462  0.9591 -2.0803  0.6872
  573MPD2    N1 8559   4.612   0.570   0.294 -0.2280  0.3458  0.7679
  573MPD2    H7 8560   4.577   0.505   0.364 -0.1057 -0.7209 -0.1552
  574TMC3    C1 8561   0.133   0.705  17.406  0.1140 -0.2061 -0.6490
  574TMC3    C2 8562   0.144   0.844  17.382 -0.0266  0.8747 -0.2892
  574TMC3    C3 8563   0.155   0.886  17.254  0.1160 -0.9407 -0.1484
  574TMC3    C4 8564   0.138   0.616  17.306  0.0266 -0.5159 -0.2645
  574TMC3    C5 8565   0.155   0.660  17.177  0.4196 -0.9265  0.7144
  574TMC3    C6 8566   0.158   0.797  17.149  0.0576 -0.2861 -0.0092
  574TMC3     C 8567   0.082   0.669  17.537 -0.7511 -0.2835  0.9885
  574TMC3     O 8568   0.091   0.753  17.625 -0.3097 -0.1141 -0.2011
  574TMC3     H 8569   0.134   0.902  17.473 -0.9665  1.9782 -1.1070
  574TMC3    H1 8570   0.114   0.513  17.328 -0.5842 -0.7458 -2.0335
  574TMC3    H2 8571   0.154   0.842  17.050  0.6953 -0.2453 -0.0170
  574TMC3    C7 8572   0.142   0.558  17.070  0.0171  0.1250 -0.2034
  574TMC3    C8 8573   0.089   1.015  17.226 -0.0876  0.2871 -0.6398
  574TMC3    O1 8574   0.099   0.444  17.102  0.4534 -0.3755 -0.5747
  574TMC3    O2 8575   0.101   1.064  17.115 -0.4679  0.8922 -0.0598
  575TMC3    C1 8576   2.265   1.103  11.420  0.4790  0.8960 -0.1572
  575TMC3    C2 8577   2.235   0.990  11.350  0.4420 -0.7240 -0.6748
  575TMC3    C3 8578   2.155   0.991  11.242 -0.3057 -0.4142  0.0027
  575TMC3    C4 8579   2.224   1.214  11.366 -1.0171 -0.3041  0.0129
  575TMC3    C5 8580   2.163   1.224  11.242 -0.3277  0.1246 -0.2630
  575TMC3    C6 8581   2.120   1.110  11.188  0.5015  0.2514  0.1447
  575TMC3     C 8582   2.356   1.091  11.537  0.6204 -0.3163 -0.2477
  575TMC3     O 8583   2.405   0.980  11.551  0.1050 -0.4880 -0.3842
  575TMC3     H 8584   2.260   0.894  11.394  0.0399 -0.2247  0.6422
  575TMC3    H1 8585   2.233   1.306  11.424 -0.3224 -0.3024 -0.1022
  575TMC3    H2 8586   2.083   1.107  11.087 -0.7605  0.9774  0.5862
  575TMC3    C7 8587   2.119   1.347  11.188 -0.6688  0.9500  0.2661
  575TMC3    C8 8588   2.137   0.865  11.180 -0.1774  0.0983 -0.4921
  575TMC3    O1 8589   2.050   1.341  11.089 -0.5568  0.1869  0.1030
  575TMC3    O2 8590   2.234   0.793  11.194  0.7467 -0.4945  0.3344
  576MPD2     C 8591   2.018   2.817  12.421  0.3878  0.1718 -0.5484
  576MPD2    C1 8592   1.987   2.875  12.295 -0.4677 -0.4282 -0.5810
  576MPD2    C2 8593   1.909   2.989  12.295  0.2085 -0.2492 -0.0147
  576MPD2    C3 8594   1.868   3.055  12.406 -0.5486 -0.5743  0.0528
  576MPD2    C4 8595   1.913   3.002  12.523 -1.1344 -0.2212  0.6794
  576MPD2    C5 8596   1.990   2.890  12.533 -0.4071  0.1484 -0.1255
  576MPD2     H 8597   1.894   3.032  12.197  1.1474  0.2013  0.0382
  576MPD2    H1 8598   1.888   3.044  12.620 -3.5728 -0.3930  0.1313
  576MPD2    H2 8599   2.072   2.723  12.429  0.0345  0.2516  2.8636
  576MPD2    H3 8600   2.020   2.860  12.633  1.9712  1.0896 -0.5380
  576MPD2     N 8601   1.792   3.171  12.385  0.2901  0.5556  0.3385
  576MPD2    H5 8602   1.750   3.171  12.293 -0.0438  1.8452  0.4827
  576MPD2    N1 8603   2.023   2.826  12.170 -0.2851 -0.3429 -0.3414
  576MPD2    H7 8604   1.982   2.862  12.084 -2.0538 -2.6733 -0.4976
  577TMC3    C1 8605   2.134   2.679  12.012 -0.0805  0.2203 -0.0614
  577TMC3    C2 8606   2.189   2.555  11.984 -0.0326 -0.2142 -0.9006
  577TMC3    C3 8607   2.242   2.528  11.861  0.2905 -0.3515  0.7239
  577TMC3    C4 8608   2.131   2.774  11.916  0.1691  0.3812 -0.1603
  577TMC3    C5 8609   2.165   2.743  11.787 -0.3497  0.2340  0.0272
  577TMC3    C6 8610   2.233   2.626  11.760  0.3084  0.5970  0.1717
  577TMC3     C 8611   2.094   2.707  12.149 -0.0744 -0.4149  0.8945
  577TMC3     O 8612   2.132   2.627  12.235  0.2979  0.1148  0.0873
  577TMC3     H 8613   2.194   2.487  12.068 -1.6851 -0.1575 -0.7588
  577TMC3    H1 8614   2.085   2.868  11.944  1.0159  1.4351 -2.3350
  577TMC3    H2 8615   2.255   2.594  11.658 -0.9136 -0.1893  0.1503
  577TMC3    C7 8616   2.139   2.839  11.678 -0.0747  0.3737  0.1497
  577TMC3    C8 8617   2.330   2.414  11.856  0.4241  0.3167  0.8656
  577TMC3    O1 8618   2.218   2.819  11.592  1.0589 -0.2883 -0.2722
  577TMC3    O2 8619   2.324   2.321  11.935  0.0561  0.2549  0.4152
  578MPD2     C 8620   4.514   3.644   1.263  0.3610  0.3620  0.1719
  578MPD2    C1 8621   4.546   3.563   1.157 -0.3688  0.2505  0.2459
  578MPD2    C2 8622   4.680   3.517   1.155  0.0719 -0.4703 -0.4790
  578MPD2    C3 8623   0.042   3.560   1.247  0.0911 -0.1248  0.3262
  578MPD2    C4 8624   0.002   3.638   1.354 -0.2634  0.2144  0.2813
  578MPD2    C5 8625   4.608   3.688   1.356  0.0496  0.6484  0.0613
  578MPD2     H 8626   4.708   3.455   1.071 -0.3787  1.0821 -1.7914
  578MPD2    H1 8627   0.065   3.672   1.435  1.3006  0.3459 -1.0003
  578MPD2    H2 8628   4.418   3.694   1.262  0.5792  0.7690 -0.5316
  578MPD2    H3 8629   4.584   3.743   1.446  2.5401  2.9076 -0.6510
  578MPD2     N 8630   0.173   3.531   1.226 -0.1346 -0.2223 -0.2852
  578MPD2    H5 8631   0.200   3.483   1.141 -1.0269 -2.0301  0.4377
  578MPD2    N1 8632   4.449   3.522   1.061  0.3447 -0.1764  0.4815
  578MPD2    H7 8633   4.361   3.572   1.059  1.7025  2.1527 -2.1562
  579TMC3    C1 8634   0.405   3.562   1.240 -0.0611  0.2759 -0.3945
  579TMC3    C2 8635   0.497   3.657   1.226  0.6042 -0.0784 -0.0131
  579TMC3    C3 8636   0.623   3.627   1.205 -0.0306 -0.1579 -0.0174
  579TMC3    C4 8637   0.433   3.430   1.213 -0.1074  0.6950 -0.6003
  579TMC3    C5 8638   0.563   3.400   1.198 -0.2770 -0.1798 -0.6303
  579TMC3    C6 8639   0.662   3.497   1.209 -0.1321 -0.1380 -0.3307
  579TMC3     C 8640   0.278   3.596   1.295 -0.8984  0.3798 -0.3654
  579TMC3     O 8641   0.283   3.682   1.382 -0.2290  0.5128  0.2642
  579TMC3     H 8642   0.469   3.761   1.236  1.6249  0.1580  0.3897
  579TMC3    H1 8643   0.355   3.355   1.214 -0.6559  1.2732 -0.1289
  579TMC3    H2 8644   0.764   3.462   1.213 -0.4591 -0.8207  2.0937
  579TMC3    C7 8645   0.593   3.271   1.124  0.5525 -0.7727  0.1108
  579TMC3    C8 8646   0.720   3.725   1.224  0.1236 -0.1914 -0.2293
  579TMC3    O1 8647   0.712   3.242   1.113  0.8246 -0.5769 -0.4202
  579TMC3    O2 8648   0.689   3.817   1.296  0.2524 -0.3458  0.5349
  580TMC3    C1 8649   4.488   2.600  12.398  0.3372  0.1330  0.3866
  580TMC3    C2 8650   4.591   2.675  12.365 -0.1770  0.3212 -0.2265
  580TMC3    C3 8651   4.724   2.648  12.409  0.1283  0.2392  0.3916
  580TMC3    C4 8652   4.516   2.486  12.470  0.1491  0.2992 -0.7085
  580TMC3    C5 8653   4.639   2.461  12.525  0.0964  0.8835  0.7296
  580TMC3    C6 8654   0.013   2.543  12.490  0.8754 -0.4190 -0.1862
  580TMC3     C 8655   4.361   2.621  12.321 -0.3095 -0.4285 -0.7912
  580TMC3     O 8656   4.380   2.690  12.221 -0.2211  0.2120 -0.5864
  580TMC3     H 8657   4.583   2.770  12.312 -1.6447 -0.5070 -1.4911
  580TMC3    H1 8658   4.438   2.412  12.482  0.5923  0.3747  2.8526
  580TMC3    H2 8659   0.113   2.519  12.526  1.7602  3.4800 -0.0083
  580TMC3    C7 8660   4.673   2.326  12.533 -0.0783 -0.4712 -0.0442
  580TMC3    C8 8661   0.103   2.700  12.333  0.6843  0.3053 -0.9439
  580TMC3    O1 8662   4.591   2.256  12.595 -0.1748 -0.0123 -0.3813
  580TMC3    O2 8663   0.210   2.699  12.392 -0.4010 -0.2345 -0.2464
  581MPD2     C 8664   2.725   1.725  15.120 -0.0611  0.0822  0.0985
  581MPD2    C1 8665   2.713   1.840  15.193  0.1070 -0.0074 -0.0318
  581MPD2    C2 8666   2.628   1.939  15.153 -0.3171 -0.2514  0.1775
  581MPD2    C3 8667   2.526   1.905  15.067 -0.5284 -0.1385  0.5638
  581MPD2    C4 8668   2.519   1.782  15.008 -0.7954 -0.1109  0.2876
  581MPD2    C5 8669   2.627   1.702  15.024  0.0836  0.4243  0.4534
  581MPD2     H 8670   2.622   2.044  15.180  1.5600 -0.1202  0.0805
  581MPD2    H1 8671   2.434   1.751  14.948 -0.3482 -0.2108 -0.2933
  581MPD2    H2 8672   2.795   1.645  15.144 -0.3692 -0.6175 -1.3894
  581MPD2    H3 8673   2.626   1.602  14.981 -0.7484 -0.0223  1.5006
  581MPD2     N 8674   2.438   2.009  15.019 -0.4078  0.1980 -0.3862
  581MPD2    H5 8675   2.480   2.101  15.008  1.5668 -0.7811 -1.0378
  581MPD2    N1 8676   2.792   1.838  15.307  0.2545 -0.7424 -0.6713
  581MPD2    H7 8677   2.862   1.764  15.311  0.9283 -0.1756 -2.3109
  582TMC3    C1 8678   2.846   1.886  15.535  0.5005 -1.1056 -0.4463
  582TMC3    C2 8679   2.825   1.971  15.644 -0.9128 -0.4091 -0.2673
  582TMC3    C3 8680   2.825   1.899  15.767  0.2881  0.2546 -0.2658
  582TMC3    C4 8681   2.890   1.750  15.540 -0.7778 -0.1201  0.1663
  582TMC3    C5 8682   2.866   1.697  15.661 -0.5619 -0.8104  0.1323
  582TMC3    C6 8683   2.837   1.767  15.775  0.2577 -1.0037 -0.3979
  582TMC3     C 8684   2.779   1.931  15.415  0.0700 -0.1468 -0.0562
  582TMC3     O 8685   2.702   2.026  15.419 -0.1098 -0.3530 -0.0193
  582TMC3     H 8686   2.798   2.076  15.638  0.3867 -0.0923 -0.5554
  582TMC3    H1 8687   2.926   1.681  15.465 -0.2185  0.1998  0.1393
  582TMC3    H2 8688   2.829   1.713  15.868  3.1388  0.8674  0.9639
  582TMC3    C7 8689   2.882   1.560  15.686  0.4964 -0.6495  0.1825
  582TMC3    C8 8690   2.836   1.977  15.890  0.1863 -0.6474 -0.1150
  582TMC3    O1 8691   2.977   1.542  15.765 -0.7421  0.2295  0.7560
  582TMC3    O2 8692   2.772   2.082  15.903  0.2462 -0.3498  0.2320
  583MPD2     C 8693   2.731   3.603  16.841 -0.7805 -0.0509 -0.6993
  583MPD2    C1 8694   2.699   3.694  16.744 -0.5802 -0.6171  0.3205
  583MPD2    C2 8695   2.624   3.807  16.790  0.2434 -0.1392 -0.7088
  583MPD2    C3 8696   2.594   3.826  16.920  0.5920  0.2195 -0.3858
  583MPD2    C4 8697   2.633   3.725  17.012  0.6364 -0.2969  0.7194
  583MPD2    C5 8698   2.698   3.615  16.970  0.5490  0.4307 -0.1375
  583MPD2     H 8699   2.591   3.884  16.721  0.0253  0.9581  0.6298
  583MPD2    H1 8700   2.613   3.720  17.118  1.4643  0.5925  0.9164
  583MPD2    H2 8701   2.789   3.512  16.826  0.2204  0.9228 -2.6750
  583MPD2    H3 8702   2.729   3.543  17.044 -0.2710 -1.0768 -1.2720
  583MPD2     N 8703   2.508   3.930  16.954 -0.0931  0.6083  0.1798
  583MPD2    H5 8704   2.488   3.990  16.875 -0.0062  1.1872  0.5894
  583MPD2    N1 8705   2.736   3.672  16.606  0.4469  0.1772 -0.0995
  583MPD2    H7 8706   2.717   3.744  16.537  0.5335  0.5823  0.2964
  584TMC3    C1 8707   2.336   4.061  17.059  0.0080 -0.0747 -0.0904
  584TMC3    C2 8708   2.365   4.171  16.986 -0.1344 -0.3590 -0.3850
  584TMC3    C3 8709   2.276   4.274  17.007 -1.3840  0.1363  0.5365
  584TMC3    C4 8710   2.208   4.032  17.116  0.4991  0.2290  0.1644
  584TMC3    C5 8711   2.121   4.134  17.125  0.1614  0.0964  0.1636
  584TMC3    C6 8712   2.152   4.255  17.070  0.8971  0.5484 -0.6312
  584TMC3     C 8713   2.424   3.951  17.064 -0.1605  0.8049 -1.0957
  584TMC3     O 8714   2.422   3.886  17.167 -0.4834  0.0783 -0.0162
  584TMC3     H 8715   2.459   4.168  16.932 -0.7247 -1.0074 -1.3709
  584TMC3    H1 8716   2.198   3.936  17.165  2.6164  0.3183  0.8041
  584TMC3    H2 8717   2.085   4.340  17.078 -0.1580 -0.5007  1.7427
  584TMC3    C7 8718   2.056   4.140  17.256  0.2076  0.0085 -0.5938
  584TMC3    C8 8719   2.285   4.382  16.917  0.1255 -0.1171 -0.0028
  584TMC3    O1 8720   2.098   4.056  17.335 -0.0556  0.2589 -0.0803
  584TMC3    O2 8721   2.184   4.427  16.866 -0.1857 -0.2612 -0.3270
  585MPD2     C 8722   2.124   3.001   0.780 -0.3538  0.2196 -0.6313
  585MPD2    C1 8723   2.147   2.952   0.654  0.3690 -0.1726 -0.6775
  585MPD2    C2 8724   2.095   2.825   0.607 -0.1132 -0.3781  0.9412
  585MPD2    C3 8725   2.001   2.759   0.689  0.3330  0.2405  0.6651
  585MPD2    C4 8726   1.977   2.805   0.812 -0.0713 -0.2322 -0.0818
  585MPD2    C5 8727   2.025   2.930   0.848  0.5743 -0.0302 -1.2648
  585MPD2     H 8728   2.127   2.781   0.513 -1.1581  2.3631 -0.7189
  585MPD2    H1 8729   1.923   2.746   0.885 -1.2430 -0.1826 -0.9203
  585MPD2    H2 8730   2.167   3.090   0.823  2.5630 -1.9210  0.8624
  585MPD2    H3 8731   1.997   2.958   0.949 -1.4207 -2.5011 -1.1372
  585MPD2     N 8732   1.944   2.634   0.657 -0.1208 -0.6087 -0.8875
  585MPD2    H5 8733   1.877   2.596   0.723 -0.3918 -1.4257 -1.6371
  585MPD2    N1 8734   2.216   3.032   0.559 -0.3359 -0.8980 -0.2475
  585MPD2    H7 8735   2.247   3.122   0.593 -0.9548 -0.3158 -1.2054
  586TMC3    C1 8736   1.907   2.435   0.523  0.1244  0.0019  0.1423
  586TMC3    C2 8737   1.989   2.342   0.468  0.2392  0.0632  0.3098
  586TMC3    C3 8738   1.936   2.278   0.355  0.4883  0.0035 -0.5019
  586TMC3    C4 8739   1.788   2.464   0.476  0.6977  0.2451 -0.6607
  586TMC3    C5 8740   1.746   2.408   0.358  0.3020 -0.9042 -0.8319
  586TMC3    C6 8741   1.816   2.304   0.303  0.4808  0.4138  0.1548
  586TMC3     C 8742   1.984   2.554   0.556 -0.7168 -0.9629 -0.1861
  586TMC3     O 8743   2.081   2.566   0.485  0.0242 -0.9090  0.6527
  586TMC3     H 8744   2.086   2.311   0.505  0.9004 -0.7288 -2.0719
  586TMC3    H1 8745   1.748   2.550   0.529 -1.0769 -0.4631 -0.8394
  586TMC3    H2 8746   1.785   2.262   0.208  0.2440 -0.4808  0.6219
  586TMC3    C7 8747   1.603   2.409   0.315 -0.2646 -0.1844 -0.0606
  586TMC3    C8 8748   2.030   2.199   0.269  0.0154  0.0287 -0.5252
  586TMC3    O1 8749   1.562   2.309   0.258  0.1010  0.3694 -0.3533
  586TMC3    O2 8750   2.040   2.224   0.146 -0.3154 -0.0193  0.0256
  587TMC3    C1 8751   4.342   1.545  16.326 -0.1983  0.3366  0.4110
  587TMC3    C2 8752   4.374   1.652  16.403 -0.2596  0.1247  0.4189
  587TMC3    C3 8753   4.491   1.640  16.485 -0.2167 -0.4513 -0.2416
  587TMC3    C4 8754   4.423   1.437  16.313  0.1133 -0.1277 -0.2906
  587TMC3    C5 8755   4.540   1.433  16.395 -0.7238  0.4520 -0.4046
  587TMC3    C6 8756   4.583   1.540  16.465  0.6960 -0.1875 -0.0411
  587TMC3     C 8757   4.227   1.544  16.231  0.6349 -0.2138 -0.0081
  587TMC3     O 8758   4.167   1.651  16.216 -0.8969  0.5237  0.4927
  587TMC3     H 8759   4.303   1.731  16.423  2.0918  1.9466  1.5698
  587TMC3    H1 8760   4.388   1.345  16.268 -1.1334  0.1987  0.0095
  587TMC3    H2 8761   4.650   1.527  16.549  1.9237 -0.1025 -0.9985
  587TMC3    C7 8762   4.619   1.308  16.370 -0.4127 -0.7849 -0.1718
  587TMC3    C8 8763   4.499   1.716  16.617  0.3500 -0.0808  0.0545
  587TMC3    O1 8764   4.591   1.244  16.268 -1.1826 -0.5538 -0.0096
  587TMC3    O2 8765   4.603   1.708  16.684  0.3072 -0.3222  0.0292
  588TMC3    C1 8766   1.249   3.915   9.806 -0.7992  0.0616 -0.4773
  588TMC3    C2 8767   1.219   3.792   9.765  0.6161 -0.4788 -0.3650
  588TMC3    C3 8768   1.301   3.683   9.803 -0.2704  0.2857  0.3875
  588TMC3    C4 8769   1.353   3.937   9.894 -0.5590 -0.5924  0.8495
  588TMC3    C5 8770   1.436   3.834   9.919 -0.1925 -0.9348  0.1259
  588TMC3    C6 8771   1.413   3.705   9.878  0.4469 -0.2308  0.1332
  588TMC3     C 8772   1.154   4.027   9.790 -0.1485  0.0897  0.2484
  588TMC3     O 8773   1.036   4.000   9.777  0.0203  0.7596 -0.9128
  588TMC3     H 8774   1.128   3.780   9.707  0.9572 -0.1596 -0.9695
  588TMC3    H1 8775   1.368   4.035   9.938  1.2116 -0.7116  0.4816
  588TMC3    H2 8776   1.495   3.635   9.893 -0.2762 -0.9283  0.8408
  588TMC3    C7 8777   1.567   3.862   9.987 -0.3222  0.0678 -0.6540
  588TMC3    C8 8778   1.263   3.545   9.774  0.2700  0.2826  0.0569
  588TMC3    O1 8779   1.615   3.774  10.057  0.1701  0.3647 -0.1728
  588TMC3    O2 8780   1.169   3.522   9.697  0.3545 -0.2917 -0.2028
  589TMC3    C1 8781   1.007   2.049   1.511  0.3975  0.1589 -0.5617
  589TMC3    C2 8782   1.089   2.141   1.572  0.2677  0.5923  0.3043
  589TMC3    C3 8783   1.223   2.110   1.584 -0.8416  0.1355  0.3196
  589TMC3    C4 8784   1.049   1.932   1.446  0.5702  0.2908 -0.2853
  589TMC3    C5 8785   1.181   1.916   1.451  0.7438 -0.0349 -0.1623
  589TMC3    C6 8786   1.273   1.999   1.516  0.1775  0.0501 -0.8236
  589TMC3     C 8787   0.862   2.066   1.522 -0.2341  1.0319  0.0758
  589TMC3     O 8788   0.800   2.022   1.428 -0.0952 -0.2825 -0.0516
  589TMC3     H 8789   1.046   2.228   1.621 -1.9710  0.2187 -0.9956
  589TMC3    H1 8790   0.985   1.858   1.400  0.6891  1.7461 -2.7563
  589TMC3    H2 8791   1.376   1.977   1.542  0.4158  0.8176 -1.1064
  589TMC3    C7 8792   1.214   1.776   1.433  0.0674  0.0397  0.0831
  589TMC3    C8 8793   1.310   2.223   1.602 -0.2464 -0.4532  0.5557
  589TMC3    O1 8794   1.130   1.695   1.397 -0.0919  0.0614 -0.0733
  589TMC3    O2 8795   1.260   2.323   1.647  0.1610 -0.2586  0.2620
  590MPD2     C 8796   0.476   4.059  16.754 -0.2458  0.3663  0.0362
  590MPD2    C1 8797   0.452   4.069  16.617 -0.6493 -0.5145 -0.0269
  590MPD2    C2 8798   0.531   4.162  16.550  0.5201  0.7775 -0.3304
  590MPD2    C3 8799   0.630   4.243  16.609 -1.2391 -0.0674 -0.5270
  590MPD2    C4 8800   0.655   4.214  16.740  0.0381  0.1379  0.1628
  590MPD2    C5 8801   0.577   4.124  16.810 -0.1000  0.2816  0.5971
  590MPD2     H 8802   0.521   4.172  16.442 -0.7185  0.6541 -0.2275
  590MPD2    H1 8803   0.737   4.265  16.790  0.2756 -0.2159  0.1244
  590MPD2    H2 8804   0.407   4.011  16.822 -2.9109  1.2468 -2.0785
  590MPD2    H3 8805   0.597   4.107  16.915  0.2822 -1.2865  0.2769
  590MPD2     N 8806   0.699   4.346  16.543 -0.5858 -0.1733  0.3365
  590MPD2    H5 8807   0.668   4.347  16.446  2.5723 -1.7626 -0.6830
  590MPD2    N1 8808   0.340   4.001  16.561  0.3366  0.5020  0.0709
  590MPD2    H7 8809   0.287   3.933  16.615  2.9172 -2.6992 -1.4439
  591TMC3    C1 8810   0.849   4.505  16.477 -0.5469 -0.6692 -0.6794
  591TMC3    C2 8811   0.970   4.548  16.484  1.2153 -0.5491 -0.7225
  591TMC3    C3 8812   1.021   4.641  16.399 -0.1428  0.5035 -0.7446
  591TMC3    C4 8813   0.767   4.547  16.383 -0.5104  0.3722  1.0799
  591TMC3    C5 8814   0.815   4.634  16.288  0.1494 -0.7854 -0.1912
  591TMC3    C6 8815   0.943   4.681  16.292  0.1483  0.3383  0.7139
  591TMC3     C 8816   0.812   4.413  16.579 -0.1583 -0.4578 -0.0029
  591TMC3     O 8817   0.881   4.408  16.678  0.5052 -0.0707 -0.0356
  591TMC3     H 8818   1.041   4.507  16.556 -0.6453 -2.1761  0.1771
  591TMC3    H1 8819   0.665   4.512  16.384 -0.3204 -0.2163 -0.1452
  591TMC3    H2 8820   0.983   0.011  16.216  0.4336  0.1731  0.7251
  591TMC3    C7 8821   0.715   4.697  16.200  0.1150 -0.0377 -0.0316
  591TMC3    C8 8822   1.170   4.634  16.389  0.1526  0.3792  0.0041
  591TMC3    O1 8823   0.615   4.633  16.180  0.0152 -0.1680 -0.4719
  591TMC3    O2 8824   1.225   4.531  16.419 -0.3024  0.0357 -0.3709
  592MPD2     C 8825   0.503   1.827  11.575 -0.0785  0.6177  0.7006
  592MPD2    C1 8826   0.532   1.867  11.704 -0.7729 -0.0175 -0.5835
  592MPD2    C2 8827   0.505   1.781  11.809  0.6140  0.2782  0.7189
  592MPD2    C3 8828   0.434   1.659  11.786 -0.3299  0.3123  1.1337
  592MPD2    C4 8829   0.407   1.622  11.658  0.4891 -0.1531 -0.5817
  592MPD2    C5 8830   0.439   1.707  11.552 -0.4486  0.5942 -0.0648
  592MPD2     H 8831   0.536   1.809  11.909 -2.1448 -0.5763  1.8183
  592MPD2    H1 8832   0.352   1.533  11.630  1.0968 -0.5546 -0.4958
  592MPD2    H2 8833   0.528   1.883  11.486  2.0346 -0.2081  0.7652
  592MPD2    H3 8834   0.414   1.691  11.447  0.7376  2.0726 -0.5818
  592MPD2     N 8835   0.389   1.584  11.893  0.2917 -0.8689 -0.0246
  592MPD2    H5 8836   0.391   1.628  11.984 -0.7828  1.5770 -1.1927
  592MPD2    N1 8837   0.562   1.999  11.726 -0.0378  0.8710 -0.1730
  592MPD2    H7 8838   0.552   2.051  11.639  0.2202  1.3737  0.1007
  593TMC3    C1 8839   0.581   2.208  11.838  0.2530 -0.2215 -0.2765
  593TMC3    C2 8840   0.530   2.283  11.942  0.0190  0.3440 -0.3301
  593TMC3    C3 8841   0.531   2.417  11.927 -0.0628 -0.0589 -0.5829
  593TMC3    C4 8842   0.655   2.264  11.740 -0.0808  0.1353  0.4880
  593TMC3    C5 8843   0.659   2.398  11.732  0.1614 -0.2144 -0.2935
  593TMC3    C6 8844   0.598   2.473  11.829 -0.0848 -0.3285 -0.3020
  593TMC3     C 8845   0.563   2.064  11.850  0.3166  0.0906 -0.2248
  593TMC3     O 8846   0.552   2.019  11.959 -0.3762 -0.5766  0.4600
  593TMC3     H 8847   0.469   2.243  12.022  1.7992 -1.2962  0.1998
  593TMC3    H1 8848   0.718   2.201  11.678  0.4634  0.3059  0.8625
  593TMC3    H2 8849   0.605   2.579  11.805  0.1607  0.0655  1.5369
  593TMC3    C7 8850   0.699   2.462  11.614  0.0507 -0.3029  0.3935
  593TMC3    C8 8851   0.535   2.486  12.050  0.5347 -0.9368  0.0910
  593TMC3    O1 8852   0.709   2.586  11.622  0.0174 -0.0518  0.5381
  593TMC3    O2 8853   0.459   2.455  12.141 -0.4185 -0.4004  0.4432
  594MPD2     C 8854   4.327   4.347  14.128 -0.0074  0.2239 -0.6208
  594MPD2    C1 8855   4.277   4.351  14.257 -0.2736 -0.0662  0.1772
  594MPD2    C2 8856   4.324   4.451  14.348 -0.2101 -0.6302  0.3227
  594MPD2    C3 8857   4.412   4.547  14.303 -0.4322 -0.2198  0.0192
  594MPD2    C4 8858   4.441   4.548  14.169 -1.2390 -0.3143 -0.1451
  594MPD2    C5 8859   4.396   4.452  14.085 -0.1972  0.3743 -0.3312
  594MPD2     H 8860   4.289   4.448  14.451 -0.7650 -3.6379  0.0386
  594MPD2    H1 8861   4.486   4.632  14.118  1.1591 -1.4986  0.0583
  594MPD2    H2 8862   4.294   4.285  14.046 -2.6311  0.6668  0.0983
  594MPD2    H3 8863   4.432   4.461  13.983  2.1512  1.8988  0.6240
  594MPD2     N 8864   4.453   4.639  14.403 -0.5421  0.4276 -0.2198
  594MPD2    H5 8865   4.418   4.623  14.497  0.4068 -2.3455 -0.3347
  594MPD2    N1 8866   4.192   4.249  14.299  0.1642 -0.5702  0.2327
  594MPD2    H7 8867   4.177   4.174  14.233  1.3572 -3.3305  3.0878
  595TMC3    C1 8868   0.055   0.077  14.659  0.2044 -0.3527  0.1437
  595TMC3    C2 8869   0.008   0.021  14.543  0.8683  0.1700 -1.0170
  595TMC3    C3 8870   4.602   0.021  14.521  0.2121 -0.2041  0.0268
  595TMC3    C4 8871   4.705   0.138  14.742 -0.0037  0.1324 -0.1345
  595TMC3    C5 8872   4.575   0.157  14.709 -0.1000 -0.1320 -0.6304
  595TMC3    C6 8873   4.519   0.084  14.607 -0.3007 -0.4909  0.1457
  595TMC3     C 8874   0.185   0.144  14.669 -0.0692  0.5188 -0.2180
  595TMC3     O 8875   0.196   0.250  14.726 -0.6393  0.0709  0.0872
  595TMC3     H 8876   0.080   4.715  14.473 -1.0662 -2.8150 -1.2190
  595TMC3    H1 8877   0.004   0.171  14.840 -0.7108 -2.5299  1.0312
  595TMC3    H2 8878   4.416   0.108  14.581 -0.4661  0.8216  1.9884
  595TMC3    C7 8879   4.552   0.301  14.692  0.1524  0.2041 -0.7470
  595TMC3    C8 8880   4.558   4.718  14.391 -0.1813  0.0987 -0.1509
  595TMC3    O1 8881   4.433   0.326  14.670 -0.2899  0.2281 -0.5311
  595TMC3    O2 8882   4.638   4.735  14.298  0.5214  0.3893 -0.0364
  596MPD2     C 8883   3.569   3.297  16.827  0.6805  0.2567 -0.1727
  596MPD2    C1 8884   3.580   3.391  16.726 -0.8337  0.1107 -0.2384
  596MPD2    C2 8885   3.578   3.352  16.592  0.6131  0.4019 -0.5069
  596MPD2    C3 8886   3.568   3.219  16.554  0.6313  0.1204 -0.0854
  596MPD2    C4 8887   3.538   3.127  16.653  0.1335  0.3043  0.3732
  596MPD2    C5 8888   3.556   3.166  16.785 -0.2366  0.3962 -0.1726
  596MPD2     H 8889   3.579   3.428  16.515 -0.7763 -0.5415 -1.4575
  596MPD2    H1 8890   3.529   3.025  16.618 -3.6468  0.4052  1.0636
  596MPD2    H2 8891   3.580   3.328  16.931 -1.4186 -0.9852  0.4263
  596MPD2    H3 8892   3.569   3.085  16.857 -0.4759  2.0377  1.7299
  596MPD2     N 8893   3.573   3.177  16.416  0.2574  0.4391  0.2056
  596MPD2    H5 8894   3.564   3.078  16.393  0.5651  0.0043  1.9534
  596MPD2    N1 8895   3.578   3.532  16.741 -0.1592  0.1581 -0.6709
  596MPD2    H7 8896   3.562   3.585  16.656 -0.6514  0.7084 -0.2354
  597TMC3    C1 8897   3.535   3.738  16.823 -0.1906  0.4093 -0.9817
  597TMC3    C2 8898   3.600   3.800  16.721 -0.0788  0.1745 -0.2855
  597TMC3    C3 8899   3.563   3.933  16.686 -0.4891  0.0460 -0.5023
  597TMC3    C4 8900   3.434   3.797  16.887 -0.8406  0.5748  0.2035
  597TMC3    C5 8901   3.402   3.922  16.851 -0.0396 -0.1501  0.1705
  597TMC3    C6 8902   3.470   4.005  16.758  0.5394 -0.0314  1.2462
  597TMC3     C 8903   3.560   3.601  16.852 -0.4315 -0.0849 -0.2391
  597TMC3     O 8904   3.549   3.557  16.963  0.0887 -0.0910 -0.3104
  597TMC3     H 8905   3.684   3.750  16.674  2.0894  3.0833  0.4989
  597TMC3    H1 8906   3.375   3.753  16.966 -1.5153  0.3346 -0.4368
  597TMC3    H2 8907   3.440   4.107  16.735  1.8927 -0.3658 -2.0408
  597TMC3    C7 8908   3.298   3.978  16.937  0.7050 -0.0942  0.0779
  597TMC3    C8 8909   3.612   3.995  16.562 -0.9101  0.0390 -0.7569
  597TMC3    O1 8910   3.314   3.958  17.057  0.0636  0.3621 -0.1818
  597TMC3    O2 8911   3.582   4.110  16.537  0.8681 -0.3580  0.1318
  598TMC3    C1 8912   1.650   0.156  15.508  0.8814 -0.8087 -0.1730
  598TMC3    C2 8913   1.543   0.089  15.549  0.2298  0.3058 -0.4397
  598TMC3    C3 8914   1.438   0.082  15.464 -0.4328 -0.7869  0.0792
  598TMC3    C4 8915   1.665   0.210  15.377 -0.0136 -0.1575 -0.2092
  598TMC3    C5 8916   1.558   0.191  15.295 -0.1848  0.0577  0.7261
  598TMC3    C6 8917   1.445   0.123  15.334 -0.2071 -0.0529 -0.0084
  598TMC3     C 8918   1.778   0.166  15.584 -0.5047 -0.1031 -0.1707
  598TMC3     O 8919   1.862   0.253  15.549 -0.4992 -0.1030 -0.4756
  598TMC3     H 8920   1.530   0.064  15.654  0.2343 -0.7898 -0.6937
  598TMC3    H1 8921   1.762   0.250  15.351 -0.5082  1.3791  0.2809
  598TMC3    H2 8922   1.360   0.117  15.267 -1.5224  1.5402  1.4966
  598TMC3    C7 8923   1.570   0.224  15.159  0.1188 -0.5285  0.0702
  598TMC3    C8 8924   1.317   0.033  15.515 -0.4537  0.3373  0.0319
  598TMC3    O1 8925   1.489   0.179  15.078 -0.5592  0.1188  0.0219
  598TMC3    O2 8926   1.239   4.719  15.435  0.3552 -0.2790 -0.3063
  599MPD2     C 8927   2.153   2.438  16.300  1.5408 -0.5686 -0.1488
  599MPD2    C1 8928   2.086   2.330  16.256 -0.0708 -0.3476  0.6856
  599MPD2    C2 8929   1.957   2.311  16.293 -0.8881 -0.0639 -0.3978
  599MPD2    C3 8930   1.896   2.407  16.366 -0.4026 -1.2510 -0.1766
  599MPD2    C4 8931   1.956   2.518  16.411  0.1819  0.5788  0.0825
  599MPD2    C5 8932   2.087   2.536  16.373 -0.4611 -0.5673 -0.0500
  599MPD2     H 8933   1.894   2.233  16.251  1.1658 -2.1494  0.3908
  599MPD2    H1 8934   1.893   2.597  16.449  0.3885  0.1590  1.2857
  599MPD2    H2 8935   2.259   2.453  16.282  0.9594  2.3398 -1.1314
  599MPD2    H3 8936   2.127   2.632  16.401  0.3802 -0.7470 -0.6133
  599MPD2     N 8937   1.761   2.405  16.403  0.2550  0.0116  1.1172
  599MPD2    H5 8938   1.728   2.490  16.448 -1.0885 -1.4776  2.9428
  599MPD2    N1 8939   2.160   2.244  16.175  0.2039  0.6887 -0.2222
  599MPD2    H7 8940   2.261   2.250  16.184  0.2217 -0.3716  0.3489
  600TMC3    C1 8941   1.545   2.336  16.459 -0.1572 -1.0497  1.3165
  600TMC3    C2 8942   1.478   2.225  16.520 -0.1948  0.1315  0.2116
  600TMC3    C3 8943   1.380   2.254  16.613 -0.3862 -0.2129  0.9048
  600TMC3    C4 8944   1.529   2.464  16.509  0.0378 -0.9578  0.3066
  600TMC3    C5 8945   1.436   2.481  16.610  0.0112  0.3913 -0.2227
  600TMC3    C6 8946   1.356   2.379  16.657 -0.6191 -0.2385 -0.0079
  600TMC3     C 8947   1.672   2.303  16.392 -0.0686 -0.0956 -0.3766
  600TMC3     O 8948   1.685   2.183  16.368  0.2599  0.0118  0.7364
  600TMC3     H 8949   1.472   2.127  16.476  0.9307  0.8432 -1.5316
  600TMC3    H1 8950   1.565   2.552  16.456 -0.9263 -0.6685  0.1381
  600TMC3    H2 8951   1.295   2.393  16.746  0.9628 -0.4476  1.1004
  600TMC3    C7 8952   1.437   2.602  16.691 -0.7272 -0.1848  0.0388
  600TMC3    C8 8953   1.319   2.134  16.678  0.2822 -0.0206 -0.4089
  600TMC3    O1 8954   1.345   2.616  16.770  0.2516  0.5457 -0.8063
  600TMC3    O2 8955   1.386   2.034  16.675 -0.2718  0.3626  0.4603
  601MPD2     C 8956   3.525   1.520   0.632  0.4154 -0.1727 -0.6740
  601MPD2    C1 8957   3.414   1.449   0.596  0.0192 -0.3893 -0.3665
  601MPD2    C2 8958   3.367   1.361   0.691  0.3322  0.2797  0.0334
  601MPD2    C3 8959   3.435   1.334   0.806  0.0045  0.5154  0.0511
  601MPD2    C4 8960   3.561   1.385   0.828 -0.1367 -0.4719  1.2254
  601MPD2    C5 8961   3.604   1.475   0.737  0.0151  0.0356  0.3104
  601MPD2     H 8962   3.275   1.308   0.667 -0.0852  1.3383 -0.6673
  601MPD2    H1 8963   3.618   1.360   0.917  1.3125  0.0971  0.4579
  601MPD2    H2 8964   3.565   1.595   0.564 -2.1712 -0.2812 -2.3343
  601MPD2    H3 8965   3.693   1.535   0.753  0.2040 -0.5992  1.6475
  601MPD2     N 8966   3.377   1.254   0.903 -0.2336  0.4892  0.4609
  601MPD2    H5 8967   3.436   1.245   0.985 -0.5093 -0.3991  0.5563
  601MPD2    N1 8968   3.335   1.466   0.484  0.1521 -0.6760 -0.4561
  601MPD2    H7 8969   3.252   1.407   0.479  0.2567 -0.8745  0.0882
  602TMC3    C1 8970   3.250   1.540   0.276  0.1188 -0.1371  0.0639
  602TMC3    C2 8971   3.243   1.633   0.171  0.2142 -0.8615 -0.3788
  602TMC3    C3 8972   3.151   1.616   0.078 -0.4814  0.4626  0.1469
  602TMC3    C4 8973   3.171   1.423   0.262 -0.0335 -0.0713 -0.4460
  602TMC3    C5 8974   3.067   1.420   0.176  0.3436  0.1686 -0.3337
  602TMC3    C6 8975   3.050   1.517   0.075  0.2060 -0.2392 -0.0350
  602TMC3     C 8976   3.349   1.554   0.377  0.1197  1.0226 -1.0225
  602TMC3     O 8977   3.431   1.644   0.352  0.6225  0.2706 -0.9206
  602TMC3     H 8978   3.320   1.708   0.157  0.3306 -0.8929  0.0896
  602TMC3    H1 8979   3.170   1.339   0.332 -2.2339 -1.0579 -1.6801
  602TMC3    H2 8980   2.973   1.516  17.739  1.1934 -1.3194 -1.0328
  602TMC3    C7 8981   2.983   1.297   0.180 -0.4960 -0.4559 -0.3612
  602TMC3    C8 8982   3.138   1.714  17.706  0.2606 -0.4357 -0.2284
  602TMC3    O1 8983   2.993   1.218   0.267 -0.6009  0.1812 -0.0313
  602TMC3    O2 8984   3.197   1.823  17.717 -0.0923  0.5388 -0.2015
  603TMC3    C1 8985   1.299   1.510  11.451  0.8450 -0.5464 -0.9272
  603TMC3    C2 8986   1.394   1.537  11.549 -1.0016  0.5653  0.3917
  603TMC3    C3 8987   1.524   1.517  11.511 -0.0269 -0.1786 -0.4854
  603TMC3    C4 8988   1.319   1.482  11.321  0.0143 -0.0594  0.4108
  603TMC3    C5 8989   1.450   1.451  11.288 -0.0372  0.9222 -1.0277
  603TMC3    C6 8990   1.549   1.479  11.384  0.6796  0.2304 -0.2421
  603TMC3     C 8991   1.189   1.445  11.513  0.1950 -0.4699 -0.0686
  603TMC3     O 8992   1.085   1.433  11.452 -0.1227  0.0656  0.0855
  603TMC3     H 8993   1.375   1.562  11.653  0.1123 -0.3650  0.8204
  603TMC3    H1 8994   1.241   1.453  11.251  0.3595  1.8233 -0.7454
  603TMC3    H2 8995   1.653   1.482  11.354  0.6997 -0.6450 -0.2396
  603TMC3    C7 8996   1.492   1.456  11.147  0.1533 -0.1774  0.0345
  603TMC3    C8 8997   1.628   1.534  11.613 -0.8037  0.4189  1.1304
  603TMC3    O1 8998   1.607   1.501  11.136  0.8238 -0.7776  0.1724
  603TMC3    O2 8999   1.593   1.513  11.727  0.4305  0.1092  0.0074
  604MPD2     C 9000   2.910   0.026  15.975  0.4450 -0.3292  0.1449
  604MPD2    C1 9001   2.790   4.702  15.954 -0.7483  0.2466 -0.0567
  604MPD2    C2 9002   2.778   4.608  15.855  0.2022 -0.5301 -1.0076
  604MPD2    C3 9003   2.877   4.581  15.763  0.4447 -0.3700 -0.2016
  604MPD2    C4 9004   2.989   4.652  15.770 -0.3128 -0.1381  0.3365
  604MPD2    C5 9005   3.007   0.001  15.876  0.1807 -0.3619  0.4293
  604MPD2     H 9006   2.688   4.548  15.846  0.8777 -1.1468 -3.6881
  604MPD2    H1 9007   3.065   4.651  15.692  1.4956  0.1770  2.0958
  604MPD2    H2 9008   2.916   0.098  16.055 -4.6095  1.3980 -1.0201
  604MPD2    H3 9009   3.101   0.054  15.884  0.2258 -0.5165  0.9006
  604MPD2     N 9010   2.853   4.490  15.662  0.5546 -0.2876 -0.3163
  604MPD2    H5 9011   2.759   4.455  15.647  1.2710 -1.4998 -2.0756
  604MPD2    N1 9012   2.687   4.730  16.048  0.4171  0.7739  0.4710
  604MPD2    H7 9013   2.720   0.045  16.129 -2.7736  1.6588  1.2315
  605TMC3    C1 9014   2.469   0.056  16.123  0.0291 -0.3076 -0.3976
  605TMC3    C2 9015   2.532   0.073  16.244 -0.3069 -0.0057 -0.5571
  605TMC3    C3 9016   2.472   0.164  16.328 -0.2288 -0.4075 -0.0734
  605TMC3    C4 9017   2.359   0.125  16.084 -0.2426  0.6284 -0.9640
  605TMC3    C5 9018   2.306   0.216  16.169 -0.0047  0.3403  0.1247
  605TMC3    C6 9019   2.362   0.233  16.292  0.5015  0.3537 -0.5146
  605TMC3     C 9020   2.553   4.726  16.022  0.2535  0.4761 -0.1811
  605TMC3     O 9021   2.499   4.694  15.917  0.6048  0.2397 -0.3824
  605TMC3     H 9022   2.610   0.007  16.280  0.1029 -0.5350 -2.3655
  605TMC3    H1 9023   2.323   0.114  15.982 -2.0333  3.0000 -0.5891
  605TMC3    H2 9024   2.308   0.298  16.361 -0.8635 -4.0698  2.5832
  605TMC3    C7 9025   2.257   0.347  16.110 -0.8186 -0.2832 -0.6182
  605TMC3    C8 9026   2.575   0.254  16.389  0.5231 -0.4051  0.1315
  605TMC3    O1 9027   2.273   0.446  16.182 -0.1923 -0.8872  0.2977
  605TMC3    O2 9028   2.569   0.278  16.509 -0.0759  0.1632 -0.1822
  606TMC3    C1 9029   3.229   3.954  17.457  0.3342  0.2457  0.2584
  606TMC3    C2 9030   3.188   3.915  17.583  0.6491  1.0819 -0.2018
  606TMC3    C3 9031   3.196   3.785  17.628  0.0530 -0.9979 -0.1267
  606TMC3    C4 9032   3.258   3.853  17.364 -0.4935 -0.0265 -0.3119
  606TMC3    C5 9033   3.247   3.722  17.410  0.4313 -0.1010 -0.0447
  606TMC3    C6 9034   3.206   3.686  17.539  0.0229  0.5721 -0.7932
  606TMC3     C 9035   3.266   4.093  17.440 -0.0899  0.1055  0.5174
  606TMC3     O 9036   3.250   4.158  17.540 -0.2525  0.2305 -0.1972
  606TMC3     H 9037   3.175   3.991  17.659  1.4201  1.6671 -0.6613
  606TMC3    H1 9038   3.277   3.869  17.258 -0.2145 -1.1801 -0.4345
  606TMC3    H2 9039   3.212   3.586  17.581  0.6596  2.0058  2.4514
  606TMC3    C7 9040   3.282   3.623  17.314  0.2678 -0.2674  0.7537
  606TMC3    C8 9041   3.223   3.773   0.027  0.0318 -0.0829 -0.2510
  606TMC3    O1 9042   3.324   3.654  17.203  0.0311 -0.8383 -0.3178
  606TMC3    O2 9043   3.178   3.851   0.112  0.2629  0.0663 -0.0671
  607MPD2     C 9044   0.692   1.464  12.235  0.2894 -0.7420 -0.2746
  607MPD2    C1 9045   0.762   1.555  12.314 -0.3483  0.1289 -0.2628
  607MPD2    C2 9046   0.799   1.517  12.443 -0.0898  0.3483  0.1345
  607MPD2    C3 9047   0.788   1.391  12.486 -1.0665 -0.3835 -0.0287
  607MPD2    C4 9048   0.713   1.301  12.415  0.0376 -0.0906 -0.3289
  607MPD2    C5 9049   0.663   1.341  12.293 -0.0456 -0.2624 -0.1205
  607MPD2     H 9050   0.843   1.591  12.509 -0.6203  1.7169 -1.0446
  607MPD2    H1 9051   0.699   1.196  12.438 -1.4243  0.2222  0.2249
  607MPD2    H2 9052   0.652   1.480  12.135  2.5307 -0.8484 -1.1757
  607MPD2    H3 9053   0.601   1.272  12.237  0.3560 -0.8367  0.1385
  607MPD2     N 9054   0.861   1.357  12.596 -0.2055 -0.3148 -0.2545
  607MPD2    H5 9055   0.914   1.432  12.640 -1.4868 -0.1873  1.0440
  607MPD2    N1 9056   0.792   1.687  12.272  0.8136 -0.8169  0.3333
  607MPD2    H7 9057   0.853   1.744  12.330 -2.6598  4.1900 -0.9179
  608TMC3    C1 9058   0.880   1.827  12.105  0.2901  0.0568  0.2653
  608TMC3    C2 9059   0.985   1.841  12.192  0.0889 -0.4181  0.2858
  608TMC3    C3 9060   1.082   1.930  12.155 -0.5553 -0.3463 -0.3816
  608TMC3    C4 9061   0.860   1.908  11.991 -0.0243 -0.2227 -0.2443
  608TMC3    C5 9062   0.946   2.018  11.985  0.4940 -0.2007  0.3972
  608TMC3    C6 9063   1.058   2.028  12.057 -0.1857 -0.3561  0.7308
  608TMC3     C 9064   0.776   1.731  12.141  0.1132  0.1616  0.2391
  608TMC3     O 9065   0.709   1.699  12.043 -0.0222  0.1915 -0.0679
  608TMC3     H 9066   1.013   1.755  12.252 -1.4814 -1.0980  0.0410
  608TMC3    H1 9067   0.777   1.898  11.922 -0.4459  0.7367  0.1293
  608TMC3    H2 9068   1.146   2.088  12.035 -0.6478 -0.0898 -0.3742
  608TMC3    C7 9069   0.958   2.087  11.857  0.4835  0.0388  0.0386
  608TMC3    C8 9070   1.191   1.944  12.243  0.3382  0.2972 -0.0388
  608TMC3    O1 9071   0.909   2.041  11.757 -0.9404  0.2039  0.8095
  608TMC3    O2 9072   1.292   1.989  12.194 -0.6121  0.0428 -0.2563
  609TMC3    C1 9073   3.780   0.713   9.069 -0.2363 -0.1458 -0.6372
  609TMC3    C2 9074   3.762   0.751   8.933 -0.4946  0.6689  0.1614
  609TMC3    C3 9075   3.846   0.705   8.840 -0.0454 -0.7602  0.3295
  609TMC3    C4 9076   3.880   0.625   9.105  0.5536 -0.0816  0.3962
  609TMC3    C5 9077   3.965   0.587   9.006  0.2340 -0.2203 -0.9117
  609TMC3    C6 9078   3.954   0.623   8.876  0.2202 -0.9193 -0.1319
  609TMC3     C 9079   3.684   0.759   9.165  0.4128  0.4683 -0.4986
  609TMC3     O 9080   3.679   0.699   9.273 -0.0654  0.4319 -0.2963
  609TMC3     H 9081   3.672   0.806   8.906 -1.1993  0.0975  1.3477
  609TMC3    H1 9082   3.883   0.585   9.206 -1.1273 -0.2223  0.3904
  609TMC3    H2 9083   4.023   0.585   8.802 -2.3416 -1.0720 -2.4334
  609TMC3    C7 9084   4.052   0.484   9.040 -0.4670 -0.2812  0.1567
  609TMC3    C8 9085   3.831   0.729   8.690 -0.2953  0.0184 -0.7460
  609TMC3    O1 9086   4.100   0.480   9.154 -0.6780 -0.0869  0.5039
  609TMC3    O2 9087   3.896   0.650   8.619 -0.3087  0.6989  0.1786
  610TMC3    C1 9088   1.585   1.564  12.884 -0.0787  0.4020  0.1869
  610TMC3    C2 9089   1.660   1.655  12.822  0.2859  0.1958  0.5714
  610TMC3    C3 9090   1.780   1.629  12.762  0.3173 -0.2645 -0.0702
  610TMC3    C4 9091   1.633   1.433  12.901  0.5287  0.2667  0.8861
  610TMC3    C5 9092   1.742   1.405  12.823 -0.5267  0.2095  0.3782
  610TMC3    C6 9093   1.821   1.495  12.760  0.5890 -0.2855  0.0965
  610TMC3     C 9094   1.455   1.590  12.941 -1.3341  0.0045 -0.8239
  610TMC3     O 9095   1.396   1.502  13.007 -0.1275  0.2158  0.6538
  610TMC3     H 9096   1.630   1.759  12.828  3.2769  1.1211 -0.3102
  610TMC3    H1 9097   1.582   1.358  12.960  1.2992 -0.3942  0.7120
  610TMC3    H2 9098   1.887   1.454  12.685 -0.7843  2.3706 -2.5490
  610TMC3    C7 9099   1.787   1.271  12.833 -0.4567 -0.0626  0.9283
  610TMC3    C8 9100   1.830   1.723  12.671 -0.1373  0.0915  0.7167
  610TMC3    O1 9101   1.906   1.257  12.832  0.4041 -0.0010 -0.0051
  610TMC3    O2 9102   1.753   1.818  12.647  0.0920  0.2922 -0.5017
  611MPD2     C 9103   0.405   1.357  10.858  0.3958 -0.2454 -0.6580
  611MPD2    C1 9104   0.387   1.338  10.721 -0.6408 -0.7820 -0.1562
  611MPD2    C2 9105   0.494   1.323  10.642  0.1922 -0.0946  0.8450
  611MPD2    C3 9106   0.618   1.329  10.692  0.3418  0.1928 -0.7735
  611MPD2    C4 9107   0.638   1.357  10.829  0.2822 -0.1674  0.4496
  611MPD2    C5 9108   0.529   1.364  10.909 -0.4396 -0.5240 -0.4649
  611MPD2     H 9109   0.469   1.285  10.543 -0.4946  2.3922  0.0629
  611MPD2    H1 9110   0.736   1.351  10.875  0.3375 -0.9822  0.2282
  611MPD2    H2 9111   0.322   1.374  10.926  1.9081  0.4079  1.0310
  611MPD2    H3 9112   0.547   1.368  11.016  0.2540 -2.6770 -0.5163
  611MPD2     N 9113   0.731   1.305  10.606 -0.1708 -0.1261 -0.2068
  611MPD2    H5 9114   0.825   1.289  10.642 -0.3608  0.7537  0.6432
  611MPD2    N1 9115   0.254   1.335  10.671  0.6759  0.3993 -0.2490
  611MPD2    H7 9116   0.187   1.358  10.744  0.3793  1.7806 -0.9602
  612TMC3    C1 9117   0.862   1.257  10.421  0.1425  0.1311 -0.0412
  612TMC3    C2 9118   0.970   1.327  10.479  0.0238  0.2189 -0.2390
  612TMC3    C3 9119   1.093   1.294  10.428  0.4907 -0.1230  1.2571
  612TMC3    C4 9120   0.876   1.169  10.317 -0.2698  0.1862  0.2695
  612TMC3    C5 9121   1.005   1.146  10.265  0.0639 -0.4939 -0.1876
  612TMC3    C6 9122   1.112   1.211  10.314  0.0718 -0.2466 -0.0564
  612TMC3     C 9123   0.729   1.298  10.468 -0.2622  0.7043 -0.0556
  612TMC3     O 9124   0.636   1.322  10.391 -0.1765  0.1188 -0.2768
  612TMC3     H 9125   0.950   1.416  10.537 -3.3522 -1.6451  1.4130
  612TMC3    H1 9126   0.786   1.124  10.275  1.2952  0.3936 -3.2484
  612TMC3    H2 9127   1.214   1.201  10.280  0.2552  1.5256 -0.0368
  612TMC3    C7 9128   1.033   1.075  10.140  0.3782  0.1658 -0.5352
  612TMC3    C8 9129   1.204   1.373  10.475  0.6498 -0.1556 -0.0187
  612TMC3    O1 9130   1.148   1.043  10.123 -0.1667  0.0748 -0.4845
  612TMC3    O2 9131   1.297   1.375  10.402  0.5343  0.2908 -0.0343
  613MPD2     C 9132   4.710   3.358  16.028  0.1003  0.0234 -0.0119
  613MPD2    C1 9133   4.719   3.344  15.890 -1.0250  0.9246 -0.3244
  613MPD2    C2 9134   4.648   3.250  15.819  0.6607  1.1513  0.0106
  613MPD2    C3 9135   4.563   3.165  15.886  0.4703  0.3853 -0.1028
  613MPD2    C4 9136   4.550   3.177  16.026 -0.7228 -0.0566  0.2884
  613MPD2    C5 9137   4.622   3.269  16.091  0.8322  0.4741  0.5481
  613MPD2     H 9138   4.669   3.234  15.714  0.7405  2.1421 -0.1304
  613MPD2    H1 9139   4.479   3.123  16.087 -1.7473  1.6937  0.6416
  613MPD2    H2 9140   0.018   3.441  16.082  1.6381 -0.3161 -0.7254
  613MPD2    H3 9141   4.598   3.302  16.192 -1.3667  0.6171 -0.0229
  613MPD2     N 9142   4.513   3.061  15.807  0.6066  0.2562 -0.4601
  613MPD2    H5 9143   4.542   3.068  15.710  1.0758 -0.2174 -0.3485
  613MPD2    N1 9144   0.072   3.438  15.837 -0.2350 -0.0349 -0.0674
  613MPD2    H7 9145   0.139   3.479  15.902  1.0236 -3.6955  0.9031
  614TMC3    C1 9146   0.197   3.534  15.679 -0.1925 -0.0954 -0.2761
  614TMC3    C2 9147   0.286   3.442  15.640  0.4078 -0.2785  0.4394
  614TMC3    C3 9148   0.329   3.441  15.513 -0.1283  0.4720 -0.7957
  614TMC3    C4 9149   0.163   3.635  15.599  0.3497 -0.3285 -0.4199
  614TMC3    C5 9150   0.212   3.640  15.476 -0.1441 -0.5233  0.3377
  614TMC3    C6 9151   0.294   3.543  15.436  0.4961  0.3883 -0.1249
  614TMC3     C 9152   0.076   3.468  15.706 -0.1136  0.2853 -0.6130
  614TMC3     O 9153   4.734   3.442  15.614 -0.0194  0.5282 -0.6308
  614TMC3     H 9154   0.298   3.357  15.707 -1.6872 -0.5960  0.4337
  614TMC3    H1 9155   0.081   3.703  15.618 -2.0929 -3.6267  0.8229
  614TMC3    H2 9156   0.336   3.549  15.336 -1.4473 -0.8539 -0.9924
  614TMC3    C7 9157   0.127   3.698  15.377 -0.2375 -0.8198  0.3378
  614TMC3    C8 9158   0.287   3.309  15.450 -0.2759  0.1850 -0.1801
  614TMC3    O1 9159   0.166   3.804  15.332  0.1062 -0.1066  0.6769
  614TMC3    O2 9160   0.251   3.222  15.531  0.1181 -0.0409  0.3051
  615MPD2     C 9161   4.342   4.069  15.716 -0.0452 -0.6310 -0.6204
  615MPD2    C1 9162   4.335   4.208  15.694  0.1752 -0.2235 -0.6587
  615MPD2    C2 9163   4.253   4.262  15.596 -0.2220 -0.0131 -0.4682
  615MPD2    C3 9164   4.202   4.176  15.500  0.1680 -0.1320  0.0288
  615MPD2    C4 9165   4.217   4.042  15.517 -0.6042 -0.4355  0.2658
  615MPD2    C5 9166   4.281   3.987  15.624  0.1430 -0.3574 -0.6013
  615MPD2     H 9167   4.245   4.369  15.584 -0.7490 -0.0270 -0.2280
  615MPD2    H1 9168   4.175   3.975  15.443  0.7350  0.8045 -1.6280
  615MPD2    H2 9169   4.394   4.014  15.794 -1.3975 -0.6758  0.2576
  615MPD2    H3 9170   4.309   3.882  15.633 -1.6858 -0.9950 -2.2452
  615MPD2     N 9171   4.131   4.225  15.390 -0.0592  0.1673 -0.1856
  615MPD2    H5 9172   4.107   4.158  15.317 -0.3062  0.0985 -0.0415
  615MPD2    N1 9173   4.409   4.304  15.772  0.0755 -0.3868 -0.1764
  615MPD2    H7 9174   4.388   4.403  15.764 -0.7873 -0.6597 -1.1957
  616TMC3    C1 9175   4.561   4.373  15.948 -0.1804 -0.0225 -0.1898
  616TMC3    C2 9176   4.644   4.341  16.056  0.0547 -0.4401 -0.5236
  616TMC3    C3 9177   4.707   4.438  16.127  0.0954  0.5613 -0.2838
  616TMC3    C4 9178   4.539   4.502  15.923  0.2856  0.0622  0.0968
  616TMC3    C5 9179   4.605   4.599  16.003 -0.1479 -0.1573  0.1366
  616TMC3    C6 9180   4.689   4.568  16.107  0.5927 -0.1680 -0.3887
  616TMC3     C 9181   4.505   4.263  15.869  0.1291  0.1451  0.2596
  616TMC3     O 9182   4.549   4.151  15.883  0.2901  0.5173  0.0976
  616TMC3     H 9183   4.664   4.239  16.087  2.1401  0.1226 -0.0428
  616TMC3    H1 9184   4.476   4.542  15.844  0.9181 -0.9497 -0.9213
  616TMC3    H2 9185   4.720   4.644  16.177 -1.2272 -0.3630  0.6453
  616TMC3    C7 9186   4.564   0.003  15.985  0.2456  1.1911 -0.2363
  616TMC3    C8 9187   0.052   4.403  16.243  0.7059  0.2326  0.1267
  616TMC3    O1 9188   4.450   0.016  15.949  0.4103  0.3362  0.3851
  616TMC3    O2 9189   0.068   4.281  16.257  0.5098 -0.1524 -0.3393
  617MPD2     C 9190   1.921   3.227  13.589 -0.1974 -0.3631  0.1111
  617MPD2    C1 9191   1.990   3.142  13.673  0.1589 -0.7553 -0.6990
  617MPD2    C2 9192   1.944   3.111  13.796  0.8615 -0.2504  0.2462
  617MPD2    C3 9193   1.824   3.177  13.839 -0.4193  0.2777 -0.2025
  617MPD2    C4 9194   1.754   3.255  13.751 -0.4227  0.0267 -0.3813
  617MPD2    C5 9195   1.797   3.280  13.622 -0.3208 -0.3222  0.7336
  617MPD2     H 9196   2.000   3.040  13.856  0.8610 -2.5894 -2.4799
  617MPD2    H1 9197   1.664   3.306  13.782  1.3019  0.9040  3.1234
  617MPD2    H2 9198   1.957   3.241  13.487  3.0754  0.3571  1.3710
  617MPD2    H3 9199   1.757   3.358  13.558 -0.5655 -2.2965 -1.5120
  617MPD2     N 9200   1.753   3.146  13.958 -0.7019  0.1001  0.1228
  617MPD2    H5 9201   1.664   3.194  13.974 -1.0707 -0.3198 -0.6769
  617MPD2    N1 9202   2.101   3.077  13.620  0.1170 -0.3618  0.0550
  617MPD2    H7 9203   2.129   3.095  13.524  0.8333  3.0863  0.9192
  618TMC3    C1 9204   2.288   2.921  13.595 -0.3156  0.8342 -0.1117
  618TMC3    C2 9205   2.377   3.003  13.528 -0.2289  0.9493  0.4646
  618TMC3    C3 9206   2.498   2.952  13.507 -0.3822  0.1314 -0.1942
  618TMC3    C4 9207   2.325   2.802  13.646  0.1440 -0.1520 -0.0104
  618TMC3    C5 9208   2.449   2.749  13.614 -0.1737  0.5428  0.6595
  618TMC3    C6 9209   2.539   2.832  13.548  0.1389  0.3058 -0.4333
  618TMC3     C 9210   2.186   2.982  13.683  0.4563 -0.4128  0.0868
  618TMC3     O 9211   2.183   2.949  13.801  0.5606  0.1425 -0.2400
  618TMC3     H 9212   2.355   3.107  13.509 -1.3477  0.2351 -2.1303
  618TMC3    H1 9213   2.250   2.743  13.698  0.3803 -0.9218 -0.5395
  618TMC3    H2 9214   2.644   2.806  13.553 -0.0276 -0.1065  1.0537
  618TMC3    C7 9215   2.489   2.655  13.714 -0.5479 -0.9442  0.8780
  618TMC3    C8 9216   2.583   3.028  13.428  0.7045 -0.0393 -0.3818
  618TMC3    O1 9217   2.421   2.662  13.815 -0.6349  0.4717  0.1901
  618TMC3    O2 9218   2.588   3.148  13.448 -0.3506  0.8281 -0.0505
  619MPD2     C 9219   3.055   3.942  13.205  0.4595  0.2952  0.0572
  619MPD2    C1 9220   3.019   4.079  13.227  0.5538 -0.4603 -0.2046
  619MPD2    C2 9221   2.966   4.108  13.349  0.1920 -0.3966 -0.4798
  619MPD2    C3 9222   2.946   4.017  13.450 -0.9841  0.1979  0.7801
  619MPD2    C4 9223   2.980   3.888  13.421 -0.1256  0.1189  0.6768
  619MPD2    C5 9224   3.032   3.850  13.303  0.3823  0.4193  0.4829
  619MPD2     H 9225   2.947   4.212  13.374 -1.3803 -1.0913  1.2964
  619MPD2    H1 9226   2.975   3.813  13.499 -1.8404 -1.1355 -0.6576
  619MPD2    H2 9227   3.102   3.911  13.113 -0.1800  0.6158 -0.3811
  619MPD2    H3 9228   3.053   3.746  13.285  1.0293  0.6843 -0.3145
  619MPD2     N 9229   2.880   4.049  13.569  0.5026  0.1303  0.0873
  619MPD2    H5 9230   2.866   3.971  13.633 -1.2564  0.9104  0.6285
  619MPD2    N1 9231   3.039   4.186  13.130 -0.1956 -0.7627  0.0984
  619MPD2    H7 9232   3.005   4.279  13.153  1.8405 -0.1077  0.5473
  620TMC3    C1 9233   3.147   4.302  12.955  0.2237 -0.1096  0.5021
  620TMC3    C2 9234   3.076   4.408  13.007  0.1960  0.3654  0.3912
  620TMC3    C3 9235   3.144   4.501  13.079 -0.2673  0.0475 -0.1665
  620TMC3    C4 9236   3.289   4.296  12.958  0.2346 -0.4314 -0.4972
  620TMC3    C5 9237   3.348   4.399  13.029 -0.1242 -0.7191 -0.4079
  620TMC3    C6 9238   3.278   4.498  13.089 -0.4533  0.4517  0.2607
  620TMC3     C 9239   3.104   4.173  13.008  0.7740  0.2670  0.4386
  620TMC3     O 9240   3.155   4.076  12.958  0.2652  0.0003  0.7853
  620TMC3     H 9241   2.968   4.409  12.994  0.3553 -0.5195 -1.0066
  620TMC3    H1 9242   3.348   4.216  12.914  1.7463  1.0751 -1.2160
  620TMC3    H2 9243   3.325   4.553  13.169 -0.2495  0.3941  0.1805
  620TMC3    C7 9244   3.482   4.374  13.074 -0.5971 -0.0900  0.1008
  620TMC3    C8 9245   3.077   4.518  13.208 -0.4261 -0.7692  0.0511
  620TMC3    O1 9246   3.516   4.427  13.177  0.2982 -0.3392  0.1437
  620TMC3    O2 9247   2.979   4.449  13.235  0.1605 -0.6464  0.4001
  621MPD2     C 9248   3.461   4.562   9.664  0.4028 -0.3506 -0.2106
  621MPD2    C1 9249   3.511   4.575   9.794  0.5784  0.4209  0.3780
  621MPD2    C2 9250   3.586   4.681   9.824  0.0194 -0.1276 -0.0470
  621MPD2    C3 9251   3.627   0.042   9.728 -0.0602  0.7117  0.6153
  621MPD2    C4 9252   3.592   0.023   9.594  0.1001 -0.1447 -0.2078
  621MPD2    C5 9253   3.512   4.648   9.571  0.6204 -0.5043 -0.3567
  621MPD2     H 9254   3.637   4.679   9.920 -1.1666 -0.4309  0.5708
  621MPD2    H1 9255   3.632   0.078   9.509 -0.9122 -0.8856 -1.1604
  621MPD2    H2 9256   3.394   4.479   9.646  1.0750 -1.3652  1.9341
  621MPD2    H3 9257   3.484   4.636   9.467  1.7942  0.6824 -0.8165
  621MPD2     N 9258   3.712   0.155   9.772 -0.3402  0.7124 -0.6907
  621MPD2    H5 9259   3.732   0.156   9.872 -0.9248  0.7443 -0.5706
  621MPD2    N1 9260   3.473   4.475   9.885 -0.2184 -0.2156  0.8973
  621MPD2    H7 9261   3.419   4.395   9.854 -0.8318 -0.5046  2.6920
  622TMC3    C1 9262   3.482   4.357  10.084 -0.6163  0.2327 -0.7428
  622TMC3    C2 9263   3.442   4.385  10.213 -1.0292  0.3127 -0.3690
  622TMC3    C3 9264   3.412   4.277  10.293 -0.5742 -0.5105 -0.3419
  622TMC3    C4 9265   3.462   4.239  10.021 -0.1013  0.8325  0.6403
  622TMC3    C5 9266   3.422   4.133  10.104  0.3365  0.0119 -0.1887
  622TMC3    C6 9267   3.400   4.153  10.235  0.1422  0.3611 -0.4525
  622TMC3     C 9268   3.522   4.472  10.010 -0.2230 -0.2303  0.1634
  622TMC3     O 9269   3.571   4.562  10.077  0.0136 -0.0660 -0.3604
  622TMC3     H 9270   3.456   4.484  10.256  0.1099  0.2815 -0.6755
  622TMC3    H1 9271   3.513   4.223   9.927  0.6399  0.8881  1.0320
  622TMC3    H2 9272   3.380   4.068  10.299  0.5560 -0.8377 -1.9070
  622TMC3    C7 9273   3.387   4.001  10.051  0.1231 -0.7916 -0.1663
  622TMC3    C8 9274   3.340   4.301  10.413  0.1409  0.5624  1.3683
  622TMC3    O1 9275   3.383   3.916  10.136  0.2725  0.3462 -0.9430
  622TMC3    O2 9276   3.358   4.228  10.509  0.7166  0.1943 -0.4395
  623MPD2     C 9277   2.827   0.568  15.177  0.0490 -0.2065 -0.2265
  623MPD2    C1 9278   2.794   0.475  15.275 -0.5462  0.1795 -0.7027
  623MPD2    C2 9279   2.878   0.458  15.381 -0.1950  0.0474 -0.4579
  623MPD2    C3 9280   2.996   0.529  15.402 -0.3250  0.9341  0.8473
  623MPD2    C4 9281   3.033   0.615  15.308  0.7128 -1.0559  0.2737
  623MPD2    C5 9282   2.942   0.642  15.199  0.0928 -0.3365  0.1496
  623MPD2     H 9283   2.862   0.384  15.458 -1.0974 -1.2494 -1.9135
  623MPD2    H1 9284   3.130   0.661  15.297 -0.4608  1.5653  0.8746
  623MPD2    H2 9285   2.771   0.582  15.085 -0.8331  0.8994  0.4737
  623MPD2    H3 9286   2.978   0.717  15.130  0.0526 -1.4908 -1.1363
  623MPD2     N 9287   3.084   0.482  15.503  0.5752  0.7445  0.0781
  623MPD2    H5 9288   3.055   0.405  15.562 -0.2683  0.8129 -0.2534
  623MPD2    N1 9289   2.671   0.414  15.284  0.4280 -0.4421 -1.0997
  623MPD2    H7 9290   2.661   0.357  15.367  0.2077 -0.8423 -1.3987
  624TMC3    C1 9291   3.399   0.447  15.846  0.3874  0.0323 -0.1956
  624TMC3    C2 9292   3.302   0.402  15.926  0.1222 -0.2379  0.3265
  624TMC3    C3 9293   3.172   0.391  15.881  0.2836  0.6222 -0.2543
  624TMC3    C4 9294   3.366   0.490  15.720 -0.2525  0.0520 -0.1905
  624TMC3    C5 9295   3.238   0.481  15.677  0.2374  0.3669  0.5843
  624TMC3    C6 9296   3.142   0.422  15.754  0.0280  0.4867  0.6048
  624TMC3     C 9297   3.533   0.419  15.889  0.4575 -0.5615 -0.4139
  624TMC3     O 9298   3.555   0.432  16.008  0.5518 -0.0352 -0.0934
  624TMC3     H 9299   3.336   0.360  16.021  2.5305  0.3245 -0.2851
  624TMC3    H1 9300   3.439   0.550  15.666 -0.4407  0.9372  0.5323
  624TMC3    H2 9301   3.036   0.424  15.729  0.4798  0.4279 -1.3058
  624TMC3    C7 9302   3.199   0.538  15.547 -0.6048  0.2911 -0.4428
  624TMC3    C8 9303   3.062   0.372  15.972  0.3093 -0.0659 -0.2780
  624TMC3    O1 9304   3.268   0.623  15.497 -0.2731  0.1387  0.5157
  624TMC3    O2 9305   2.951   0.339  15.919  0.0941  0.7295  0.0422
  625MPD2     C 9306   3.546   1.817   0.942 -0.4859 -0.2500  0.1384
  625MPD2    C1 9307   3.554   1.959   0.943  0.2351  0.4211  0.0449
  625MPD2    C2 9308   3.667   2.019   0.990  0.3550  0.0997 -0.3501
  625MPD2    C3 9309   3.779   1.939   1.019  0.3255  0.4935 -0.7805
  625MPD2    C4 9310   3.760   1.802   1.029  0.4406  0.5240 -0.6302
  625MPD2    C5 9311   3.648   1.744   0.980  0.1974  0.2943  0.1224
  625MPD2     H 9312   3.678   2.127   0.991 -1.7436  0.3047  0.1749
  625MPD2    H1 9313   3.836   1.730   1.056 -1.2965 -0.4687  1.6241
  625MPD2    H2 9314   3.451   1.768   0.924 -0.8629  0.1190  1.1532
  625MPD2    H3 9315   3.652   1.636   0.975  0.5696  0.2795  0.7005
  625MPD2     N 9316   3.902   2.011   1.043 -0.5994  0.0811 -0.4248
  625MPD2    H5 9317   3.900   2.112   1.048 -0.7883  0.0671 -0.2245
  625MPD2    N1 9318   3.450   2.049   0.926 -0.2477 -0.3249 -0.5060
  625MPD2    H7 9319   3.470   2.149   0.924 -0.1312 -0.3515 -0.6935
  626TMC3    C1 9320   3.230   2.135   0.885  0.7543 -0.1079  0.2875
  626TMC3    C2 9321   3.131   2.137   0.798 -0.5413  0.3118  0.7258
  626TMC3    C3 9322   3.066   2.259   0.780 -0.0376 -0.4434 -0.2475
  626TMC3    C4 9323   3.280   2.248   0.940 -0.3096 -0.0640  0.1068
  626TMC3    C5 9324   3.208   2.368   0.919  0.1839  0.0767 -0.4067
  626TMC3    C6 9325   3.101   2.374   0.835  0.3016  0.7193  0.3372
  626TMC3     C 9326   3.321   2.019   0.890 -0.0411  0.9660  0.2659
  626TMC3     O 9327   3.281   1.911   0.857  0.0252  0.4384 -0.3388
  626TMC3     H 9328   3.093   2.043   0.760 -0.4993  0.5323  0.1373
  626TMC3    H1 9329   3.340   2.237   1.030  0.3980 -0.6885 -0.4465
  626TMC3    H2 9330   3.046   2.466   0.821 -0.5460 -0.1700 -2.0967
  626TMC3    C7 9331   3.278   2.478   0.982 -0.5207 -0.2396  0.1052
  626TMC3    C8 9332   2.991   2.273   0.657 -0.3601 -0.2517 -0.4210
  626TMC3    O1 9333   3.396   2.458   1.009  0.3967 -0.3869  0.1313
  626TMC3    O2 9334   2.997   2.377   0.596 -0.1425 -0.1102  0.8439
  627MPD2     C 9335   1.821   1.919  14.409  0.1929  0.9619  0.4688
  627MPD2    C1 9336   1.882   1.848  14.515 -0.5816  0.5644 -0.1753
  627MPD2    C2 9337   1.829   1.722  14.543  0.1870  0.0572  0.2731
  627MPD2    C3 9338   1.725   1.666  14.472  0.0100  0.2427  0.2504
  627MPD2    C4 9339   1.670   1.732  14.366 -0.0721  0.2019 -0.7535
  627MPD2    C5 9340   1.716   1.857  14.339  0.7333  0.1985  0.4348
  627MPD2     H 9341   1.884   1.671  14.621  0.1261  1.7088  1.3813
  627MPD2    H1 9342   1.587   1.689  14.312 -1.2465 -0.8327  1.8612
  627MPD2    H2 9343   1.846   2.023  14.396  1.0210  0.7590  0.4541
  627MPD2    H3 9344   1.680   1.919  14.258 -0.2000  1.8284  2.1074
  627MPD2     N 9345   1.688   1.535  14.511 -0.9868 -0.0237  0.1774
  627MPD2    H5 9346   1.720   1.501  14.602 -1.7726 -1.0279  0.0758
  627MPD2    N1 9347   1.994   1.896  14.590  0.3831  0.5245  0.5211
  627MPD2    H7 9348   2.021   1.833  14.664  1.6055  0.6451  0.1748
  628TMC3    C1 9349   2.157   2.067  14.654 -0.9101 -0.0024 -0.1253
  628TMC3    C2 9350   2.183   2.006  14.777 -0.1877 -0.0898  0.1662
  628TMC3    C3 9351   2.263   2.071  14.866  0.5977  0.5556  0.3366
  628TMC3    C4 9352   2.215   2.181  14.620 -0.0487 -0.0568  0.3730
  628TMC3    C5 9353   2.281   2.248  14.722 -0.0595  0.0607  0.1622
  628TMC3    C6 9354   2.320   2.190  14.841  0.5714  0.0378  0.4897
  628TMC3     C 9355   2.059   2.015  14.563 -0.3607 -0.2587  0.4993
  628TMC3     O 9356   2.038   2.087  14.466 -0.1564 -0.0282 -0.2156
  628TMC3     H 9357   2.131   1.918  14.812 -1.6610  0.8819  0.3980
  628TMC3    H1 9358   2.219   2.221  14.520  0.7725  0.9948  0.8222
  628TMC3    H2 9359   2.358   2.253  14.920 -1.2313  0.3782  1.0812
  628TMC3    C7 9360   2.286   2.391  14.715 -0.0318  0.5314  0.2904
  628TMC3    C8 9361   2.307   1.978  14.975  0.3294 -0.2929  0.6091
  628TMC3    O1 9362   2.384   2.443  14.764 -0.1573  0.4693 -0.3365
  628TMC3    O2 9363   2.245   1.878  15.003  0.2525  0.3227 -0.2377
  629MPD2     C 9364   0.404   4.493  16.601 -0.4572 -0.4780 -0.4408
  629MPD2    C1 9365   0.398   4.602  16.523 -0.4003 -0.5084  0.5504
  629MPD2    C2 9366   0.301   4.609  16.417 -0.6885 -0.2430 -0.5227
  629MPD2    C3 9367   0.218   4.498  16.395  0.3928  0.9200 -0.0545
  629MPD2    C4 9368   0.221   4.399  16.483  0.5422  0.0994  0.2571
  629MPD2    C5 9369   0.314   4.395  16.587 -0.2908 -0.0172  0.5338
  629MPD2     H 9370   0.287   4.686  16.342 -0.7043  0.2666  0.0082
  629MPD2    H1 9371   0.153   4.314  16.475 -1.5971  1.6278  2.2593
  629MPD2    H2 9372   0.469   4.492  16.688  0.4937 -1.0429 -1.1498
  629MPD2    H3 9373   0.314   4.313  16.657 -1.1613  0.3936  1.0180
  629MPD2     N 9374   0.125   4.507  16.292  0.1548 -0.4592 -0.9610
  629MPD2    H5 9375   0.122   4.590  16.233 -3.0248  1.8003  2.3954
  629MPD2    N1 9376   0.484   4.712  16.550 -0.0400  0.1591 -0.3674
  629MPD2    H7 9377   0.549   4.693  16.626 -0.5308  0.1966  0.0688
  630TMC3    C1 9378   0.519   0.210  16.576 -0.1462  0.1205 -0.1603
  630TMC3    C2 9379   0.555   0.331  16.505  0.5185 -0.5501 -0.1023
  630TMC3    C3 9380   0.563   0.446  16.584 -0.3149  0.6148  0.3234
  630TMC3    C4 9381   0.470   0.208  16.708 -0.0071 -0.4232  0.4096
  630TMC3    C5 9382   0.490   0.325  16.777 -0.4111 -0.6673  0.1329
  630TMC3    C6 9383   0.545   0.444  16.721 -0.7067  0.6004 -0.6169
  630TMC3     C 9384   0.463   0.104  16.498  0.8088 -1.0447  0.7556
  630TMC3     O 9385   0.410   0.140  16.393  0.1145  0.4777 -0.7239
  630TMC3     H 9386   0.591   0.329  16.403 -1.9041  0.6564 -0.9714
  630TMC3    H1 9387   0.459   0.113  16.760  1.4927 -0.1172  1.2974
  630TMC3    H2 9388   0.553   0.537  16.776 -0.0976 -0.2844  0.7918
  630TMC3    C7 9389   0.483   0.329  16.927  0.1722 -0.2757  0.0074
  630TMC3    C8 9390   0.588   0.575  16.524  0.5417 -0.3189 -0.0716
  630TMC3    O1 9391   0.544   0.414  16.988  0.3663 -0.1102  0.3907
  630TMC3    O2 9392   0.651   0.658  16.587 -0.2877 -0.1711 -0.3348
  631MPD2     C 9393   3.383   0.093  14.976  0.1188 -0.4724  0.0489
  631MPD2    C1 9394   3.487   0.096  14.881  0.9842  0.6668  0.3060
  631MPD2    C2 9395   3.567   4.714  14.881 -0.3620 -1.1063  0.0418
  631MPD2    C3 9396   3.551   4.610  14.971 -0.1623  0.0516 -0.5879
  631MPD2    C4 9397   3.438   4.610  15.048 -0.3476  0.3646 -0.3853
  631MPD2    C5 9398   3.357   4.717  15.051  0.0572 -0.1935 -0.3717
  631MPD2     H 9399   3.653   4.707  14.815 -0.3304 -0.9437  0.0664
  631MPD2    H1 9400   3.411   4.530  15.116 -1.9073  2.0677  0.9984
  631MPD2    H2 9401   3.324   0.179  15.003 -1.1824 -1.0431 -0.9851
  631MPD2    H3 9402   3.276   4.721  15.124  1.8559 -0.6794  1.6459
  631MPD2     N 9403   3.655   4.517  14.991  0.6288  0.4398 -0.2550
  631MPD2    H5 9404   3.733   4.524  14.927  0.6186  2.7067 -0.0198
  631MPD2    N1 9405   3.494   0.208  14.804 -0.1524  0.0576 -0.3656
  631MPD2    H7 9406   3.428   0.285  14.818 -0.1814 -0.0378  0.0108
  632TMC3    C1 9407   3.570   0.353  14.642  0.1209  0.4381 -0.1374
  632TMC3    C2 9408   3.537   0.467  14.722 -0.5214 -0.4790 -0.5462
  632TMC3    C3 9409   3.523   0.586  14.659  0.8223  0.4111 -0.2293
  632TMC3    C4 9410   3.608   0.368  14.514  1.2620  0.5185 -0.3148
  632TMC3    C5 9411   3.581   0.489  14.457 -0.6675  0.9305 -0.3938
  632TMC3    C6 9412   3.542   0.598  14.521  0.4721 -0.5850 -1.2386
  632TMC3     C 9413   3.569   0.215  14.690 -0.4341 -0.2522 -0.1283
  632TMC3     O 9414   3.624   0.123  14.629  0.4878  0.0426 -0.3214
  632TMC3     H 9415   3.517   0.455  14.827 -0.4352 -0.7309 -0.5571
  632TMC3    H1 9416   3.649   0.290  14.451 -0.3380 -1.0047  0.5159
  632TMC3    H2 9417   3.530   0.688  14.462  0.8880  1.8531  2.3720
  632TMC3    C7 9418   3.612   0.522  14.316  0.5296 -0.2345  0.8325
  632TMC3    C8 9419   3.463   0.697  14.735 -0.2177 -0.2578 -0.0545
  632TMC3    O1 9420   3.532   0.590  14.251 -0.4483 -0.2698 -0.4123
  632TMC3    O2 9421   3.429   0.668  14.850 -0.1783  0.2844 -0.2033
  633MPD2     C 9422   2.935   3.592  17.345 -0.2150  0.0996 -0.1179
  633MPD2    C1 9423   2.938   3.501  17.238  0.1469  0.1283 -0.1812
  633MPD2    C2 9424   2.873   3.376  17.238  0.1020  0.2042 -0.1533
  633MPD2    C3 9425   2.801   3.338  17.348 -0.5215 -0.2482  0.1055
  633MPD2    C4 9426   2.809   3.413  17.464 -0.7719  0.2242  0.1785
  633MPD2    C5 9427   2.880   3.541  17.464  0.2069 -0.5705 -0.2174
  633MPD2     H 9428   2.880   3.302  17.159 -0.2335  0.2272 -0.2028
  633MPD2    H1 9429   2.752   3.385  17.552  0.3672  0.6434  1.0552
  633MPD2    H2 9430   2.981   3.690  17.340 -0.0454 -0.0320 -1.1719
  633MPD2    H3 9431   2.893   3.602  17.552 -0.9413 -1.0911  0.3111
  633MPD2     N 9432   2.748   3.207  17.353 -0.2840 -0.0856 -0.2023
  633MPD2    H5 9433   2.743   3.169  17.447 -0.6915  1.8601  0.5569
  633MPD2    N1 9434   2.998   3.535  17.116 -0.2213  0.0806  0.4994
  633MPD2    H7 9435   2.988   3.472  17.036  0.8297 -1.2867  1.4403
  634TMC3    C1 9436   3.068   3.673  16.937 -0.0525  0.3175 -0.1161
  634TMC3    C2 9437   3.112   3.562  16.878 -0.2648 -0.3077 -0.1314
  634TMC3    C3 9438   3.133   3.566  16.744  0.5938 -0.1944  0.5027
  634TMC3    C4 9439   3.033   3.781  16.872 -0.4912  0.3191 -0.1726
  634TMC3    C5 9440   3.031   3.772  16.734  0.2319 -0.6683  0.5959
  634TMC3    C6 9441   3.096   3.672  16.669  0.2573 -0.0291  0.3722
  634TMC3     C 9442   3.044   3.662  17.078  0.4338 -0.7474 -0.2278
  634TMC3     O 9443   3.038   3.771  17.132 -0.7251 -0.3351 -0.0253
  634TMC3     H 9444   3.141   3.472  16.931 -0.4019  0.1310  0.6843
  634TMC3    H1 9445   2.987   3.864  16.924 -1.5255 -0.0079 -0.5712
  634TMC3    H2 9446   3.088   3.668  16.561 -0.8346 -2.5227  0.5363
  634TMC3    C7 9447   3.016   3.886  16.653 -0.1294 -0.6178  0.8637
  634TMC3    C8 9448   3.165   3.437  16.681 -1.3437  0.5576 -0.7405
  634TMC3    O1 9449   3.099   3.927  16.572 -0.4534  0.6344 -0.0858
  634TMC3    O2 9450   3.135   3.330  16.733 -0.1847  0.0283 -0.0667
  635TMC3    C1 9451   3.576   0.141   0.944  0.7202  0.2164  0.5348
  635TMC3    C2 9452   3.710   0.145   0.971 -0.2495 -0.2213 -0.2916
  635TMC3    C3 9453   3.779   0.027   0.949  0.5984 -0.7089  0.9236
  635TMC3    C4 9454   3.515   0.029   0.897 -0.0905 -0.1468  0.5394
  635TMC3    C5 9455   3.579   4.648   0.885 -1.0757 -0.2732 -0.3900
  635TMC3    C6 9456   3.714   4.653   0.918  0.6511  0.2268  0.0102
  635TMC3     C 9457   3.500   0.261   0.946  0.3845 -0.8318  0.4782
  635TMC3     O 9458   3.539   0.336   1.033 -0.4996  0.4868 -0.5174
  635TMC3     H 9459   3.756   0.239   1.001 -0.0118 -0.2764 -0.4839
  635TMC3    H1 9460   3.410   0.023   0.872 -0.2412  3.8835  0.1646
  635TMC3    H2 9461   3.775   4.565   0.900 -1.4517 -1.5546  1.5976
  635TMC3    C7 9462   3.511   4.525   0.845 -0.1404 -0.3359 -0.3960
  635TMC3    C8 9463   3.921   0.043   0.951 -0.3650  0.2452  0.0859
  635TMC3    O1 9464   3.412   4.533   0.772 -0.0759 -0.0392 -0.1939
  635TMC3    O2 9465   3.967   0.137   1.012  0.0139  0.2386 -0.4023
  636MPD2     C 9466   4.101   3.661  15.736 -0.1712  0.0968  1.4014
  636MPD2    C1 9467   4.153   3.583  15.841  0.4261  0.0359 -0.8967
  636MPD2    C2 9468   4.172   3.442  15.823  0.5304 -0.1814 -0.3526
  636MPD2    C3 9469   4.146   3.388  15.695 -0.1911 -0.7520  0.7749
  636MPD2    C4 9470   4.080   3.462  15.594  0.6002 -0.5144  0.2721
  636MPD2    C5 9471   4.069   3.601  15.619 -0.0337  0.2844  0.0749
  636MPD2     H 9472   4.204   3.381  15.906 -0.3362 -1.2732 -0.8075
  636MPD2    H1 9473   4.043   3.429  15.498  0.5138  0.8590 -0.1646
  636MPD2    H2 9474   4.083   3.767  15.742 -2.5882 -0.1378 -2.1443
  636MPD2    H3 9475   4.026   3.666  15.543  1.5276  0.1300 -0.9452
  636MPD2     N 9476   4.180   3.251  15.681 -0.0849 -0.0563 -0.2810
  636MPD2    H5 9477   4.240   3.216  15.755 -1.8502 -2.5231  0.0232
  636MPD2    N1 9478   4.183   3.640  15.963 -0.0923 -0.0967  0.3168
  636MPD2    H7 9479   4.204   3.576  16.039  0.5084 -0.4628 -0.1591
  637TMC3    C1 9480   4.239   3.052  15.574 -0.7414  0.3156  0.1392
  637TMC3    C2 9481   4.251   2.995  15.697  0.0612 -0.0205  0.5847
  637TMC3    C3 9482   4.363   2.913  15.722 -0.3865 -0.5250  0.1434
  637TMC3    C4 9483   4.323   3.030  15.476 -0.4907  0.5098 -0.1528
  637TMC3    C5 9484   4.432   2.950  15.498  0.0506  0.0818 -0.0347
  637TMC3    C6 9485   4.452   2.893  15.626  0.0302 -0.4698 -0.4152
  637TMC3     C 9486   4.176   3.181  15.564  0.1273  0.0999 -0.0871
  637TMC3     O 9487   4.154   3.219  15.450  0.2518  0.6004 -0.3683
  637TMC3     H 9488   4.191   3.020  15.784 -2.1862 -1.3419 -0.5821
  637TMC3    H1 9489   4.310   3.062  15.373  0.6638 -0.8331 -0.7123
  637TMC3    H2 9490   4.544   2.841  15.649  1.2126  0.3234 -3.3334
  637TMC3    C7 9491   4.559   3.006  15.446  0.2168 -0.1621 -0.4466
  637TMC3    C8 9492   4.420   2.968  15.848  0.3703 -0.5727  0.0081
  637TMC3    O1 9493   4.658   3.003  15.518  0.4767  0.0571 -0.0827
  637TMC3    O2 9494   4.353   2.956  15.945 -0.5422  0.0508 -0.0873
  638MPD2     C 9495   4.124   2.287  14.757  0.2467  0.1381  0.6004
  638MPD2    C1 9496   4.152   2.167  14.697 -0.4580  0.1297 -0.6075
  638MPD2    C2 9497   4.120   2.047  14.764 -0.1428  0.3047  0.6143
  638MPD2    C3 9498   4.077   2.044  14.897 -0.4271  0.0221 -0.5337
  638MPD2    C4 9499   4.046   2.167  14.951 -0.4806 -0.0384 -0.1837
  638MPD2    C5 9500   4.060   2.281  14.878  0.2015 -0.1260  0.1728
  638MPD2     H 9501   4.144   1.955  14.713  1.1414 -1.0630  3.6921
  638MPD2    H1 9502   4.005   2.172  15.051 -0.2545  3.8684 -0.2899
  638MPD2    H2 9503   4.139   2.386  14.715 -0.0450 -0.3824 -0.7009
  638MPD2    H3 9504   4.044   2.376  14.928 -1.9618 -0.9409  1.0148
  638MPD2     N 9505   4.047   1.923  14.964  0.7606  0.3683 -0.4159
  638MPD2    H5 9506   4.036   1.840  14.907  0.2400  0.7866 -0.9347
  638MPD2    N1 9507   4.202   2.173  14.566  1.2076  0.1969  0.0373
  638MPD2    H7 9508   4.231   2.265  14.535  0.1958  0.1039 -1.1821
  639TMC3    C1 9509   4.011   1.751  15.123 -0.0432 -0.2128 -0.1061
  639TMC3    C2 9510   3.927   1.684  15.045  0.1523  0.1427  0.5049
  639TMC3    C3 9511   3.924   1.550  15.045 -0.2191  0.5133 -0.9780
  639TMC3    C4 9512   4.105   1.687  15.199  0.4492 -0.4491 -0.5300
  639TMC3    C5 9513   4.106   1.548  15.195 -0.7787  0.4348  0.1122
  639TMC3    C6 9514   4.019   1.478  15.116  0.5561 -0.3197  0.3453
  639TMC3     C 9515   4.039   1.895  15.098  0.6545 -0.0605  0.2371
  639TMC3     O 9516   4.112   1.946  15.185 -0.3435  0.0158  0.2094
  639TMC3     H 9517   3.856   1.741  14.986  1.5044  0.2639 -1.0222
  639TMC3    H1 9518   4.194   1.733  15.241 -0.4563 -1.1398  2.1505
  639TMC3    H2 9519   4.011   1.370  15.126 -1.1106 -0.2847 -0.5087
  639TMC3    C7 9520   4.243   1.505  15.193 -0.4083 -0.2948  0.1635
  639TMC3    C8 9521   3.884   1.486  14.922 -0.3553  0.3327 -0.0731
  639TMC3    O1 9522   4.328   1.543  15.272 -0.1045 -0.2985 -0.2229
  639TMC3    O2 9523   3.965   1.405  14.877  0.0207 -0.5101 -0.1388
  640MPD2     C 9524   3.794   1.051  10.228  0.1239 -0.2655  0.4248
  640MPD2    C1 9525   3.805   1.120  10.110  0.6057  0.0949  0.4701
  640MPD2    C2 9526   3.734   1.238  10.097 -0.3602  1.6312  0.3251
  640MPD2    C3 9527   3.667   1.299  10.203 -0.6214 -0.2770 -0.0149
  640MPD2    C4 9528   3.680   1.236  10.327  0.3145  0.3746 -0.3330
  640MPD2    C5 9529   3.727   1.107  10.337  0.2777 -0.2300 -0.0199
  640MPD2     H 9530   3.717   1.282  10.000 -2.4027  0.8602  0.3244
  640MPD2    H1 9531   3.630   1.287  10.410 -0.4438 -0.3111 -0.3654
  640MPD2    H2 9532   3.860   0.966  10.241  1.8650  1.0063 -0.0824
  640MPD2    H3 9533   3.731   1.064  10.436  0.2007 -1.8978 -0.7339
  640MPD2     N 9534   3.607   1.427  10.199 -0.3859 -0.3386  0.1362
  640MPD2    H5 9535   3.577   1.463  10.289  0.2105  0.0289  0.1862
  640MPD2    N1 9536   3.879   1.067  10.001  0.5054  0.0181  0.3300
  640MPD2    H7 9537   3.901   0.969  10.013  2.0622  0.0560 -2.3072
  641TMC3    C1 9538   3.949   1.044   9.780 -0.2889 -0.3522  0.4827
  641TMC3    C2 9539   4.017   0.928   9.803 -0.1969 -0.2805 -0.6333
  641TMC3    C3 9540   4.069   0.860   9.693 -0.8002  0.7258  0.0854
  641TMC3    C4 9541   3.919   1.085   9.654 -0.6319  0.1504 -0.2579
  641TMC3    C5 9542   3.957   1.004   9.549 -0.4458  0.7033 -0.4470
  641TMC3    C6 9543   4.033   0.896   9.566  0.2865  0.1731  0.3543
  641TMC3     C 9544   3.907   1.136   9.884 -0.0083 -0.7506  0.2619
  641TMC3     O 9545   3.908   1.258   9.862 -0.0176  0.5371  0.1076
  641TMC3     H 9546   4.053   0.918   9.905 -1.7468 -0.8342 -0.1324
  641TMC3    H1 9547   3.849   1.166   9.635 -0.0042  0.7382 -0.0307
  641TMC3    H2 9548   4.047   0.822   9.488 -0.4042  3.1047 -2.5449
  641TMC3    C7 9549   3.916   1.053   9.416  0.6116  0.6111 -0.7054
  641TMC3    C8 9550   4.153   0.756   9.712  0.6208  0.3886 -0.1139
  641TMC3    O1 9551   3.850   1.155   9.419  0.6964  0.1484  0.0078
  641TMC3    O2 9552   4.176   0.691   9.615  0.2694 -0.1870 -0.5124
  642TMC3    C1 9553   0.653   2.390  12.496 -0.0829  0.0125 -0.2970
  642TMC3    C2 9554   0.761   2.426  12.422 -0.4642 -0.2301 -0.4080
  642TMC3    C3 9555   0.809   2.334  12.329 -0.4201 -0.4508  0.4466
  642TMC3    C4 9556   0.597   2.267  12.476  0.4156  0.1224  0.0286
  642TMC3    C5 9557   0.639   2.184  12.379  0.7396 -0.0205 -0.1006
  642TMC3    C6 9558   0.737   2.222  12.295 -0.3835  0.2465  0.1516
  642TMC3     C 9559   0.629   2.466  12.615 -0.0894 -0.2966  0.2188
  642TMC3     O 9560   0.715   2.552  12.649 -0.1410  0.1277  0.3249
  642TMC3     H 9561   0.815   2.519  12.436 -0.4602 -0.4407  0.9592
  642TMC3    H1 9562   0.500   2.246  12.519  0.4614  0.4584  0.3011
  642TMC3    H2 9563   0.769   2.148  12.223  0.9385  0.4890  0.4797
  642TMC3    C7 9564   0.585   2.053  12.377  0.0867  0.1791  0.1105
  642TMC3    C8 9565   0.918   2.358  12.236 -0.1011 -0.3305  0.1757
  642TMC3    O1 9566   0.562   2.001  12.270 -0.4787  0.5606  0.7380
  642TMC3    O2 9567   0.912   2.309  12.127  0.2623  0.1493  0.1305
  643TMC3    C1 9568   0.194   1.611   0.572 -0.5228 -0.4533  0.2052
  643TMC3    C2 9569   0.074   1.581   0.511 -0.6448 -0.1045  0.6374
  643TMC3    C3 9570   0.083   1.487   0.411  0.0972 -0.0199  0.0116
  643TMC3    C4 9571   0.310   1.546   0.544 -0.0174 -0.4708 -0.7087
  643TMC3    C5 9572   0.316   1.453   0.444 -0.1680  0.4241  0.0944
  643TMC3    C6 9573   0.196   1.417   0.386 -0.0130  0.5312  0.2856
  643TMC3     C 9574   0.186   1.703   0.686  0.0950 -0.1186 -0.8317
  643TMC3     O 9575   0.081   1.758   0.715  0.2644  0.6168  0.0109
  643TMC3     H 9576   4.726   1.647   0.534  0.6675  1.7452  0.1166
  643TMC3    H1 9577   0.408   1.579   0.576 -0.5724 -0.6336  1.1533
  643TMC3    H2 9578   0.190   1.366   0.291  0.0246 -0.7988  0.9974
  643TMC3    C7 9579   0.399   1.506   0.336 -0.3953 -0.1952  0.2623
  643TMC3    C8 9580   0.028   1.531   0.286 -0.4460 -0.3089 -0.2887
  643TMC3    O1 9581   0.429   1.627   0.334 -0.3535  0.0216 -0.2732
  643TMC3    O2 9582   0.016   1.454   0.192  0.2791  0.2803 -0.1433
  644MPD2     C 9583   3.938   1.530   9.011  0.1183  0.1805  0.0049
  644MPD2    C1 9584   3.944   1.479   9.132  0.2005 -0.2429  0.6118
  644MPD2    C2 9585   3.842   1.496   9.224  0.1543  0.0325 -0.3123
  644MPD2    C3 9586   3.721   1.551   9.184  0.0441  0.7156 -0.4958
  644MPD2    C4 9587   3.716   1.605   9.054 -0.2551 -0.2142 -0.1186
  644MPD2    C5 9588   3.821   1.587   8.967 -0.0620  0.2035  0.3935
  644MPD2     H 9589   3.846   1.450   9.323 -1.3330  0.1110 -0.2176
  644MPD2    H1 9590   3.635   1.660   9.008 -0.5318 -0.7052 -0.2211
  644MPD2    H2 9591   4.022   1.528   8.943 -0.2937  1.8553 -0.5639
  644MPD2    H3 9592   3.826   1.631   8.867  2.2202 -0.7024  0.0973
  644MPD2     N 9593   3.613   1.568   9.271  0.3609 -0.1774  0.2035
  644MPD2    H5 9594   3.613   1.519   9.360  0.1184 -1.9264 -0.7721
  644MPD2    N1 9595   4.061   1.415   9.168 -0.5643  0.1735 -0.1583
  644MPD2    H7 9596   4.114   1.367   9.096 -2.1754 -2.1176  0.1817
  645TMC3    C1 9597   3.424   1.654   9.375 -0.2961 -0.1348  1.6028
  645TMC3    C2 9598   3.349   1.543   9.396 -0.0024 -0.0266 -0.6476
  645TMC3    C3 9599   3.217   1.563   9.430  0.0244 -0.2201  0.3752
  645TMC3    C4 9600   3.366   1.782   9.382  0.5186 -0.3677  0.4251
  645TMC3    C5 9601   3.228   1.795   9.403  0.6666  0.4615  0.0453
  645TMC3    C6 9602   3.159   1.684   9.447 -0.6242  0.4539 -0.1317
  645TMC3     C 9603   3.513   1.655   9.262 -0.5280  0.2684 -0.7706
  645TMC3     O 9604   3.504   1.746   9.181 -0.0339 -0.2299  0.7607
  645TMC3     H 9605   3.385   1.451   9.351  0.3712  0.2615 -0.9411
  645TMC3    H1 9606   3.432   1.864   9.352  1.5086 -2.3054 -2.6421
  645TMC3    H2 9607   3.053   1.693   9.463 -0.0115  3.4154  2.4006
  645TMC3    C7 9608   3.185   1.928   9.439  0.9022  0.3539 -0.2516
  645TMC3    C8 9609   3.136   1.444   9.400  0.3009 -0.3721 -0.1185
  645TMC3    O1 9610   3.273   2.015   9.440 -0.3394  0.1865 -0.1036
  645TMC3    O2 9611   3.163   1.371   9.306 -0.0124  0.0822 -0.1956
  646MPD2     C 9612   4.270   0.543  14.432 -0.6801 -0.2012 -0.0593
  646MPD2    C1 9613   4.182   0.587  14.518  0.9275  0.0916  0.1358
  646MPD2    C2 9614   4.101   0.692  14.487  0.0787 -0.1574 -0.1900
  646MPD2    C3 9615   4.127   0.758  14.367 -0.6526 -0.0974  0.4663
  646MPD2    C4 9616   4.225   0.714  14.276  0.0459  0.2467 -0.0599
  646MPD2    C5 9617   4.304   0.608  14.318 -0.4641  0.4383 -0.8749
  646MPD2     H 9618   4.026   0.734  14.554  0.2476  0.3111 -0.2980
  646MPD2    H1 9619   4.243   0.770  14.185 -0.8298  0.4144 -0.1285
  646MPD2    H2 9620   4.331   0.455  14.450 -1.0050 -0.5089 -0.4564
  646MPD2    H3 9621   4.381   0.575  14.249  1.7843  0.3656  1.6998
  646MPD2     N 9622   4.040   0.869  14.335  0.0543 -0.3606  0.0788
  646MPD2    H5 9623   3.970   0.894  14.404 -0.3154 -0.4354 -0.2678
  646MPD2    N1 9624   4.169   0.507  14.639 -0.3245 -0.6402  0.3091
  646MPD2    H7 9625   4.223   0.421  14.641 -1.6039 -1.4776 -1.6095
  647TMC3    C1 9626   4.169   0.478  14.872 -0.1420  0.2032 -0.9602
  647TMC3    C2 9627   4.166   0.340  14.843 -0.1690  0.1226 -0.3474
  647TMC3    C3 9628   4.194   0.251  14.949 -0.0260 -1.0371  0.0586
  647TMC3    C4 9629   4.204   0.529  14.987 -0.1645  0.1751 -0.4506
  647TMC3    C5 9630   4.250   0.444  15.083 -0.0613 -0.4209  0.0269
  647TMC3    C6 9631   4.239   0.307  15.064  0.1009  0.1561  0.1533
  647TMC3     C 9632   4.131   0.566  14.760 -0.0666  0.7761 -0.0615
  647TMC3     O 9633   4.093   0.674  14.785 -1.0603 -0.2116  0.0180
  647TMC3     H 9634   4.116   0.298  14.757 -2.5213  1.0877  0.5522
  647TMC3    H1 9635   4.197   0.637  14.999 -0.1281  0.1708 -0.3932
  647TMC3    H2 9636   4.286   0.245  15.139  2.1332  0.5682 -0.7724
  647TMC3    C7 9637   4.345   0.489  15.186 -0.7065  0.2741  0.7059
  647TMC3    C8 9638   4.252   0.127  14.905 -0.2489  0.2437  0.4809
  647TMC3    O1 9639   4.420   0.398  15.215 -0.7117  0.2183 -0.7572
  647TMC3    O2 9640   4.259   0.117  14.782  0.5834  0.5333  0.1905
  648TMC3    C1 9641   3.541   3.200  16.188 -0.7034 -0.1601  0.1939
  648TMC3    C2 9642   3.564   3.064  16.166  0.6275  0.1712 -1.2998
  648TMC3    C3 9643   3.548   3.012  16.038 -0.9333 -0.5738 -0.1041
  648TMC3    C4 9644   3.494   3.279  16.083 -0.2003  0.5291  0.2580
  648TMC3    C5 9645   3.478   3.227  15.957  0.6200  0.1378 -0.0607
  648TMC3    C6 9646   3.500   3.091  15.934  0.1734 -0.2678  0.5808
  648TMC3     C 9647   3.590   3.259  16.308  0.5410 -0.3076  0.2529
  648TMC3     O 9648   3.620   3.376  16.308 -0.0854 -0.5271 -0.1004
  648TMC3     H 9649   3.582   3.000  16.252 -1.6962 -1.8996 -2.3461
  648TMC3    H1 9650   3.481   3.385  16.099 -1.6334 -0.1112  3.4823
  648TMC3    H2 9651   3.470   3.050  15.838 -0.2417  0.7769  0.2672
  648TMC3    C7 9652   3.452   3.311  15.840 -0.1101 -0.1370  0.0363
  648TMC3    C8 9653   3.619   2.886  16.019 -0.5828 -0.1655 -0.2191
  648TMC3    O1 9654   3.459   3.257  15.731 -0.5349 -0.1081  0.6894
  648TMC3    O2 9655   3.594   2.814  15.925 -0.1643 -0.0760  0.1746
  649TMC3    C1 9656   2.238   4.517  13.097  0.2068 -0.2907  0.2785
  649TMC3    C2 9657   2.345   4.589  13.142  0.1814  0.0370  0.2327
  649TMC3    C3 9658   2.431   4.535  13.228 -0.3479  0.2820  0.3492
  649TMC3    C4 9659   2.222   4.396  13.161  0.2051 -0.8138 -0.2885
  649TMC3    C5 9660   2.316   4.338  13.246  0.1641 -0.1069  0.5256
  649TMC3    C6 9661   2.417   4.414  13.289 -0.1201  0.1812  0.4013
  649TMC3     C 9662   2.155   4.560  12.986 -0.3713 -0.5578  0.4241
  649TMC3     O 9663   2.164   4.677  12.947  0.7083 -0.2149 -0.3794
  649TMC3     H 9664   2.363   4.687  13.100 -0.4574  0.3218  0.6323
  649TMC3    H1 9665   2.144   4.330  13.125 -0.0517 -1.2158  1.0058
  649TMC3    H2 9666   2.480   4.376  13.369 -0.4757  0.3336  0.7522
  649TMC3    C7 9667   2.276   4.220  13.327  0.3010  0.4812  0.6855
  649TMC3    C8 9668   2.529   4.617  13.296 -0.6084  1.3905 -0.3749
  649TMC3    O1 9669   2.160   4.180  13.325  0.4425  0.4383 -0.2399
  649TMC3    O2 9670   2.550   4.596  13.415  0.3087  0.0297  0.1543
  650TMC3    C1 9671   4.586   1.450  12.559 -0.4116  0.2558 -0.2950
  650TMC3    C2 9672   4.475   1.519  12.597 -0.3875  0.6201 -0.5436
  650TMC3    C3 9673   4.436   1.623  12.514 -0.2141 -0.4941  0.3151
  650TMC3    C4 9674   4.658   1.478  12.445  0.3897  0.2041 -0.7713
  650TMC3    C5 9675   4.621   1.589  12.375  0.8751 -0.2493 -0.7391
  650TMC3    C6 9676   4.508   1.654  12.401 -0.4942  0.0497 -0.3641
  650TMC3     C 9677   4.626   1.351  12.652 -0.4153 -0.1679  0.6719
  650TMC3     O 9678   4.611   1.372  12.770  0.2107  0.1054 -0.0745
  650TMC3     H 9679   4.420   1.504  12.688  0.6695 -0.0328 -0.0131
  650TMC3    H1 9680   0.016   1.427  12.420 -0.9051 -3.5562  1.9376
  650TMC3    H2 9681   4.480   1.745  12.350 -0.9168 -0.0300 -0.2694
  650TMC3    C7 9682   4.732   1.673  12.353  0.4610  0.4803  0.3898
  650TMC3    C8 9683   4.390   1.744  12.581  0.4943 -0.5293 -0.5821
  650TMC3    O1 9684   0.085   1.627  12.283 -0.2455 -1.1285 -0.3102
  650TMC3    O2 9685   4.442   1.852  12.551 -0.1231  0.3412 -0.1957
  651MPD2     C 9686   3.437   2.990  10.604  0.6100 -0.4646  0.4647
  651MPD2    C1 9687   3.403   3.121  10.578  0.4363  0.6998  0.7488
  651MPD2    C2 9688   3.480   3.222  10.634 -0.4877 -0.6505  0.2522
  651MPD2    C3 9689   3.573   3.192  10.730 -0.0451  0.1672  0.0453
  651MPD2    C4 9690   3.590   3.062  10.765 -0.4661 -0.0439  0.1164
  651MPD2    C5 9691   3.527   2.960  10.708 -0.0681 -0.2093 -0.0168
  651MPD2     H 9692   3.456   3.325  10.610  1.9692 -0.5698 -1.8298
  651MPD2    H1 9693   3.657   3.042  10.847  0.8916  0.8693 -0.7774
  651MPD2    H2 9694   3.379   2.914  10.552  1.6837 -0.7012 -0.3995
  651MPD2    H3 9695   3.553   2.858  10.732  1.4326  0.1690 -0.0698
  651MPD2     N 9696   3.663   3.293  10.774 -0.3566 -0.5539  0.3287
  651MPD2    H5 9697   3.636   3.389  10.755  1.6949  0.2081  1.1952
  651MPD2    N1 9698   3.295   3.166  10.495  0.1098  0.9984 -0.0982
  651MPD2    H7 9699   3.280   3.263  10.471 -0.9118  0.4031 -1.8413
  652TMC3    C1 9700   4.046   3.514  10.863 -0.5390 -0.1688  0.3047
  652TMC3    C2 9701   3.975   3.402  10.894 -0.7914 -0.5775  0.0076
  652TMC3    C3 9702   3.840   3.405  10.875 -0.4790 -0.3110  0.1118
  652TMC3    C4 9703   3.987   3.635  10.841 -0.0270  0.4050  0.5395
  652TMC3    C5 9704   3.851   3.643  10.838 -0.3231  0.5824 -0.2641
  652TMC3    C6 9705   3.777   3.525  10.847 -0.3259 -0.3842  0.2687
  652TMC3     C 9706   4.193   3.510  10.860  0.2151  0.6281 -0.4520
  652TMC3     O 9707   4.250   3.421  10.923  0.0257  0.3075 -0.8840
  652TMC3     H 9708   4.034   3.310  10.895 -0.8476 -0.6075  0.5164
  652TMC3    H1 9709   4.048   3.724  10.826 -0.4208  0.4396 -0.9060
  652TMC3    H2 9710   3.669   3.533  10.855 -0.2137  0.4614  0.9128
  652TMC3    C7 9711   3.786   3.750  10.760  0.1868  0.0192 -0.0182
  652TMC3    C8 9712   3.780   3.276  10.847  0.6166 -0.3195  0.8313
  652TMC3    O1 9713   3.675   3.719  10.716 -0.4210  0.2325 -0.4416
  652TMC3    O2 9714   3.848   3.175  10.862 -0.1232  0.3612 -0.4451
  653MPD2     C 9715   2.821   3.770   0.040  0.6276  0.0224 -0.4393
  653MPD2    C1 9716   2.723   3.836  17.705  0.3641  0.3215 -0.1776
  653MPD2    C2 9717   2.616   3.771  17.652  0.3520  0.6443  0.2987
  653MPD2    C3 9718   2.596   3.640  17.682 -0.6079 -0.1965 -0.0134
  653MPD2    C4 9719   2.688   3.579   0.027  0.5592 -0.2222 -0.4800
  653MPD2    C5 9720   2.797   3.642   0.072  0.2488  1.1403 -0.4692
  653MPD2     H 9721   2.550   3.821  17.582 -0.6007  0.0659  0.7847
  653MPD2    H1 9722   2.674   3.474   0.048  0.4261  0.1683  1.3806
  653MPD2    H2 9723   2.911   3.820   0.071 -0.9985  0.2555  3.9516
  653MPD2    H3 9724   2.871   3.591   0.132 -0.2237 -0.7809 -1.5240
  653MPD2     N 9725   2.488   3.567  17.615  0.0297 -0.4414  0.5195
  653MPD2    H5 9726   2.432   3.613  17.544 -0.2859  0.5216  1.3909
  653MPD2    N1 9727   2.740   3.970  17.664 -0.3397 -0.2146 -0.1178
  653MPD2    H7 9728   2.681   4.002  17.588 -0.3180  0.1017  0.0001
  654TMC3    C1 9729   2.354   3.384  17.545  0.3093  0.2112 -0.4012
  654TMC3    C2 9730   2.265   3.476  17.499  0.1165 -0.3721  0.2163
  654TMC3    C3 9731   2.191   3.439  17.394  0.4824 -0.5830 -0.7683
  654TMC3    C4 9732   2.368   3.252  17.499  0.1440  0.1239 -0.1491
  654TMC3    C5 9733   2.290   3.222  17.391  0.3862  0.7452  0.2348
  654TMC3    C6 9734   2.211   3.318  17.333 -0.1028 -0.0054  0.4918
  654TMC3     C 9735   2.463   3.436  17.628  0.2766 -1.2314 -0.7076
  654TMC3     O 9736   2.524   3.349  17.687  0.2156 -0.2429 -0.5128
  654TMC3     H 9737   2.254   3.577  17.538 -1.3166  0.2508 -1.8351
  654TMC3    H1 9738   2.442   3.182  17.536  3.2203  3.2246 -0.3537
  654TMC3    H2 9739   2.175   3.301  17.232 -0.4706  0.0346  0.6177
  654TMC3    C7 9740   2.319   3.105  17.305 -0.3185 -0.1921  1.0634
  654TMC3    C8 9741   2.156   3.548  17.302  0.7598 -0.1934  0.1001
  654TMC3    O1 9742   2.295   3.122  17.184  0.1288 -0.1127  0.3075
  654TMC3    O2 9743   2.070   3.628  17.333 -0.3332 -0.1434 -0.6717
  655MPD2     C 9744   3.911   3.089  15.826 -0.2139  0.3534  0.1502
  655MPD2    C1 9745   3.853   3.161  15.728 -0.3720  0.0605 -0.2371
  655MPD2    C2 9746   3.843   3.115  15.594  0.4666  0.2482  0.2866
  655MPD2    C3 9747   3.895   2.996  15.563  0.1328  0.2049 -0.1655
  655MPD2    C4 9748   3.945   2.916  15.663  0.0085 -0.2292  0.3775
  655MPD2    C5 9749   3.954   2.962  15.791 -0.0353 -0.8772  0.2660
  655MPD2     H 9750   3.791   3.179  15.524 -1.6785 -1.7524  0.0200
  655MPD2    H1 9751   3.980   2.818  15.634  0.7476  0.0313  0.4099
  655MPD2    H2 9752   3.915   3.109  15.932  1.9734  5.1913 -0.8534
  655MPD2    H3 9753   4.018   2.909  15.861  1.4543 -2.5347 -2.3581
  655MPD2     N 9754   3.889   2.930  15.438 -0.1107  0.2400  0.3921
  655MPD2    H5 9755   3.951   2.854  15.412  0.2980  0.7112 -0.0131
  655MPD2    N1 9756   3.792   3.285  15.750  0.1486  0.1179  0.1706
  655MPD2    H7 9757   3.756   3.342  15.675  0.3223 -0.3668 -0.2782
  656TMC3    C1 9758   3.761   3.500  15.853  0.3922 -0.4997  0.5055
  656TMC3    C2 9759   3.720   3.567  15.964 -0.1443  0.1328 -0.7737
  656TMC3    C3 9760   3.675   3.692  15.951  0.2806 -0.2113  0.3042
  656TMC3    C4 9761   3.753   3.558  15.724  0.2077 -0.0619  0.0155
  656TMC3    C5 9762   3.703   3.683  15.721 -0.0505 -0.0949  0.9081
  656TMC3    C6 9763   3.663   3.748  15.828  0.3632 -0.1531  0.4413
  656TMC3     C 9764   3.784   3.356  15.868 -0.0527 -1.1573 -0.1645
  656TMC3     O 9765   3.807   3.317  15.977 -0.0901  0.4756  0.0721
  656TMC3     H 9766   3.723   3.525  16.064  1.1344 -2.7381 -2.0114
  656TMC3    H1 9767   3.791   3.513  15.634 -0.8452  0.3420 -0.6348
  656TMC3    H2 9768   3.612   3.844  15.820 -0.9353 -1.0333 -1.9526
  656TMC3    C7 9769   3.698   3.752  15.602  0.6369 -0.6219  0.1663
  656TMC3    C8 9770   3.569   3.724  16.042 -0.0101 -0.3712 -0.2456
  656TMC3    O1 9771   3.783   3.728  15.514 -0.1007 -0.1453  0.2640
  656TMC3    O2 9772   3.523   3.629  16.103 -0.3808 -0.1592 -0.0779
  657TMC3    C1 9773   2.843   2.545  15.233 -0.0347  0.1979  0.3586
  657TMC3    C2 9774   2.906   2.543  15.361  0.7130 -0.4945 -0.1139
  657TMC3    C3 9775   2.879   2.652  15.439  0.1249 -0.2318 -0.8351
  657TMC3    C4 9776   2.749   2.640  15.196  0.5426  0.5192 -0.2182
  657TMC3    C5 9777   2.723   2.740  15.287  0.4281  0.4163 -0.3659
  657TMC3    C6 9778   2.783   2.750  15.408 -0.5572 -0.3872 -0.2621
  657TMC3     C 9779   2.886   2.448  15.133 -0.2945  0.4149 -0.0487
  657TMC3     O 9780   2.808   2.421  15.046 -0.1062 -0.2134 -0.3737
  657TMC3     H 9781   2.970   2.467  15.404 -0.6772 -1.7691 -0.2782
  657TMC3    H1 9782   2.715   2.651  15.094 -0.6894  1.9070  0.3412
  657TMC3    H2 9783   2.773   2.823  15.487 -0.5680 -0.5168 -0.1419
  657TMC3    C7 9784   2.589   2.804  15.285 -0.1053  1.0616  0.2857
  657TMC3    C8 9785   2.937   2.658  15.569 -0.0183  1.2425 -0.4912
  657TMC3    O1 9786   2.584   2.900  15.364 -0.1130 -0.3487 -0.7303
  657TMC3    O2 9787   2.890   2.728  15.658  0.2264 -0.5113 -0.0685
  658MPD2     C 9788   4.140   2.804  14.775  0.8483 -0.6784 -0.8985
  658MPD2    C1 9789   4.005   2.803  14.764 -0.1717  0.3442 -0.2010
  658MPD2    C2 9790   3.950   2.853  14.642  0.1275  0.3023  0.8377
  658MPD2    C3 9791   4.023   2.913  14.542 -0.6321 -0.2828 -0.7211
  658MPD2    C4 9792   4.165   2.915  14.562  0.1124 -0.3230  0.5272
  658MPD2    C5 9793   4.218   2.868  14.675  0.2170  0.1730 -0.2450
  658MPD2     H 9794   3.842   2.848  14.635  0.3864  0.4119 -2.8152
  658MPD2    H1 9795   4.224   2.961  14.484 -0.7734 -0.7243 -0.3964
  658MPD2    H2 9796   4.195   2.787  14.867  0.5777  0.3383 -0.5391
  658MPD2    H3 9797   4.323   2.889  14.692  0.3373 -0.9060  0.3977
  658MPD2     N 9798   3.970   2.971  14.427  0.0546 -0.7361 -0.1821
  658MPD2    H5 9799   3.871   2.962  14.406  0.0168  0.2032 -0.4131
  658MPD2    N1 9800   3.909   2.766  14.866  0.5088 -0.1127 -0.5311
  658MPD2    H7 9801   3.814   2.801  14.869  0.9589  1.0698 -0.0541
  659TMC3    C1 9802   3.843   2.720  15.088 -0.4650  0.3658  0.0087
  659TMC3    C2 9803   3.867   2.786  15.202  0.3458  0.4661 -0.6529
  659TMC3    C3 9804   3.764   2.851  15.272 -0.9585 -0.3601  0.0895
  659TMC3    C4 9805   3.717   2.710  15.038 -0.7734  0.5242  0.6251
  659TMC3    C5 9806   3.616   2.788  15.096  0.5381 -0.3716 -0.0127
  659TMC3    C6 9807   3.645   2.868  15.207  0.8636  0.4521  0.5908
  659TMC3     C 9808   3.952   2.718  14.989 -0.6037  0.4213  0.4498
  659TMC3     O 9809   4.050   2.643  15.003  0.5004  0.0881  0.2904
  659TMC3     H 9810   3.973   2.797  15.223  0.1875 -0.1969  0.5142
  659TMC3    H1 9811   3.688   2.659  14.947 -1.4105  2.1422 -0.0791
  659TMC3    H2 9812   3.564   2.928  15.249 -0.7103 -0.8516 -0.5959
  659TMC3    C7 9813   3.484   2.789  15.030  0.4325 -0.4923  0.4212
  659TMC3    C8 9814   3.796   2.967  15.350  0.2742  0.2262 -0.1131
  659TMC3    O1 9815   3.424   2.897  15.023 -0.0938 -0.1777 -0.4375
  659TMC3    O2 9816   3.711   3.057  15.347  0.2142 -0.6023 -0.6182
  660MPD2     C 9817   1.775   2.618  12.532  0.4175 -0.4394 -0.4745
  660MPD2    C1 9818   1.671   2.690  12.587  0.1495  0.3357  0.6629
  660MPD2    C2 9819   1.653   2.678  12.730  0.2172 -0.4816  0.1627
  660MPD2    C3 9820   1.737   2.597  12.805 -0.1261 -0.3745 -0.9004
  660MPD2    C4 9821   1.840   2.528  12.747 -0.2453  0.3161  0.0883
  660MPD2    C5 9822   1.851   2.536  12.611  0.0694  0.4420  0.1087
  660MPD2     H 9823   1.568   2.728  12.775 -0.0674  0.1239 -1.0790
  660MPD2    H1 9824   1.901   2.457  12.802  0.0337 -0.0225 -0.6666
  660MPD2    H2 9825   1.783   2.611  12.424  1.1246 -3.8407 -0.2074
  660MPD2    H3 9826   1.922   2.467  12.566  0.5918  0.1379  1.3934
  660MPD2     N 9827   1.715   2.568  12.945  0.0551  0.2796  0.7016
  660MPD2    H5 9828   1.775   2.496  12.985  0.9881 -0.1835 -1.4896
  660MPD2    N1 9829   1.603   2.782  12.495  0.4450 -0.7745  0.0513
  660MPD2    H7 9830   1.628   2.773  12.397 -0.4499  3.4726 -0.5333
  661TMC3    C1 9831   1.415   2.903  12.418  0.3357 -0.0606  0.0426
  661TMC3    C2 9832   1.466   2.901  12.288 -0.2132 -0.0602  0.1679
  661TMC3    C3 9833   1.377   2.910  12.184  0.8160 -0.2033  0.3149
  661TMC3    C4 9834   1.281   2.925  12.442  0.4179  0.5540  0.0873
  661TMC3    C5 9835   1.193   2.926  12.329  0.0127 -0.5702 -0.1792
  661TMC3    C6 9836   1.242   2.906  12.202 -0.4287 -0.7043  0.5563
  661TMC3     C 9837   1.494   2.857  12.532 -0.5894  0.0995  0.2908
  661TMC3     O 9838   1.456   2.889  12.644 -0.6381  0.8326  0.0478
  661TMC3     H 9839   1.574   2.898  12.278 -0.4373  1.1334 -2.5889
  661TMC3    H1 9840   1.239   2.891  12.535 -0.5067 -0.5578 -0.7434
  661TMC3    H2 9841   1.185   2.919  12.111 -0.2200  1.4116  0.7315
  661TMC3    C7 9842   1.056   2.899  12.356  0.8023 -0.4555  0.2524
  661TMC3    C8 9843   1.430   2.907  12.053  1.0395  0.1751 -0.1902
  661TMC3    O1 9844   1.027   2.915  12.471 -0.3575 -0.6365 -0.7151
  661TMC3    O2 9845   1.534   2.850  12.035 -0.2638 -0.1675 -0.0390
  662MPD2     C 9846   2.360   1.815   0.231  0.0938 -0.3468 -0.5818
  662MPD2    C1 9847   2.326   1.910   0.140 -0.1722 -0.0410  0.3650
  662MPD2    C2 9848   2.243   2.013   0.183 -0.7945 -0.5307 -0.4931
  662MPD2    C3 9849   2.190   2.022   0.309  0.2509  0.7632 -0.6658
  662MPD2    C4 9850   2.240   1.935   0.399 -0.3530  0.2981  0.1626
  662MPD2    C5 9851   2.315   1.830   0.364 -0.2601 -0.0160  0.3994
  662MPD2     H 9852   2.200   2.076   0.105  0.8356 -0.2041 -1.1342
  662MPD2    H1 9853   2.213   1.939   0.504  2.4416 -0.8678  0.9238
  662MPD2    H2 9854   2.415   1.725   0.207  0.5492 -0.3850  0.6262
  662MPD2    H3 9855   2.347   1.757   0.438  1.9170 -0.9216 -1.4290
  662MPD2     N 9856   2.094   2.113   0.353 -0.6132  0.3220  0.1684
  662MPD2    H5 9857   2.079   2.113   0.453 -0.6929 -0.1803  0.1530
  662MPD2    N1 9858   2.348   1.888  17.738  0.4935 -0.7835  0.1753
  662MPD2    H7 9859   2.326   1.963  17.673  0.8299  0.3643  1.3892
  663TMC3    C1 9860   2.363   1.765  17.537  0.2446  0.1602 -0.8307
  663TMC3    C2 9861   2.293   1.864  17.483 -0.6260  0.0074 -0.3822
  663TMC3    C3 9862   2.251   1.845  17.346  0.3844  0.1971 -0.6385
  663TMC3    C4 9863   2.372   1.643  17.476 -0.1933 -0.2385 -0.9851
  663TMC3    C5 9864   2.311   1.621  17.354 -0.7794 -0.2400  0.2446
  663TMC3    C6 9865   2.256   1.723  17.280  0.2445 -0.1932 -0.1146
  663TMC3     C 9866   2.407   1.777  17.676 -0.2406 -0.2319  0.2973
  663TMC3     O 9867   2.470   1.686  17.733  0.4948  0.3646  0.4826
  663TMC3     H 9868   2.301   1.969  17.511  0.0198  0.0329 -0.6686
  663TMC3    H1 9869   2.419   1.561  17.528  0.3561  0.7240  0.0194
  663TMC3    H2 9870   2.181   1.692  17.208  0.4368  1.8469 -1.2090
  663TMC3    C7 9871   2.221   1.509  17.374 -0.3242  0.3894  0.0319
  663TMC3    C8 9872   2.112   1.888  17.335  0.2993  1.4038 -0.0294
  663TMC3    O1 9873   2.147   1.513  17.473  0.0033 -0.2528 -0.1888
  663TMC3    O2 9874   2.068   1.877  17.223 -0.5712 -0.2517 -0.8267
  664MPD2     C 9875   0.197   0.519   0.428 -0.0958  0.2171 -0.3396
  664MPD2    C1 9876   0.315   0.586   0.407 -0.1070  0.2046  0.1311
  664MPD2    C2 9877   0.394   0.618   0.517 -0.2921  0.5430 -0.7570
  664MPD2    C3 9878   0.362   0.584   0.643 -0.6498  0.5113 -0.1744
  664MPD2    C4 9879   0.246   0.512   0.662  0.0601  0.3532  0.1373
  664MPD2    C5 9880   0.160   0.487   0.555 -0.1732 -0.4028 -0.1343
  664MPD2     H 9881   0.488   0.669   0.501 -0.4098  0.8124 -0.5816
  664MPD2    H1 9882   0.203   0.481   0.756  1.1629 -1.2368  0.1058
  664MPD2    H2 9883   0.127   0.489   0.351  1.5488 -0.1965 -1.6726
  664MPD2    H3 9884   0.064   0.442   0.575  0.0439  0.7706  3.4993
  664MPD2     N 9885   0.425   0.629   0.759 -0.0140  0.1356  0.8549
  664MPD2    H5 9886   0.393   0.578   0.841 -0.3257 -2.0424 -0.6128
  664MPD2    N1 9887   0.360   0.622   0.275  0.3650  0.4414  0.2191
  664MPD2    H7 9888   0.438   0.687   0.275  0.9015 -0.2290  2.2451
  665TMC3    C1 9889   0.572   0.739   0.902 -0.6375  0.1362 -0.3844
  665TMC3    C2 9890   0.481   0.723   1.005 -0.8429 -0.0325  0.0279
  665TMC3    C3 9891   0.521   0.778   1.128 -0.6268 -0.7346  0.3450
  665TMC3    C4 9892   0.691   0.805   0.918 -0.1171 -0.2323  0.1223
  665TMC3    C5 9893   0.718   0.868   1.038 -0.3456  0.0053  0.3663
  665TMC3    C6 9894   0.639   0.854   1.146  0.0371 -0.7108  0.4000
  665TMC3     C 9895   0.533   0.715   0.764  0.0937  0.7965 -0.1152
  665TMC3     O 9896   0.596   0.769   0.673  0.1690 -0.7960  0.1208
  665TMC3     H 9897   0.378   0.693   0.987 -0.1803 -1.8526 -0.8021
  665TMC3    H1 9898   0.758   0.814   0.833  1.1984 -2.1496  0.9342
  665TMC3    H2 9899   0.649   0.908   1.239 -0.0203  1.6584 -0.9611
  665TMC3    C7 9900   0.837   0.957   1.050 -0.6354  0.7452  0.0218
  665TMC3    C8 9901   0.417   0.767   1.231 -0.1043 -0.2647 -0.4962
  665TMC3    O1 9902   0.936   0.929   0.982  0.3647 -0.3952 -0.0019
  665TMC3    O2 9903   0.306   0.733   1.198 -0.0533 -0.5711 -0.0076
  666TMC3    C1 9904   3.844   0.355   9.775  0.8202  0.9762 -0.0763
  666TMC3    C2 9905   3.925   0.307   9.874  0.2495 -0.0778 -0.0934
  666TMC3    C3 9906   3.958   0.387   9.974 -0.1031 -0.3812  0.7066
  666TMC3    C4 9907   3.809   0.489   9.771  0.5036  0.0271  0.2585
  666TMC3    C5 9908   3.866   0.572   9.865  0.0459  0.9866  0.1000
  666TMC3    C6 9909   3.944   0.520   9.968  0.6752 -0.0587 -0.8709
  666TMC3     C 9910   3.759   0.269   9.700 -0.3143 -0.1379  0.8810
  666TMC3     O 9911   3.749   0.281   9.578 -0.2686 -0.3852  0.1018
  666TMC3     H 9912   3.961   0.205   9.880 -0.6571 -0.4841 -1.5686
  666TMC3    H1 9913   3.731   0.521   9.702  0.1814 -2.4146 -0.4938
  666TMC3    H2 9914   3.989   0.595  10.033 -0.2701  1.3819 -1.8636
  666TMC3    C7 9915   3.795   0.693   9.897 -0.1582  0.0158 -0.5476
  666TMC3    C8 9916   4.041   0.327  10.076  0.0014  0.1457 -0.3851
  666TMC3    O1 9917   3.813   0.736  10.013 -0.4424  1.0754 -0.0539
  666TMC3    O2 9918   4.063   0.207  10.080  0.5780 -0.4567 -0.2727
  667MPD2     C 9919   1.284   0.375  14.316 -0.2787  0.4904  0.0164
  667MPD2    C1 9920   1.282   0.326  14.439  0.5339  0.2325 -0.7530
  667MPD2    C2 9921   1.215   0.216  14.477  0.0720 -0.0087  0.0582
  667MPD2    C3 9922   1.141   0.145  14.379  0.7539 -0.3437 -0.5038
  667MPD2    C4 9923   1.139   0.194  14.247  0.0803 -1.0203  0.7594
  667MPD2    C5 9924   1.208   0.310  14.223 -0.4629 -0.2632 -0.3416
  667MPD2     H 9925   1.221   0.178  14.578 -2.4936 -0.1178  0.1826
  667MPD2    H1 9926   1.083   0.152  14.164 -0.4339  0.7224  0.2237
  667MPD2    H2 9927   1.333   0.464  14.277  0.9573 -0.6695 -1.1043
  667MPD2    H3 9928   1.200   0.355  14.125 -0.4551  0.5382  0.0301
  667MPD2     N 9929   1.051   0.038  14.415  0.1678  0.0577  0.1146
  667MPD2    H5 9930   0.988   4.729  14.348  2.2714 -2.5644 -0.1317
  667MPD2    N1 9931   1.353   0.391  14.547  0.7784  0.4266 -0.1172
  667MPD2    H7 9932   1.354   0.343  14.637  2.9563  0.0867 -0.3240
  668TMC3    C1 9933   1.487   0.556  14.657  0.3374 -0.1768 -0.1967
  668TMC3    C2 9934   1.583   0.656  14.654  0.2247  0.0617  0.2815
  668TMC3    C3 9935   1.601   0.723  14.771  0.1646  0.2756  0.9067
  668TMC3    C4 9936   1.426   0.521  14.776 -0.5329 -0.5232 -0.2849
  668TMC3    C5 9937   1.448   0.597  14.895  0.2857 -0.4776  0.2198
  668TMC3    C6 9938   1.534   0.703  14.892 -0.1182 -0.0311  1.2407
  668TMC3     C 9939   1.447   0.488  14.533 -0.0836 -1.0474 -0.0571
  668TMC3     O 9940   1.499   0.521  14.426 -0.3502 -0.3668 -0.0107
  668TMC3     H 9941   1.627   0.685  14.559 -0.2986  1.3240  0.4156
  668TMC3    H1 9942   1.354   0.440  14.786 -0.3254 -0.7136 -0.3243
  668TMC3    H2 9943   1.568   0.745  14.986  1.7212  0.3987  0.3933
  668TMC3    C7 9944   1.411   0.549  15.032  0.5439 -0.4399  0.1404
  668TMC3    C8 9945   1.692   0.830  14.769  0.6115  0.1180 -0.0199
  668TMC3    O1 9946   1.468   0.588  15.131 -0.2631 -0.1983  0.2519
  668TMC3    O2 9947   1.693   0.905  14.866 -0.1352  0.4340  0.0991
  669TMC3    C1 9948   4.042   3.899  14.541 -0.2333 -0.4384 -0.3011
  669TMC3    C2 9949   4.036   3.835  14.416  0.3662 -0.4480 -0.2158
  669TMC3    C3 9950   4.015   3.914  14.306 -0.5778 -0.1417 -0.0268
  669TMC3    C4 9951   4.072   4.036  14.555 -0.2672 -0.0777 -0.1548
  669TMC3    C5 9952   4.069   4.098  14.430  0.0028 -0.0551  0.2593
  669TMC3    C6 9953   4.043   4.044  14.311  0.2110  0.3046  0.1762
  669TMC3     C 9954   4.062   3.820  14.656 -0.5261  0.0373 -0.8305
  669TMC3     O 9955   4.106   3.708  14.644 -0.0353  0.1215  0.0260
  669TMC3     H 9956   4.026   3.728  14.407 -0.5673 -0.5673  2.2725
  669TMC3    H1 9957   4.098   4.089  14.646  0.9618  0.1933 -0.6628
  669TMC3    H2 9958   4.012   4.107  14.228 -0.5257  0.1668  0.3426
  669TMC3    C7 9959   4.124   4.229  14.419  0.3337 -1.0243 -0.6278
  669TMC3    C8 9960   3.892   3.893  14.242  0.0919  0.4542  0.3064
  669TMC3    O1 9961   4.128   4.301  14.517 -0.0711  0.1160  0.3692
  669TMC3    O2 9962   3.875   3.941  14.126  0.3606  0.0252  0.4545
  670MPD2     C 9963   2.508   1.896  14.631  0.1844  0.3068  0.2843
  670MPD2    C1 9964   2.471   1.972  14.523 -0.0403  0.3405 -0.0125
  670MPD2    C2 9965   2.363   1.924  14.443  0.2079  0.0458 -0.8249
  670MPD2    C3 9966   2.316   1.793  14.457 -0.0069  0.2873  0.3541
  670MPD2    C4 9967   2.357   1.718  14.562 -0.3295  0.0352 -0.9705
  670MPD2    C5 9968   2.451   1.772  14.642 -0.2828  1.3255  0.8750
  670MPD2     H 9969   2.329   1.988  14.362 -0.1387 -1.3060 -1.7428
  670MPD2    H1 9970   2.337   1.612  14.571 -0.0983  0.0669 -0.1062
  670MPD2    H2 9971   2.584   1.926  14.703  0.5939 -1.4347  0.5797
  670MPD2    H3 9972   2.485   1.715  14.728 -2.4389 -0.3854  0.5842
  670MPD2     N 9973   2.221   1.744  14.358 -0.2540 -0.7706 -0.0111
  670MPD2    H5 9974   2.202   1.794  14.272 -0.5177  0.6471  0.8746
  670MPD2    N1 9975   2.514   2.105  14.494 -0.2596  0.9913 -0.6007
  670MPD2    H7 9976   2.485   2.146  14.406 -2.7694  2.2570  0.8223
  671TMC3    C1 9977   2.126   1.577  14.231 -0.7529 -0.6463 -0.4185
  671TMC3    C2 9978   2.205   1.471  14.189 -0.5789  0.3135  0.2705
  671TMC3    C3 9979   2.167   1.418  14.072 -0.5639  0.6711  0.1904
  671TMC3    C4 9980   2.006   1.621  14.169  0.5354 -0.2548 -0.3652
  671TMC3    C5 9981   1.971   1.556  14.054 -0.2283 -0.1615  0.3340
  671TMC3    C6 9982   2.050   1.454  14.014 -0.0859  0.1021 -0.1522
  671TMC3     C 9983   2.165   1.619  14.362 -0.1854 -0.2030  0.4290
  671TMC3     O 9984   2.167   1.536  14.452 -0.5667 -0.5472 -0.3808
  671TMC3     H 9985   2.304   1.461  14.230 -0.5750  1.9186  0.6799
  671TMC3    H1 9986   1.948   1.697  14.220  1.2194 -0.2399  0.3922
  671TMC3    H2 9987   2.003   1.385  13.945  1.0864 -1.2994  0.4443
  671TMC3    C7 9988   1.952   1.652  13.944  0.4640 -0.3717  0.4446
  671TMC3    C8 9989   2.277   1.408  13.981  0.4235  0.6765 -0.0032
  671TMC3    O1 9990   2.043   1.647  13.860 -0.0974  0.1709  0.1700
  671TMC3    O2 9991   2.389   1.380  14.021  0.2277  0.0565 -0.8662
  672MPD2     C 9992   2.975   3.729   0.425  0.9704 -1.1829  0.2213
  672MPD2    C1 9993   2.949   3.676   0.547 -0.1777 -0.2844  0.4134
  672MPD2    C2 9994   2.978   3.745   0.667  0.6248 -0.2096 -0.3852
  672MPD2    C3 9995   3.040   3.872   0.655  0.4913  0.0702 -0.2846
  672MPD2    C4 9996   3.054   3.928   0.532 -0.4452 -0.0050  0.1425
  672MPD2    C5 9997   3.025   3.853   0.420 -0.3995  0.1040  0.0383
  672MPD2     H 9998   2.960   3.691   0.760 -1.0652  0.7697 -0.1453
  672MPD2    H1 9999   3.106   4.022   0.518  1.3510 -0.7630  1.6499
  672MPD2    H210000   2.958   3.684   0.327  1.3500 -2.3927  0.7123
  672MPD2    H310001   3.065   3.893   0.327 -0.7449  1.4444  0.4771
  672MPD2     N10002   3.087   3.945   0.768 -0.1629  0.4036  0.0923
  672MPD2    H510003   3.115   4.041   0.752  0.1307  0.3215  0.1024
  672MPD2    N110004   2.888   3.554   0.566 -0.4078 -0.0390  0.3213
  672MPD2    H710005   2.872   3.538   0.665 -1.7402  0.9394  0.2625
  673TMC3    C110006   2.753   3.372   0.530 -0.1688 -0.3924  0.3389
  673TMC3    C210007   2.813   3.252   0.539  0.3283  0.0050  0.3752
  673TMC3    C310008   2.746   3.141   0.583 -0.4653 -0.4100  0.8375
  673TMC3    C410009   2.614   3.385   0.536  0.6061 -0.1522  0.3225
  673TMC3    C510010   2.548   3.279   0.577  0.0404  0.7334  0.3799
  673TMC3    C610011   2.611   3.155   0.603 -0.1818  0.1197  0.2184
  673TMC3     C10012   2.836   3.467   0.474 -0.3297  0.4659 -0.0470
  673TMC3     O10013   2.853   3.470   0.353 -0.0630  0.4265  0.2662
  673TMC3     H10014   2.915   3.249   0.504  0.5883 -2.4946  1.2762
  673TMC3    H110015   2.571   3.485   0.532 -1.0591 -0.7767  2.2815
  673TMC3    H210016   2.562   3.072   0.654 -1.2180  0.9404  0.5438
  673TMC3    C710017   2.413   3.298   0.629  0.5682  0.4655  0.0974
  673TMC3    C810018   2.826   3.032   0.634 -0.1913 -0.6627  0.2932
  673TMC3    O110019   2.384   3.219   0.718  0.3189 -0.9495  0.1540
  673TMC3    O210020   2.768   2.928   0.663  0.3227 -0.2002 -0.1924
  674MPD2     C10021   2.298   2.443   0.008  0.6446 -0.6986 -0.3996
  674MPD2    C110022   2.312   2.488   0.142 -0.1776 -0.2539  0.2704
  674MPD2    C210023   2.300   2.626   0.166  0.2938  0.2455  0.7918
  674MPD2    C310024   2.285   2.714   0.067 -0.4265  0.0762 -0.3860
  674MPD2    C410025   2.267   2.672  17.674 -0.6105 -0.3921 -0.6627
  674MPD2    C510026   2.269   2.538  17.649 -0.1953 -0.6493 -0.5258
  674MPD2     H10027   2.306   2.667   0.266  1.4169  1.6795  0.1402
  674MPD2    H110028   2.271   2.749  17.598  1.1156  0.9850  0.7908
  674MPD2    H210029   2.313   2.340  17.718 -0.1003 -1.1669  0.8800
  674MPD2    H310030   2.250   2.498  17.550  0.7302  1.2430 -1.4709
  674MPD2     N10031   2.306   2.848   0.100  0.6809  0.8516  0.6557
  674MPD2    H510032   2.320   2.857   0.200  2.0600 -1.9027  0.7005
  674MPD2    N110033   2.354   2.392   0.232 -1.3951 -0.1936  0.4063
  674MPD2    H710034   2.372   2.298   0.198  0.0142  0.5969 -1.0126
  675TMC3    C110035   2.432   2.522   0.411 -0.4773 -0.5552 -0.0898
  675TMC3    C210036   2.393   2.550   0.539  0.5753  0.4475  0.2874
  675TMC3    C310037   2.459   2.650   0.599  0.0173 -0.1071  0.0436
  675TMC3    C410038   2.541   2.578   0.345 -0.0233 -0.1759  0.2701
  675TMC3    C510039   2.597   2.682   0.413  0.1545  0.7414  0.6922
  675TMC3    C610040   2.558   2.725   0.535 -0.1499 -0.8296  0.2325
  675TMC3     C10041   2.385   2.398   0.365  0.2416 -0.0084  0.3721
  675TMC3     O10042   2.408   2.306   0.445  0.1520  0.3993 -0.0883
  675TMC3     H10043   2.305   2.498   0.577  0.1954  0.5219 -0.4976
  675TMC3    H110044   2.556   2.555   0.240  2.5714  1.1600  0.3370
  675TMC3    H210045   2.607   2.811   0.580 -0.6016 -1.2491  1.5487
  675TMC3    C710046   2.656   2.778   0.322 -0.1163  0.0088 -0.2224
  675TMC3    C810047   2.413   2.688   0.729 -0.2833 -0.5803  0.5835
  675TMC3    O110048   2.608   2.793   0.210  0.4622 -0.6373 -0.9505
  675TMC3    O210049   2.330   2.610   0.772 -0.2758  0.4522 -0.1877
  676MPD2     C10050   0.082   1.167  11.104 -0.5956  0.2565  0.1116
  676MPD2    C110051   4.689   1.153  11.155 -0.8377 -0.0057 -0.4365
  676MPD2    C210052   4.587   1.107  11.075  0.1776 -0.4204 -0.1562
  676MPD2    C310053   4.614   1.067  10.945  0.5515  0.4363 -0.6211
  676MPD2    C410054   0.006   1.076  10.890  0.2716  0.4101 -0.2760
  676MPD2    C510055   0.109   1.132  10.969 -0.3327 -0.2182 -0.0784
  676MPD2     H10056   4.491   1.088  11.122  0.0634 -0.3176 -0.3508
  676MPD2    H110057   0.018   1.049  10.786 -0.3229  1.4539 -0.6148
  676MPD2    H210058   0.163   1.207  11.164 -1.2246  1.8843 -0.1253
  676MPD2    H310059   0.210   1.151  10.937 -0.4631  0.5424 -0.0523
  676MPD2     N10060   4.516   1.008  10.859  0.6101 -0.1145  0.4633
  676MPD2    H510061   4.549   0.987  10.765 -0.4736  2.0978 -0.4097
  676MPD2    N110062   4.642   1.217  11.275 -0.1050 -0.2376  0.0142
  676MPD2    H710063   4.544   1.216  11.301  0.3291 -0.5370  1.6422
  677TMC3    C110064   4.643   1.332  11.471 -0.4845 -0.6395 -0.1148
  677TMC3    C210065   4.519   1.277  11.506  0.4260  0.2457 -0.4486
  677TMC3    C310066   4.454   1.328  11.610  0.1584  0.7406  0.1027
  677TMC3    C410067   4.681   1.448  11.523  0.2553 -0.2781  0.8276
  677TMC3    C510068   4.602   1.498  11.624 -0.2352  0.2480  0.7151
  677TMC3    C610069   4.494   1.442  11.664 -0.8649 -0.4137 -0.5111
  677TMC3     C10070   4.718   1.285  11.357  0.1309  0.2116 -0.2153
  677TMC3     O10071   0.100   1.315  11.360 -0.0358  0.0264 -0.1079
  677TMC3     H10072   4.490   1.179  11.470  0.3274  0.6358 -1.4466
  677TMC3    H110073   0.026   1.507  11.479  0.1941 -0.1273  0.9161
  677TMC3    H210074   4.430   1.493  11.735  0.0847 -0.3480  0.2983
  677TMC3    C710075   4.649   1.604  11.711 -0.0984  0.6043 -0.2844
  677TMC3    C810076   4.327   1.267  11.640  0.1363  0.1781  0.1460
  677TMC3    O110077   4.609   1.588  11.823  0.1007  0.0558 -0.0171
  677TMC3    O210078   4.262   1.218  11.552 -0.3912 -0.0240 -0.4837
  678MPD2     C10079   1.758   2.469   1.560 -0.5821  0.2598  0.1105
  678MPD2    C110080   1.777   2.342   1.507  0.0461 -0.5086 -0.0177
  678MPD2    C210081   1.662   2.262   1.492  0.1447  0.1427 -0.4897
  678MPD2    C310082   1.544   2.292   1.546 -0.0987 -0.9525 -0.1072
  678MPD2    C410083   1.530   2.420   1.597  0.5365 -0.5061 -0.2174
  678MPD2    C510084   1.637   2.503   1.605  0.0025  0.4105 -0.3411
  678MPD2     H10085   1.674   2.166   1.443 -0.2146  0.6670 -1.5902
  678MPD2    H110086   1.436   2.458   1.635  1.5651  0.7967  1.0633
  678MPD2    H210087   1.833   2.547   1.575  2.4373 -2.9863  1.7748
  678MPD2    H310088   1.621   2.596   1.658  2.4014  0.3259  0.5729
  678MPD2     N10089   1.440   2.201   1.546  0.2126 -0.3374  0.5367
  678MPD2    H510090   1.454   2.105   1.514  2.4870 -0.8519  3.0178
  678MPD2    N110091   1.901   2.297   1.449  0.7535 -0.3260  0.0225
  678MPD2    H710092   1.911   2.214   1.392 -1.4123  0.4044 -1.3853
  679TMC3    C110093   2.338   2.288   1.290 -0.2485  0.5919  0.3154
  679TMC3    C210094   2.250   2.320   1.380 -0.4189  0.5904  0.2363
  679TMC3    C310095   2.117   2.312   1.351  0.1416  0.0226 -0.3072
  679TMC3    C410096   2.299   2.228   1.174  0.1345  0.1628  0.3712
  679TMC3    C510097   2.163   2.229   1.144  0.2354  0.4942 -0.5602
  679TMC3    C610098   2.059   2.266   1.233  0.8151 -0.6428 -0.6777
  679TMC3     C10099   2.461   2.234   1.348  0.4828  0.2329 -0.6841
  679TMC3     O10100   2.510   2.135   1.289  0.2662 -0.3276  0.1488
  679TMC3     H10101   2.280   2.353   1.479 -1.0777  1.2857  0.2037
  679TMC3    H110102   2.375   2.211   1.099  0.1791 -0.4304  0.5510
  679TMC3    H210103   1.955   2.276   1.205  1.3495  3.5047 -1.2467
  679TMC3    C710104   2.113   2.149   1.038  0.4016 -0.3468 -0.0264
  679TMC3    C810105   2.025   2.362   1.456  0.5779  0.6661  0.7274
  679TMC3    O110106   1.996   2.172   1.002  0.1021  0.2642  0.0771
  679TMC3    O210107   2.056   2.465   1.516  0.2471  0.4733 -0.8303
  680MPD2     C10108   1.615   4.390  13.731 -0.2700  0.2190 -0.4087
  680MPD2    C110109   1.699   4.374  13.841  0.5419 -0.7140 -0.7746
  680MPD2    C210110   1.750   4.483  13.915 -0.1016  0.0132  0.2030
  680MPD2    C310111   1.728   4.611  13.869  0.2951 -0.1393 -0.6535
  680MPD2    C410112   1.664   4.630  13.754  0.3161 -0.1954 -0.2289
  680MPD2    C510113   1.607   4.519  13.688 -0.5181  0.5800  0.0209
  680MPD2     H10114   1.808   4.459  14.004  1.2727 -0.0273 -0.7049
  680MPD2    H110115   1.653   4.724  13.700 -3.5971 -0.5294 -0.0324
  680MPD2    H210116   1.561   4.313  13.676 -0.2865  1.0291 -1.5158
  680MPD2    H310117   1.553   4.523  13.594  1.1715 -2.7017 -1.0989
  680MPD2     N10118   1.774   4.726  13.937  0.2364 -0.0914  0.2442
  680MPD2    H510119   1.760   0.080  13.890 -1.7303  0.6721  2.3126
  680MPD2    N110120   1.729   4.241  13.893 -0.0770  0.3389  0.3229
  680MPD2    H710121   1.786   4.237  13.977  2.5767  1.0568 -1.4329
  681TMC3    C110122   1.763   4.014  13.890 -0.1060 -0.7615 -0.8975
  681TMC3    C210123   1.741   3.991  14.024  0.2782  0.3727 -0.1007
  681TMC3    C310124   1.837   3.930  14.095  0.6028  0.2473  0.1733
  681TMC3    C410125   1.872   3.965  13.824  0.7443  0.0784 -0.5443
  681TMC3    C510126   1.973   3.894  13.897 -0.0967 -0.0179  0.2201
  681TMC3    C610127   1.943   3.870  14.030 -0.2077  0.8955  0.5580
  681TMC3     C10128   1.691   4.123  13.832  0.0654  0.0318  0.2700
  681TMC3     O10129   1.656   4.106  13.716  0.5159  0.0922 -0.0523
  681TMC3     H10130   1.661   4.046  14.071 -0.0314  0.9601 -1.3180
  681TMC3    H110131   1.897   3.999  13.725  1.4108  0.2731 -0.3103
  681TMC3    H210132   2.013   3.812  14.089 -2.5405 -2.8083 -0.3848
  681TMC3    C710133   2.102   3.861  13.841 -0.0905 -0.5542  0.4132
  681TMC3    C810134   1.845   3.956  14.233  0.1146 -0.6729  0.0719
  681TMC3    O110135   2.163   3.774  13.901 -0.0269 -0.2352  0.1557
  681TMC3    O210136   1.952   3.962  14.291 -0.1625 -0.1105 -0.0044
  682MPD2     C10137   3.293   1.537  10.803 -0.4009  0.1117 -0.2821
  682MPD2    C110138   3.344   1.409  10.812 -1.0458 -0.2229  0.1134
  682MPD2    C210139   3.405   1.370  10.928 -0.0629 -0.3905 -0.2760
  682MPD2    C310140   3.418   1.461  11.036  0.3750  0.1179  0.0258
  682MPD2    C410141   3.373   1.587  11.023  0.2174  1.1027  0.0945
  682MPD2    C510142   3.307   1.622  10.905 -0.6153 -0.7535 -0.0917
  682MPD2     H10143   3.435   1.267  10.942  0.8193  0.0941  1.3558
  682MPD2    H110144   3.393   1.655  11.105  0.4316  0.5100  0.5319
  682MPD2    H210145   3.243   1.573  10.714 -2.2604  0.3228  0.8259
  682MPD2    H310146   3.254   1.716  10.903  0.9382  0.0634 -2.4318
  682MPD2     N10147   3.476   1.423  11.161  0.5902  0.1349 -0.1240
  682MPD2    H510148   3.476   1.489  11.238  0.4324  0.0327 -0.0355
  682MPD2    N110149   3.335   1.316  10.704 -0.0108 -0.9187 -0.4012
  682MPD2    H710150   3.382   1.228  10.723 -0.7154 -1.5382 -1.5308
  683TMC3    C110151   3.588   1.414  11.527  0.4295 -0.9299 -0.0051
  683TMC3    C210152   3.522   1.314  11.599  1.0284 -0.1222  0.2685
  683TMC3    C310153   3.490   1.195  11.542  0.9182 -0.0891  0.1080
  683TMC3    C410154   3.607   1.408  11.393  0.6992  0.7201  0.3952
  683TMC3    C510155   3.564   1.290  11.332  0.5158 -0.1869  1.2330
  683TMC3    C610156   3.506   1.184  11.401  0.5372 -0.6872  0.2100
  683TMC3     C10157   3.676   1.504  11.600  0.2784  0.5481  1.0983
  683TMC3     O10158   3.710   1.611  11.550 -1.2054 -0.3058 -0.2790
  683TMC3     H10159   3.498   1.327  11.703 -0.3990  0.3136 -0.1185
  683TMC3    H110160   3.670   1.482  11.345 -0.7312  0.1828 -2.2521
  683TMC3    H210161   3.470   1.096  11.349 -1.0111  1.0347 -1.6363
  683TMC3    C710162   3.517   1.299  11.195  0.3220  0.5055 -0.3022
  683TMC3    C810163   3.390   1.111  11.607  0.7816  0.8023 -0.6193
  683TMC3    O110164   3.540   1.204  11.123 -0.0902  0.0440  0.3280
  683TMC3    O210165   3.336   1.158  11.708 -0.4532  0.1680  0.4462
  684MPD2     C10166   2.534   0.337  15.867  0.5252  0.4709 -0.7490
  684MPD2    C110167   2.472   0.446  15.804 -0.3113 -0.2911  0.8940
  684MPD2    C210168   2.463   0.567  15.875  0.5015 -0.2181  0.6131
  684MPD2    C310169   2.551   0.586  15.978 -0.0881 -0.9670 -0.5074
  684MPD2    C410170   2.609   0.481  16.041 -0.4901 -0.2896  0.5058
  684MPD2    C510171   2.596   0.357  15.985 -0.0522 -1.0511 -0.0703
  684MPD2     H10172   2.402   0.651  15.843  1.2081  0.0237 -0.0812
  684MPD2    H110173   2.672   0.493  16.128 -2.4397 -0.4053  1.9516
  684MPD2    H210174   2.533   0.239  15.820  0.9553  0.1025  0.0191
  684MPD2    H310175   2.650   0.277  16.033  0.3542 -0.2897  0.7375
  684MPD2     N10176   2.578   0.713  16.040 -0.0816  0.5983  0.6396
  684MPD2    H510177   2.633   0.712  16.126 -0.2246 -0.4029  0.7134
  684MPD2    N110178   2.418   0.446  15.676  0.1249 -0.4340  0.4912
  684MPD2    H710179   2.389   0.537  15.640  0.1593 -0.4678  0.3774
  685TMC3    C110180   2.370   0.369  15.453 -0.7055  0.7939  0.9919
  685TMC3    C210181   2.280   0.466  15.434 -0.2488  0.3847 -0.2310
  685TMC3    C310182   2.257   0.510  15.314  0.3346 -0.4253  0.1679
  685TMC3    C410183   2.441   0.315  15.354 -0.7968 -0.0617 -0.6791
  685TMC3    C510184   2.440   0.383  15.239 -0.1263 -0.4648 -0.3325
  685TMC3    C610185   2.334   0.466  15.209  0.5388 -0.3585 -0.1841
  685TMC3     C10186   2.423   0.337  15.586  0.0845 -0.2830  0.0571
  685TMC3     O10187   2.452   0.220  15.611  0.7298  0.0096 -0.2211
  685TMC3     H10188   2.226   0.500  15.521 -2.2112 -0.8920 -0.9631
  685TMC3    H110189   2.504   0.232  15.383 -1.9742 -0.0547  1.9029
  685TMC3    H210190   2.332   0.534  15.125  0.7716  1.2493  1.1200
  685TMC3    C710191   2.573   0.425  15.189 -0.0874 -0.0462 -1.0423
  685TMC3    C810192   2.175   0.622  15.284  0.3465  0.8813 -0.1006
  685TMC3    O110193   2.572   0.482  15.083 -0.0784 -0.2340 -0.3868
  685TMC3    O210194   2.117   0.616  15.176 -0.0267  0.0783  0.6876
  686MPD2     C10195   3.905   0.065  14.785  0.3708 -0.2062 -0.1912
  686MPD2    C110196   3.928   0.001  14.902  0.0559  0.3257  0.2727
  686MPD2    C210197   3.986   4.611  14.906  0.1917 -0.5227 -0.7775
  686MPD2    C310198   4.002   4.526  14.792  0.7387 -0.1600 -0.6214
  686MPD2    C410199   3.991   4.601  14.674 -0.1526 -0.2120 -0.6404
  686MPD2    C510200   3.937   4.732  14.671 -0.0063 -0.3004 -0.3721
  686MPD2     H10201   3.998   4.563  15.002  0.8717  0.9838 -0.1126
  686MPD2    H110202   4.002   4.546  14.581  3.0432 -0.5289 -0.0708
  686MPD2    H210203   3.858   0.162  14.771 -0.5320 -0.9615 -2.2745
  686MPD2    H310204   3.916   0.039  14.574  1.9835 -0.5445 -0.9058
  686MPD2     N10205   4.050   4.391  14.787 -0.5982  0.6511  0.1224
  686MPD2    H510206   4.066   4.356  14.693 -0.0712  1.8558 -0.2395
  686MPD2    N110207   3.889   0.070  15.017 -0.0149 -0.0290  0.2520
  686MPD2    H710208   3.847   0.162  15.004 -1.0295 -0.6524 -0.9349
  687TMC3    C110209   3.998   4.310  15.012 -0.3877  0.1999  0.0423
  687TMC3    C210210   3.861   4.328  15.003  0.4326  0.3362  0.1576
  687TMC3    C310211   3.795   4.369  15.115  0.0487 -1.4119 -0.0979
  687TMC3    C410212   4.060   4.304  15.133 -0.2425  0.3126 -0.2845
  687TMC3    C510213   3.986   4.346  15.244 -0.0325 -0.4851  0.4462
  687TMC3    C610214   3.858   4.387  15.240  0.7261 -0.1134  0.0337
  687TMC3     C10215   4.080   4.297  14.890 -0.3230 -0.6744 -0.4333
  687TMC3     O10216   4.150   4.199  14.875 -0.2720  0.4384 -0.2087
  687TMC3     H10217   3.820   4.308  14.905  1.6355 -0.3604 -0.2015
  687TMC3    H110218   4.165   4.278  15.137 -0.6061 -1.0048  0.9035
  687TMC3    H210219   3.798   4.415  15.325 -0.5010  0.3818 -0.9915
  687TMC3    C710220   4.056   4.343  15.375 -0.1811  0.4567  0.6021
  687TMC3    C810221   3.661   4.431  15.096 -0.9336  0.7737 -0.1759
  687TMC3    O110222   4.030   4.428  15.453 -0.0788  0.2382 -0.2546
  687TMC3    O210223   3.587   4.428  15.195  0.1333  0.1570 -0.2644
  688MPD2     C10224   2.948   4.348  17.036 -0.0591 -0.4068 -0.1984
  688MPD2    C110225   3.012   4.258  17.125 -0.7583 -0.0326  0.2790
  688MPD2    C210226   3.104   4.170  17.070 -0.0699 -0.1367 -0.4090
  688MPD2    C310227   3.138   4.169  16.934  0.2721 -0.0271 -1.1675
  688MPD2    C410228   3.072   4.259  16.851 -0.2903  0.3392  0.7131
  688MPD2    C510229   2.974   4.342  16.905 -0.1325  0.0462  0.3107
  688MPD2     H10230   3.143   4.096  17.138  0.9507  0.0076 -0.8304
  688MPD2    H110231   3.091   4.283  16.748 -0.5263  2.4018  1.1556
  688MPD2    H210232   2.874   4.416  17.076 -1.2616 -0.8126 -1.7619
  688MPD2    H310233   2.916   4.410  16.844 -0.0714  0.3955  0.6403
  688MPD2     N10234   3.228   4.079  16.874  0.1928 -0.1053 -0.3704
  688MPD2    H510235   3.231   4.090  16.773 -0.8013 -0.8932 -0.4940
  688MPD2    N110236   2.988   4.252  17.269  0.8573 -0.2410 -0.1125
  688MPD2    H710237   3.021   4.172  17.321 -1.7056 -0.2400  1.5061
  689TMC3    C110238   2.914   4.312  17.483 -0.0399  0.4551 -0.1914
  689TMC3    C210239   2.929   4.422  17.555  0.0598  0.6297  0.2696
  689TMC3    C310240   2.900   4.410  17.691 -0.6049 -0.0783 -0.3769
  689TMC3    C410241   2.846   4.197  17.531 -0.0648 -0.3055  0.1241
  689TMC3    C510242   2.826   4.189  17.665  0.8238 -0.2807 -0.0198
  689TMC3    C610243   2.859   4.291   0.005  0.3350  0.0013  0.5450
  689TMC3     C10244   2.907   4.336  17.336  1.0455  0.7889  0.0423
  689TMC3     O10245   2.839   4.434  17.299 -0.6443  0.8620 -0.4580
  689TMC3     H10246   2.968   4.512  17.510 -0.7313  1.9202  2.1342
  689TMC3    H110247   2.827   4.113  17.464  1.0808 -0.0415 -0.5477
  689TMC3    H210248   2.843   4.280   0.111 -0.2393 -1.0929  0.3452
  689TMC3    C710249   2.816   4.063  17.733 -0.6177  0.3932  0.2886
  689TMC3    C810250   2.907   4.517   0.048  1.1041 -0.3286  0.1361
  689TMC3    O110251   2.882   4.056   0.100  0.0529  0.4260 -0.5566
  689TMC3    O210252   2.911   4.487   0.165  0.7975 -0.4199 -0.9223
  690MPD2     C10253   0.229   0.966  15.979 -0.8962  0.0229  0.3195
  690MPD2    C110254   0.202   0.928  15.849  0.1524  0.3436  0.3984
  690MPD2    C210255   0.271   0.975  15.745 -0.1211  0.8345 -0.5601
  690MPD2    C310256   0.377   1.065  15.766 -0.2491 -0.3293  0.9164
  690MPD2    C410257   0.410   1.102  15.895  0.5798 -0.0807 -1.0220
  690MPD2    C510258   0.340   1.043  15.999 -0.2963 -0.5537  0.2464
  690MPD2     H10259   0.246   0.944  15.644  2.4404  0.7813 -1.1781
  690MPD2    H110260   0.494   1.167  15.918 -0.0622  0.6990 -0.8426
  690MPD2    H210261   0.168   0.929  16.060  1.4697 -1.6450  1.3373
  690MPD2    H310262   0.348   1.075  16.102  1.0855 -0.2905  0.0577
  690MPD2     N10263   0.457   1.117  15.666 -0.3350 -0.5414 -0.1172
  690MPD2    H510264   0.550   1.139  15.699  0.7194 -1.5251 -2.4268
  690MPD2    N110265   0.098   0.837  15.811 -0.1850 -0.7651 -0.5396
  690MPD2    H710266   0.108   0.785  15.725  0.6047 -1.2130 -0.1702
  691TMC3    C110267   4.663   0.683  15.863  0.3542  0.8277 -0.5841
  691TMC3    C210268   4.528   0.674  15.867  0.2256  0.1648 -0.5685
  691TMC3    C310269   4.463   0.558  15.827  0.1945 -1.0022 -0.0652
  691TMC3    C410270   0.001   0.571  15.825 -0.1308  0.0311 -0.2576
  691TMC3    C510271   4.666   0.460  15.785  0.4554  0.0063 -0.5061
  691TMC3    C610272   4.530   0.451  15.792  0.4007 -0.5374  0.1837
  691TMC3     C10273   4.729   0.809  15.890  0.3092  0.1026 -0.0579
  691TMC3     O10274   4.667   0.890  15.963  0.5843 -0.2979 -0.0304
  691TMC3     H10275   4.469   0.752  15.914  0.9325  1.0547 -1.1440
  691TMC3    H110276   0.106   0.582  15.801 -0.5570  0.4664 -2.0032
  691TMC3    H210277   4.481   0.365  15.747 -1.0681  0.0325  0.6736
  691TMC3    C710278   0.018   0.338  15.775 -0.2337  0.0147 -0.2345
  691TMC3    C810279   4.311   0.553  15.832  0.1125  0.2349  0.3071
  691TMC3    O110280   0.135   0.374  15.778 -0.3286  0.2197 -0.5669
  691TMC3    O210281   4.262   0.443  15.835  0.2901  0.2932 -0.2605
  692TMC3    C110282   2.209   2.068  16.044  0.2908  0.2034  0.0433
  692TMC3    C210283   2.334   2.055  16.102 -0.0070  0.8701  0.4224
  692TMC3    C310284   2.443   2.015  16.019  0.2747 -0.4066  0.0778
  692TMC3    C410285   2.179   2.009  15.929  0.3262 -0.7088  0.6553
  692TMC3    C510286   2.286   1.968  15.845 -0.0691  1.3016 -0.4537
  692TMC3    C610287   2.411   1.971  15.892 -0.2997  0.1345  0.9802
  692TMC3     C10288   2.101   2.146  16.109 -0.1191 -0.2394  0.1000
  692TMC3     O10289   1.981   2.136  16.077 -0.1376  0.7081 -0.6432
  692TMC3     H10290   2.349   2.086  16.204 -0.3850  1.1091  0.4024
  692TMC3    H110291   2.075   2.004  15.899  1.1679 -2.4158 -1.9976
  692TMC3    H210292   2.484   1.949  15.815  0.7346  0.3107  1.9075
  692TMC3    C710293   2.263   1.851  15.763 -0.1651  0.0783 -0.1067
  692TMC3    C810294   2.527   1.909  16.069 -0.6647  0.1482 -0.7402
  692TMC3    O110295   2.159   1.836  15.700  0.5234 -0.0128 -0.2687
  692TMC3    O210296   2.538   1.810  15.996 -0.2420 -0.2282 -0.1453
  693MPD2     C10297   0.672   4.499  10.610  0.8729  0.7694  0.4384
  693MPD2    C110298   0.702   4.626  10.623 -0.1874  0.2719  0.1226
  693MPD2    C210299   0.814   4.658  10.699  0.7400  0.0014 -0.1886
  693MPD2    C310300   0.889   4.563  10.763 -0.0900 -0.3142  0.5533
  693MPD2    C410301   0.854   4.433  10.761 -0.2183  0.6738  0.0358
  693MPD2    C510302   0.744   4.405  10.684  0.1082 -0.2435 -0.0741
  693MPD2     H10303   0.845   0.025  10.720 -1.3951  0.4799  0.6785
  693MPD2    H110304   0.912   4.350  10.800 -2.1986 -1.1898 -1.0013
  693MPD2    H210305   0.580   4.472  10.560  1.4836  0.5814 -0.5891
  693MPD2    H310306   0.716   4.301  10.673 -1.9733  0.4223 -1.0598
  693MPD2     N10307   1.015   4.590  10.826 -0.3084  0.2125 -0.2125
  693MPD2    H510308   1.064   4.509  10.863 -0.8799  0.8921  2.0930
  693MPD2    N110309   0.616   4.724  10.565 -0.7643  0.2284 -0.0904
  693MPD2    H710310   0.530   4.688  10.524 -0.4902 -1.4751  0.8277
  694TMC3    C110311   0.503   0.197  10.554  0.3480 -0.7276  0.1909
  694TMC3    C210312   0.408   0.153  10.464  0.2194  0.2748  0.8454
  694TMC3    C310313   0.300   0.235  10.436  0.8908  0.0235  0.5251
  694TMC3    C410314   0.492   0.312  10.625 -0.0311  0.5486 -0.1726
  694TMC3    C510315   0.374   0.379  10.606 -0.0929  0.3250  0.6029
  694TMC3    C610316   0.282   0.350  10.513 -0.4098 -0.3863  0.3258
  694TMC3     C10317   0.622   0.121  10.590  0.4170  0.0445 -0.4966
  694TMC3     O10318   0.719   0.183  10.634  0.4057  0.1716 -0.4740
  694TMC3     H10319   0.426   0.059  10.413  2.2421  2.2239 -2.1016
  694TMC3    H110320   0.572   0.343  10.690  1.3116 -0.5338 -1.3225
  694TMC3    H210321   0.193   0.412  10.506 -0.2752 -0.2863 -0.4046
  694TMC3    C710322   0.318   0.443  10.729 -0.3873 -0.0419  0.4250
  694TMC3    C810323   0.182   0.167  10.399  0.1539 -0.4116  1.1823
  694TMC3    O110324   0.237   0.531  10.712  0.2899  0.5024  0.1711
  694TMC3    O210325   0.184   0.045  10.415  0.0377 -0.2857 -0.3304
  695MPD2     C10326   2.887   2.007  13.314 -0.1435 -0.0115 -0.0369
  695MPD2    C110327   2.822   1.948  13.422 -0.2326  0.2330  0.0554
  695MPD2    C210328   2.711   2.013  13.469  0.4243  1.0909  0.5669
  695MPD2    C310329   2.661   2.130  13.415  0.0140  0.2182  0.5655
  695MPD2    C410330   2.726   2.185  13.308  0.5044  0.2711  0.3955
  695MPD2    C510331   2.843   2.126  13.267 -0.0031 -0.1705 -0.1874
  695MPD2     H10332   2.647   1.955  13.535 -0.7973  1.0724 -0.6556
  695MPD2    H110333   2.688   2.275  13.261 -0.0461 -0.4567 -0.5604
  695MPD2    H210334   2.974   1.962  13.269 -0.0551 -1.5853  1.7416
  695MPD2    H310335   2.900   2.156  13.180  0.6938 -1.6762 -0.2610
  695MPD2     N10336   2.538   2.180  13.462  0.0824  0.0137 -1.0066
  695MPD2    H510337   2.504   2.131  13.543  4.1854 -0.8351  0.2311
  695MPD2    N110338   2.869   1.828  13.477 -0.4915  0.0249  0.4857
  695MPD2    H710339   2.818   1.794  13.558 -1.7662 -0.5292 -0.5400
  696TMC3    C110340   2.342   2.307  13.484  0.5547 -0.6572  0.0379
  696TMC3    C210341   2.281   2.206  13.557 -0.6812 -0.3956  0.1095
  696TMC3    C310342   2.155   2.220  13.597 -0.3280 -0.3165 -0.3436
  696TMC3    C410343   2.274   2.419  13.469  0.1826 -0.5117 -0.0194
  696TMC3    C510344   2.146   2.442  13.513  0.1957 -0.6588  0.5302
  696TMC3    C610345   2.085   2.338  13.578  0.3243 -0.2149  0.7136
  696TMC3     C10346   2.460   2.281  13.407 -0.7403 -0.1693 -0.5071
  696TMC3     O10347   2.476   2.371  13.324  0.4314  0.1848  0.2516
  696TMC3     H10348   2.326   2.111  13.583 -2.8671 -1.8015 -1.1926
  696TMC3    H110349   2.326   2.510  13.441 -1.8566  2.2309  5.1179
  696TMC3    H210350   1.985   2.354  13.615  0.5277  2.7110 -0.0164
  696TMC3    C710351   2.068   2.565  13.493  0.1210  0.0803 -0.3853
  696TMC3    C810352   2.098   2.098  13.661 -0.5819  0.5126  0.4071
  696TMC3    O110353   2.112   2.644  13.411 -0.1355 -0.0481 -0.1082
  696TMC3    O210354   2.160   1.992  13.656 -0.1501 -0.0033  0.1294
  697MPD2     C10355   1.963   3.750  15.711  0.1583 -0.5396 -0.2227
  697MPD2    C110356   1.839   3.725  15.659 -0.5403  0.0330 -0.1538
  697MPD2    C210357   1.760   3.834  15.625 -0.5487  0.2841  0.0169
  697MPD2    C310358   1.806   3.968  15.632  0.9213  0.0376  0.2967
  697MPD2    C410359   1.934   3.989  15.689 -0.3134  0.3137 -1.5153
  697MPD2    C510360   2.006   3.877  15.732 -0.4403 -0.4386  0.2086
  697MPD2     H10361   1.667   3.811  15.575 -1.2835  1.5086  0.8004
  697MPD2    H110362   1.967   4.091  15.698  0.6068 -0.2530  1.2969
  697MPD2    H210363   2.028   3.674  15.752  1.1808 -0.3316 -1.4612
  697MPD2    H310364   2.096   3.892  15.791 -0.2802  1.8007 -0.5830
  697MPD2     N10365   1.722   4.066  15.569 -0.6847  0.0374  0.7198
  697MPD2    H510366   1.640   4.028  15.524 -0.0444  0.4094 -0.7447
  697MPD2    N110367   1.785   3.590  15.642 -0.1003 -0.7198  0.1324
  697MPD2    H710368   1.691   3.576  15.607 -0.2997 -3.0242  1.5822
  698TMC3    C110369   1.704   4.253  15.446  0.3957 -1.2388  0.1930
  698TMC3    C210370   1.749   4.383  15.428  0.4302 -0.7137 -0.5019
  698TMC3    C310371   1.719   4.446  15.306  0.1659 -0.0114  0.2719
  698TMC3    C410372   1.653   4.181  15.341  0.1266  0.3399 -0.3151
  698TMC3    C510373   1.625   4.250  15.227 -0.3413  0.6537 -0.2890
  698TMC3    C610374   1.639   4.388  15.214  0.1457 -0.3759  0.2437
  698TMC3     C10375   1.746   4.200  15.570  0.0631 -0.3530 -0.1183
  698TMC3     O10376   1.825   4.269  15.633 -0.0332  0.0792 -0.8183
  698TMC3     H10377   1.802   4.433  15.509 -1.1306 -0.0126  0.0807
  698TMC3    H110378   1.645   4.073  15.336  0.2671  0.1515  3.9253
  698TMC3    H210379   1.623   4.425  15.113  1.4119 -0.3798  0.0416
  698TMC3    C710380   1.567   4.183  15.113 -0.0429  0.0817 -0.4401
  698TMC3    C810381   1.783   4.573  15.276  0.0357 -1.0743  0.5850
  698TMC3    O110382   1.471   4.221  15.051 -0.0453 -0.2062  0.6744
  698TMC3    O210383   1.708   4.649  15.213  0.2417  0.0732  0.2910
  699TMC3    C110384   1.629   2.577  13.163 -0.3172 -0.0053  0.6283
  699TMC3    C210385   1.703   2.467  13.200 -0.0688 -0.3163  0.3483
  699TMC3    C310386   1.708   2.443  13.334 -0.6303 -0.3920 -0.2520
  699TMC3    C410387   1.564   2.661  13.252  0.5579  0.2123 -0.1481
  699TMC3    C510388   1.579   2.641  13.392 -0.0529  0.4560  0.9932
  699TMC3    C610389   1.652   2.527  13.427  0.2378 -0.2861 -0.4427
  699TMC3     C10390   1.632   2.635  13.031 -0.2832 -0.7051  0.1445
  699TMC3     O10391   1.573   2.744  13.013 -0.3989 -0.1684 -0.1740
  699TMC3     H10392   1.738   2.394  13.129  0.8742  0.1122  0.3621
  699TMC3    H110393   1.519   2.752  13.215  2.0398  1.3041  0.7135
  699TMC3    H210394   1.647   2.501  13.532 -2.8169 -1.2714 -0.8363
  699TMC3    C710395   1.469   2.688  13.478 -0.3220  0.2439  0.0127
  699TMC3    C810396   1.776   2.326  13.378  0.1643 -0.0539  0.4912
  699TMC3    O110397   1.413   2.596  13.539 -0.6273  0.2648 -0.1382
  699TMC3    O210398   1.744   2.286  13.487  0.8873 -0.2236  0.0319
  700TMC3    C110399   0.751   4.582  16.983 -0.1348  0.4093  0.1056
  700TMC3    C210400   0.854   4.496  16.991 -0.0628  0.1819 -0.3872
  700TMC3    C310401   0.936   4.506  17.098  0.1759  0.5128  1.4979
  700TMC3    C410402   0.703   4.648  17.088  0.2837  0.4498  0.4169
  700TMC3    C510403   0.772   4.636  17.205  0.1951  0.4495  0.1297
  700TMC3    C610404   0.894   4.574  17.207 -0.3196  0.1379  0.1804
  700TMC3     C10405   0.753   4.661  16.862 -0.2278 -0.4677  0.5707
  700TMC3     O10406   0.652   4.679  16.797 -0.2642 -0.5712 -0.0369
  700TMC3     H10407   0.891   4.455  16.897  0.8152 -0.7029  0.3459
  700TMC3    H110408   0.617   4.712  17.075  1.3996  1.9180  0.2599
  700TMC3    H210409   0.953   4.587  17.297  0.7566 -0.5783 -0.4213
  700TMC3    C710410   0.735   4.718  17.323 -0.1475  0.0952 -0.3007
  700TMC3    C810411   1.067   4.446  17.097 -0.3770  0.4936  0.0888
  700TMC3    O110412   0.817   0.033  17.400  0.0902  0.1840 -0.2241
  700TMC3    O210413   1.095   4.397  16.991 -0.4033 -0.1438  0.4889
  701TMC3    C110414   0.795   3.401  15.580 -0.0488 -0.1383  0.1216
  701TMC3    C210415   0.782   3.372  15.446  0.4233  0.3254  0.6491
  701TMC3    C310416   0.877   3.429  15.355  0.1575 -0.2033  0.6601
  701TMC3    C410417   0.902   3.482  15.621  0.8781  0.0285 -0.6176
  701TMC3    C510418   0.994   3.524  15.525 -0.1472  1.0261 -0.4104
  701TMC3    C610419   0.989   3.500  15.395  0.0197  0.0539 -1.0060
  701TMC3     C10420   0.679   3.377  15.658 -0.0965 -0.3525  0.1406
  701TMC3     O10421   0.603   3.289  15.619 -0.4837  0.3615  0.4522
  701TMC3     H10422   0.692   3.321  15.411 -0.5665  3.2350 -1.0702
  701TMC3    H110423   0.910   3.500  15.728  0.6980 -0.8383 -0.4606
  701TMC3    H210424   1.053   3.553  15.325  0.0921  0.6190 -0.5223
  701TMC3    C710425   1.096   3.609  15.573  0.6262  0.6099 -0.4189
  701TMC3    C810426   0.870   3.387  15.216  0.2786  0.3593  0.2350
  701TMC3    O110427   1.139   3.700  15.505  0.2157 -0.5867  0.0070
  701TMC3    O210428   0.956   3.434  15.138 -0.1751  0.2481  0.3242
  702MPD2     C10429   4.187   1.112  10.233  0.4838  0.6210  0.0547
  702MPD2    C110430   4.305   1.092  10.304  0.3329  0.2990  0.3143
  702MPD2    C210431   4.416   1.169  10.272 -0.4235 -0.4853  0.2007
  702MPD2    C310432   4.411   1.269  10.179  0.5588 -0.7503  0.5307
  702MPD2    C410433   4.292   1.290  10.109 -0.3270  0.1181 -0.5665
  702MPD2    C510434   4.178   1.213  10.141  0.9370  0.2631 -0.4065
  702MPD2     H10435   4.511   1.150  10.321  0.7329  0.2834 -1.7035
  702MPD2    H110436   4.277   1.380  10.050  2.3293 -0.0179 -1.4313
  702MPD2    H210437   4.091   1.070  10.261 -0.3868  0.8953 -2.5424
  702MPD2    H310438   4.081   1.244  10.102  1.1333 -1.0587 -1.9968
  702MPD2     N10439   4.501   1.377  10.150  0.3349 -0.4411  0.2923
  702MPD2    H510440   4.481   1.416  10.059 -1.1499 -1.9675 -0.0293
  702MPD2    N110441   4.312   1.005  10.413  0.4577 -0.4091  0.0548
  702MPD2    H710442   4.394   1.005  10.474  0.6729 -2.3047 -0.2427
  703TMC3    C110443   4.647   1.359  10.348  0.8404 -0.5471  0.3808
  703TMC3    C210444   4.554   1.387  10.439 -0.4979  0.2109 -0.2533
  703TMC3    C310445   4.590   1.375  10.569  0.2725  0.0559  0.0085
  703TMC3    C410446   0.041   1.324  10.378 -0.4764  0.4189 -0.0002
  703TMC3    C510447   0.074   1.312  10.509 -0.3284 -0.4676  0.8835
  703TMC3    C610448   4.716   1.336  10.609  0.6814 -0.1850 -0.5240
  703TMC3     C10449   4.623   1.402  10.216  0.6747 -0.1914  0.0481
  703TMC3     O10450   4.705   1.484  10.181  0.3334 -0.1599  0.1196
  703TMC3     H10451   4.463   1.438  10.409  0.5377  0.6778 -2.6482
  703TMC3    H110452   0.112   1.318  10.297 -1.1801  0.7868 -0.6411
  703TMC3    H210453   0.006   1.327  10.714  0.8346 -0.1980 -0.5611
  703TMC3    C710454   0.214   1.313  10.541  0.1778  0.2066 -0.4997
  703TMC3    C810455   4.479   1.353  10.658  0.3127 -0.2181  0.6663
  703TMC3    O110456   0.278   1.268  10.445  0.1214 -0.1940 -0.6038
  703TMC3    O210457   4.511   1.358  10.775 -0.4545 -0.1114  0.3296
  704TMC3    C110458   2.455   3.554  12.961  0.7170 -0.0535 -0.3126
  704TMC3    C210459   2.565   3.595  12.891 -0.5527 -0.5294 -0.7758
  704TMC3    C310460   2.685   3.534  12.913  0.2594 -0.2380 -0.5176
  704TMC3    C410461   2.459   3.450  13.048 -0.1675 -0.3140  0.0166
  704TMC3    C510462   2.579   3.383  13.058 -0.1924 -0.0699 -0.2491
  704TMC3    C610463   2.695   3.425  13.003  0.0486  0.5670  0.2490
  704TMC3     C10464   2.330   3.596  12.900  0.2927  0.1199  0.0066
  704TMC3     O10465   2.231   3.593  12.973 -0.9673  0.1733 -0.0911
  704TMC3     H10466   2.560   3.677  12.820 -2.4042 -0.1245 -0.1928
  704TMC3    H110467   2.367   3.409  13.089 -0.8989 -0.0406 -1.3757
  704TMC3    H210468   2.783   3.363  13.011 -0.9220 -0.6218  1.7187
  704TMC3    C710469   2.553   3.239  13.026  0.5455  0.3940 -0.3283
  704TMC3    C810470   2.749   3.522  12.787 -0.0163 -0.1303 -0.0104
  704TMC3    O110471   2.601   3.203  12.916  0.1006 -0.0181  0.1202
  704TMC3    O210472   2.687   3.550  12.683  0.0724 -0.1177 -0.3884
  705MPD2     C10473   2.502   2.290  17.182  0.9244 -0.3813 -0.3386
  705MPD2    C110474   2.421   2.294  17.069  0.3647 -0.3310  0.3894
  705MPD2    C210475   2.289   2.289  17.082  0.8415 -0.6749 -0.2085
  705MPD2    C310476   2.226   2.294  17.207  0.3357 -0.5592  0.0978
  705MPD2    C410477   2.308   2.295  17.320 -0.2068  0.4847  0.6457
  705MPD2    C510478   2.443   2.287  17.307 -0.5324  0.3677  0.6541
  705MPD2     H10479   2.233   2.283  16.989 -1.0213 -0.3106  0.8933
  705MPD2    H110480   2.265   2.286  17.419 -0.3548 -2.1110  0.3584
  705MPD2    H210481   2.611   2.285  17.181  0.9552 -0.2938  1.2489
  705MPD2    H310482   2.507   2.296  17.395  0.4136  0.4368 -0.0464
  705MPD2     N10483   2.084   2.291  17.222 -0.7286 -0.1625 -0.2315
  705MPD2    H510484   2.047   2.317  17.313  0.2550  1.8512 -0.3918
  705MPD2    N110485   2.469   2.295  16.942  0.1864  0.4973 -0.4543
  705MPD2    H710486   2.393   2.308  16.875 -1.2525 -1.1455  0.8615
  706TMC3    C110487   2.764   2.239  16.601 -0.2622 -0.4087  0.0879
  706TMC3    C210488   2.687   2.321  16.523 -0.0915  0.7398 -0.2065
  706TMC3    C310489   2.586   2.394  16.576  0.5074  0.1182  0.1357
  706TMC3    C410490   2.727   2.214  16.725 -0.7986  0.2923 -0.2888
  706TMC3    C510491   2.618   2.279  16.771 -0.1271 -0.1320 -0.0152
  706TMC3    C610492   2.553   2.383  16.708  0.3106 -0.1186 -0.4389
  706TMC3     C10493   2.863   2.157  16.531  0.3778 -0.0437 -0.6645
  706TMC3     O10494   2.950   2.117  16.602  0.3223 -0.2300  0.3479
  706TMC3     H10495   2.723   2.349  16.424  0.3715  0.6576 -0.0636
  706TMC3    H110496   2.781   2.139  16.781 -0.5103  1.0155  0.4039
  706TMC3    H210497   2.477   2.449  16.748  2.3770  1.0752  1.5654
  706TMC3    C710498   2.587   2.246  16.907 -0.2638  0.2378 -0.0128
  706TMC3    C810499   2.511   2.471  16.484 -0.5836  0.3728 -0.5639
  706TMC3    O110500   2.667   2.175  16.969  0.0824 -0.6168 -0.5228
  706TMC3    O210501   2.471   2.417  16.384 -0.1797 -0.0975  0.7345
  707TMC3    C110502   3.684   0.637   0.865 -0.3055  0.3836 -0.0673
  707TMC3    C210503   3.731   0.754   0.926  1.4241 -0.3571 -0.0448
  707TMC3    C310504   3.656   0.868   0.893 -0.2731  0.1698  0.4332
  707TMC3    C410505   3.575   0.640   0.779  0.6080  0.0303  0.2877
  707TMC3    C510506   3.532   0.764   0.744 -0.1303 -0.0525  0.2663
  707TMC3    C610507   3.565   0.880   0.802 -0.3868 -0.1471  0.1095
  707TMC3     C10508   3.781   0.529   0.832 -0.2881  0.2594  0.2948
  707TMC3     O10509   3.741   0.427   0.772 -0.2701  0.4012 -0.3628
  707TMC3     H10510   3.798   0.749   1.010  1.9846 -2.9893 -0.6408
  707TMC3    H110511   3.524   0.556   0.734  0.7705  0.4648 -0.7164
  707TMC3    H210512   3.523   0.975   0.772  0.8721  0.4273  0.1498
  707TMC3    C710513   3.438   0.776   0.631  0.4089  0.2987 -0.2261
  707TMC3    C810514   3.673   0.980   0.981 -0.8935  0.4311 -0.4369
  707TMC3    O110515   3.361   0.873   0.632  0.0014 -0.0840 -0.9088
  707TMC3    O210516   3.581   1.060   0.979 -0.0283 -0.1993 -0.3667
  708MPD2     C10517   0.623   0.942  13.518 -0.3610  0.0002 -0.1173
  708MPD2    C110518   0.670   0.819  13.560 -0.7503  0.2621 -0.0379
  708MPD2    C210519   0.793   0.806  13.610 -0.6723  0.6552  0.1651
  708MPD2    C310520   0.878   0.909  13.637  0.3027 -1.0872  0.2737
  708MPD2    C410521   0.821   1.035  13.612  0.3465  0.3056  0.1422
  708MPD2    C510522   0.695   1.053  13.558 -0.2881  0.3512  0.3659
  708MPD2     H10523   0.823   0.703  13.628 -1.9776  0.1352 -0.6273
  708MPD2    H110524   0.882   1.121  13.637 -0.8010  0.4591  2.4582
  708MPD2    H210525   0.518   0.949  13.493 -0.4121 -0.5213 -0.0493
  708MPD2    H310526   0.646   1.148  13.543 -2.7775 -0.9116  0.5646
  708MPD2     N10527   1.011   0.890  13.689 -0.1306 -0.3946 -0.0276
  708MPD2    H510528   1.075   0.968  13.704  0.2987 -0.5916 -0.8514
  708MPD2    N110529   0.598   0.698  13.540 -0.4565  0.6230 -0.5211
  708MPD2    H710530   0.643   0.612  13.568  0.7245  0.6813 -2.2579
  709TMC3    C110531   0.447   0.551  13.469 -1.0723  0.0142  0.2197
  709TMC3    C210532   0.455   0.489  13.348  0.5680  0.3566 -0.2434
  709TMC3    C310533   0.515   0.366  13.340  0.6058  0.1049 -0.5508
  709TMC3    C410534   0.503   0.477  13.578  0.2737  0.3533 -0.1081
  709TMC3    C510535   0.562   0.363  13.562 -0.7207 -0.5758  0.5275
  709TMC3    C610536   0.563   0.298  13.448  0.0936  0.3695  1.3163
  709TMC3     C10537   0.479   0.687  13.472  0.9478  0.3205  0.1980
  709TMC3     O10538   0.417   0.764  13.404  0.1052 -0.0318  0.2335
  709TMC3     H10539   0.404   0.540  13.267  1.6944  1.7811 -0.0564
  709TMC3    H110540   0.502   0.525  13.675 -1.1117  0.1966 -0.0418
  709TMC3    H210541   0.625   0.210  13.432 -1.0893  0.1111 -1.9883
  709TMC3    C710542   0.686   0.358  13.645 -1.4806  0.2097 -0.2780
  709TMC3    C810543   0.502   0.292  13.218  0.4447 -0.9380 -0.0073
  709TMC3    O110544   0.722   0.470  13.681  0.6775 -0.0098 -0.0524
  709TMC3    O210545   0.487   0.174  13.232  0.0218 -0.2034  0.3600
  710TMC3    C110546   1.530   2.017   0.427 -0.2683 -0.1646  0.0818
  710TMC3    C210547   1.583   1.981   0.303 -0.1064  0.6067  0.6770
  710TMC3    C310548   1.706   1.939   0.297  0.1357 -0.6784 -0.2052
  710TMC3    C410549   1.595   1.994   0.549  0.0295 -0.0225 -0.2183
  710TMC3    C510550   1.722   1.949   0.533  0.4476  0.1649  0.0849
  710TMC3    C610551   1.781   1.920   0.413  0.1984  0.0919 -0.1948
  710TMC3     C10552   1.401   2.079   0.426  0.0845 -0.1890  0.0032
  710TMC3     O10553   1.326   2.064   0.333 -0.1453  0.4192  0.2980
  710TMC3     H10554   1.529   2.018   0.216  2.0943 -1.2181 -1.4843
  710TMC3    H110555   1.561   2.040   0.640 -1.6034 -0.6806 -0.5017
  710TMC3    H210556   1.887   1.903   0.402  0.5325  1.8986  0.2379
  710TMC3    C710557   1.807   1.939   0.649  0.6175  0.2756 -0.4266
  710TMC3    C810558   1.773   1.921   0.168 -0.2225  0.0628 -0.3099
  710TMC3    O110559   1.784   2.015   0.742  0.1406 -0.0198  0.4196
  710TMC3    O210560   1.896   1.920   0.175  0.0517  0.3776 -0.1996
  711TMC3    C110561   1.642   2.574  14.717  0.4032 -0.0980  0.1985
  711TMC3    C210562   1.587   2.647  14.819 -0.1999  0.1608  0.4840
  711TMC3    C310563   1.683   2.690  14.912 -0.2869 -0.2129 -0.0967
  711TMC3    C410564   1.772   2.557  14.693 -0.0275 -0.1798 -0.1154
  711TMC3    C510565   1.852   2.587  14.797 -0.4412 -0.0085  0.3284
  711TMC3    C610566   1.815   2.664  14.897 -0.5304  0.1380  0.8454
  711TMC3     C10567   1.551   2.473  14.671  0.5922 -0.2971  0.4224
  711TMC3     O10568   1.445   2.469  14.727  0.1845 -0.6810  0.1715
  711TMC3     H10569   1.481   2.658  14.834 -0.4040 -1.1817  0.0125
  711TMC3    H110570   1.808   2.504  14.606  1.3728  2.2068 -0.9906
  711TMC3    H210571   1.883   2.683  14.980  1.6481  0.9782 -1.1394
  711TMC3    C710572   1.934   2.478  14.841 -0.3480 -0.1438  0.5756
  711TMC3    C810573   1.621   2.740  15.032  0.1551  0.3824  0.7676
  711TMC3    O110574   2.013   2.504  14.928  0.0552 -0.2393 -0.0269
  711TMC3    O210575   1.507   2.780  15.029 -0.5705  0.6096 -0.7645
  712MPD2     C10576   2.510   3.520  14.135  0.1845  0.3637  0.0163
  712MPD2    C110577   2.416   3.597  14.070  0.1942 -0.2088  0.1116
  712MPD2    C210578   2.464   3.715  14.015  0.0457  0.0487  0.7082
  712MPD2    C310579   2.591   3.764  14.026 -0.1850  0.0497  0.1145
  712MPD2    C410580   2.680   3.674  14.079 -0.2602 -0.3053 -0.9045
  712MPD2    C510581   2.644   3.555  14.128  0.7316  0.3356 -0.2739
  712MPD2     H10582   2.385   3.775  13.971 -1.4988 -2.3912  0.1066
  712MPD2    H110583   2.785   3.698  14.073  0.6930 -3.6924  1.9457
  712MPD2    H210584   2.497   3.423  14.183  0.6109 -0.1706 -0.9495
  712MPD2    H310585   2.716   3.492  14.177  0.5399 -0.9349 -1.6364
  712MPD2     N10586   2.632   3.892  13.983 -0.1482 -0.8512 -0.0576
  712MPD2    H510587   2.731   3.909  13.970 -0.4773  0.4382 -0.8498
  712MPD2    N110588   2.278   3.561  14.050 -0.0152 -0.3117 -0.1849
  712MPD2    H710589   2.227   3.619  13.984  1.9493  0.9643 -0.5654
  713TMC3    C110590   2.626   4.111  13.899  0.1814  0.3182 -0.9858
  713TMC3    C210591   2.718   4.077  13.803  0.5254  0.4743  0.3380
  713TMC3    C310592   2.788   4.183  13.749 -0.0630  0.2962 -0.2107
  713TMC3    C410593   2.581   4.239  13.925 -0.1168 -0.0813 -0.3485
  713TMC3    C510594   2.650   4.338  13.866 -0.3278 -0.6801 -0.2548
  713TMC3    C610595   2.757   4.314  13.781 -0.7387  0.6938  0.4358
  713TMC3     C10596   2.554   3.996  13.954  0.2121 -0.4468  0.1125
  713TMC3     O10597   2.439   4.005  13.984  0.3364 -0.2253  0.1679
  713TMC3     H10598   2.743   3.973  13.788  2.5693  1.1825 -1.1338
  713TMC3    H110599   2.488   4.249  13.981 -0.3049  0.3370 -0.7326
  713TMC3    H210600   2.799   4.399  13.728  0.2453  0.5353  0.9632
  713TMC3    C710601   2.590   4.469  13.886  0.0650  1.5620  0.4056
  713TMC3    C810602   2.836   4.171  13.610 -0.0420  0.3375  0.3246
  713TMC3    O110603   2.472   4.470  13.907 -0.0197 -0.3946 -0.2940
  713TMC3    O210604   2.839   4.277  13.550 -0.0118 -0.0743  0.0704
  714MPD2     C10605   0.435   3.188   1.463  0.5889  0.3901 -0.2197
  714MPD2    C110606   0.417   3.070   1.393  0.2766 -1.1173  0.0926
  714MPD2    C210607   0.302   3.041   1.327  0.3374 -0.2023 -0.0861
  714MPD2    C310608   0.198   3.138   1.339  0.2600 -0.1433 -0.0243
  714MPD2    C410609   0.220   3.261   1.405  0.3553  0.6578 -0.1180
  714MPD2    C510610   0.334   3.280   1.462 -0.5644 -0.1922  0.1089
  714MPD2     H10611   0.293   2.941   1.286  0.0438  0.3468 -1.3542
  714MPD2    H110612   0.146   3.340   1.414 -1.2025 -0.8088 -0.2900
  714MPD2    H210613   0.529   3.213   1.510  0.4499  0.2401  0.1418
  714MPD2    H310614   0.341   3.373   1.517 -0.1819  0.6050 -1.2830
  714MPD2     N10615   0.072   3.106   1.283  0.7063 -0.6452  0.1025
  714MPD2    H510616   0.061   3.016   1.237 -0.6970 -1.4475  2.0253
  714MPD2    N110617   0.525   2.979   1.409  0.6554  0.5516 -0.2715
  714MPD2    H710618   0.605   3.018   1.457  0.3229  1.2489 -0.2734
  715TMC3    C110619   0.630   2.757   1.420 -0.2010  1.0498 -0.1977
  715TMC3    C210620   0.644   2.632   1.369  0.3819 -0.4935 -0.2697
  715TMC3    C310621   0.748   2.555   1.429  0.7067 -0.1372 -0.1845
  715TMC3    C410622   0.686   2.791   1.542  0.6511 -0.0096 -0.0857
  715TMC3    C510623   0.772   2.699   1.600  0.5402  0.7001 -0.2674
  715TMC3    C610624   0.803   2.582   1.548  0.0175  0.4595 -0.4025
  715TMC3     C10625   0.521   2.842   1.369  0.1951 -0.1671  0.6613
  715TMC3     O10626   0.433   2.777   1.309 -0.3656 -0.2306  0.7259
  715TMC3     H10627   0.599   2.602   1.275 -1.1780 -1.9682  0.9664
  715TMC3    H110628   0.683   2.891   1.586 -1.3616 -0.8188  1.6137
  715TMC3    H210629   0.877   2.518   1.595 -1.8811 -1.3830  0.0817
  715TMC3    C710630   0.829   2.732   1.727 -0.1233 -0.7693 -0.4685
  715TMC3    C810631   0.813   2.453   1.354  0.3330  0.2116 -0.2447
  715TMC3    O110632   0.921   2.654   1.762  0.9651 -0.1587 -0.0725
  715TMC3    O210633   0.751   2.393   1.267  0.2953 -0.0624  0.0118
  716MPD2     C10634   4.329   0.608   9.995  0.4508  0.4060  0.2119
  716MPD2    C110635   4.270   0.606   9.873 -0.7509  0.2476 -0.1090
  716MPD2    C210636   4.310   0.509   9.783 -0.1387 -0.4821 -0.0017
  716MPD2    C310637   4.409   0.418   9.819  0.2481 -0.6911  0.1422
  716MPD2    C410638   4.461   0.418   9.946  0.4184 -0.1072 -0.1932
  716MPD2    C510639   4.421   0.522  10.030 -0.2506 -0.2810  0.6085
  716MPD2     H10640   4.265   0.495   9.685  0.6464 -0.1466 -0.4090
  716MPD2    H110641   4.531   0.343   9.979  0.1804 -0.0149  0.5172
  716MPD2    H210642   4.312   0.686  10.068 -0.3853  0.2431  0.1885
  716MPD2    H310643   4.473   0.530  10.125  0.4927  2.1490  0.0185
  716MPD2     N10644   4.444   0.325   9.720 -0.3268 -0.5329  0.1390
  716MPD2    H510645   4.403   0.338   9.628 -0.9178 -0.2192  0.4485
  716MPD2    N110646   4.195   0.721   9.837 -0.8136 -0.0707 -0.1078
  716MPD2    H710647   4.185   0.787   9.913 -0.4819 -0.1684  0.0205
  717TMC3    C110648   4.524   0.133   9.628 -0.2347 -0.1453  0.2911
  717TMC3    C210649   4.485   0.188   9.505 -0.6969 -0.4639  0.3963
  717TMC3    C310650   4.421   0.111   9.419  0.0211  0.4478 -0.1690
  717TMC3    C410651   4.512   4.733   9.650  0.6142 -0.1205 -0.4214
  717TMC3    C510652   4.462   4.650   9.551  0.6100  0.4765 -0.2006
  717TMC3    C610653   4.408   4.709   9.439  0.0699 -0.2078 -0.5130
  717TMC3     C10654   4.524   0.216   9.745 -0.5519  0.0175  0.2410
  717TMC3     O10655   4.559   0.158   9.847 -0.4681 -0.5339  0.5104
  717TMC3     H10656   4.519   0.289   9.481  0.3661 -1.0028 -0.3674
  717TMC3    H110657   4.569   4.694   9.734  0.2424  0.1350 -0.0501
  717TMC3    H210658   4.352   4.645   9.372  0.5135 -0.9484 -0.1681
  717TMC3    C710659   4.455   4.504   9.571 -0.1662  0.3021  0.1733
  717TMC3    C810660   4.393   0.167   9.295  0.2676  0.0633  0.6253
  717TMC3    O110661   4.387   4.439   9.489  0.0424 -0.0599  0.2446
  717TMC3    O210662   4.407   0.287   9.286  0.5365 -0.4764 -0.3261
  718MPD2     C10663   4.131   3.401  12.992 -0.2668 -0.6138  0.6084
  718MPD2    C110664   4.059   3.438  12.879 -0.5646  0.2723 -0.6889
  718MPD2    C210665   3.921   3.437  12.880  0.8810  0.5381 -0.0894
  718MPD2    C310666   3.856   3.410  13.000  0.5849 -0.3651 -0.6797
  718MPD2    C410667   3.926   3.376  13.115  0.1855 -0.2866 -0.6485
  718MPD2    C510668   4.067   3.381  13.106 -0.8632 -0.2398  0.4885
  718MPD2     H10669   3.864   3.479  12.798 -0.4451 -0.0463  0.5334
  718MPD2    H110670   3.875   3.353  13.209  2.5391  2.0494  1.1929
  718MPD2    H210671   4.238   3.384  12.994 -0.1841 -0.6924 -3.8312
  718MPD2    H310672   4.131   3.374  13.193 -0.3384 -1.4592  0.0114
  718MPD2     N10673   3.717   3.403  12.989 -0.6240  0.3401 -0.0129
  718MPD2    H510674   3.684   3.422  12.895 -0.7291  0.1889 -0.0061
  718MPD2    N110675   4.125   3.477  12.760  0.5941 -0.5021 -0.7705
  718MPD2    H710676   4.061   3.496  12.683  0.0102  0.4353 -0.0515
  719TMC3    C110677   4.275   3.561  12.605  0.3485 -0.2109 -0.7144
  719TMC3    C210678   4.177   3.523  12.516 -0.5221 -0.3969 -0.4700
  719TMC3    C310679   4.119   3.624  12.433  0.0475  0.4521 -0.6387
  719TMC3    C410680   4.326   3.686  12.602 -0.1119 -0.9122  0.4354
  719TMC3    C510681   4.288   3.774  12.502  0.9804 -0.2778 -0.6028
  719TMC3    C610682   4.183   3.740  12.414  0.2972  0.0573 -0.5648
  719TMC3     C10683   4.257   3.510  12.739  0.7649 -0.5336 -0.2260
  719TMC3     O10684   4.352   3.519  12.815 -0.0922 -0.0720 -0.1347
  719TMC3     H10685   4.148   3.419  12.511  0.4521 -0.6268 -1.2181
  719TMC3    H110686   4.401   3.709  12.677  0.2595  0.2279 -0.2941
  719TMC3    H210687   4.132   3.818  12.359 -0.2601  0.8164  1.0338
  719TMC3    C710688   4.352   3.904  12.489  0.0350  0.0371  0.1808
  719TMC3    C810689   3.982   3.639  12.478 -0.3895  0.2466  0.3929
  719TMC3    O110690   4.314   3.973  12.398 -0.8909 -0.3457  0.0405
  719TMC3    O210691   3.946   3.548  12.557  0.0442 -0.4784  0.5726
  720MPD2     C10692   3.213   0.570  13.032  0.6338  0.4844 -0.3213
  720MPD2    C110693   3.173   0.696  13.050 -0.1222 -0.5648  0.5287
  720MPD2    C210694   3.243   0.770  13.142 -0.2580  0.2909 -0.2491
  720MPD2    C310695   3.353   0.719  13.202  0.2081 -0.2401 -0.3499
  720MPD2    C410696   3.399   0.591  13.170  0.0546  0.3612  0.1023
  720MPD2    C510697   3.327   0.515  13.084  0.3936  0.3893  1.3141
  720MPD2     H10698   3.215   0.871  13.171 -1.3252 -0.0486 -0.0833
  720MPD2    H110699   3.482   0.537  13.215 -0.9298 -2.5474 -1.5384
  720MPD2    H210700   3.158   0.510  12.961  1.5437 -1.0869  0.2843
  720MPD2    H310701   3.352   0.416  13.048 -0.6341  0.2130  1.0910
  720MPD2     N10702   3.426   0.789  13.301 -0.2113 -0.6951 -0.1896
  720MPD2    H510703   3.412   0.889  13.303 -1.4690 -0.8671 -0.2810
  720MPD2    N110704   3.070   0.758  12.973 -0.0706  0.0171 -0.1520
  720MPD2    H710705   3.051   0.855  12.997  2.1115  0.4139 -0.0909
  721TMC3    C110706   3.564   0.822  13.478  0.0450 -0.5646 -0.4802
  721TMC3    C210707   3.555   0.822  13.615 -0.8011 -0.3459  0.3419
  721TMC3    C310708   3.673   0.838  13.690 -0.3995 -0.0223 -0.5618
  721TMC3    C410709   3.686   0.847  13.417 -0.4984  0.2341 -0.3853
  721TMC3    C510710   3.795   0.875  13.494 -0.0586  0.4331 -0.1647
  721TMC3    C610711   3.791   0.874  13.631  0.0107  0.1678 -0.4657
  721TMC3     C10712   3.497   0.725  13.407 -0.0696 -0.1843  0.0864
  721TMC3     O10713   3.460   0.631  13.473  0.2364 -0.3277 -0.7251
  721TMC3     H10714   3.465   0.786  13.665 -1.8464  0.2092 -1.1412
  721TMC3    H110715   3.694   0.834  13.310  0.9078  0.7731 -0.3482
  721TMC3    H210716   3.864   0.917  13.699  0.1194 -1.9690  0.7601
  721TMC3    C710717   3.913   0.798  13.462 -0.4163 -0.7517 -0.1357
  721TMC3    C810718   3.677   0.780  13.824 -0.0725 -0.1986  0.1802
  721TMC3    O110719   3.992   0.833  13.374  0.4116 -0.1347  0.5216
  721TMC3    O210720   3.570   0.751  13.876  0.3140  0.1243 -0.1965
  722MPD2     C10721   2.021   4.426  13.501  0.1565 -0.7654 -0.0143
  722MPD2    C110722   1.976   4.528  13.417  0.0954  0.1520 -0.2888
  722MPD2    C210723   1.853   4.509  13.355  0.9456  0.4102  0.4556
  722MPD2    C310724   1.772   4.402  13.394  0.2717 -0.0194 -0.5248
  722MPD2    C410725   1.817   4.306  13.483 -1.2188 -0.1078 -0.4194
  722MPD2    C510726   1.941   4.319  13.537  0.0403 -0.1859 -0.6775
  722MPD2     H10727   1.819   4.588  13.288 -1.1216 -0.7531  0.1288
  722MPD2    H110728   1.761   4.227  13.533 -0.1892 -1.3760 -1.2720
  722MPD2    H210729   2.119   4.424  13.549  0.3222  0.6832 -0.2905
  722MPD2    H310730   1.970   4.253  13.618 -0.1186 -0.8287 -1.1479
  722MPD2     N10731   1.645   4.395  13.345  0.7323 -0.4855  0.2469
  722MPD2    H510732   1.604   4.477  13.302 -1.8119 -1.8461  0.1077
  722MPD2    N110733   2.056   4.640  13.401  0.3178  0.1663 -0.8605
  722MPD2    H710734   2.142   4.630  13.455  0.3481  1.6726 -0.6260
  723TMC3    C110735   1.413   4.327  13.356  0.8503  0.0958  0.1003
  723TMC3    C210736   1.330   4.220  13.348 -0.1874  0.0420 -0.2461
  723TMC3    C310737   1.195   4.241  13.345 -0.4431  0.3691  0.3205
  723TMC3    C410738   1.362   4.451  13.364 -0.2641 -0.1180  0.3435
  723TMC3    C510739   1.235   4.468  13.324  0.4025  0.4786  0.0892
  723TMC3    C610740   1.144   4.366  13.310  0.6670  0.7196 -0.2955
  723TMC3     C10741   1.555   4.292  13.369  0.4649 -0.0624 -0.8334
  723TMC3     O10742   1.581   4.172  13.387 -0.7647 -0.3378  0.4197
  723TMC3     H10743   1.357   4.116  13.356 -0.2955  0.0429  0.1123
  723TMC3    H110744   1.431   4.527  13.397 -0.6348 -0.0292  0.9057
  723TMC3    H210745   1.037   4.381  13.301  0.2049 -1.0943  2.0451
  723TMC3    C710746   1.179   4.604  13.338  0.6327 -0.1337  0.9331
  723TMC3    C810747   1.118   4.125  13.319 -0.0370  0.5599 -0.4703
  723TMC3    O110748   1.253   4.693  13.379 -0.3886 -0.0544 -0.0507
  723TMC3    O210749   1.138   4.024  13.379  0.1019  0.3350 -0.1310
  724TMC3    C110750   1.864   2.600  10.780  0.6081 -0.1261 -0.8170
  724TMC3    C210751   1.749   2.572  10.708 -0.1038  0.0949  0.0807
  724TMC3    C310752   1.744   2.630  10.589 -0.2040 -0.3086 -0.2287
  724TMC3    C410753   1.942   2.706  10.753 -0.4900 -0.4976 -0.2897
  724TMC3    C510754   1.907   2.787  10.642  0.5217 -0.1085  0.3067
  724TMC3    C610755   1.814   2.742  10.552  0.6153 -0.5975  0.0913
  724TMC3     C10756   1.885   2.560  10.920  0.2378 -0.0852 -0.0218
  724TMC3     O10757   1.996   2.563  10.977 -0.1853  0.3322  0.0384
  724TMC3     H10758   1.692   2.482  10.727  0.2082  0.0377  0.7658
  724TMC3    H110759   2.017   2.741  10.822 -0.8781 -1.2648  0.5251
  724TMC3    H210760   1.811   2.800  10.460 -0.2378 -0.1796  0.3801
  724TMC3    C710761   1.996   2.892  10.601  0.1945  0.2120  0.3601
  724TMC3    C810762   1.632   2.585  10.509  0.2268 -0.3289 -1.2645
  724TMC3    O110763   2.023   2.895  10.482  0.3750  0.3894  0.1398
  724TMC3    O210764   1.532   2.539  10.557 -0.4699 -0.6043 -0.0117
  725TMC3    C110765   3.872   1.137  12.734 -0.2945 -0.2394  0.9182
  725TMC3    C210766   3.739   1.170  12.710  0.6156  0.3738 -0.6291
  725TMC3    C310767   3.660   1.080  12.644 -0.2295  0.0312  0.1836
  725TMC3    C410768   3.921   1.015  12.696 -0.1579 -0.9052  0.0417
  725TMC3    C510769   3.842   0.924  12.623  0.3819 -1.0166  0.4996
  725TMC3    C610770   3.709   0.960  12.602 -0.1918  0.2451  0.8315
  725TMC3     C10771   3.950   1.241  12.801 -0.6281 -0.2751  0.1839
  725TMC3     O10772   3.931   1.361  12.783 -0.6735 -0.0754 -0.0738
  725TMC3     H10773   3.689   1.255  12.755  0.0167 -0.4060  0.1879
  725TMC3    H110774   4.028   0.996  12.695  0.3137  1.8227 -0.6366
  725TMC3    H210775   3.637   0.899  12.549 -0.3986  0.2863  1.0626
  725TMC3    C710776   3.906   0.804  12.565  0.2007 -0.4728 -0.6793
  725TMC3    C810777   3.535   1.133  12.586 -0.3356  0.6777 -0.7193
  725TMC3    O110778   4.027   0.807  12.567 -0.5065 -0.4481 -0.0076
  725TMC3    O210779   3.443   1.051  12.574 -0.2764  0.3280  0.1755
  726MPD2     C10780   0.877   3.205   9.995 -0.4851 -0.4152 -0.3054
  726MPD2    C110781   0.850   3.254  10.121 -0.1067  0.0902 -0.4489
  726MPD2    C210782   0.786   3.165  10.206 -0.0940 -0.3877  0.3809
  726MPD2    C310783   0.761   3.031  10.166 -0.0428 -0.0163 -0.8472
  726MPD2    C410784   0.771   2.992  10.041  0.2547 -0.4664  0.1740
  726MPD2    C510785   0.821   3.082   9.959 -0.5881  0.2764 -0.1152
  726MPD2     H10786   0.764   3.193  10.309  0.1557  0.3858  0.2263
  726MPD2    H110787   0.736   2.897  10.003  0.8222  0.5331 -2.8107
  726MPD2    H210788   0.924   3.256   9.912  0.8192  1.2599  1.4676
  726MPD2    H310789   0.835   3.053   9.855 -0.5330  0.0292 -0.0384
  726MPD2     N10790   0.712   2.937  10.254 -0.5362  0.2402 -0.1813
  726MPD2    H510791   0.672   2.852  10.215  1.2116 -0.4722 -0.4437
  726MPD2    N110792   0.878   3.381  10.170 -0.1510  0.2779 -0.6315
  726MPD2    H710793   0.839   3.407  10.260  1.6859  2.0121 -0.3449
  727TMC3    C110794   0.939   3.604  10.134  0.9503  0.4187  0.1995
  727TMC3    C210795   1.040   3.684  10.106  0.3215 -1.0187  0.3381
  727TMC3    C310796   1.019   3.818  10.125  0.0134 -0.1869  0.2189
  727TMC3    C410797   0.818   3.649  10.174  1.1117 -0.2760  0.2850
  727TMC3    C510798   0.804   3.782  10.198 -0.4816  0.2507  0.8439
  727TMC3    C610799   0.906   3.867  10.183  0.0848 -0.0592  0.2470
  727TMC3     C10800   0.955   3.466  10.098  0.6969  0.3975 -0.0622
  727TMC3     O10801   1.030   3.440  10.003 -0.3002  0.0107 -0.1323
  727TMC3     H10802   1.132   3.644  10.064  1.2013  0.3705  0.9419
  727TMC3    H110803   0.733   3.586  10.195  0.3774  0.9395  1.0137
  727TMC3    H210804   0.892   3.974  10.200  3.6377  0.0060  2.9036
  727TMC3    C710805   0.677   3.829  10.251 -0.0089  0.2143  0.3596
  727TMC3    C810806   1.141   3.884  10.165  0.1007  0.3208 -0.4071
  727TMC3    O110807   0.587   3.759  10.203  0.4191 -0.2078  0.8433
  727TMC3    O210808   1.243   3.820  10.167  0.1199 -0.7726 -0.3846
  728TMC3    C110809   0.505   1.197  15.454 -0.0987 -0.3724 -0.0709
  728TMC3    C210810   0.637   1.187  15.496  0.1959 -0.4467  0.7200
  728TMC3    C310811   0.723   1.180  15.396 -0.0521  0.0063  0.2661
  728TMC3    C410812   0.467   1.218  15.324 -0.1534  0.4692  0.7694
  728TMC3    C510813   0.562   1.240  15.232 -0.3969  0.5150 -0.4765
  728TMC3    C610814   0.696   1.224  15.268  0.0625  0.7518 -0.0772
  728TMC3     C10815   0.411   1.139  15.540  0.0433  0.3793  0.3433
  728TMC3     O10816   0.297   1.140  15.497  0.1602 -0.2895 -0.6967
  728TMC3     H10817   0.676   1.165  15.594 -0.3772  1.3061  1.3471
  728TMC3    H110818   0.366   1.220  15.285  0.6737 -0.4340 -1.4502
  728TMC3    H210819   0.771   1.236  15.191 -1.8462  0.1332 -2.0296
  728TMC3    C710820   0.515   1.257  15.094 -0.5780  0.7770  0.8773
  728TMC3    C810821   0.854   1.135  15.428  0.6586  0.1234 -0.5657
  728TMC3    O110822   0.396   1.244  15.064 -0.0060  0.8341  0.3851
  728TMC3    O210823   0.880   1.124  15.546  0.4382 -0.1750 -0.1235
  729MPD2     C10824   3.046   2.331  16.766  0.0377  0.0965  0.5604
  729MPD2    C110825   3.021   2.457  16.725 -0.3656  0.0306  0.0045
  729MPD2    C210826   2.960   2.547  16.819  0.3670 -0.7778 -0.5054
  729MPD2    C310827   2.903   2.501  16.946 -0.0997  0.4458  0.5446
  729MPD2    C410828   2.937   2.373  16.979  0.1477 -0.1206  0.6561
  729MPD2    C510829   2.998   2.290  16.889 -0.7647  0.1185 -0.5166
  729MPD2     H10830   2.955   2.652  16.790 -0.1136 -0.5192  0.4935
  729MPD2    H110831   2.920   2.334  17.079  1.0321 -3.0111 -0.3218
  729MPD2    H210832   3.103   2.260  16.707  1.4180  0.9164  0.9057
  729MPD2    H310833   3.035   2.194  16.925  0.2624  1.4558  2.0075
  729MPD2     N10834   2.850   2.584  17.041 -0.6959  0.4242 -0.3352
  729MPD2    H510835   2.822   2.539  17.127  0.6789  1.2386  0.5246
  729MPD2    N110836   3.074   2.502  16.595 -0.6698  0.4742 -0.4520
  729MPD2    H710837   3.127   2.431  16.545  0.5183  0.5753  0.6458
  730TMC3    C110838   2.815   2.786  17.160 -0.5141 -0.0696 -0.2958
  730TMC3    C210839   2.912   2.766  17.253 -0.1427 -0.4051  0.3961
  730TMC3    C310840   2.953   2.863  17.335 -0.1849  0.5031  0.8059
  730TMC3    C410841   2.735   2.900  17.165  0.5811  0.0794 -0.1179
  730TMC3    C510842   2.755   2.981  17.269 -0.6703 -0.0111  0.0581
  730TMC3    C610843   2.856   2.954  17.365 -0.1588  0.2671  0.0200
  730TMC3     C10844   2.830   2.719  17.028 -0.4806 -0.1425  0.3165
  730TMC3     O10845   2.811   2.780  16.925  0.1041  0.0822  0.0246
  730TMC3     H10846   2.975   2.682  17.228  0.9279  0.5522 -0.1436
  730TMC3    H110847   2.667   2.921  17.082  0.0443  0.9523  0.5463
  730TMC3    H210848   2.889   3.027  17.438  1.9112  0.0546 -0.6901
  730TMC3    C710849   2.727   3.122  17.246 -0.3848 -0.3511 -0.8601
  730TMC3    C810850   3.055   2.936  17.265 -0.3744 -0.2157  0.1987
  730TMC3    O110851   2.697   3.149  17.130  0.4109 -0.1806 -0.0141
  730TMC3    O210852   3.103   2.879  17.169 -0.1822 -0.6491  0.1987
  731MPD2     C10853   3.131   0.108  12.624  0.0938 -0.4016 -0.0210
  731MPD2    C110854   3.252   0.167  12.596  0.9688  0.1527 -0.1795
  731MPD2    C210855   3.334   0.181  12.702  0.2147 -0.8937 -0.0641
  731MPD2    C310856   3.306   0.139  12.838  0.5596  0.1483 -0.2259
  731MPD2    C410857   3.180   0.077  12.857  0.1060 -1.1040  0.6319
  731MPD2    C510858   3.097   0.063  12.750 -0.0987 -0.6962  0.7547
  731MPD2     H10859   3.426   0.239  12.705 -0.0183 -0.5331  0.1020
  731MPD2    H110860   3.147   0.046  12.955 -2.7941 -1.0466 -0.3051
  731MPD2    H210861   3.047   0.105  12.555  0.5653 -0.7717 -0.5800
  731MPD2    H310862   3.005   0.012  12.778 -0.0667 -0.4607  1.2875
  731MPD2     N10863   3.397   0.153  12.946 -0.2192 -0.2444  0.3758
  731MPD2    H510864   3.490   0.185  12.921 -0.4078  1.1878  1.5030
  731MPD2    N110865   3.272   0.221  12.468  0.3978  0.1189 -0.1629
  731MPD2    H710866   3.195   0.203  12.404 -0.1287 -0.2530  0.5841
  732TMC3    C110867   3.390   0.333  12.283 -0.5686  0.1279  0.3168
  732TMC3    C210868   3.276   0.329  12.208 -0.5428  0.1851  0.0472
  732TMC3    C310869   3.270   0.397  12.094 -0.5960  0.1120 -0.2873
  732TMC3    C410870   3.503   0.407  12.248 -0.3762  0.0810  0.0392
  732TMC3    C510871   3.491   0.475  12.129  0.4624 -0.5857  0.2329
  732TMC3    C610872   3.385   0.465  12.048 -0.4975  0.8098 -0.3355
  732TMC3     C10873   3.387   0.295  12.428  0.5352 -0.3362 -0.1139
  732TMC3     O10874   3.478   0.323  12.500 -0.4720 -0.6927 -0.2907
  732TMC3     H10875   3.190   0.268  12.233 -2.4085  2.5169 -0.6810
  732TMC3    H110876   3.589   0.416  12.313 -1.3058  1.7318  1.0803
  732TMC3    H210877   3.389   0.513  11.951 -2.0734 -0.1364 -0.8867
  732TMC3    C710878   3.598   0.559  12.090 -0.3450  0.7118  0.4531
  732TMC3    C810879   3.164   0.377  12.002 -1.0081  0.4120 -0.1295
  732TMC3    O110880   3.570   0.640  12.003  0.5259  0.7299 -0.7167
  732TMC3    O210881   3.183   0.389  11.881 -0.2466  0.2221 -0.1035
  733TMC3    C110882   3.283   3.554  13.069  0.2309  0.1662  0.4689
  733TMC3    C210883   3.389   3.473  13.111  0.4331  0.0054 -0.6854
  733TMC3    C310884   3.507   3.487  13.045  0.0129 -0.2518  0.0675
  733TMC3    C410885   3.292   3.640  12.958  0.4230  0.4134 -0.6535
  733TMC3    C510886   3.414   3.656  12.907 -0.0874  0.1679  0.7498
  733TMC3    C610887   3.519   3.580  12.946 -0.3920 -0.4582  0.6486
  733TMC3     C10888   3.144   3.526  13.105 -0.2296 -0.1210 -0.5390
  733TMC3     O10889   3.055   3.577  13.031 -0.0003 -0.3820  0.3418
  733TMC3     H10890   3.386   3.424  13.208  2.5114 -1.9891 -1.6420
  733TMC3    H110891   3.211   3.695  12.913 -0.5865 -0.9588 -0.5177
  733TMC3    H210892   3.620   3.600  12.912  0.6183 -2.9394  2.1235
  733TMC3    C710893   3.421   3.722  12.777 -0.3964 -0.2329 -0.8647
  733TMC3    C810894   3.623   3.411  13.090  0.2175  0.1637  0.3774
  733TMC3    O110895   3.317   3.755  12.721  0.4140  0.9531  0.3779
  733TMC3    O210896   3.633   3.383  13.208 -0.2172  0.0910 -0.0600
  734MPD2     C10897   1.434   1.624  12.543  0.4776  0.0256  0.9454
  734MPD2    C110898   1.298   1.631  12.584 -0.5670  0.2193 -0.3335
  734MPD2    C210899   1.210   1.721  12.529 -1.0206 -0.4542 -0.2783
  734MPD2    C310900   1.256   1.802  12.429  0.1727  0.4538  0.4436
  734MPD2    C410901   1.387   1.794  12.387  1.1459 -0.7117  0.1646
  734MPD2    C510902   1.474   1.708  12.450  0.5302 -0.1916  0.6454
  734MPD2     H10903   1.106   1.723  12.557 -0.0408 -0.2514  3.4269
  734MPD2    H110904   1.432   1.866  12.319 -0.8800 -0.3283 -0.7672
  734MPD2    H210905   1.504   1.555  12.588  0.9077  0.3211  0.7245
  734MPD2    H310906   1.580   1.700  12.427  0.3417 -1.4845  0.2009
  734MPD2     N10907   1.171   1.891  12.369  0.3751  0.7493  0.3906
  734MPD2    H510908   1.074   1.889  12.401 -0.0858 -0.2754 -1.0864
  734MPD2    N110909   1.262   1.543  12.687  0.3397  0.0010  0.5542
  734MPD2    H710910   1.330   1.476  12.719  0.3971 -0.1168  0.1754
  735TMC3    C110911   1.124   1.413  12.827 -0.0562 -0.3988 -0.4544
  735TMC3    C210912   0.998   1.355  12.810  0.0971 -0.1570 -0.4843
  735TMC3    C310913   0.986   1.227  12.754  0.2096 -0.4830  0.1567
  735TMC3    C410914   1.233   1.332  12.811 -0.4607 -0.4533  0.2256
  735TMC3    C510915   1.217   1.212  12.757 -0.3915 -0.2800  0.8644
  735TMC3    C610916   1.098   1.151  12.725  1.2245  0.0247 -0.5313
  735TMC3     C10917   1.136   1.529  12.740  0.2621  0.7725  0.5577
  735TMC3     O10918   1.029   1.568  12.698  0.1065 -0.9783  0.0762
  735TMC3     H10919   0.908   1.414  12.824  0.0831 -1.1705  3.6328
  735TMC3    H110920   1.337   1.350  12.836 -0.1325 -2.6135  0.3957
  735TMC3    H210921   1.083   1.074  12.651 -1.9011  1.5015 -1.4280
  735TMC3    C710922   1.345   1.142  12.721 -0.7806  0.4647  0.4316
  735TMC3    C810923   0.888   1.228  12.641 -0.6645  0.4988  0.2467
  735TMC3    O110924   1.445   1.204  12.700  0.3771 -0.2910 -0.3401
  735TMC3    O210925   0.865   1.121  12.588  0.5366  0.0928  0.0884
  736MPD2     C10926   1.430   0.797  12.729 -0.0682  0.2082  0.2138
  736MPD2    C110927   1.437   0.925  12.683  0.0446 -0.2342 -0.6057
  736MPD2    C210928   1.536   0.950  12.586 -0.3407  0.2186  0.1726
  736MPD2    C310929   1.624   0.851  12.534  0.4217  0.5481  0.1416
  736MPD2    C410930   1.608   0.717  12.583  0.3419  0.9777  0.2709
  736MPD2    C510931   1.513   0.694  12.683  0.2428  1.1498  0.6001
  736MPD2     H10932   1.523   1.047  12.541  0.9804 -1.0418 -2.9310
  736MPD2    H110933   1.668   0.632  12.552 -0.2888 -0.1531  2.2017
  736MPD2    H210934   1.345   0.762  12.788 -0.6861  1.0485 -0.1793
  736MPD2    H310935   1.508   0.591  12.718  3.5248  0.3159 -1.3966
  736MPD2     N10936   1.707   0.869  12.421 -0.0452  0.0605 -0.4540
  736MPD2    H510937   1.764   0.790  12.391 -0.4517 -0.2670 -0.3673
  736MPD2    N110938   1.329   1.012  12.716  0.0508 -0.0552  0.1423
  736MPD2    H710939   1.258   0.977  12.779  0.7564 -1.3570  0.2208
  737TMC3    C110940   1.814   1.007  12.245  0.5809 -0.1797  1.0605
  737TMC3    C210941   1.827   1.132  12.192 -0.5122 -0.1512  0.7207
  737TMC3    C310942   1.916   1.150  12.087 -0.4234  0.1584  0.1540
  737TMC3    C410943   1.883   0.900  12.199 -0.8587 -0.3215  0.0921
  737TMC3    C510944   1.968   0.918  12.089  0.3521  0.2293  0.5752
  737TMC3    C610945   1.982   1.040  12.026  0.4872 -0.4030 -0.6119
  737TMC3     C10946   1.733   0.993  12.364 -0.5372  0.3407  0.6034
  737TMC3     O10947   1.699   1.102  12.403  0.4805  0.7209  0.3303
  737TMC3     H10948   1.772   1.217  12.229 -1.4619 -0.8642  0.9394
  737TMC3    H110949   1.876   0.804  12.249 -0.6510 -0.6625 -0.5281
  737TMC3    H210950   2.043   1.058  11.938  1.6835 -0.3080  0.2402
  737TMC3    C710951   2.011   0.795  12.024  0.4598 -0.2369 -0.3912
  737TMC3    C810952   1.881   1.257  11.992 -0.4788 -0.2446 -0.3568
  737TMC3    O110953   1.981   0.686  12.070 -0.2283 -0.2684 -0.5836
  737TMC3    O210954   1.779   1.326  12.014  0.1385  0.4083 -0.6105
  738MPD2     C10955   1.967   0.065  15.228  0.9225 -0.6811  0.2111
  738MPD2    C110956   2.015   4.677  15.259  0.6279  0.2144 -0.4013
  738MPD2    C210957   2.146   4.640  15.257  0.0331 -0.4108  0.0047
  738MPD2    C310958   2.230   0.002  15.202 -0.3764  0.3354 -0.1454
  738MPD2    C410959   2.186   0.131  15.183  0.3938  0.4303 -0.2185
  738MPD2    C510960   2.054   0.165  15.202 -0.4534  0.3085  0.7208
  738MPD2     H10961   2.173   4.536  15.274 -0.7838 -0.6591 -0.2325
  738MPD2    H110962   2.251   0.209  15.144  0.4053  0.7517  0.4533
  738MPD2    H210963   1.863   0.087  15.250 -0.3638 -3.8544 -2.8029
  738MPD2    H310964   2.018   0.267  15.197  1.5027  0.9753  0.2426
  738MPD2     N10965   2.354   4.703  15.148  0.3572  0.6420 -0.2180
  738MPD2    H510966   2.398   0.040  15.091  0.9655 -0.6413 -1.3900
  738MPD2    N110967   1.921   4.572  15.286 -0.7394  0.3365  0.5655
  738MPD2    H710968   1.966   4.491  15.326 -0.7066  0.4925  0.8491
  739TMC3    C110969   2.508   4.567  15.029 -0.7051  0.3241  0.2884
  739TMC3    C210970   2.475   4.637  14.921 -0.6457 -0.0747 -0.1943
  739TMC3    C310971   2.544   4.618  14.807  0.0711 -0.6539 -0.1198
  739TMC3    C410972   2.607   4.464  15.029  0.1682  0.3122  0.5422
  739TMC3    C510973   2.677   4.453  14.916 -0.1816 -0.2258  0.1046
  739TMC3    C610974   2.650   4.528  14.805 -0.0576  0.5727  0.4851
  739TMC3     C10975   2.416   4.579  15.140  0.7612  0.1133 -0.7292
  739TMC3     O10976   2.398   4.481  15.214 -0.1455  0.1377 -0.2173
  739TMC3     H10977   2.391   4.706  14.919 -0.0989  0.6237  0.8619
  739TMC3    H110978   2.624   4.400  15.115 -0.0573 -1.6039 -0.8495
  739TMC3    H210979   2.695   4.502  14.710  0.1188 -4.3311  1.9009
  739TMC3    C710980   2.804   4.391  14.934  0.0111 -0.6550  0.5153
  739TMC3    C810981   2.494   4.681  14.687 -0.1489  0.8229 -0.1373
  739TMC3    O110982   2.810   4.317  15.029  0.4725  0.4435 -0.1078
  739TMC3    O210983   2.391   0.006  14.708 -0.2530  0.1570 -0.3659
  740TMC3    C110984   2.967   1.021  14.313 -0.8756  0.3669  0.5963
  740TMC3    C210985   2.989   0.927  14.411 -0.3998  0.0022 -0.4317
  740TMC3    C310986   3.095   0.842  14.396 -0.0173  0.1293  0.3173
  740TMC3    C410987   3.031   1.007  14.193 -0.2707  0.3731 -0.0813
  740TMC3    C510988   3.130   0.916  14.176 -0.4766  0.5890 -0.4627
  740TMC3    C610989   3.171   0.835  14.283 -0.1833  0.5999 -0.4567
  740TMC3     C10990   2.859   1.116  14.309  0.2806 -0.0769 -0.0502
  740TMC3     O10991   2.862   1.196  14.218  0.0322  0.2647  0.4227
  740TMC3     H10992   2.941   0.933  14.508 -0.8058  1.9361 -0.7374
  740TMC3    H110993   3.031   1.089  14.122 -2.2206  0.2355 -0.2435
  740TMC3    H210994   3.245   0.758  14.266 -3.3837 -2.1841 -1.7679
  740TMC3    C710995   3.201   0.889  14.052 -0.3027  0.7558  0.4002
  740TMC3    C810996   3.123   0.735  14.490  0.0190 -0.2079 -0.4014
  740TMC3    O110997   3.284   0.798  14.046 -0.1719  0.1510  0.0655
  740TMC3    O210998   3.233   0.687  14.490 -0.4111  0.2178 -1.0547
  741TMC3    C110999   2.483   0.397  14.585 -0.3167  0.5672  0.2046
  741TMC3    C211000   2.345   0.368  14.578  0.3022 -0.6214  0.1251
  741TMC3    C311001   2.281   0.321  14.689  0.3219  0.0919  0.1031
  741TMC3    C411002   2.560   0.364  14.688  0.1763  0.2281  0.3296
  741TMC3    C511003   2.495   0.309  14.796  0.5903  0.0116  0.8528
  741TMC3    C611004   2.355   0.298  14.800  0.1055 -0.1888 -0.4772
  741TMC3     C11005   2.549   0.409  14.450 -0.3191  0.1251 -0.0354
  741TMC3     O11006   2.661   0.362  14.438 -0.3606 -0.9480 -0.6787
  741TMC3     H11007   2.285   0.364  14.488 -1.4696  2.1192  1.1824
  741TMC3    H111008   2.663   0.398  14.693 -0.4376  2.2828 -1.1856
  741TMC3    H211009   2.302   0.264  14.889  1.2296 -2.2983 -0.6159
  741TMC3    C711010   2.557   0.235  14.909 -0.2246 -0.3064  0.3592
  741TMC3    C811011   2.144   0.274  14.677 -0.5826  0.1524 -0.0266
  741TMC3    O111012   2.489   0.178  14.990 -0.1228  0.8750  0.3481
  741TMC3    O211013   2.082   0.335  14.588 -0.5858 -0.4013  0.2236
  742TMC3    C111014   2.393   3.734  15.513 -0.1000  0.5190 -0.3083
  742TMC3    C211015   2.283   3.658  15.482 -0.1048 -0.4081  0.3024
  742TMC3    C311016   2.281   3.610  15.356 -0.4045 -0.4502 -0.2939
  742TMC3    C411017   2.508   3.724  15.441 -0.0478 -0.2000  0.6829
  742TMC3    C511018   2.504   3.658  15.322 -0.4534  0.5489  0.4128
  742TMC3    C611019   2.390   3.608  15.278  0.4826  0.3322 -0.3343
  742TMC3     C11020   2.401   3.807  15.636 -0.1948  0.5786 -0.3661
  742TMC3     O11021   2.327   3.770  15.730  0.1523 -0.2684 -0.1271
  742TMC3     H11022   2.190   3.680  15.534 -0.4240 -0.3046 -0.3147
  742TMC3    H111023   2.606   3.755  15.476  0.5668 -2.1057  0.6677
  742TMC3    H211024   2.373   3.569  15.178 -1.5599  0.6842 -0.1296
  742TMC3    C711025   2.626   3.607  15.256 -0.7509 -0.2896  0.1492
  742TMC3    C811026   2.167   3.540  15.287 -0.2848 -0.5874 -0.6037
  742TMC3    O111027   2.612   3.499  15.199  0.4992  0.1628  0.0709
  742TMC3    O211028   2.187   3.454  15.203  0.0111 -0.1782  0.0876
  743MPD2     C11029   4.363   1.661   1.671  0.3765  0.1903  0.2682
  743MPD2    C111030   4.478   1.601   1.621 -0.0985  0.1392 -0.1595
  743MPD2    C211031   4.603   1.657   1.642  0.3758 -0.2222  0.8347
  743MPD2    C311032   4.618   1.769   1.727 -0.3670 -0.5996 -0.3722
  743MPD2    C411033   4.502   1.829   1.776  0.5713 -0.0692  0.3024
  743MPD2    C511034   4.380   1.776   1.747  0.5291 -0.5751 -0.4504
  743MPD2     H11035   4.691   1.608   1.601 -1.5177 -1.3782 -1.8194
  743MPD2    H111036   4.491   1.910   1.847 -0.9456 -0.8154  0.8999
  743MPD2    H211037   4.267   1.616   1.649  0.1584  0.9977 -0.4150
  743MPD2    H311038   4.300   1.841   1.778  2.8627  1.5381  1.0935
  743MPD2     N11039   0.013   1.802   1.766  0.2050  0.2085 -0.1556
  743MPD2    H511040   0.085   1.758   1.708  0.7364 -0.6360  1.1454
  743MPD2    N111041   4.462   1.483   1.557  0.1218  0.8030 -0.0397
  743MPD2    H711042   4.366   1.451   1.544  0.8312 -2.0481  1.6020
  744TMC3    C111043   4.523   1.274   1.468  0.3679 -0.4377  0.8396
  744TMC3    C211044   4.403   1.259   1.406 -0.2505 -0.5918 -0.6993
  744TMC3    C311045   4.375   1.137   1.352 -0.2069 -0.7805  0.2933
  744TMC3    C411046   4.616   1.169   1.481 -0.1889 -1.0994 -0.6750
  744TMC3    C511047   4.580   1.053   1.425  0.5744 -0.6847 -0.1698
  744TMC3    C611048   4.459   1.032   1.363 -0.0475  0.0692  0.5933
  744TMC3     C11049   4.563   1.395   1.535 -0.6201 -0.0922  0.6333
  744TMC3     O11050   4.679   1.393   1.577  0.2210  0.4738  0.4017
  744TMC3     H11051   4.333   1.342   1.399 -2.0025 -1.9652  0.2564
  744TMC3    H111052   4.720   1.182   1.510 -0.9086 -0.8621  1.8173
  744TMC3    H211053   4.453   0.936   1.314  2.7715 -0.0237  0.4351
  744TMC3    C711054   4.679   0.945   1.427  0.2898  0.5014  0.3396
  744TMC3    C811055   4.240   1.098   1.300  0.7342  0.3933 -0.7428
  744TMC3    O111056   4.689   0.882   1.324  0.8023 -0.2228 -0.1121
  744TMC3    O211057   4.229   0.985   1.246  0.3726 -0.3092 -0.1745
  745TMC3    C111058   2.078   3.430  14.064 -0.1481 -0.1444 -0.8689
  745TMC3    C211059   2.007   3.374  14.169  0.4417 -0.2453  0.3873
  745TMC3    C311060   1.879   3.418  14.181  0.2742 -0.0349 -0.6380
  745TMC3    C411061   2.023   3.506  13.966 -0.2388 -0.2546 -0.3270
  745TMC3    C511062   1.886   3.513  13.962 -0.0688  0.2179 -0.7450
  745TMC3    C611063   1.816   3.484  14.075  0.6018 -0.4114  0.3361
  745TMC3     C11064   2.224   3.445  14.092 -0.7819 -0.1978  0.0292
  745TMC3     O11065   2.264   3.375  14.182 -0.0828  0.7154 -0.2873
  745TMC3     H11066   2.039   3.295  14.236 -0.5173  0.8669  2.1554
  745TMC3    H111067   2.087   3.527  13.881 -1.3125 -0.8849 -1.2932
  745TMC3    H211068   1.712   3.515  14.081  0.7141  0.1248 -0.4717
  745TMC3    C711069   1.830   3.595  13.849 -0.6001 -0.4449  0.7638
  745TMC3    C811070   1.857   3.493  14.302 -0.7440  0.2151 -0.0990
  745TMC3    O111071   1.725   3.650  13.878  0.1228 -0.3320 -0.5767
  745TMC3    O211072   1.759   3.562  14.305  0.1061 -0.6033  0.0782
  746TMC3    C111073   4.320   0.887  10.801  0.0625  0.9929 -0.7102
  746TMC3    C211074   4.304   0.949  10.683  0.1319  0.4172 -0.3875
  746TMC3    C311075   4.234   0.878  10.591  0.4802 -0.6854  0.1572
  746TMC3    C411076   4.256   0.767  10.840  0.5761 -0.6179 -0.3251
  746TMC3    C511077   4.179   0.701  10.749 -0.0096 -0.0012  0.1483
  746TMC3    C611078   4.171   0.761  10.624  0.4644  0.4609 -0.8754
  746TMC3     C11079   4.403   0.949  10.905  0.4343  0.3409 -0.1182
  746TMC3     O11080   4.365   0.947  11.019  0.2976 -0.4282  0.0404
  746TMC3     H11081   4.335   1.052  10.669  1.7002  0.0078  0.1290
  746TMC3    H111082   4.271   0.726  10.939  0.6625  0.2938  0.0442
  746TMC3    H211083   4.130   0.704  10.542 -1.0589 -0.9234  0.8479
  746TMC3    C711084   4.069   0.623  10.817 -0.1051  0.4657 -0.6136
  746TMC3    C811085   4.213   0.922  10.451 -0.2571 -0.6953 -0.2738
  746TMC3    O111086   3.955   0.654  10.788 -0.1975  0.1297 -0.5490
  746TMC3    O211087   4.118   0.889  10.386  0.3234  0.0965  0.3507
  747TMC3    C111088   2.712   0.576  11.239 -0.4456 -0.2445  0.5461
  747TMC3    C211089   2.579   0.585  11.266 -0.4104  0.0825  0.6170
  747TMC3    C311090   2.542   0.670  11.368  0.4665  0.0970  0.1573
  747TMC3    C411091   2.805   0.661  11.298 -0.1426  0.2300  0.4438
  747TMC3    C511092   2.756   0.748  11.395 -0.7819 -0.4244  0.5334
  747TMC3    C611093   2.627   0.753  11.435  0.9016  0.6649 -0.4991
  747TMC3     C11094   2.765   0.494  11.122 -0.0149 -0.3529 -0.7107
  747TMC3     O11095   2.884   0.484  11.104  0.4582 -0.2747  0.0178
  747TMC3     H11096   2.499   0.530  11.219 -0.7695 -2.3612  4.0529
  747TMC3    H111097   2.903   0.664  11.251 -1.1789  0.6590 -1.7286
  747TMC3    H211098   2.590   0.825  11.507 -0.5509 -0.4345 -0.1438
  747TMC3    C711099   2.836   0.868  11.430  0.1260  1.2226 -0.4207
  747TMC3    C811100   2.427   0.623  11.447  0.2951 -0.4262  0.0817
  747TMC3    O111101   2.796   0.946  11.518 -0.6756 -0.3172  0.0524
  747TMC3    O211102   2.369   0.528  11.401  0.2694  0.1914  0.6120
  748MPD2     C11103   3.962   1.779   1.326 -0.0053  0.5688 -0.3692
  748MPD2    C111104   3.977   1.907   1.366 -0.1489  0.4219 -0.4188
  748MPD2    C211105   4.099   1.958   1.402  0.9367  0.1015 -0.1050
  748MPD2    C311106   4.211   1.881   1.381  0.6908  0.5635  0.1842
  748MPD2    C411107   4.196   1.752   1.338 -0.0187  0.3760 -0.2544
  748MPD2    C511108   4.073   1.707   1.306 -0.4425 -0.4144  0.6157
  748MPD2     H11109   4.117   2.059   1.437 -1.4265  0.9727 -1.3612
  748MPD2    H111110   4.280   1.685   1.317 -0.2636 -0.1485  0.4459
  748MPD2    H211111   3.870   1.730   1.295 -0.5948  2.4415 -1.5832
  748MPD2    H311112   4.074   1.607   1.264 -1.1530 -0.7137  1.3127
  748MPD2     N11113   4.335   1.941   1.395 -0.8235  0.0801 -0.6037
  748MPD2    H511114   4.343   2.039   1.421 -0.4812  0.0418 -0.5569
  748MPD2    N111115   3.857   1.979   1.373  0.2323  0.3925  0.0325
  748MPD2    H711116   3.770   1.932   1.348  0.8093 -0.3445 -0.6098
  749TMC3    C111117   4.548   2.004   1.335 -1.3958  0.1731 -0.4402
  749TMC3    C211118   4.570   2.066   1.457  0.2265 -0.3915  0.4060
  749TMC3    C311119   4.671   2.152   1.461  0.1472 -0.4078  0.5791
  749TMC3    C411120   4.608   2.036   1.217  0.2783 -0.3808  0.5243
  749TMC3    C511121   4.700   2.136   1.224 -0.5326  0.4937 -0.0981
  749TMC3    C611122   0.000   2.192   1.346  0.5879 -0.3569 -0.9016
  749TMC3     C11123   4.456   1.893   1.345  0.1886 -0.3927  0.0731
  749TMC3     O11124   4.475   1.792   1.274  0.7871 -0.1330 -0.9898
  749TMC3     H11125   4.517   2.024   1.541 -0.1910  0.5773  0.6275
  749TMC3    H111126   4.565   1.995   1.127 -0.3718 -0.5918  0.9293
  749TMC3    H211127   0.083   2.262   1.344 -0.0617  0.3924 -1.7764
  749TMC3    C711128   0.014   2.207   1.104  0.4174 -0.0670 -0.5388
  749TMC3    C811129   0.001   2.183   1.582  0.5031  0.3195 -0.9348
  749TMC3    O111130   0.094   2.298   1.117  0.0369 -0.2850 -0.1842
  749TMC3    O211131   4.679   2.221   1.680 -0.3350 -0.1106 -0.2816
  750MPD2     C11132   4.249   2.834  11.363  0.2043 -0.9949 -0.3875
  750MPD2    C111133   4.196   2.726  11.430  0.7588 -0.3295  0.3552
  750MPD2    C211134   4.270   2.613  11.439 -1.0101 -0.5869  0.5910
  750MPD2    C311135   4.404   2.606  11.401  0.8868 -1.0562  0.0522
  750MPD2    C411136   4.465   2.713  11.336 -0.0297 -0.0715 -0.7473
  750MPD2    C511137   4.382   2.829  11.317  0.5470  0.0290 -0.0850
  750MPD2     H11138   4.231   2.523  11.486 -4.5462  0.3158 -0.6404
  750MPD2    H111139   4.566   2.719  11.299 -0.3420 -0.6643 -1.6946
  750MPD2    H211140   4.202   2.932  11.365 -2.2421 -2.1331 -1.7143
  750MPD2    H311141   4.427   2.910  11.261 -0.5330 -0.4514 -1.6599
  750MPD2     N11142   4.479   2.485  11.429  0.5152 -0.6729  0.2311
  750MPD2    H511143   4.430   2.426  11.496  1.5648 -3.1330 -1.1973
  750MPD2    N111144   4.077   2.748  11.496  0.3527  0.6233 -0.0308
  750MPD2    H711145   4.035   2.841  11.493  0.1666  0.4395 -2.6155
  751TMC3    C111146   4.647   2.326  11.429 -0.9391 -0.2315  0.4860
  751TMC3    C211147   4.610   2.263  11.542  0.1128 -0.0584  0.6425
  751TMC3    C311148   4.633   2.126  11.548  0.1882  0.0073 -0.3885
  751TMC3    C411149   4.698   2.266  11.322  0.0884 -0.6861 -0.0608
  751TMC3    C511150   4.712   2.129  11.323  0.0728  0.5022 -0.2352
  751TMC3    C611151   4.676   2.057  11.437 -0.3765  0.4596  0.2312
  751TMC3     C11152   4.615   2.462  11.407 -0.1254  1.1272 -0.2964
  751TMC3     O11153   4.697   2.525  11.341 -0.0903 -0.1316  0.3607
  751TMC3     H11154   4.554   2.315  11.619 -0.6906 -0.1289  0.1107
  751TMC3    H111155   4.705   2.322  11.230  0.2515  0.3806  0.6040
  751TMC3    H211156   4.703   1.953  11.451 -0.4795  0.4003  0.0028
  751TMC3    C711157   4.707   2.054  11.198  0.6070  0.8544  0.3365
  751TMC3    C811158   4.556   2.055  11.641  0.0682  0.1707 -0.4853
  751TMC3    O111159   0.023   1.943  11.196 -0.0933 -0.0680 -0.5335
  751TMC3    O211160   4.534   2.113  11.749 -0.0005 -0.2233  0.4345
  752TMC3    C111161   3.565   2.482  17.251  0.0662  0.0342  0.3807
  752TMC3    C211162   3.638   2.403  17.329 -0.4544 -0.8905  0.3634
  752TMC3    C311163   3.583   2.365  17.447  0.1958  0.1465  0.4975
  752TMC3    C411164   3.446   2.539  17.292 -0.0903  0.8080  0.4312
  752TMC3    C511165   3.393   2.502  17.413 -0.2370 -0.3881  0.8202
  752TMC3    C611166   3.459   2.409  17.484 -0.0161 -0.0471 -0.6139
  752TMC3     C11167   3.642   2.556  17.151 -0.9190 -0.0812 -0.0869
  752TMC3     O11168   3.761   2.577  17.174 -0.4525  0.3458 -0.4143
  752TMC3     H11169   3.729   2.352  17.300 -0.8372 -1.0788 -0.4765
  752TMC3    H111170   3.394   2.606  17.224 -0.8553 -1.0807 -0.8178
  752TMC3    H211171   3.418   2.364  17.573  0.4891 -0.7941 -0.7528
  752TMC3    C711172   3.273   2.555  17.455 -0.5210 -1.0345 -0.2801
  752TMC3    C811173   3.661   2.268  17.522 -0.1480  0.4431  0.3779
  752TMC3    O111174   3.216   2.623  17.369  0.6506  0.1438  0.1350
  752TMC3    O211175   3.779   2.249  17.496 -0.7549  0.5181  0.1798
  753TMC3    C111176   0.605   3.559  13.595 -0.5310  0.6236  0.2041
  753TMC3    C211177   0.612   3.532  13.729  0.9714  0.0771 -0.3270
  753TMC3    C311178   0.563   3.406  13.776  0.8524 -0.7492 -0.1960
  753TMC3    C411179   0.532   3.470  13.512 -0.8292 -0.1284 -0.0264
  753TMC3    C511180   0.480   3.352  13.566 -0.2640  0.2149 -0.4603
  753TMC3    C611181   0.493   3.321  13.699  0.3964 -0.8626 -0.1311
  753TMC3     C11182   0.628   3.697  13.547  0.5910 -0.2477  0.2780
  753TMC3     O11183   0.545   3.716  13.465 -0.6041 -0.4564  0.2489
  753TMC3     H11184   0.657   3.606  13.795  1.1748  1.2484 -1.8025
  753TMC3    H111185   0.530   3.487  13.405  0.1859 -1.2842 -0.2270
  753TMC3    H211186   0.445   3.234  13.741 -2.8554  0.9636 -0.0919
  753TMC3    C711187   0.423   3.260  13.468 -0.1026 -0.0187  0.8210
  753TMC3    C811188   0.587   3.366  13.910 -0.1157  0.1582 -0.5240
  753TMC3    O111189   0.399   3.312  13.360 -0.2306 -0.1044 -0.2519
  753TMC3    O211190   0.557   3.251  13.938  0.0674 -0.1558 -0.1048
  754MPD2     C11191   0.081   2.332  13.353  0.2819 -0.1379  0.0931
  754MPD2    C111192   0.095   2.198  13.336  0.2045  0.4840  0.6831
  754MPD2    C211193   4.721   2.134  13.280  0.2275 -0.0655  0.4456
  754MPD2    C311194   4.598   2.193  13.254  0.1805 -0.3672  0.0688
  754MPD2    C411195   4.588   2.325  13.288 -0.0904  0.4769  0.8612
  754MPD2    C511196   4.696   2.397  13.333 -0.4044 -0.1869 -0.7484
  754MPD2     H11197   4.727   2.031  13.249 -1.3331 -1.1467  3.6925
  754MPD2    H111198   4.493   2.377  13.282 -0.5171 -0.4330 -0.4707
  754MPD2    H211199   0.157   2.396  13.397  0.4657 -0.9335  0.9247
  754MPD2    H311200   4.680   2.501  13.359 -1.7394 -0.8736  1.1659
  754MPD2     N11201   4.480   2.121  13.219 -0.4323  0.4019  0.3136
  754MPD2    H511202   4.397   2.174  13.243 -0.7350  0.0628  0.0178
  754MPD2    N111203   0.218   2.132  13.364 -0.3199  0.0095 -0.1020
  754MPD2    H711204   0.294   2.193  13.391  0.5635 -1.7634  1.3703
  755MPD2     C11205   3.700   2.477  13.177  0.1409  0.3190 -0.1411
  755MPD2    C111206   3.644   2.352  13.202  0.8891  0.5864  0.2007
  755MPD2    C211207   3.738   2.252  13.208 -0.9961  0.2489  0.6939
  755MPD2    C311208   3.872   2.279  13.192  0.2985  0.3063 -0.4411
  755MPD2    C411209   3.918   2.400  13.152 -0.2119 -0.0274 -0.0760
  755MPD2    C511210   3.826   2.503  13.150 -0.0286  0.0858  0.8568
  755MPD2     H11211   3.712   2.151  13.238 -1.6077  0.2678  0.2285
  755MPD2    H111212   4.023   2.417  13.133  0.3095 -1.2904  1.6908
  755MPD2    H211213   3.647   2.572  13.178  0.9794  0.7930 -0.4963
  755MPD2    H311214   3.865   2.602  13.134 -2.2071  0.7126 -0.6788
  755MPD2     N11215   3.977   2.178  13.207  0.4390  0.8750 -0.6102
  755MPD2    H511216   4.069   2.214  13.187  1.5975 -0.8838  1.5622
  755MPD2    N111217   3.510   2.327  13.228  0.3455 -0.3664  0.2925
  755MPD2    H711218   3.489   2.234  13.261 -0.4522 -0.7615 -1.3366
  756MPD2     C11219   3.943   2.819   9.773  0.0813  0.1655 -0.3711
  756MPD2    C111220   3.864   2.718   9.831  0.0811  0.7155 -0.3943
  756MPD2    C211221   3.727   2.741   9.836  0.0641 -0.1563 -1.0916
  756MPD2    C311222   3.663   2.858   9.780  0.0996  0.1815 -0.1955
  756MPD2    C411223   3.750   2.952   9.729  0.4125 -0.0123  0.2252
  756MPD2    C511224   3.886   2.935   9.724  0.4363  0.3488  0.0676
  756MPD2     H11225   3.657   2.668   9.876  2.9638 -0.3398  3.5786
  756MPD2    H111226   3.719   3.045   9.684  1.7461  0.4329  0.2407
  756MPD2    H211227   4.051   2.811   9.764  0.2432 -2.4452  4.2446
  756MPD2    H311228   3.951   3.009   9.678 -0.5542  0.9045 -0.4270
  756MPD2     N11229   3.521   2.873   9.767 -0.3168 -0.0103  0.2432
  756MPD2    H511230   3.465   2.795   9.800 -1.3959  0.5368 -0.3003
  756MPD2    N111231   3.916   2.605   9.898  0.1682 -0.0220 -0.2162
  756MPD2    H711232   3.847   2.546   9.943  1.4858 -2.5616 -1.5132
  757MPD2     C11233   2.914   2.322  10.030  0.1189  0.0855  0.3203
  757MPD2    C111234   3.031   2.313   9.965 -0.0012 -0.1528  0.0145
  757MPD2    C211235   3.086   2.428   9.907  0.2934 -0.6159  0.7068
  757MPD2    C311236   3.016   2.549   9.918  0.6255  0.5337  0.0373
  757MPD2    C411237   2.893   2.553   9.976  0.2336  0.6456  0.4051
  757MPD2    C511238   2.838   2.441  10.033  0.9032  0.0670  0.5087
  757MPD2     H11239   3.177   2.423   9.849  0.8356 -1.1023  1.6066
  757MPD2    H111240   2.836   2.644   9.991 -1.6196 -0.1497 -1.8369
  757MPD2    H211241   2.867   2.236  10.078  3.5671 -1.1745  1.4958
  757MPD2    H311242   2.738   2.449  10.075  2.0094  3.6553  2.4426
  757MPD2     N11243   3.073   2.667   9.860  0.1330 -0.0207 -0.9332
  757MPD2    H511244   3.167   2.655   9.825  1.1062 -2.1920  2.3949
  757MPD2    N111245   3.073   2.183   9.940 -0.1454  0.7073  0.1319
  757MPD2    H711246   3.002   2.115   9.964  2.3909 -1.7399  0.7089
  758MPD2     C11247   4.475   1.723  15.960  0.2991 -0.6827 -0.1979
  758MPD2    C111248   4.576   1.711  16.055  0.5340 -0.3840  0.2033
  758MPD2    C211249   4.578   1.803  16.160  1.0188 -0.2359  0.0012
  758MPD2    C311250   4.473   1.897  16.180 -0.3898 -0.1565 -0.5966
  758MPD2    C411251   4.360   1.896  16.092  0.1328 -0.1068  0.0485
  758MPD2    C511252   4.366   1.807  15.983  0.0142  0.3396  0.4984
  758MPD2     H11253   4.655   1.793  16.234  0.4707 -2.1408  0.2981
  758MPD2    H111254   4.277   1.965  16.098  0.1263 -0.2912  2.3144
  758MPD2    H211255   4.476   1.655  15.876 -0.3706 -0.6717 -0.2157
  758MPD2    H311256   4.289   1.810  15.908  0.5004  0.7754  0.0174
  758MPD2     N11257   4.493   2.001  16.273 -0.1409 -0.2240 -0.0984
  758MPD2    H511258   4.409   2.049  16.301 -0.8472 -0.3008 -2.0638
  758MPD2    N111259   4.661   1.595  16.041  0.4663  0.1140  0.3583
  758MPD2    H711260   4.664   1.544  15.954 -0.9241  0.1314  0.3004
  759MPD2     C11261   2.760   0.125   9.802 -0.5407 -0.0730 -0.3173
  759MPD2    C111262   2.758   0.199   9.918  0.9151 -0.2613  0.1944
  759MPD2    C211263   2.857   0.297   9.923 -0.6080 -0.9496  0.3318
  759MPD2    C311264   2.948   0.326   9.823 -0.4009  0.3205  0.5764
  759MPD2    C411265   2.949   0.244   9.710  0.8474 -0.5597 -0.1700
  759MPD2    C511266   2.850   0.150   9.699  0.1217 -0.7749  0.3461
  759MPD2     H11267   2.864   0.361  10.011  1.8864 -0.6327 -0.0893
  759MPD2    H111268   3.017   0.263   9.627  0.4579  1.2472 -0.0591
  759MPD2    H211269   2.691   0.043   9.784 -0.3089 -0.0468 -1.3321
  759MPD2    H311270   2.841   0.094   9.606 -0.7040  0.5436 -0.3794
  759MPD2     N11271   3.022   0.445   9.842  0.4440 -0.2065 -0.3670
  759MPD2    H511272   2.994   0.504   9.919  1.1639  3.3357 -2.8543
  759MPD2    N111273   2.668   0.180  10.023  0.2014  0.2538  0.1487
  759MPD2    H711274   2.675   0.243  10.102  2.6791  0.8451 -0.5281
  760MPD2     C11275   2.757   2.396  12.001  0.0586  0.1211  0.0927
  760MPD2    C111276   2.878   2.457  12.016  0.0385 -0.4947 -0.9480
  760MPD2    C211277   2.987   2.388  12.074  0.0488 -0.3194  0.3681
  760MPD2    C311278   2.976   2.255  12.109  0.4140  0.5484  1.1272
  760MPD2    C411279   2.848   2.204  12.105  0.2191 -0.1605  0.2421
  760MPD2    C511280   2.746   2.269  12.048  0.0731  0.7186 -0.3740
  760MPD2     H11281   3.080   2.444  12.080  0.1729 -0.5917  1.0397
  760MPD2    H111282   2.812   2.107  12.136 -0.8406  0.8974  2.3448
  760MPD2    H211283   2.673   2.447  11.956  0.2324  0.4115  0.0964
  760MPD2    H311284   2.653   2.213  12.047  0.9097 -0.6993  1.0661
  760MPD2     N11285   3.079   2.188  12.178 -0.4685  0.3191 -0.1133
  760MPD2    H511286   3.054   2.105  12.231  0.8242  1.5303  2.3795
  760MPD2    N111287   2.898   2.593  11.988 -0.3678 -0.6951  0.3485
  760MPD2    H711288   2.986   2.635  12.017 -0.3754  0.1032 -0.7886
  761MPD2     C11289   4.229   1.687  11.794 -0.1344  0.0405  0.4767
  761MPD2    C111290   4.232   1.684  11.655  0.2630  0.2909 -0.0114
  761MPD2    C211291   4.309   1.784  11.593 -0.3337 -0.1607 -0.3339
  761MPD2    C311292   4.398   1.867  11.660  0.0598 -0.1556  0.0511
  761MPD2    C411293   4.393   1.868  11.794  0.0800 -0.1567  0.0524
  761MPD2    C511294   4.315   1.775  11.858  0.3445  0.4742 -0.3180
  761MPD2     H11295   4.307   1.792  11.485 -0.4180  0.4800 -0.2858
  761MPD2    H111296   4.469   1.918  11.853  1.2582  0.3973 -1.9457
  761MPD2    H211297   4.177   1.610  11.850  1.3592 -0.6450  0.9447
  761MPD2    H311298   4.316   1.772  11.966  0.0653  1.6397 -0.2871
  761MPD2     N11299   4.485   1.950  11.586 -0.0600  0.2265  0.7356
  761MPD2    H511300   4.486   1.933  11.486 -1.3966 -0.1188  0.7739
  761MPD2    N111301   4.161   1.590  11.578  0.2067 -0.3829  0.2861
  761MPD2    H711302   4.084   1.544  11.626  0.3595  0.3947  1.2755
  762MPD2     C11303   3.998   1.221  10.757  0.3815 -0.2795  0.0278
  762MPD2    C111304   4.104   1.240  10.842 -0.5436  0.1407 -0.0574
  762MPD2    C211305   4.228   1.286  10.800 -0.2031  0.1030 -0.0019
  762MPD2    C311306   4.237   1.299  10.666  0.9372 -0.2086  0.4250
  762MPD2    C411307   4.127   1.287  10.582  0.1580  0.0097 -0.2074
  762MPD2    C511308   4.003   1.247  10.629  0.1584 -1.1983  0.6051
  762MPD2     H11309   4.313   1.300  10.866 -1.6840  3.0567  1.2948
  762MPD2    H111310   4.143   1.286  10.474  1.3833  1.0787 -0.0345
  762MPD2    H211311   3.899   1.203  10.798  1.1321 -0.2490  1.8672
  762MPD2    H311312   3.910   1.234  10.573 -0.8235  0.7292  1.7913
  762MPD2     N11313   4.360   1.315  10.599  0.1156  0.2033  0.4645
  762MPD2    H511314   4.359   1.326  10.498 -0.3024 -1.0220  0.3456
  762MPD2    N111315   4.071   1.237  10.981  0.2713 -0.5337 -0.2663
  762MPD2    H711316   3.972   1.224  10.997  0.3884 -0.5079  0.4541
  763MPD2     C11317   2.176   1.485  16.028 -0.3053  0.5963  0.2251
  763MPD2    C111318   2.083   1.593  16.030 -0.4635 -0.4485 -0.0220
  763MPD2    C211319   2.085   1.672  16.147  0.1089 -0.0271 -0.2933
  763MPD2    C311320   2.174   1.644  16.252  0.1828 -0.2248 -0.2926
  763MPD2    C411321   2.267   1.544  16.246  0.4289  0.2954 -0.2486
  763MPD2    C511322   2.255   1.461  16.138 -0.2665  0.5328  0.0456
  763MPD2     H11323   2.014   1.753  16.152  0.0362 -0.1544  0.8331
  763MPD2    H111324   2.341   1.519  16.321 -0.5664 -1.4961  0.1464
  763MPD2    H211325   2.185   1.419  15.943 -0.6791  2.1176 -1.0038
  763MPD2    H311326   2.329   1.383  16.121 -0.8595  0.3242 -1.5432
  763MPD2     N11327   2.172   1.722  16.372  1.0391  0.2361 -0.7200
  763MPD2    H511328   2.229   1.680  16.446  1.1394 -1.5377 -1.7982
  763MPD2    N111329   2.005   1.626  15.922 -0.3527  0.1682  1.1063
  763MPD2    H711330   1.949   1.711  15.930  0.7691  1.1862 -1.8985
  764MPD2     C11331   4.360   3.566  17.465 -0.5815 -0.2400 -0.5826
  764MPD2    C111332   4.232   3.527  17.432  1.0045  0.3219  0.3891
  764MPD2    C211333   4.166   3.444  17.517  0.4122  0.8160 -0.5147
  764MPD2    C311334   4.227   3.373  17.621  0.7039 -0.2249  0.0053
  764MPD2    C411335   4.359   3.407  17.636  0.7345  0.2931  0.3217
  764MPD2    C511336   4.424   3.505  17.566  0.1220 -0.3784  0.1863
  764MPD2     H11337   4.065   3.421  17.488  0.4035 -0.9229  0.9001
  764MPD2    H111338   4.416   3.357  17.714  1.8235  0.7589 -0.1867
  764MPD2    H211339   4.417   3.637  17.406 -1.9567 -0.5421 -2.3110
  764MPD2    H311340   4.524   3.527  17.599  0.6767  0.7330 -2.2830
  764MPD2     N11341   4.151   3.302  17.714  0.6481 -0.4468  0.3599
  764MPD2    H511342   4.053   3.290  17.690  1.0552 -1.1653 -0.9312
  764MPD2    N111343   4.156   3.573  17.326  0.2284  0.1496 -0.0745
  764MPD2    H711344   4.061   3.537  17.319  0.4706 -0.8606  1.9099
  765MPD2     C11345   3.852   0.774  15.747  0.2116  0.1317 -0.3418
  765MPD2    C111346   3.956   0.869  15.728 -0.5415  0.3407 -0.6540
  765MPD2    C211347   4.086   0.830  15.741  0.1409 -0.1429  0.1405
  765MPD2    C311348   4.119   0.696  15.777  0.3649  0.6821 -0.1473
  765MPD2    C411349   4.015   0.613  15.800 -0.9923 -0.2305  0.2160
  765MPD2    C511350   3.885   0.644  15.782  0.4616  0.4279 -0.2679
  765MPD2     H11351   4.175   0.889  15.722  0.0014 -0.2441 -0.8548
  765MPD2    H111352   4.038   0.510  15.826  1.2101  0.7157  1.9530
  765MPD2    H211353   3.748   0.802  15.735 -0.0922 -1.4801 -1.4106
  765MPD2    H311354   3.805   0.573  15.803  0.8517 -0.0801 -0.4841
  765MPD2     N11355   4.257   0.672  15.797 -0.5834 -0.1183  0.0957
  765MPD2    H511356   4.317   0.752  15.778  1.0943 -2.0679 -2.6889
  765MPD2    N111357   3.925   0.998  15.669 -0.3592  0.0983  0.1243
  765MPD2    H711358   3.833   1.001  15.626  0.7254  0.3034 -2.1265
  766MPD2     C11359   3.638   1.184  15.066 -0.1541 -0.5403 -0.0049
  766MPD2    C111360   3.771   1.162  15.108 -0.9899 -1.1800  0.1614
  766MPD2    C211361   3.868   1.127  15.013 -0.2669 -0.2245  0.6268
  766MPD2    C311362   3.835   1.098  14.884  0.3778 -0.5172  0.0574
  766MPD2    C411363   3.703   1.120  14.847  0.2660 -0.0085 -0.7084
  766MPD2    C511364   3.611   1.170  14.934 -0.4323 -1.3458  0.5691
  766MPD2     H11365   3.970   1.120  15.049 -0.5287  0.3853  1.4674
  766MPD2    H111366   3.676   1.120  14.742 -2.3887 -1.4518 -0.0141
  766MPD2    H211367   3.565   1.238  15.126 -1.6620  1.8088 -3.9954
  766MPD2    H311368   3.510   1.192  14.900 -0.5609 -2.0502  0.5068
  766MPD2     N11369   3.930   1.069  14.781 -0.3035  0.3051  0.6805
  766MPD2    H511370   3.894   1.054  14.687  0.1274 -0.2581  0.6016
  766MPD2    N111371   3.805   1.201  15.238 -0.3133 -0.0273  0.6486
  766MPD2    H711372   3.895   1.168  15.270 -0.4138  0.8903  1.8664
  767MPD2     C11373   3.563   1.510  14.748 -0.4569 -0.4724 -0.7827
  767MPD2    C111374   3.695   1.474  14.762 -0.8909  0.6636 -0.1005
  767MPD2    C211375   3.758   1.409  14.657 -0.0249  0.2366 -0.5502
  767MPD2    C311376   3.684   1.377  14.542  0.1889  0.0594  0.2929
  767MPD2    C411377   3.557   1.424  14.531  0.5828 -0.3462 -1.0367
  767MPD2    C511378   3.495   1.488  14.638 -0.1726  0.5282  0.0895
  767MPD2     H11379   3.866   1.400  14.661 -0.1537 -0.7695  0.6801
  767MPD2    H111380   3.497   1.420  14.440  2.1739 -4.0304 -1.9130
  767MPD2    H211381   3.520   1.564  14.832 -0.7246 -1.1395 -0.4909
  767MPD2    H311382   3.393   1.521  14.629  0.7609  3.0438 -1.3329
  767MPD2     N11383   3.744   1.302  14.439 -0.5749 -0.7731  0.1413
  767MPD2    H511384   3.844   1.285  14.452 -1.2212 -3.8483  1.0391
  767MPD2    N111385   3.764   1.525  14.878 -0.4476  0.9045 -0.0605
  767MPD2    H711386   3.702   1.563  14.949 -0.5135 -1.4945  1.1415
  768MPD2     C11387   3.490   4.422  10.867  0.2704 -0.2719 -0.0781
  768MPD2    C111388   3.541   4.511  10.960  0.2569  0.1859  0.2564
  768MPD2    C211389   3.640   4.470  11.046  0.1879 -0.2571 -0.0002
  768MPD2    C311390   3.697   4.343  11.047  0.0174 -0.1389  0.1527
  768MPD2    C411391   3.658   4.260  10.944  0.2792 -0.0177 -0.1243
  768MPD2    C511392   3.557   4.297  10.856  0.5952 -0.2466 -0.4331
  768MPD2     H11393   3.679   4.554  11.103 -0.4930  1.4600 -2.0957
  768MPD2    H111394   3.697   4.160  10.934 -0.7422 -0.4551  0.3199
  768MPD2    H211395   3.413   4.436  10.793 -1.1031  1.7210  1.7564
  768MPD2    H311396   3.520   4.227  10.783 -1.8305  0.3887  0.1615
  768MPD2     N11397   3.802   4.305  11.130  0.7854  0.4651  0.0300
  768MPD2    H511398   3.860   4.226  11.102 -4.5049 -2.9205 -1.2489
  768MPD2    N111399   3.503   4.640  10.981  0.2686  0.3385  0.0263
  768MPD2    H711400   3.551   4.694  11.052 -1.5514  0.1672  1.3703
  769MPD2     C11401   0.699   3.167  14.800  1.0034 -0.2566  0.6725
  769MPD2    C111402   0.691   3.073  14.903  0.3378  0.1959  0.9501
  769MPD2    C211403   0.711   3.126  15.032  0.2402 -0.4280  0.1218
  769MPD2    C311404   0.756   3.252  15.051 -0.1619 -0.4469  0.0172
  769MPD2    C411405   0.783   3.331  14.941  0.1633 -0.1867  1.3935
  769MPD2    C511406   0.748   3.289  14.816 -0.5865 -0.4663 -0.8184
  769MPD2     H11407   0.698   3.071  15.124 -0.1187  1.2545  1.0786
  769MPD2    H111408   0.804   3.437  14.954 -2.6431  0.5676 -0.2247
  769MPD2    H211409   0.680   3.123  14.702  0.7731  0.9127  0.1985
  769MPD2    H311410   0.747   3.351  14.727  0.4033  2.8760  1.5172
  769MPD2     N11411   0.782   3.287  15.188 -0.2688  0.0551  0.0518
  769MPD2    H511412   0.738   3.232  15.262 -0.1349 -0.4078 -0.2093
  769MPD2    N111413   0.653   2.941  14.869 -0.4314  0.3376  0.1392
  769MPD2    H711414   0.644   2.919  14.771 -3.3776 -1.4070  0.7987
  770MPD2     C11415   0.806   1.901  14.959 -0.7892 -0.9355 -0.5685
  770MPD2    C111416   0.676   1.912  14.920  0.0619 -0.1780  0.3296
  770MPD2    C211417   0.632   2.030  14.865 -0.1226  0.7618  0.2919
  770MPD2    C311418   0.718   2.138  14.852  0.3148  0.2700  0.3511
  770MPD2    C411419   0.855   2.121  14.875 -0.0297  0.0559  0.0010
  770MPD2    C511420   0.895   2.005  14.936 -0.2624  0.5317 -0.1368
  770MPD2     H11421   0.526   2.035  14.841  0.3754 -0.2384 -2.0821
  770MPD2    H111422   0.932   2.191  14.845 -0.3117 -0.1103 -1.0962
  770MPD2    H211423   0.851   1.813  15.003  0.6305  0.0376 -0.0946
  770MPD2    H311424   0.994   1.989  14.976 -1.0983  0.9239  2.0689
  770MPD2     N11425   0.667   2.262  14.820  0.1345  0.1812  0.1199
  770MPD2    H511426   0.567   2.266  14.805  0.2494 -0.1002 -0.7561
  770MPD2    N111427   0.586   1.803  14.945  0.6126 -0.3695  0.5010
  770MPD2    H711428   0.629   1.726  14.995  0.0329 -2.7462 -2.6626
  771MPD2     C11429   1.759   0.943  13.609  0.4543  0.5445  0.1482
  771MPD2    C111430   1.659   1.036  13.583 -0.0364 -0.7510  0.0967
  771MPD2    C211431   1.549   1.000  13.522  0.4290  1.1787 -0.8533
  771MPD2    C311432   1.513   0.871  13.487  0.2194 -0.5953  0.7930
  771MPD2    C411433   1.614   0.775  13.508 -0.3633 -0.0759 -0.2904
  771MPD2    C511434   1.738   0.814  13.567 -0.5635 -1.0694  0.0679
  771MPD2     H11435   1.472   1.076  13.510 -3.0289 -1.6851  3.0566
  771MPD2    H111436   1.596   0.672  13.480 -1.9060 -0.3952  1.8645
  771MPD2    H211437   1.856   0.971  13.648  0.2936  1.9221 -0.4151
  771MPD2    H311438   1.813   0.743  13.598  0.3048 -0.1381  0.0833
  771MPD2     N11439   1.381   0.854  13.451 -0.5600  0.3739  0.3326
  771MPD2    H511440   1.318   0.934  13.450 -1.7137 -0.5155  1.6954
  771MPD2    N111441   1.677   1.177  13.601 -0.0790 -0.3531 -0.1496
  771MPD2    H711442   1.593   1.229  13.574  0.3521  0.2746 -0.2725
  772MPD2     C11443   1.191   1.690  13.770  0.0290  0.3617 -0.3371
  772MPD2    C111444   1.258   1.568  13.792 -0.3288  0.0213  0.5799
  772MPD2    C211445   1.181   1.459  13.838 -0.5711 -1.0280  0.3687
  772MPD2    C311446   1.046   1.464  13.865  0.4841  0.6671  0.3941
  772MPD2    C411447   0.986   1.585  13.851  0.4453 -0.2336 -0.2587
  772MPD2    C511448   1.057   1.695  13.799  0.4758  0.4045 -0.7318
  772MPD2     H11449   1.230   1.363  13.849 -0.2045 -0.4765  3.6870
  772MPD2    H111450   0.880   1.583  13.873  0.5014  0.9303  0.1163
  772MPD2    H211451   1.238   1.778  13.728 -0.4882  1.6754  1.8455
  772MPD2    H311452   0.999   1.781  13.769  0.8649  0.6218 -0.8678
  772MPD2     N11453   0.974   1.359  13.927  0.4021  0.3344 -0.0441
  772MPD2    H511454   0.876   1.380  13.942  0.2796  1.2255 -2.1104
  772MPD2    N111455   1.391   1.544  13.763  0.0418 -0.2920 -0.3106
  772MPD2    H711456   1.420   1.452  13.791  1.2633 -0.5603 -2.5023
  773MPD2     C11457   0.382   2.440   0.680 -0.1418  0.2111 -0.4726
  773MPD2    C111458   0.378   2.340   0.580  0.0026 -0.6720  0.6831
  773MPD2    C211459   0.458   2.233   0.583 -0.6269 -0.0719 -0.1120
  773MPD2    C311460   0.553   2.220   0.679  0.2686 -0.2970 -0.3232
  773MPD2    C411461   0.572   2.327   0.759  0.2380  0.3753  0.3983
  773MPD2    C511462   0.480   2.431   0.775  0.0327  0.1553  0.3681
  773MPD2     H11463   0.451   2.146   0.519 -2.5071  0.8570 -1.1756
  773MPD2    H111464   0.651   2.322   0.833  0.2923 -1.1169  0.2349
  773MPD2    H211465   0.309   2.519   0.688 -0.5141 -0.2587  0.7276
  773MPD2    H311466   0.489   2.504   0.856  0.5585 -2.1767  2.4132
  773MPD2     N11467   0.639   2.105   0.680  0.1833 -0.4974  0.1541
  773MPD2    H511468   0.608   2.029   0.620 -2.2182 -0.4066  1.2993
  773MPD2    N111469   0.283   2.348   0.480 -0.4127  0.9878 -0.2523
  773MPD2    H711470   0.262   2.263   0.429 -2.1798  2.2403 -1.6317
  774MPD2     C11471   0.379   1.082  13.300 -0.5519  0.1101  0.2675
  774MPD2    C111472   0.244   1.086  13.338  1.0045 -0.2475 -0.1526
  774MPD2    C211473   0.175   1.205  13.325 -1.1126 -0.0462  0.4786
  774MPD2    C311474   0.240   1.317  13.279 -0.5740 -0.0456 -0.1677
  774MPD2    C411475   0.371   1.313  13.252 -0.0528 -1.0099 -1.0156
  774MPD2    C511476   0.440   1.193  13.254  0.3535 -0.1778  0.0202
  774MPD2     H11477   0.067   1.204  13.332 -1.0535 -3.4706  0.9412
  774MPD2    H111478   0.430   1.395  13.214  0.6601 -1.2177 -0.3513
  774MPD2    H211479   0.436   0.990  13.304 -2.3039 -1.0293 -1.1514
  774MPD2    H311480   0.545   1.189  13.226  0.3021 -0.5523 -0.1148
  774MPD2     N11481   0.168   1.438  13.278 -0.4988  0.2691  0.4178
  774MPD2    H511482   0.072   1.428  13.309 -1.0378 -1.7981 -1.9221
  774MPD2    N111483   0.197   0.967  13.387  0.1976 -0.1433 -0.2500
  774MPD2    H711484   0.273   0.902  13.407  1.7219  1.6956 -0.0815
  775MPD2     C11485   0.985   3.074  15.497 -0.0600 -0.4630 -0.6645
  775MPD2    C111486   1.036   3.144  15.608 -0.3450 -0.2899 -0.0260
  775MPD2    C211487   1.166   3.206  15.596  0.5644  0.7122  0.1603
  775MPD2    C311488   1.237   3.192  15.478 -0.2255  0.7019  0.2930
  775MPD2    C411489   1.192   3.111  15.380  0.0604  0.3510  0.6845
  775MPD2    C511490   1.069   3.050  15.390  0.2391 -0.1182 -0.3702
  775MPD2     H11491   1.206   3.263  15.679  0.2090  0.9916  0.1356
  775MPD2    H111492   1.241   3.082  15.288 -0.6347 -0.3679  0.5418
  775MPD2    H211493   0.882   3.040  15.497 -0.0329 -0.5481  0.1575
  775MPD2    H311494   1.038   3.006  15.296 -1.5547 -1.3362  0.7932
  775MPD2     N11495   1.367   3.240  15.463  0.7708  0.3111 -0.0121
  775MPD2    H511496   1.407   3.218  15.373  1.9116  0.3679  0.4832
  775MPD2    N111497   0.949   3.152  15.716  0.0187 -0.6357 -0.2108
  775MPD2    H711498   0.867   3.094  15.714 -2.0875  2.3470 -0.1574
  776MPD2     C11499   3.517   3.206  11.464  0.4037 -0.3742 -0.3513
  776MPD2    C111500   3.656   3.187  11.467 -0.1936 -0.4047 -0.1032
  776MPD2    C211501   3.734   3.269  11.395 -0.0636 -0.4684 -0.5519
  776MPD2    C311502   3.683   3.377  11.321 -0.0444 -0.3973  0.0503
  776MPD2    C411503   3.544   3.398  11.326 -0.7022 -0.6322 -1.0922
  776MPD2    C511504   3.464   3.316  11.402 -0.3232  0.4355  0.3601
  776MPD2     H11505   3.841   3.265  11.413 -0.0861 -0.1958 -0.3565
  776MPD2    H111506   3.493   3.485  11.285  2.4480  1.1073 -1.3524
  776MPD2    H211507   3.452   3.141  11.522 -0.3522  0.6498 -0.0276
  776MPD2    H311508   3.358   3.327  11.387 -0.6660  0.0743  2.6232
  776MPD2     N11509   3.762   3.469  11.248  0.2892  0.4899 -0.1965
  776MPD2    H511510   3.721   3.552  11.208  0.4557  0.8752  0.4343
  776MPD2    N111511   3.719   3.083  11.538  0.2958  0.9907 -0.2343
  776MPD2    H711512   3.819   3.067  11.530  0.7190  2.2092  2.9058
  777MPD2     C11513   1.084   1.371   1.231  1.0436 -0.5156 -0.6094
  777MPD2    C111514   0.958   1.384   1.274 -0.2726  0.2756 -0.4347
  777MPD2    C211515   0.866   1.281   1.237  1.0009 -0.1845  0.4912
  777MPD2    C311516   0.899   1.180   1.148 -0.3671  0.1838 -0.1992
  777MPD2    C411517   1.028   1.176   1.103  0.7114  0.0989  0.3040
  777MPD2    C511518   1.116   1.272   1.145 -0.1822 -0.0501  0.2227
  777MPD2     H11519   0.764   1.289   1.271  0.4900 -1.0184 -0.8504
  777MPD2    H111520   1.074   1.090   1.055  0.0084 -0.0236 -0.1345
  777MPD2    H211521   1.157   1.441   1.271  0.2571  1.6569 -2.9586
  777MPD2    H311522   1.215   1.249   1.107 -0.2589  1.5397 -0.9268
  777MPD2     N11523   0.816   1.071   1.130 -0.1412  0.0581  0.2618
  777MPD2    H511524   0.721   1.078   1.166 -0.1751 -1.2895  0.4453
  777MPD2    N111525   0.932   1.487   1.358 -0.7263  0.3288  0.1748
  777MPD2    H711526   1.011   1.547   1.382 -0.7554 -0.5428  2.4607
  778MPD2     C11527   1.848   1.058  14.664 -0.1381  0.7563  0.3537
  778MPD2    C111528   1.859   0.927  14.616 -0.4308 -0.2962  0.2872
  778MPD2    C211529   1.941   0.904  14.507 -0.0158 -0.3716 -0.2696
  778MPD2    C311530   2.018   1.002  14.452 -0.4743 -1.6702  0.4793
  778MPD2    C411531   2.021   1.127  14.514  0.2372  0.1276  0.8721
  778MPD2    C511532   1.927   1.156  14.615  0.2267 -0.4685  0.4531
  778MPD2     H11533   1.949   0.803  14.467  4.3274 -0.2058  0.1363
  778MPD2    H111534   2.094   1.207  14.505 -0.5522  0.4794 -2.2682
  778MPD2    H211535   1.794   1.080  14.756  0.0538  1.4268  0.3055
  778MPD2    H311536   1.924   1.253  14.663  1.4694 -0.2815  0.1724
  778MPD2     N11537   2.113   0.963  14.355 -0.6233 -0.0082  0.2169
  778MPD2    H511538   2.138   0.865  14.343 -0.0285  0.5209 -2.7805
  778MPD2    N111539   1.776   0.822  14.661  0.5891 -0.0272  0.1021
  778MPD2    H711540   1.788   0.730  14.619  3.4987  0.8009 -0.8073
  779MPD2     C11541   1.005   4.370  14.276 -0.0838 -0.3240 -0.2242
  779MPD2    C111542   1.110   4.336  14.362 -0.1962 -0.2779 -0.2690
  779MPD2    C211543   1.220   4.419  14.355  0.6575 -1.0242 -0.2769
  779MPD2    C311544   1.237   4.526  14.265 -0.6021  0.5031 -0.3362
  779MPD2    C411545   1.129   4.549  14.180  0.5545 -0.2758 -0.0448
  779MPD2    C511546   1.016   4.476  14.194  0.1481  0.2467  0.4977
  779MPD2     H11547   1.309   4.405  14.415  0.0555 -0.9771  0.6265
  779MPD2    H111548   1.130   4.622  14.100 -3.2457  0.8614  0.9415
  779MPD2    H211549   0.911   4.315  14.274  1.1888 -2.6128  3.4211
  779MPD2    H311550   0.933   4.494  14.128  1.4580 -0.4419 -1.3448
  779MPD2     N11551   1.355   4.600  14.255 -0.7220  0.0020  0.1166
  779MPD2    H511552   1.424   4.577  14.326 -0.2070  0.3859 -0.2604
  779MPD2    N111553   1.115   4.218  14.446  0.0885 -0.9583  0.2304
  779MPD2    H711554   1.201   4.203  14.498  1.2225 -0.2009 -1.4408
  780MPD2     C11555   4.691   4.429   0.171  0.8657 -0.9661  0.3681
  780MPD2    C111556   0.056   4.427   0.262 -0.2206 -0.0690 -0.2887
  780MPD2    C211557   0.188   4.429   0.220 -0.9406  0.1942  0.2718
  780MPD2    C311558   0.217   4.413   0.082  0.0037  0.0952 -0.1764
  780MPD2    C411559   0.111   4.406  17.726 -0.1050  0.5166 -0.1690
  780MPD2    C511560   4.714   4.418   0.036  0.6818 -0.1822  0.0254
  780MPD2     H11561   0.267   4.439   0.294 -1.0351  0.0059  0.4004
  780MPD2    H111562   0.140   4.411  17.622  2.3317 -1.9781  0.3703
  780MPD2    H211563   4.587   4.433   0.201 -0.0370 -1.8039 -2.6944
  780MPD2    H311564   4.627   4.419  17.710 -0.4301  0.7177  1.5203
  780MPD2     N11565   0.353   4.406   0.049  0.1173 -0.1146 -0.1927
  780MPD2    H511566   0.424   4.414   0.120 -0.3057 -0.7513  0.3037
  780MPD2    N111567   0.022   4.443   0.397  0.2788  0.6741  0.5894
  780MPD2    H711568   4.658   4.443   0.419 -0.1443  2.2864 -1.3689
  781MPD2     C11569   2.256   1.727  11.765 -0.1321  0.5843  0.5542
  781MPD2    C111570   2.374   1.691  11.838 -0.2170 -0.9719 -0.4013
  781MPD2    C211571   2.493   1.722  11.782 -0.0133  0.2370 -0.7462
  781MPD2    C311572   2.510   1.756  11.646  0.2059  1.0392  0.0147
  781MPD2    C411573   2.390   1.792  11.576  0.5572  0.3658 -0.1565
  781MPD2    C511574   2.266   1.776  11.641  0.6849 -0.7949 -0.1739
  781MPD2     H11575   2.585   1.699  11.835 -0.5109 -1.5268 -0.6607
  781MPD2    H111576   2.387   1.821  11.471  3.0845  0.7563 -0.1162
  781MPD2    H211577   2.157   1.721  11.808 -0.3586 -2.8306 -0.4544
  781MPD2    H311578   2.186   1.808  11.575  0.4271 -0.9168  0.0847
  781MPD2     N11579   2.631   1.754  11.576 -0.4922 -0.1158 -0.0819
  781MPD2    H511580   2.622   1.780  11.479  2.0450  0.5761 -0.1461
  781MPD2    N111581   2.378   1.661  11.976 -0.2247  0.3985 -0.0001
  781MPD2    H711582   2.472   1.659  12.015 -1.4249  0.3906  2.9313
  782MPD2     C11583   0.675   1.977  10.197  0.8112 -0.1814  0.5671
  782MPD2    C111584   0.605   1.994  10.318 -0.4774  0.0548  0.2817
  782MPD2    C211585   0.615   2.114  10.381  0.1322 -0.2440  0.8570
  782MPD2    C311586   0.690   2.218  10.337  0.6016 -0.2786 -0.5906
  782MPD2    C411587   0.776   2.187  10.232  1.0289 -0.3642 -0.8951
  782MPD2    C511588   0.760   2.072  10.154 -0.5375  0.0442 -0.3910
  782MPD2     H11589   0.569   2.116  10.479 -0.0070 -0.2558  0.7926
  782MPD2    H111590   0.846   2.257  10.188 -0.1353  1.5216  0.2830
  782MPD2    H211591   0.673   1.883  10.142 -0.9519  0.0515  0.2552
  782MPD2    H311592   0.816   2.057  10.062 -0.3428 -1.2762 -0.0535
  782MPD2     N11593   0.686   2.341  10.407  0.3843  0.6124  0.0485
  782MPD2    H511594   0.633   2.332  10.494 -0.4546  0.1869 -0.5017
  782MPD2    N111595   0.517   1.897  10.374 -0.1266  0.2052  0.1007
  782MPD2    H711596   0.474   1.924  10.462  1.7172  0.3045  0.9731
  783MPD2     C11597   4.525   2.118  10.894  0.7451 -0.2477  0.4460
  783MPD2    C111598   4.627   2.072  10.975  0.3129 -0.6384  0.1375
  783MPD2    C211599   4.735   1.994  10.927  0.1641 -0.2461  0.3739
  783MPD2    C311600   0.003   1.975  10.789 -0.4165  0.1457 -0.1049
  783MPD2    C411601   4.635   2.018  10.711  0.2599  0.1211 -0.1454
  783MPD2    C511602   4.530   2.091  10.764  0.0454 -1.0975 -0.5005
  783MPD2     H11603   0.096   1.970  10.970 -0.3211  0.1254  1.6669
  783MPD2    H111604   4.624   1.986  10.608  2.8941 -1.0312 -0.0582
  783MPD2    H211605   4.455   2.190  10.935  1.9593  0.9864  0.3385
  783MPD2    H311606   4.447   2.127  10.704  0.5819  0.9924 -0.0106
  783MPD2     N11607   0.121   1.909  10.732 -0.1970 -0.5071  0.0686
  783MPD2    H511608   0.204   1.899  10.791 -0.0487 -1.1147 -0.2518
  783MPD2    N111609   4.629   2.116  11.100 -0.3632 -0.6399 -0.5652
  783MPD2    H711610   4.557   2.182  11.127  0.6152 -0.2948  1.2294
  784MPD2     C11611   3.271   2.812   0.768  0.4422 -0.7517  0.4629
  784MPD2    C111612   3.284   2.945   0.784 -0.6412 -0.0385  0.1681
  784MPD2    C211613   3.175   3.022   0.747  0.3010  0.0145  0.0137
  784MPD2    C311614   3.064   2.969   0.690  0.5608  0.3979 -0.6058
  784MPD2    C411615   3.044   2.837   0.681 -0.3455  0.0319 -0.2824
  784MPD2    C511616   3.157   2.767   0.716 -0.0422  0.0061  0.5455
  784MPD2     H11617   3.176   3.130   0.760 -2.2604 -0.2160  2.0628
  784MPD2    H111618   2.958   2.785   0.640  0.0758  0.9538 -2.3464
  784MPD2    H211619   3.347   2.740   0.797 -0.2408 -1.8146 -0.3768
  784MPD2    H311620   3.149   2.659   0.710  2.2044 -0.2023  1.1651
  784MPD2     N11621   2.965   3.064   0.651 -0.6491  0.2300  0.8518
  784MPD2    H511622   3.004   3.154   0.625 -1.7727  0.9360  1.6392
  784MPD2    N111623   3.403   3.002   0.839 -0.7651 -0.3925  0.0818
  784MPD2    H711624   3.397   3.101   0.862  1.7256  0.0836 -1.2437
  785MPD2     C11625   2.950   1.266  10.394  0.3475 -0.1482  0.5548
  785MPD2    C111626   2.942   1.222  10.526 -0.0107 -0.0960  0.0944
  785MPD2    C211627   2.899   1.092  10.550 -0.5524 -0.6466 -0.0807
  785MPD2    C311628   2.875   1.003  10.447  0.7107 -0.4296 -0.4752
  785MPD2    C411629   2.879   1.049  10.316 -0.4432 -0.0818 -0.2793
  785MPD2    C511630   2.927   1.177  10.293  0.1587  0.7855 -0.3837
  785MPD2     H11631   2.866   1.057  10.647  1.3646  2.4180  1.6340
  785MPD2    H111632   2.852   0.987  10.231 -0.9443  0.3258 -0.4212
  785MPD2    H211633   3.000   1.357  10.361 -0.2261 -0.2381 -0.5449
  785MPD2    H311634   2.949   1.214  10.193 -2.8621  2.0658 -0.5745
  785MPD2     N11635   2.837   0.872  10.491  0.1145 -0.0722  0.1209
  785MPD2    H511636   2.831   0.860  10.591 -1.8970 -0.5932 -0.0547
  785MPD2    N111637   2.984   1.316  10.630  0.3234 -0.2616 -0.0477
  785MPD2    H711638   3.012   1.411  10.606  2.9109 -0.3943  2.5011
  786MPD2     C11639   1.685   3.609  15.092  0.2817 -0.2596 -0.8847
  786MPD2    C111640   1.796   3.529  15.054  0.7798  0.1140 -0.1798
  786MPD2    C211641   1.913   3.524  15.125 -0.5001 -0.6572  0.5237
  786MPD2    C311642   1.934   3.608  15.235 -0.1362  0.6320 -0.2935
  786MPD2    C411643   1.822   3.672  15.282 -0.1573 -0.0614 -0.4047
  786MPD2    C511644   1.695   3.675  15.219 -0.8417 -0.1099  0.3585
  786MPD2     H11645   2.001   3.481  15.078 -0.1549  0.5633  0.0687
  786MPD2    H111646   1.841   3.732  15.369 -1.9842  0.4253 -0.3389
  786MPD2    H211647   1.594   3.621  15.034 -0.3372 -1.0119 -0.0716
  786MPD2    H311648   1.608   3.731  15.250 -1.6540 -1.3009  0.2026
  786MPD2     N11649   2.053   3.613  15.311  0.8018  0.6763  0.0721
  786MPD2    H511650   2.050   3.681  15.387 -1.3615  1.9924 -1.2246
  786MPD2    N111651   1.790   3.448  14.931 -0.1253  0.0437  0.1435
  786MPD2    H711652   1.874   3.393  14.916  0.0468  0.6126 -0.9441
  787MPD2     C11653   2.299   3.157  14.676 -0.4674 -0.3896 -0.1963
  787MPD2    C111654   2.215   3.178  14.575 -0.2641  0.1987  0.2423
  787MPD2    C211655   2.260   3.163  14.442  0.5711 -0.1397  0.2626
  787MPD2    C311656   2.388   3.125  14.416 -0.2479 -0.3465  0.4106
  787MPD2    C411657   2.470   3.096  14.525  0.1061 -0.0314 -0.2509
  787MPD2    C511658   2.425   3.115  14.651  0.6962 -0.1247 -0.5437
  787MPD2     H11659   2.192   3.185  14.360 -0.8550  1.0597  1.7691
  787MPD2    H111660   2.574   3.068  14.521  1.0991  3.5397  0.2367
  787MPD2    H211661   2.270   3.169  14.780 -2.3587  0.7246 -0.8671
  787MPD2    H311662   2.503   3.097  14.725 -0.7404  1.3795  1.3362
  787MPD2     N11663   2.433   3.123  14.287  0.6280  0.2640 -0.7174
  787MPD2    H511664   2.373   3.162  14.215 -0.6183  1.7323  1.1431
  787MPD2    N111665   2.082   3.222  14.603 -0.1400  0.7318  0.5334
  787MPD2    H711666   2.064   3.234  14.702 -0.2099 -0.1986  0.6391
  788MPD2     C11667   4.083   2.693   0.961 -0.4358  0.6735 -0.4416
  788MPD2    C111668   4.106   2.603   0.858 -0.0078  0.4262 -0.3909
  788MPD2    C211669   4.074   2.645   0.730  0.1137 -0.5559 -0.6493
  788MPD2    C311670   4.023   2.766   0.705 -0.4180 -0.5834  0.1871
  788MPD2    C411671   3.994   2.851   0.812  0.2364  0.0582 -0.1265
  788MPD2    C511672   4.028   2.816   0.937 -0.4090 -0.3799  0.0922
  788MPD2     H11673   4.108   2.580   0.650  0.1690 -0.3795 -0.7701
  788MPD2    H111674   3.949   2.949   0.797 -1.0524 -0.6474 -0.8518
  788MPD2    H211675   4.120   2.679   1.061  1.0679  3.0470 -0.6675
  788MPD2    H311676   4.013   2.887   1.017  2.2711  0.3573 -0.0554
  788MPD2     N11677   3.996   2.811   0.576  0.9036  0.2360 -0.0832
  788MPD2    H511678   3.967   2.909   0.576  0.6324  0.1577  1.2701
  788MPD2    N111679   4.170   2.478   0.887  0.3923  0.1161  0.2011
  788MPD2    H711680   4.197   2.434   0.800  0.7012  0.0343  0.3376
  789MPD2     C11681   4.461   1.895  16.851 -0.1144  0.1146 -0.3430
  789MPD2    C111682   4.365   1.884  16.748  0.6569  0.5481 -0.4541
  789MPD2    C211683   4.254   1.963  16.752  0.3509  1.0456 -0.0233
  789MPD2    C311684   4.217   2.032  16.860  0.4030  0.0297 -0.0977
  789MPD2    C411685   4.308   2.040  16.964  0.1174 -0.0794 -0.2734
  789MPD2    C511686   4.431   1.982  16.953  0.2354 -0.1367  0.3294
  789MPD2     H11687   4.184   1.955  16.670  0.1429  3.0339 -0.0382
  789MPD2    H111688   4.290   2.106  17.048  1.3778 -0.5782  0.3980
  789MPD2    H211689   4.562   1.855  16.846 -0.2786 -0.3967  0.6413
  789MPD2    H311690   4.511   2.013  17.019  0.1094  0.7980  0.0474
  789MPD2     N11691   4.097   2.109  16.869 -0.0893  0.3903 -0.0956
  789MPD2    H511692   4.079   2.157  16.957 -2.2925 -1.2160  0.3248
  789MPD2    N111693   4.387   1.798  16.639  0.0655  0.1513 -0.2726
  789MPD2    H711694   4.314   1.789  16.569  0.8391 -0.8339 -0.9736
  790MPD2     C11695   4.734   3.400  13.806  0.1038 -0.8567  0.1577
  790MPD2    C111696   0.066   3.287  13.774 -0.0773 -0.2824  0.1496
  790MPD2    C211697   0.066   3.232  13.649  0.0825  0.5616  0.0714
  790MPD2    C311698   0.019   3.310  13.547  0.1736  0.3484  0.2767
  790MPD2    C411699   4.693   3.431  13.576  0.6576 -0.3706  0.1753
  790MPD2    C511700   4.683   3.471  13.707 -0.6744  0.1128  0.1300
  790MPD2     H11701   0.116   3.138  13.629  1.1617  1.4607 -1.4140
  790MPD2    H111702   4.639   3.483  13.498  0.1586 -1.5960 -0.3083
  790MPD2    H211703   4.712   3.438  13.905 -0.7951 -1.5145  0.2146
  790MPD2    H311704   4.617   3.553  13.731 -1.1191 -0.1689 -0.1261
  790MPD2     N11705   0.002   3.248  13.418 -0.0775 -0.6495 -0.3667
  790MPD2    H511706   0.010   3.147  13.418  1.0990 -0.5524 -0.8185
  790MPD2    N111707   0.118   3.220  13.888 -0.4979  0.4347 -0.0840
  790MPD2    H711708   0.108   3.264  13.979 -2.3752 -0.7202  0.2651
  791MPD2     C11709   4.310   3.164  12.797  0.0291  0.9172  0.2004
  791MPD2    C111710   4.356   3.069  12.885 -0.6969  0.3434 -0.2382
  791MPD2    C211711   4.275   2.958  12.904 -0.3428  0.3015  0.3330
  791MPD2    C311712   4.155   2.945  12.834  0.6729  0.4560 -0.0369
  791MPD2    C411713   4.116   3.035  12.734 -0.0090 -0.7133 -0.3999
  791MPD2    C511714   4.199   3.151  12.725 -1.3370 -0.0614 -0.7485
  791MPD2     H11715   4.296   2.880  12.976 -0.3137  0.6019  0.6521
  791MPD2    H111716   4.036   3.030  12.661 -0.2920  0.1337 -0.1483
  791MPD2    H211717   4.367   3.254  12.774  1.9883 -1.1173 -2.8495
  791MPD2    H311718   4.182   3.217  12.640 -0.1016  2.8713  1.2968
  791MPD2     N11719   4.071   2.837  12.868 -0.0034 -0.1243 -0.3448
  791MPD2    H511720   4.102   2.779  12.945  1.2401  0.6950 -0.2338
  791MPD2    N111721   4.483   3.092  12.942 -0.7684 -0.0715 -0.0434
  791MPD2    H711722   4.525   3.181  12.918 -0.2627 -0.5637 -0.9775
  792MPD2     C11723   0.124   3.060  11.460 -0.4007 -0.0824  0.0414
  792MPD2    C111724   0.167   3.075  11.326  0.8097 -1.3905 -0.7324
  792MPD2    C211725   0.167   2.963  11.242  0.3120  0.3605  0.9300
  792MPD2    C311726   0.105   2.846  11.285 -0.3538  0.1563  0.3807
  792MPD2    C411727   0.076   2.837  11.412  0.3224  0.0060  0.7500
  792MPD2    C511728   0.087   2.937  11.501  0.4355  0.4830  0.3404
  792MPD2     H11729   0.192   2.970  11.137  1.0062 -1.7779  0.9493
  792MPD2    H111730   0.027   2.744  11.441 -0.7792  0.0682 -0.9271
  792MPD2    H211731   0.119   3.141  11.532 -0.1387 -0.2014  0.1929
  792MPD2    H311732   0.050   2.919  11.601  1.1106  0.9445  0.6739
  792MPD2     N11733   0.069   2.734  11.198 -0.4656 -0.7124 -0.1336
  792MPD2    H511734   0.034   2.648  11.238  1.4400 -1.5820 -0.3388
  792MPD2    N111735   0.209   3.204  11.277  0.5945  0.1703  0.2330
  792MPD2    H711736   0.225   3.280  11.342 -2.0866 -0.6179  1.8072
  793MPD2     C11737   4.041   2.437  10.623 -0.5511 -0.9352  0.8567
  793MPD2    C111738   4.152   2.429  10.539  0.0918  0.0124 -0.4252
  793MPD2    C211739   4.279   2.418  10.590 -0.5469 -0.5110  0.4345
  793MPD2    C311740   4.310   2.432  10.725 -0.1068 -0.2941 -0.5719
  793MPD2    C411741   4.200   2.429  10.809 -0.0016  0.1257  0.2081
  793MPD2    C511742   4.072   2.431  10.758 -0.5071 -1.0682 -0.4182
  793MPD2     H11743   4.362   2.417  10.520 -1.0477  1.9656 -0.2136
  793MPD2    H111744   4.206   2.431  10.917  2.2842 -0.0149  0.0796
  793MPD2    H211745   3.939   2.458  10.591  0.1147 -1.5779 -1.7317
  793MPD2    H311746   3.991   2.423  10.830 -1.5626 -0.1450 -1.5027
  793MPD2     N11747   4.440   2.443  10.781 -0.3047 -0.5559  0.2439
  793MPD2    H511748   4.513   2.432  10.711 -2.1098  1.8893 -2.0064
  793MPD2    N111749   4.137   2.414  10.402  0.0336 -0.2429 -0.2369
  793MPD2    H711750   4.222   2.399  10.348 -1.0729 -1.6157 -1.5862
  794MPD2     C11751   4.541   2.839  17.674 -0.4944  0.0209  0.2083
  794MPD2    C111752   4.624   2.763  17.601  0.0422  0.7416 -0.6691
  794MPD2    C211753   4.631   2.776  17.458 -0.5807  0.1726  0.1516
  794MPD2    C311754   4.538   2.861  17.399 -0.0459  0.1558 -0.2461
  794MPD2    C411755   4.471   2.947  17.481  1.2150  0.4069  0.8634
  794MPD2    C511756   4.466   2.931  17.617 -0.4066  0.8291  0.1273
  794MPD2     H11757   4.689   2.707  17.398  0.6187  0.3745  1.0675
  794MPD2    H111758   4.417   3.035  17.448  0.8629 -1.2491 -3.0752
  794MPD2    H211759   4.542   2.812   0.040  2.0073  0.0505  0.1993
  794MPD2    H311760   4.405   2.997  17.677  1.3341  0.2101  2.5865
  794MPD2     N11761   4.504   2.865  17.262 -0.2140 -0.1950 -0.2172
  794MPD2    H511762   4.437   2.936  17.234  0.1886 -0.1650 -1.0790
  794MPD2    N111763   4.708   2.664  17.666 -0.3028 -0.7186 -0.9440
  794MPD2    H711764   0.034   2.614  17.603 -0.0579 -1.7958  0.1342
  795MPD2     C11765   2.607   0.225  13.719  0.4766 -0.3648 -0.6342
  795MPD2    C111766   2.505   0.140  13.712 -0.2088  0.2932 -0.3451
  795MPD2    C211767   2.521   0.008  13.750  0.4472 -0.7498  0.2618
  795MPD2    C311768   2.646   4.705  13.806  0.0735  1.1414 -0.7043
  795MPD2    C411769   2.747   0.062  13.814  0.4966 -0.1365 -0.4050
  795MPD2    C511770   2.728   0.188  13.766  0.3995  0.3933  0.0719
  795MPD2     H11771   2.434   4.679  13.752 -0.7167  0.8492  0.6439
  795MPD2    H111772   2.840   0.020  13.851  0.5018  0.8323  0.6773
  795MPD2    H211773   2.599   0.322  13.671  2.0245 -0.1508 -0.4764
  795MPD2    H311774   2.810   0.258  13.775  1.0303 -0.3083 -0.1573
  795MPD2     N11775   2.677   4.575  13.848  0.1672 -0.9486  0.2081
  795MPD2    H511776   2.778   4.558  13.846  0.8547  3.3533 -1.0175
  795MPD2    N111777   2.386   0.166  13.652  0.0215  0.0968  0.5288
  795MPD2    H711778   2.339   0.077  13.637 -1.0976  0.7892 -0.1249
  796MPD2     C11779   2.402   1.352  15.681 -0.4208  0.4586  0.4352
  796MPD2    C111780   2.455   1.397  15.796  0.4264  0.1115 -0.0826
  796MPD2    C211781   2.432   1.521  15.838 -0.2236 -0.6552 -0.6719
  796MPD2    C311782   2.346   1.610  15.770 -0.2357  0.5193 -0.6795
  796MPD2    C411783   2.291   1.569  15.651 -0.3983  0.8678  0.3149
  796MPD2    C511784   2.321   1.437  15.604 -0.4412 -0.8065  0.2381
  796MPD2     H11785   2.473   1.554  15.933 -0.6161 -0.9744 -0.3938
  796MPD2    H111786   2.229   1.632  15.589  1.1969  1.8223 -0.3190
  796MPD2    H211787   2.420   1.248  15.658  0.1277  0.9405 -1.3186
  796MPD2    H311788   2.270   1.400  15.516 -0.2540  1.0541 -0.6710
  796MPD2     N11789   2.338   1.745  15.817 -0.3407 -0.5802  0.1656
  796MPD2    H511790   2.405   1.769  15.888 -0.3651 -1.7733  0.5941
  796MPD2    N111791   2.531   1.298  15.872 -0.0375  0.6203  0.2290
  796MPD2    H711792   2.543   1.206  15.832  1.0375  1.5462 -1.5738
  797MPD2     C11793   2.762   1.078   0.108 -0.2239 -0.4075 -0.5286
  797MPD2    C111794   2.795   1.190   0.038  0.4858  0.1303  0.3686
  797MPD2    C211795   2.734   1.222  17.659 -0.2379 -0.2582  0.4039
  797MPD2    C311796   2.642   1.141  17.591 -0.8597  0.2796  0.0438
  797MPD2    C411797   2.613   1.026  17.662  0.6083 -0.5775  0.5495
  797MPD2    C511798   2.672   0.993   0.040 -0.2664  1.1628  0.2401
  797MPD2     H11799   2.756   1.315  17.608 -1.4157  1.5866  3.3046
  797MPD2    H111800   2.536   0.960  17.625 -0.0989  0.7833 -0.4176
  797MPD2    H211801   2.810   1.046   0.199 -0.8826 -2.1218 -0.7837
  797MPD2    H311802   2.653   0.892   0.073 -1.1198  1.6708  1.3052
  797MPD2     N11803   2.578   1.177  17.468 -0.2406 -0.4159  0.1868
  797MPD2    H511804   2.508   1.111  17.435  0.7043 -1.2896 -0.0825
  797MPD2    N111805   2.886   1.293   0.074 -0.2861 -0.1228 -0.1911
  797MPD2    H711806   2.880   1.366   0.004 -3.6774 -0.5072 -0.3276
  798MPD2     C11807   2.878   1.829  17.282  0.8393 -0.3273 -0.2879
  798MPD2    C111808   2.891   1.692  17.287  0.3092 -0.7859 -0.0760
  798MPD2    C211809   2.965   1.636  17.390  0.5463 -0.0688 -0.2833
  798MPD2    C311810   3.029   1.719  17.479  0.2972 -0.1059  0.1340
  798MPD2    C411811   3.007   1.855  17.476  0.1744  0.0136  0.2155
  798MPD2    C511812   2.937   1.913  17.378 -0.4564 -0.3914 -0.5617
  798MPD2     H11813   2.989   1.531  17.402  0.8441 -0.0978 -1.0972
  798MPD2    H111814   3.055   1.924  17.544  0.2666  0.1516  0.0082
  798MPD2    H211815   2.805   1.881  17.220  0.3304 -2.1286 -1.1966
  798MPD2    H311816   2.916   2.019  17.379  1.8336  0.0232  1.3505
  798MPD2     N11817   3.091   1.656  17.593  0.3823  0.5087  0.2315
  798MPD2    H511818   3.096   1.554  17.592 -1.0855  0.4564 -0.8233
  798MPD2    N111819   2.807   1.611  17.204  0.3109  0.1818  0.9573
  798MPD2    H711820   2.717   1.655  17.185  1.7288  3.1304  1.0690
  799MPD2     C11821   2.239   2.674  14.667  0.6549  0.8898  0.5347
  799MPD2    C111822   2.171   2.575  14.604 -0.0606  0.2424  0.2375
  799MPD2    C211823   2.065   2.610  14.517 -0.2299 -0.7312 -0.8168
  799MPD2    C311824   2.036   2.748  14.497 -0.6612  0.5351  0.5760
  799MPD2    C411825   2.111   2.849  14.562 -0.2794 -0.1566  0.0536
  799MPD2    C511826   2.209   2.813  14.651 -0.1718  0.5581 -0.0241
  799MPD2     H11827   2.010   2.533  14.465 -1.3830  1.1618 -2.3980
  799MPD2    H111828   2.090   2.954  14.546  2.8598  1.0299  3.6828
  799MPD2    H211829   2.318   2.656  14.739  0.3882  2.3542  1.1942
  799MPD2    H311830   2.265   2.890  14.702  0.0973 -0.1264  0.7290
  799MPD2     N11831   1.927   2.791  14.412 -0.1354  0.2171  0.7808
  799MPD2    H511832   1.940   2.891  14.396  1.9344 -0.0103  0.9708
  799MPD2    N111833   2.190   2.438  14.631  0.1796 -0.3149 -0.4034
  799MPD2    H711834   2.122   2.370  14.600 -0.6983  0.6396 -0.5806
  800MPD2     C11835   2.095   3.808  14.636 -0.6715 -0.0156  0.8355
  800MPD2    C111836   2.182   3.723  14.581  0.8346  0.1694 -0.3824
  800MPD2    C211837   2.142   3.616  14.504 -0.2474 -0.3362 -0.2274
  800MPD2    C311838   2.013   3.601  14.463 -0.5186  0.5477 -0.2921
  800MPD2    C411839   1.921   3.686  14.512 -0.5376  0.4409 -0.5520
  800MPD2    C511840   1.965   3.782  14.606  0.4703 -0.5249 -0.0781
  800MPD2     H11841   2.212   3.539  14.474 -0.1206  0.1512 -1.1935
  800MPD2    H111842   1.816   3.670  14.490 -0.7450 -0.0493  0.8167
  800MPD2    H211843   2.120   3.897  14.693 -0.6184  0.2263  0.4332
  800MPD2    H311844   1.887   3.844  14.647  2.1100  1.1483  0.5103
  800MPD2     N11845   1.979   3.507  14.363  0.0334  0.6090  0.0646
  800MPD2    H511846   2.060   3.458  14.328 -1.2647 -1.7976  0.4194
  800MPD2    N111847   2.320   3.757  14.600 -1.0992 -0.7242  0.6265
  800MPD2    H711848   2.347   3.843  14.647 -0.8448 -0.8863  0.7774
  801MPD2     C11849   2.485   4.335  14.325 -0.0787 -0.7534  0.5277
  801MPD2    C111850   2.478   4.256  14.439  0.7632  0.2402 -0.4711
  801MPD2    C211851   2.401   4.309  14.542 -0.9026  0.7245 -0.4108
  801MPD2    C311852   2.328   4.425  14.534  0.9512  0.3614  0.3420
  801MPD2    C411853   2.336   4.500  14.417  0.5774 -0.0339 -0.1953
  801MPD2    C511854   2.421   4.457  14.321 -0.7720  0.7939  0.9353
  801MPD2     H11855   2.411   4.253  14.634 -0.9713 -0.1881 -0.9620
  801MPD2    H111856   2.277   4.591  14.416 -0.8091 -0.9195  1.6312
  801MPD2    H211857   2.542   4.307  14.237 -2.9411  0.4805 -1.7247
  801MPD2    H311858   2.442   4.524  14.239 -1.6704 -1.1697 -0.9035
  801MPD2     N11859   2.243   4.462  14.640 -0.7571 -0.0283  0.4566
  801MPD2    H511860   2.165   4.525  14.621 -0.6804  0.0460  0.3852
  801MPD2    N111861   2.525   4.129  14.460 -0.2508 -0.2251 -0.4289
  801MPD2    H711862   2.498   4.085  14.547  0.0613 -1.4082 -0.9251
  802MPD2     C11863   1.822   0.322  17.051 -0.1740 -0.1196  0.1969
  802MPD2    C111864   1.856   0.371  17.171  0.1607 -0.2789 -0.1688
  802MPD2    C211865   1.987   0.415  17.186 -0.3976  0.9016 -0.2326
  802MPD2    C311866   2.084   0.370  17.093  0.6305  0.2289 -0.0874
  802MPD2    C411867   2.046   0.289  16.987 -0.1412 -0.1426 -0.2870
  802MPD2    C511868   1.915   0.274  16.961 -0.3988 -0.8014  0.7658
  802MPD2     H11869   2.017   0.477  17.270 -0.6420  1.4878 -0.5783
  802MPD2    H111870   2.111   0.239  16.917  0.3652 -3.8776  2.8642
  802MPD2    H211871   1.718   0.308  17.024 -1.0805 -0.4622  3.8540
  802MPD2    H311872   1.860   0.228  16.879  0.3102 -1.3089  0.5799
  802MPD2     N11873   2.210   0.428  17.105 -0.7483  0.0204 -0.1178
  802MPD2    H511874   2.227   0.486  17.186 -2.9308  0.1318  0.2686
  802MPD2    N111875   1.757   0.407  17.267 -0.5408 -0.3195 -0.5203
  802MPD2    H711876   1.808   0.443  17.347 -2.3322  0.4849  0.2432
  803MPD2     C11877   2.525   2.946  12.137  0.0031  0.0301  0.6903
  803MPD2    C111878   2.647   2.959  12.199 -0.4196 -0.2852  0.0191
  803MPD2    C211879   2.677   2.883  12.305  0.3096  0.2639  0.4294
  803MPD2    C311880   2.598   2.787  12.352 -0.1710 -0.6939  0.1689
  803MPD2    C411881   2.468   2.784  12.305  0.8996 -0.7476 -0.1531
  803MPD2    C511882   2.434   2.860  12.195 -0.5876  0.3788  0.7163
  803MPD2     H11883   2.770   2.914  12.350  1.0007 -0.1570 -0.7043
  803MPD2    H111884   2.402   2.708  12.343  0.2007  0.0441  0.2268
  803MPD2    H211885   2.501   2.998  12.045  0.1554  0.2194  0.7577
  803MPD2    H311886   2.336   2.851  12.149  0.5570  1.4997 -1.9292
  803MPD2     N11887   2.625   2.713  12.471 -0.7659 -0.1619  0.7529
  803MPD2    H511888   2.545   2.672  12.518 -1.6881  1.5366  0.6833
  803MPD2    N111889   2.747   3.050  12.150  0.3061 -0.2577 -0.0280
  803MPD2    H711890   2.830   3.054  12.208  1.0364  1.4544 -1.2073
  804MPD2     C11891   2.405   4.532  16.695 -0.0678 -0.3412  0.9117
  804MPD2    C111892   2.466   4.514  16.817 -0.7831  0.0740  0.2588
  804MPD2    C211893   2.599   4.553  16.832  0.1597  0.1829 -0.2451
  804MPD2    C311894   2.661   4.633  16.739  0.4495 -0.3466  0.5254
  804MPD2    C411895   2.600   4.660  16.622  0.4322 -0.9804 -0.3900
  804MPD2    C511896   2.471   4.616  16.600  0.1369  0.4025  0.6408
  804MPD2     H11897   2.654   4.546  16.926  2.0182 -2.7173 -1.5406
  804MPD2    H111898   2.644   4.711  16.536 -1.8548  1.5749 -0.0607
  804MPD2    H211899   2.310   4.491  16.660  1.0842 -1.4752 -0.9169
  804MPD2    H311900   2.424   4.638  16.505  1.0376  0.9564  0.3267
  804MPD2     N11901   2.788   4.677  16.767  0.5585  0.3636 -0.4934
  804MPD2    H511902   2.816   4.663  16.863  0.7325 -0.0521 -0.6028
  804MPD2    N111903   2.412   4.430  16.918  0.3980  0.0917 -0.6320
  804MPD2    H711904   2.479   4.391  16.984  1.4348  1.8940 -0.6381
  805MPD2     C11905   1.546   2.831  15.322 -0.4917  0.1743  0.6469
  805MPD2    C111906   1.671   2.806  15.275 -0.0092 -0.2828 -0.2206
  805MPD2    C211907   1.780   2.839  15.354 -0.3624  0.0353  0.5559
  805MPD2    C311908   1.762   2.887  15.482 -0.6926  0.1290  0.1801
  805MPD2    C411909   1.640   2.905  15.527  0.3222  0.4710 -0.1453
  805MPD2    C511910   1.529   2.879  15.448  0.4987 -0.4620 -0.0661
  805MPD2     H11911   1.875   2.800  15.319 -1.1782  0.8958 -2.6627
  805MPD2    H111912   1.627   2.939  15.629  3.7708 -1.1371  0.8174
  805MPD2    H211913   1.457   2.828  15.260  0.4230 -0.2775 -0.6342
  805MPD2    H311914   1.429   2.894  15.485 -0.0942 -0.0445 -1.7996
  805MPD2     N11915   1.890   2.896  15.548 -0.3407  0.7684 -0.3490
  805MPD2    H511916   1.972   2.881  15.490  0.6807 -0.4364  1.3953
  805MPD2    N111917   1.700   2.749  15.144 -0.1943 -0.5073  0.4259
  805MPD2    H711918   1.796   2.716  15.134  0.6679  2.6332 -1.6379
  806MPD2     C11919   2.413   2.990   1.141  0.1000 -0.4333 -0.3651
  806MPD2    C111920   2.524   3.025   1.064  0.7342  0.3778 -0.2799
  806MPD2    C211921   2.539   2.956   0.951 -0.6411 -0.0468 -0.2794
  806MPD2    C311922   2.447   2.857   0.908  0.2120  0.2501 -0.3255
  806MPD2    C411923   2.339   2.829   0.983  0.5596 -0.4591  0.2965
  806MPD2    C511924   2.326   2.894   1.102  0.8695  0.3366  0.2079
  806MPD2     H11925   2.617   2.976   0.878 -0.8280  1.3706 -0.0791
  806MPD2    H111926   2.262   2.761   0.951  2.2350 -1.7779 -0.9773
  806MPD2    H211927   2.399   3.042   1.235  0.9879 -1.2727  0.2328
  806MPD2    H311928   2.245   2.867   1.169  2.1529 -0.5422  1.4175
  806MPD2     N11929   2.470   2.802   0.782 -0.6170  0.1031 -0.2996
  806MPD2    H511930   2.552   2.832   0.730  0.0884 -0.0750  0.6948
  806MPD2    N111931   2.609   3.125   1.099  0.0440  0.1336 -0.3782
  806MPD2    H711932   2.597   3.161   1.194 -0.6602 -1.0978 -0.0027
  807MPD2     C11933   2.685   3.570   1.653  0.4621  0.5700 -0.0196
  807MPD2    C111934   2.614   3.474   1.586  0.8151  0.0256  0.1357
  807MPD2    C211935   2.485   3.449   1.631 -0.7127 -0.1029 -0.0569
  807MPD2    C311936   2.428   3.518   1.735 -0.7557  0.1626  0.6286
  807MPD2    C411937   2.507   3.607   1.808 -0.1307 -0.1661 -0.0026
  807MPD2    C511938   2.634   3.633   1.761 -0.1043  0.0982 -0.2805
  807MPD2     H11939   2.427   3.373   1.581 -0.4735 -0.7835  0.7128
  807MPD2    H111940   2.478   3.657   1.900  0.4428 -0.7625  0.5038
  807MPD2    H211941   2.790   3.581   1.627  0.8383 -0.5598  1.0764
  807MPD2    H311942   2.685   3.706   1.822  2.1413 -2.6591  1.1358
  807MPD2     N11943   2.295   3.475   1.782 -0.6238 -0.2677  0.3491
  807MPD2    H511944   2.250   3.412   1.716 -0.3585 -1.2398  1.0946
  807MPD2    N111945   2.680   3.397   1.485  0.4427 -0.8882 -0.3338
  807MPD2    H711946   2.619   3.338   1.430 -0.7814 -0.6766  0.8052
  808MPD2     C11947   1.613   3.534   9.633 -0.5594  0.3611 -0.3576
  808MPD2    C111948   1.704   3.444   9.677 -0.5384 -0.3999 -0.2423
  808MPD2    C211949   1.823   3.499   9.724 -0.1421  0.4475  0.4633
  808MPD2    C311950   1.849   3.632   9.712 -0.9014 -0.0054  0.9028
  808MPD2    C411951   1.760   3.720   9.656  0.5485 -0.2107 -0.6118
  808MPD2    C511952   1.639   3.667   9.627  0.2669 -0.1259  0.0814
  808MPD2     H11953   1.893   3.437   9.778  0.1285 -0.6530 -1.1607
  808MPD2    H111954   1.766   3.827   9.641  1.0468 -0.2721 -0.8440
  808MPD2    H211955   1.514   3.501   9.607 -0.9233  2.3528 -1.4671
  808MPD2    H311956   1.561   3.738   9.600  1.0290  0.4953 -0.4946
  808MPD2     N11957   1.969   3.692   9.754  0.2989  0.0247 -0.6753
  808MPD2    H511958   1.961   3.792   9.769  0.1358 -0.3342  1.5818
  808MPD2    N111959   1.685   3.306   9.687 -0.1501 -0.9713 -0.4263
  808MPD2    H711960   1.755   3.244   9.725 -1.0270 -0.2052  2.4256
  809MPD2     C11961   2.640   3.745   9.125 -0.4090  0.1509 -0.8083
  809MPD2    C111962   2.718   3.789   9.232 -0.0118 -0.1709  0.3668
  809MPD2    C211963   2.656   3.798   9.357 -0.1638 -0.2172 -0.0706
  809MPD2    C311964   2.527   3.755   9.368  0.1069 -0.7512 -0.5713
  809MPD2    C411965   2.459   3.700   9.260 -0.0457  0.4706 -0.4153
  809MPD2    C511966   2.517   3.697   9.138  0.2636 -0.0664 -0.1997
  809MPD2     H11967   2.716   3.830   9.442 -0.6093 -2.7850  1.2145
  809MPD2    H111968   2.365   3.650   9.279 -0.4936  1.3466 -0.2855
  809MPD2    H211969   2.683   3.736   9.026  0.2074 -1.0272 -0.4332
  809MPD2    H311970   2.474   3.641   9.056 -2.9325  2.1499 -0.0476
  809MPD2     N11971   2.446   3.772   9.487 -0.0038  0.6775 -0.0931
  809MPD2    H511972   2.346   3.754   9.485  0.5073 -1.9587 -1.2902
  809MPD2    N111973   2.848   3.839   9.215 -0.0452  0.1272  0.5852
  809MPD2    H711974   2.880   3.887   9.298 -0.1940  0.2134  0.5928
  810MPD2     C11975   1.732   3.222  10.940 -0.2542  0.6308 -0.6689
  810MPD2    C111976   1.732   3.244  10.805 -0.1166 -0.5962  0.4826
  810MPD2    C211977   1.767   3.370  10.758  0.1838 -0.1373  0.5080
  810MPD2    C311978   1.794   3.469  10.847  0.1823 -0.2960  0.1162
  810MPD2    C411979   1.788   3.443  10.982 -0.4705  0.5531 -0.0094
  810MPD2    C511980   1.750   3.322  11.030  0.0637  0.6685  0.2255
  810MPD2     H11981   1.783   3.381  10.652  0.1394 -0.3494  0.4798
  810MPD2    H111982   1.806   3.525  11.050 -2.9497  0.0731  1.2386
  810MPD2    H211983   1.702   3.125  10.978 -1.4770  0.7920 -1.2048
  810MPD2    H311984   1.753   3.302  11.137  0.7136  2.3000  0.5093
  810MPD2     N11985   1.824   3.602  10.807  0.2890 -0.4571 -0.2361
  810MPD2    H511986   1.832   3.672  10.881  0.1513 -1.2356  0.5217
  810MPD2    N111987   1.685   3.135  10.732  0.3778 -0.4177  0.6538
  810MPD2    H711988   1.649   3.049  10.773 -1.4372 -0.3708 -0.8358
  811MPD2     C11989   1.250   3.048   9.915 -1.0366  0.1660  0.3686
  811MPD2    C111990   1.334   3.110  10.001 -0.1022  0.0707 -0.1115
  811MPD2    C211991   1.365   3.241   9.967  0.3211  0.3059  0.6433
  811MPD2    C311992   1.304   3.309   9.859  0.4062 -0.2760 -0.0647
  811MPD2    C411993   1.224   3.235   9.771  0.2841 -0.5085 -1.2950
  811MPD2    C511994   1.212   3.100   9.796  0.0249 -0.6878  0.5875
  811MPD2     H11995   1.432   3.300  10.030  1.6464  0.1000 -0.5728
  811MPD2    H111996   1.181   3.287   9.686  0.7833  1.5433 -0.2938
  811MPD2    H211997   1.218   2.946   9.935 -0.5663 -0.4616 -2.1197
  811MPD2    H311998   1.157   3.036   9.728 -1.2665 -0.7028  1.6367
  811MPD2     N11999   1.327   3.447   9.853  0.7874 -0.5543  0.4610
  811MPD2    H512000   1.382   3.481   9.931  1.2000  1.7892 -0.8715
  811MPD2    N112001   1.372   3.043  10.117 -0.7765 -0.1263  0.1875
  811MPD2    H712002   1.318   2.962  10.145 -0.7291 -0.9496 -2.0962
  812MPD2     C12003   0.097   3.170  12.108 -0.8554 -0.1270 -0.6468
  812MPD2    C112004   0.207   3.253  12.094  0.6099  0.1527 -0.2240
  812MPD2    C212005   0.297   3.260  12.201 -0.4706  0.8076 -0.3433
  812MPD2    C312006   0.275   3.186  12.310 -0.1013  0.1363  0.2467
  812MPD2    C412007   0.170   3.102  12.325  0.1090  0.8384  0.4623
  812MPD2    C512008   0.077   3.090  12.218  0.3927  0.0351 -0.2081
  812MPD2     H12009   0.377   3.332  12.192  0.7154 -0.4300  0.3578
  812MPD2    H112010   0.138   3.054  12.417  1.7895 -1.0156  0.0965
  812MPD2    H212011   0.021   3.157  12.031  0.3782 -0.2874 -1.8209
  812MPD2    H312012   4.731   3.020  12.238 -1.1432  1.5686 -1.1100
  812MPD2     N12013   0.368   3.210  12.409  0.2536  0.0026 -0.8997
  812MPD2    H512014   0.433   3.283  12.383 -0.6568  1.9444  2.2701
  812MPD2    N112015   0.211   3.339  11.984 -0.8852  0.6812  0.0713
  812MPD2    H712016   0.292   3.401  11.987  0.3379 -0.8602 -1.4040
  813MPD2     C12017   0.275   0.161  12.423 -0.2109  0.1057 -0.5127
  813MPD2    C112018   0.239   0.277  12.480 -0.5995  0.0656 -0.6653
  813MPD2    C212019   0.187   0.276  12.611  0.4098 -0.5008  0.5426
  813MPD2    C312020   0.173   0.155  12.682  0.3529  0.5286  0.1018
  813MPD2    C412021   0.206   0.036  12.618  0.0445  0.2923 -0.7022
  813MPD2    C512022   0.265   0.044  12.492  0.7760  0.3449 -0.7498
  813MPD2     H12023   0.166   0.369  12.663  0.9945  1.1348 -2.1716
  813MPD2    H112024   0.196   4.671  12.657  1.1575 -0.1970 -1.6502
  813MPD2    H212025   0.312   0.150  12.321 -0.4885 -1.3238 -0.4615
  813MPD2    H312026   0.297   4.694  12.433 -0.4571  0.8054 -2.1011
  813MPD2     N12027   0.112   0.167  12.805  1.1949 -0.6776  0.7200
  813MPD2    H512028   0.082   0.259  12.835  2.3390 -0.8311  2.3079
  813MPD2    N112029   0.258   0.401  12.416 -0.7571  0.2093 -0.9076
  813MPD2    H712030   0.227   0.475  12.478 -0.8588  1.1877 -2.1220
  814MPD2     C12031   0.525   1.595  12.573 -0.2393 -0.0120  0.1415
  814MPD2    C112032   0.469   1.643  12.454  0.2157  0.7703 -0.2769
  814MPD2    C212033   0.487   1.781  12.430  0.1279  0.4468 -0.2391
  814MPD2    C312034   0.550   1.861  12.529  0.6606 -1.0379 -0.1187
  814MPD2    C412035   0.589   1.801  12.647 -0.1319  1.4481  0.2540
  814MPD2    C512036   0.572   1.670  12.670  0.0163 -0.1233 -0.0096
  814MPD2     H12037   0.454   1.828  12.338 -1.9585 -1.0626 -0.2374
  814MPD2    H112038   0.621   1.874  12.721 -1.1481  1.7633  0.3787
  814MPD2    H212039   0.525   1.491  12.603  2.2800  0.1762  0.8362
  814MPD2    H312040   0.597   1.614  12.760 -1.1509 -2.9756 -1.4522
  814MPD2     N12041   0.584   1.997  12.502 -0.2737 -1.0568  0.1394
  814MPD2    H512042   0.622   2.046  12.581  1.5715  0.8370 -1.9356
  814MPD2    N112043   0.410   1.568  12.356  0.3230 -0.0537 -0.6824
  814MPD2    H712044   0.412   1.610  12.264 -1.6441  0.9907 -0.2614
  815MPD2     C12045   0.543   0.057  11.744 -0.5223  0.2116 -0.0427
  815MPD2    C112046   0.539   4.665  11.784 -0.6024  0.3942  0.3629
  815MPD2    C212047   0.455   4.638  11.890  0.2427 -0.6295 -0.1448
  815MPD2    C312048   0.367   0.000  11.944 -0.3454  0.0696 -0.2772
  815MPD2    C412049   0.382   0.127  11.908 -0.2042 -0.1526  0.5181
  815MPD2    C512050   0.481   0.152  11.813  0.3734  0.2644 -0.0318
  815MPD2     H12051   0.446   4.534  11.917 -0.0675 -0.8304 -1.0494
  815MPD2    H112052   0.350   0.213  11.966 -2.2670  0.3657 -1.4008
  815MPD2    H212053   0.618   0.095  11.676 -0.6240 -1.8039 -1.2966
  815MPD2    H312054   0.499   0.258  11.795  0.2784 -0.1299 -2.5243
  815MPD2     N12055   0.264   4.692  12.030  0.1719  0.0061 -0.8388
  815MPD2    H512056   0.261   4.599  12.070  0.6900  0.2960 -0.1223
  815MPD2    N112057   0.587   4.559  11.696 -0.1051 -0.2066  0.0392
  815MPD2    H712058   0.606   4.582  11.599  0.4582 -0.3073  0.1237
  816MPD2     C12059   1.280   4.338  17.375  0.3270 -0.1881  0.1631
  816MPD2    C112060   1.239   4.354  17.249  0.7881 -0.5278  0.1620
  816MPD2    C212061   1.316   4.294  17.148 -0.3201 -0.3702  0.4800
  816MPD2    C312062   1.426   4.214  17.177 -0.3224 -0.5176 -0.2771
  816MPD2    C412063   1.459   4.200  17.308  0.0146  0.2340  0.8481
  816MPD2    C512064   1.391   4.259  17.409 -0.0590  0.2005 -0.3361
  816MPD2     H12065   1.276   4.294  17.047  1.9927 -3.3109 -0.4578
  816MPD2    H112066   1.545   4.142  17.341  0.9034 -0.0103 -1.9330
  816MPD2    H212067   1.229   4.388  17.457 -1.6637 -0.5692 -0.8559
  816MPD2    H312068   1.421   4.238  17.511  1.3040 -0.7363 -0.9287
  816MPD2     N12069   1.506   4.177  17.069  0.1674  0.4865 -0.6496
  816MPD2    H512070   1.456   4.192  16.982 -1.0741  0.9043  0.1333
  816MPD2    N112071   1.124   4.433  17.225 -0.0085 -0.2879 -0.1763
  816MPD2    H712072   1.068   4.468  17.302 -1.8498 -0.0572 -1.5994
  817MPD2     C12073   4.562   0.847   9.975  0.3466  0.6851 -0.5410
  817MPD2    C112074   4.594   0.792   9.853 -0.0035  0.1199  0.0011
  817MPD2    C212075   4.536   0.845   9.742 -0.1880 -0.3421 -0.4825
  817MPD2    C312076   4.458   0.959   9.753 -0.1930 -0.0857  0.0530
  817MPD2    C412077   4.418   1.008   9.872 -0.4474  0.1898  0.1047
  817MPD2    C512078   4.481   0.954   9.988 -0.2335  0.3697 -0.1499
  817MPD2     H12079   4.553   0.809   9.641 -1.1879 -0.0038 -0.7835
  817MPD2    H112080   4.351   1.093   9.884  0.4516  0.8593  0.3542
  817MPD2    H212081   4.602   0.807  10.067 -2.3133  2.1138  1.2418
  817MPD2    H312082   4.460   0.991  10.088 -1.9934  1.2214 -0.8354
  817MPD2     N12083   4.419   1.016   9.628  0.1935  0.1007  0.6182
  817MPD2    H512084   4.457   0.971   9.545  0.9909  0.0283  1.0225
  817MPD2    N112085   4.668   0.675   9.836 -0.4081 -0.5053 -0.0038
  817MPD2    H712086   4.679   0.644   9.740 -0.5425 -1.9384  0.4415
  818MPD2     C12087   3.487   1.090   9.873  0.2495 -0.0338  0.1670
  818MPD2    C112088   3.493   0.994   9.971 -0.3603  0.0128  0.9455
  818MPD2    C212089   3.568   0.877   9.956  0.1863 -0.3264 -0.1393
  818MPD2    C312090   3.619   0.850   9.833 -0.2877 -0.6310  0.3335
  818MPD2    C412091   3.588   0.941   9.732 -0.3192 -0.5763  0.0771
  818MPD2    C512092   3.534   1.060   9.756  0.9257  0.3800  0.2087
  818MPD2     H12093   3.606   0.828  10.045  1.3074  0.0891 -0.3861
  818MPD2    H112094   3.624   0.921   9.632  0.4403 -0.2413  0.2883
  818MPD2    H212095   3.436   1.185   9.881 -0.6103 -0.5509  0.8473
  818MPD2    H312096   3.515   1.127   9.674 -1.5319  0.3781  0.7757
  818MPD2     N12097   3.709   0.741   9.801 -0.3604  0.4230  0.5497
  818MPD2    H512098   3.728   0.715   9.705 -3.7003  1.3429 -0.3599
  818MPD2    N112099   3.441   1.011  10.102 -0.3013 -0.1654 -0.0623
  818MPD2    H712100   3.446   0.933  10.168  0.6656  0.4412  0.5905
  819MPD2     C12101   2.289   2.383  15.894  0.6010 -0.1979  0.1934
  819MPD2    C112102   2.373   2.309  15.816 -0.2267  0.1670  0.2557
  819MPD2    C212103   2.502   2.305  15.850  1.2919  0.7505 -1.0421
  819MPD2    C312104   2.549   2.363  15.967  0.5370  0.3657 -0.0030
  819MPD2    C412105   2.464   2.437  16.049  0.0297  0.1871  0.8624
  819MPD2    C512106   2.333   2.444  16.013  0.0145 -0.5657  0.0569
  819MPD2     H12107   2.568   2.247  15.787 -0.9314 -2.4725 -0.4012
  819MPD2    H112108   2.493   2.495  16.136  1.0041  0.9731  0.0100
  819MPD2    H212109   2.184   2.394  15.869  0.3051 -0.4159  1.3574
  819MPD2    H312110   2.267   2.506  16.072 -0.0587 -0.2028 -0.3992
  819MPD2     N12111   2.685   2.340  15.988  0.2238  0.3639 -0.7490
  819MPD2    H512112   2.729   2.279  15.920  0.6292  0.6595 -0.7547
  819MPD2    N112113   2.321   2.238  15.700  0.4051 -0.1050  0.1343
  819MPD2    H712114   2.223   2.247  15.676  0.2871 -0.6038  0.4342
  820MPD2     C12115   1.828   2.125  14.816  0.0158 -0.7017 -0.2889
  820MPD2    C112116   1.891   2.235  14.876 -0.0015 -0.0284 -0.5780
  820MPD2    C212117   1.960   2.213  14.991 -0.3280  0.1779  0.4042
  820MPD2    C312118   1.961   2.083  15.042 -0.6638 -0.4849  1.2555
  820MPD2    C412119   1.912   1.975  14.974 -0.3019  0.2616  0.4132
  820MPD2    C512120   1.847   1.994  14.853 -0.5239 -0.7116  0.1356
  820MPD2     H12121   2.012   2.293  15.041 -0.9546  0.8583 -0.0297
  820MPD2    H112122   1.907   1.876  15.019  0.5218  0.5951  1.2450
  820MPD2    H212123   1.783   2.148  14.720  0.0835 -0.0806 -0.1714
  820MPD2    H312124   1.788   1.924  14.794  1.1620 -1.1120 -1.0887
  820MPD2     N12125   2.012   2.048  15.166 -0.0460 -0.4888 -0.4013
  820MPD2    H512126   2.013   1.949  15.186  2.1722 -0.3561  0.1417
  820MPD2    N112127   1.872   2.359  14.812 -0.2418  0.3149  0.5798
  820MPD2    H712128   1.811   2.350  14.731  3.2371  1.1078 -2.1413
  821MPD2     C12129   1.776   3.766  13.605  0.9414 -0.5293  0.1616
  821MPD2    C112130   1.887   3.690  13.618 -0.1454  0.0225  0.2438
  821MPD2    C212131   1.992   3.716  13.533  0.4248  1.2268 -0.7284
  821MPD2    C312132   1.992   3.817  13.440 -0.0096 -0.8580  0.6664
  821MPD2    C412133   1.878   3.888  13.426 -0.7882 -0.3217 -0.0651
  821MPD2    C512134   1.773   3.860  13.508 -0.4097 -0.2691 -0.4417
  821MPD2     H12135   2.081   3.657  13.553 -0.2080  1.2343  2.0425
  821MPD2    H112136   1.861   3.962  13.348 -2.4763 -0.0783  0.5401
  821MPD2    H212137   1.684   3.759  13.662 -1.0414  0.6868 -2.8871
  821MPD2    H312138   1.682   3.916  13.491  0.1852  1.0045  0.5454
  821MPD2     N12139   2.094   3.834  13.346  0.4168  0.0564  0.2170
  821MPD2    H512140   2.101   3.924  13.300  1.7985 -1.4141 -2.4631
  821MPD2    N112141   1.908   3.598  13.732 -0.1513 -0.0197  0.1000
  821MPD2    H712142   1.994   3.543  13.725 -0.5453 -0.6990  0.7046
  822MPD2     C12143   3.351   3.519  15.652 -0.1902  0.1473  0.2218
  822MPD2    C112144   3.343   3.531  15.787 -0.0123 -0.0497  0.3227
  822MPD2    C212145   3.281   3.635  15.841 -0.2584 -0.2763 -0.3632
  822MPD2    C312146   3.219   3.735  15.766 -0.6814  0.1656 -0.1051
  822MPD2    C412147   3.225   3.720  15.628 -0.4741 -0.3351 -0.2220
  822MPD2    C512148   3.288   3.614  15.571 -0.2705 -0.1029 -0.0949
  822MPD2     H12149   3.280   3.637  15.949  0.2439  1.3079 -0.3835
  822MPD2    H112150   3.182   3.787  15.555  2.1607  0.9100 -0.6541
  822MPD2    H212151   3.396   3.436  15.599 -1.2380  1.3698 -2.6230
  822MPD2    H312152   3.292   3.618  15.463 -2.1180  1.8398 -0.0843
  822MPD2     N12153   3.151   3.838  15.831  0.2600  0.3894  1.1577
  822MPD2    H512154   3.148   3.832  15.932 -1.1647 -0.9416  1.0432
  822MPD2    N112155   3.394   3.436  15.875  0.1836 -0.4770  0.4959
  822MPD2    H712156   3.365   3.455  15.970 -1.9645 -0.6137 -0.1328
  823MPD2     C12157   2.754   4.291  16.470  0.1394  0.4842 -0.0254
  823MPD2    C112158   2.827   4.189  16.406  0.3896  0.2747 -0.5247
  823MPD2    C212159   2.880   4.083  16.484  0.4968  0.0854  0.4784
  823MPD2    C312160   2.867   4.072  16.619  0.6296  0.0869 -0.2083
  823MPD2    C412161   2.780   4.166  16.675 -0.5351 -0.2500 -0.3175
  823MPD2    C512162   2.726   4.274  16.606  0.0320 -0.2226  0.8994
  823MPD2     H12163   2.926   4.001  16.430  0.1567 -0.6011  1.2339
  823MPD2    H112164   2.757   4.167  16.781 -0.3964  1.2899 -0.2967
  823MPD2    H212165   2.693   4.360  16.414  0.1464  0.9110  0.4867
  823MPD2    H312166   2.649   4.337  16.649 -0.6964 -2.0225  2.2577
  823MPD2     N12167   2.909   3.961  16.692 -0.0305  0.2797 -0.5166
  823MPD2    H512168   2.876   3.943  16.786  1.6730 -0.2494 -0.0098
  823MPD2    N112169   2.845   4.191  16.263 -0.7383  0.4731  0.0889
  823MPD2    H712170   2.820   4.283  16.230  2.1236  1.1350 -0.2279
  824MPD2     C12171   3.944   2.824  16.191  0.2096 -0.3449  0.8898
  824MPD2    C112172   3.846   2.811  16.094 -0.2050  1.0292  0.1240
  824MPD2    C212173   3.870   2.710  15.999 -0.0690 -0.7950  0.9147
  824MPD2    C312174   3.995   2.648  15.992 -0.0006 -0.5386  0.2187
  824MPD2    C412175   4.096   2.672  16.080 -0.3456  0.1727  0.5094
  824MPD2    C512176   4.070   2.767  16.178  0.5853  0.0221  0.0593
  824MPD2     H12177   3.797   2.690  15.922 -1.8549 -0.1698  2.4167
  824MPD2    H112178   4.190   2.619  16.077 -1.1982 -1.2345 -1.8341
  824MPD2    H212179   3.924   2.881  16.282 -0.0743 -0.4545  0.8940
  824MPD2    H312180   4.157   2.783  16.240 -0.5081 -1.5537  1.9879
  824MPD2     N12181   4.008   2.560  15.884  0.0173 -0.3553  0.1729
  824MPD2    H512182   3.924   2.551  15.828  0.5000 -1.5446 -0.3655
  824MPD2    N112183   3.725   2.886  16.106 -0.0341 -0.0562  0.5491
  824MPD2    H712184   3.732   2.970  16.163 -0.3698  1.2145 -1.2762
  825MPD2     C12185   4.482   2.680  15.237 -0.4020 -0.5397 -0.4106
  825MPD2    C112186   4.345   2.709  15.264  0.0162  0.7524 -0.4822
  825MPD2    C212187   4.273   2.802  15.184  0.2379  0.3485  0.0347
  825MPD2    C312188   4.349   2.877  15.086 -0.3381  0.3895 -0.5682
  825MPD2    C412189   4.480   2.854  15.075  0.9920 -0.2284  0.1073
  825MPD2    C512190   4.547   2.759  15.148 -0.0276 -0.0873 -0.1275
  825MPD2     H12191   4.165   2.811  15.192  0.2504 -0.2469  0.8065
  825MPD2    H112192   4.547   2.914  15.016  0.7700 -0.2825 -0.2026
  825MPD2    H212193   4.533   2.598  15.286  0.4574  0.4813  0.3984
  825MPD2    H312194   4.649   2.735  15.119 -0.3005  1.9207 -2.8108
  825MPD2     N12195   4.302   2.989  15.014  0.2417  0.1417  0.0913
  825MPD2    H512196   4.369   3.038  14.955  0.4994 -0.2978  0.0261
  825MPD2    N112197   4.291   2.616  15.355  0.1246 -0.8987  0.6227
  825MPD2    H712198   4.360   2.547  15.382 -0.5036 -2.5581 -2.0503
  826MPD2     C12199   3.803   2.523  13.918  0.3769 -0.1379  0.8329
  826MPD2    C112200   3.768   2.571  13.795  0.2949 -0.4163  0.3174
  826MPD2    C212201   3.670   2.664  13.789 -0.1290  0.0368  0.3545
  826MPD2    C312202   3.596   2.696  13.902 -1.0670 -0.1786 -0.0984
  826MPD2    C412203   3.629   2.642  14.022  0.5641  0.6452 -0.3891
  826MPD2    C512204   3.732   2.561  14.029  0.8464  0.4871  0.7604
  826MPD2     H12205   3.637   2.705  13.694  1.8374  1.7259  0.3906
  826MPD2    H112206   3.579   2.649  14.118  0.7618  0.3397 -0.2605
  826MPD2    H212207   3.888   2.457  13.931  0.8789 -0.3264 -3.4448
  826MPD2    H312208   3.761   2.514  14.123 -2.5644 -1.8063  0.6641
  826MPD2     N12209   3.480   2.773  13.906 -0.0410  0.5671  0.9613
  826MPD2    H512210   3.435   2.782  13.997 -0.8831 -1.1454  0.7221
  826MPD2    N112211   3.847   2.526  13.683 -0.5703  0.3275 -0.4104
  826MPD2    H712212   3.919   2.457  13.701 -0.4071  1.7332  4.4828
  827MPD2     C12213   3.922   4.506  10.003 -0.2307  0.3133 -0.1194
  827MPD2    C112214   3.949   4.395  10.076  0.2563 -0.0920  0.7849
  827MPD2    C212215   3.897   4.272  10.042 -0.3732 -0.2257 -0.8532
  827MPD2    C312216   3.824   4.264   9.921 -0.0806  0.8157  0.0195
  827MPD2    C412217   3.816   4.377   9.840 -0.0288  0.1747  0.3529
  827MPD2    C512218   3.863   4.498   9.883 -0.9157 -0.5256 -0.1212
  827MPD2     H12219   3.918   4.179  10.092  1.4403  0.1631 -0.9093
  827MPD2    H112220   3.766   4.378   9.744  0.3340 -0.1263  0.1569
  827MPD2    H212221   3.964   4.604  10.019  0.3326 -0.2361  1.6951
  827MPD2    H312222   3.854   4.588   9.823  3.2478  1.1687  1.8400
  827MPD2     N12223   3.775   4.138   9.883 -0.0835  0.7896  0.2843
  827MPD2    H512224   3.782   4.064   9.953 -1.3961  0.2146 -0.1892
  827MPD2    N112225   4.034   4.412  10.196 -0.4770 -0.1070 -0.5010
  827MPD2    H712226   4.076   4.503  10.212  0.9076 -0.9261  0.5461
  828MPD2     C12227   2.774   3.910  12.797 -0.3912  0.5498  0.1803
  828MPD2    C112228   2.740   3.872  12.664  0.0781 -0.2738  0.1513
  828MPD2    C212229   2.836   3.830  12.574  0.0123  0.5575 -0.4731
  828MPD2    C312230   2.964   3.825  12.630  0.0101  0.1485 -0.4335
  828MPD2    C412231   2.994   3.841  12.765 -0.2113  0.0500  0.1241
  828MPD2    C512232   2.899   3.896  12.843 -0.1617  0.2970 -0.1698
  828MPD2     H12233   2.819   3.801  12.470 -0.3169 -0.5728 -0.1047
  828MPD2    H112234   3.090   3.810  12.805 -0.2927 -0.3578  0.0011
  828MPD2    H212235   2.705   3.948  12.871 -0.6393 -0.4637  0.4678
  828MPD2    H312236   2.926   3.913  12.947 -0.7325 -2.4014  0.4152
  828MPD2     N12237   3.084   3.784  12.556  0.1616  0.4562  0.2170
  828MPD2    H512238   3.176   3.781  12.598  0.6567 -0.9210 -0.9660
  828MPD2    N112239   2.609   3.888  12.619 -0.2154 -0.1663 -0.4121
  828MPD2    H712240   2.603   3.865  12.520  1.1458 -0.3021 -0.4623
  829MPD2     C12241   2.471   3.978  11.811 -0.8008 -0.4632  0.4930
  829MPD2    C112242   2.344   3.991  11.845 -0.0825  0.4572 -0.2136
  829MPD2    C212243   2.312   3.990  11.976  0.3303  0.0610 -0.5715
  829MPD2    C312244   2.404   3.976  12.077 -0.2216  0.1484  0.2420
  829MPD2    C412245   2.539   3.979  12.040 -0.5665 -0.0830  0.1275
  829MPD2    C512246   2.567   3.970  11.908 -0.3244 -0.5973  0.4612
  829MPD2     H12247   2.207   3.985  12.003  0.2961 -0.0516 -0.7240
  829MPD2    H112248   2.614   3.974  12.118  1.5034 -1.7832 -1.9896
  829MPD2    H212249   2.507   3.977  11.708 -0.2272 -3.3246  0.7085
  829MPD2    H312250   2.672   3.959  11.883 -1.0833 -2.0199 -2.1334
  829MPD2     N12251   2.380   3.958  12.210 -0.2265 -0.5122  0.1001
  829MPD2    H512252   2.459   3.946  12.273  0.7680 -1.8744 -1.3935
  829MPD2    N112253   2.260   3.994  11.734 -0.2621  0.4717  0.4360
  829MPD2    H712254   2.308   3.974  11.647  0.7099 -0.2383  1.1450
  830MPD2     C12255   2.982   2.201  15.459 -0.4308  0.0965 -0.1821
  830MPD2    C112256   3.082   2.203  15.550  0.1866  0.0078 -0.7181
  830MPD2    C212257   3.216   2.177  15.510  0.0610 -0.1353 -0.2789
  830MPD2    C312258   3.245   2.155  15.381  0.0578  0.2836  0.0096
  830MPD2    C412259   3.142   2.139  15.296  0.2016 -0.1637 -0.3590
  830MPD2    C512260   3.012   2.160  15.333 -0.0823  0.0660  0.0255
  830MPD2     H12261   3.291   2.189  15.587 -0.1422  0.1068 -0.1198
  830MPD2    H112262   3.163   2.114  15.192 -0.1236  0.6877 -0.6253
  830MPD2    H212263   2.875   2.204  15.478 -0.1758  0.2588  1.2415
  830MPD2    H312264   2.940   2.126  15.260  0.6086  1.9759 -1.5505
  830MPD2     N12265   3.372   2.128  15.335 -0.2346 -0.6191  0.1587
  830MPD2    H512266   3.371   2.120  15.233 -0.7486 -1.5347  0.2399
  830MPD2    N112267   3.050   2.232  15.691  0.5667 -0.1299 -0.2139
  830MPD2    H712268   2.957   2.271  15.703  0.5442  0.5615 -2.5763
  831MPD2     C12269   3.407   4.039  16.140 -0.4742 -0.1793  0.2910
  831MPD2    C112270   3.422   3.906  16.119 -0.3026  0.3684 -0.1435
  831MPD2    C212271   3.319   3.821  16.164  0.4224  0.5003 -0.4670
  831MPD2    C312272   3.209   3.868  16.236 -0.0294  0.5736  0.2918
  831MPD2    C412273   3.210   4.004  16.276 -0.4568  0.2542 -0.1375
  831MPD2    C512274   3.305   4.085  16.221  0.2857  0.3738 -0.1322
  831MPD2     H12275   3.322   3.714  16.146 -1.5622 -0.1296  2.7661
  831MPD2    H112276   3.134   4.057  16.333 -0.9183 -0.0845 -0.4430
  831MPD2    H212277   3.483   4.104  16.098  0.5048 -0.2939  1.8788
  831MPD2    H312278   3.303   4.192  16.236 -2.4888  0.2606  0.3776
  831MPD2     N12279   3.096   3.792  16.267  0.4926 -0.6559  0.2133
  831MPD2    H512280   3.032   3.838  16.331 -0.5528  1.1713 -2.1435
  831MPD2    N112281   3.539   3.857  16.047  0.1712 -0.2558  0.4062
  831MPD2    H712282   3.604   3.928  16.013  0.2771 -1.0365 -1.0265
  832MPD2     C12283   1.204   0.749  17.409 -0.6728  0.3565 -0.4826
  832MPD2    C112284   1.330   0.795  17.360 -0.7372  0.2274 -0.0605
  832MPD2    C212285   1.392   0.737  17.248  0.5923 -0.4212  0.2693
  832MPD2    C312286   1.309   0.661  17.164  0.3708 -0.3351  0.0089
  832MPD2    C412287   1.184   0.623  17.206  0.2940  0.2765 -0.6206
  832MPD2    C512288   1.146   0.650  17.334  0.3823  0.2022  0.4098
  832MPD2     H12289   1.487   0.770  17.206 -1.0727  0.2526 -2.9307
  832MPD2    H112290   1.115   0.559  17.154 -0.8302 -0.5847  1.9212
  832MPD2    H212291   1.152   0.790  17.495 -1.9188 -0.8813 -0.6418
  832MPD2    H312292   1.055   0.603  17.370 -1.5797  3.5945 -0.1614
  832MPD2     N12293   1.347   0.616  17.039 -0.4985 -0.1679 -0.5155
  832MPD2    H512294   1.279   0.553  16.999 -2.0580  1.1764  0.0162
  832MPD2    N112295   1.400   0.902  17.431  0.7914  0.4929 -0.1533
  832MPD2    H712296   1.496   0.930  17.413  1.6313 -0.7793  2.3267
  833MPD2     C12297   3.475   2.072  12.588  0.5789 -0.3135 -0.1977
  833MPD2    C112298   3.500   2.196  12.535 -0.6358  0.7407 -0.0585
  833MPD2    C212299   3.619   2.220  12.475  0.4944  0.0463  0.5943
  833MPD2    C312300   3.725   2.137  12.502 -0.0194  0.4255  0.8299
  833MPD2    C412301   3.706   2.019  12.564  0.1987  0.2028  0.1004
  833MPD2    C512302   3.579   1.989  12.609  0.4176  0.2039 -0.6423
  833MPD2     H12303   3.636   2.309  12.417 -4.9125 -0.3160 -1.5761
  833MPD2    H112304   3.785   1.951  12.596  1.3134 -0.2752 -3.7609
  833MPD2    H212305   3.375   2.050  12.623  1.4858 -0.7334  2.1273
  833MPD2    H312306   3.558   1.905  12.673  0.3402  0.9541  0.3143
  833MPD2     N12307   3.849   2.164  12.430  0.3311 -0.4674  0.2692
  833MPD2    H512308   3.923   2.098  12.451 -0.7337 -1.8325 -0.2246
  833MPD2    N112309   3.394   2.294  12.532 -0.1948  0.3840  0.1005
  833MPD2    H712310   3.309   2.267  12.580 -1.2502  0.4460 -1.7196
  834MPD2     C12311   3.867   1.406  11.908  0.9848 -0.1712  0.0230
  834MPD2    C112312   3.812   1.490  11.810 -0.1689  0.9684 -0.3025
  834MPD2    C212313   3.834   1.628  11.821 -0.6111 -1.0254 -0.3787
  834MPD2    C312314   3.897   1.676  11.934  0.3446 -0.2762 -0.1184
  834MPD2    C412315   3.947   1.591  12.030 -0.1551 -0.2429  0.1197
  834MPD2    C512316   3.930   1.461  12.011 -0.1630 -0.2403  1.0296
  834MPD2     H12317   3.786   1.701  11.757 -0.7466  0.1093  1.0178
  834MPD2    H112318   4.004   1.626  12.116 -0.1674 -0.0300  0.0401
  834MPD2    H212319   3.848   1.299  11.911  2.9973 -0.6338 -5.3754
  834MPD2    H312320   3.972   1.393  12.084  2.6287  0.9930  0.5728
  834MPD2     N12321   3.908   1.823  11.958  0.0889 -0.1085 -0.2672
  834MPD2    H512322   3.853   1.883  11.897 -1.9327 -0.6386  1.0373
  834MPD2    N112323   3.728   1.432  11.706 -0.0692 -0.0932 -0.3288
  834MPD2    H712324   3.718   1.331  11.703  0.2828 -0.1055 -1.1482
  835MPD2     C12325   3.333   4.077  11.065 -0.0935  0.3354  0.2019
  835MPD2    C112326   3.203   4.081  11.115  0.3798 -0.3838  0.3489
  835MPD2    C212327   3.177   4.082  11.252  0.5197  0.1348  0.7265
  835MPD2    C312328   3.288   4.079  11.337  0.6715 -0.4360  0.3345
  835MPD2    C412329   3.419   4.075  11.287  0.6453 -0.1691 -0.0139
  835MPD2    C512330   3.440   4.075  11.150 -0.3241  0.6152 -0.3981
  835MPD2     H12331   3.077   4.067  11.291 -0.8321 -0.0722 -2.8954
  835MPD2    H112332   3.501   4.074  11.357  1.6594 -0.9080 -1.2185
  835MPD2    H212333   3.351   4.085  10.958 -1.5725 -0.9671 -0.1446
  835MPD2    H312334   3.541   4.086  11.113  0.2247  2.4951  1.6607
  835MPD2     N12335   3.264   4.057  11.478  0.8140  0.1641  0.5766
  835MPD2    H512336   3.346   4.074  11.535  1.1592  1.2231 -0.2267
  835MPD2    N112337   3.088   4.097  11.030 -0.0718  0.3368 -0.3057
  835MPD2    H712338   3.002   4.111  11.081  0.3690 -1.4942  0.9475
  836MPD2     C12339   2.630   4.276  11.658 -0.3137  0.4557  0.5038
  836MPD2    C112340   2.682   4.258  11.792 -0.4167 -0.5025  0.1524
  836MPD2    C212341   2.609   4.296  11.899 -0.0976  0.1488  0.1205
  836MPD2    C312342   2.475   4.338  11.890 -0.4890 -0.2324 -0.5409
  836MPD2    C412343   2.428   4.354  11.759  0.2189 -0.1846 -0.0114
  836MPD2    C512344   2.502   4.321  11.648  0.2603 -0.5166  0.0915
  836MPD2     H12345   2.654   4.292  11.997 -0.9828  0.8427  0.5621
  836MPD2    H112346   2.326   4.389  11.748  0.2611 -0.0607 -0.0133
  836MPD2    H212347   2.683   4.235  11.573 -0.5238  0.6766  0.2697
  836MPD2    H312348   2.450   4.335  11.554  0.6375 -2.3600 -0.3878
  836MPD2     N12349   2.394   4.367  12.003 -0.0337 -0.7084 -0.4496
  836MPD2    H512350   2.298   4.398  11.992 -0.1277 -1.2941 -1.3458
  836MPD2    N112351   2.817   4.206  11.790  0.5283 -0.6133 -0.0354
  836MPD2    H712352   2.857   4.202  11.696  2.7746  2.3669  0.8063
  837MPD2     C12353   1.749   4.023  10.192 -1.0058  0.0869  0.0766
  837MPD2    C112354   1.676   4.070  10.088 -0.8073 -0.0938  0.9235
  837MPD2    C212355   1.652   4.208  10.082  0.1789  0.1403 -0.1329
  837MPD2    C312356   1.701   4.297  10.170  0.4986  0.0297 -0.2190
  837MPD2    C412357   1.776   4.249  10.278 -0.1310  0.4196  0.0628
  837MPD2    C512358   1.803   4.114  10.284  0.3175  0.3963 -0.5826
  837MPD2     H12359   1.584   4.251  10.010 -0.4239  3.5650  2.4544
  837MPD2    H112360   1.831   4.318  10.341 -1.4036  1.7134 -0.2200
  837MPD2    H212361   1.762   3.917  10.212  0.7990 -0.5067 -4.3569
  837MPD2    H312362   1.841   4.074  10.377 -1.3095 -1.7670 -0.8509
  837MPD2     N12363   1.677   4.439  10.146  0.0140 -0.1695  0.2789
  837MPD2    H512364   1.622   4.463  10.064 -0.2008  0.7380  0.6828
  837MPD2    N112365   1.592   3.998   9.994 -0.3950 -0.4886  0.5284
  837MPD2    H712366   1.549   4.047   9.917  2.0375  2.5416  1.1315
  838MPD2     C12367   0.345   2.810  11.898 -0.2791 -0.2153 -0.1131
  838MPD2    C112368   0.231   2.735  11.866  0.2678  0.6955 -0.6068
  838MPD2    C212369   0.136   2.697  11.963  0.1017  0.4628 -0.3575
  838MPD2    C312370   0.171   2.724  12.095  0.2606  0.1723  0.0741
  838MPD2    C412371   0.281   2.803  12.126  0.6924 -0.8307 -0.2189
  838MPD2    C512372   0.371   2.842  12.027 -0.0792 -0.2805 -0.9279
  838MPD2     H12373   0.040   2.649  11.944 -0.2175  0.8672  0.2076
  838MPD2    H112374   0.297   2.835  12.228  0.1400 -0.4111 -0.2587
  838MPD2    H212375   0.416   2.848  11.825 -0.1931 -0.7165 -0.2885
  838MPD2    H312376   0.463   2.889  12.060 -2.0413  2.2390  0.9811
  838MPD2     N12377   0.077   2.689  12.198  0.4152 -0.0825 -0.1364
  838MPD2    H512378   4.729   2.638  12.168  0.5363 -1.4561  1.8999
  838MPD2    N112379   0.234   2.681  11.735 -0.2153 -0.2193 -0.2688
  838MPD2    H712380   0.317   2.701  11.680  0.6190 -3.0218 -0.0198
  839MPD2     C12381   0.081   1.779  11.874  0.2224 -0.6323 -0.6795
  839MPD2    C112382   0.086   1.780  11.741  0.1931  0.2091 -0.4264
  839MPD2    C212383   0.156   1.882  11.676 -0.0849 -0.1019  0.1821
  839MPD2    C312384   0.206   1.991  11.746 -0.0856 -0.1736  0.2569
  839MPD2    C412385   0.203   1.983  11.888  0.5914  0.1955 -0.1269
  839MPD2    C512386   0.143   1.875  11.948  0.6240  0.7046  0.0259
  839MPD2     H12387   0.148   1.878  11.568 -1.0475  1.7260  0.1993
  839MPD2    H112388   0.244   2.063  11.949  2.2974 -0.1089 -0.8502
  839MPD2    H212389   0.032   1.702  11.934  2.1085 -0.7757  0.6626
  839MPD2    H312390   0.154   1.871  12.056 -0.5220 -0.5818  0.0932
  839MPD2     N12391   0.240   2.114  11.682 -0.2276 -0.2956 -0.4481
  839MPD2    H512392   0.240   2.199  11.736  0.3433 -0.0797 -0.7874
  839MPD2    N112393   0.011   1.689  11.665 -0.2211 -0.2949 -0.4175
  839MPD2    H712394   0.019   1.698  11.564 -1.0758  5.1159 -0.0440
  840MPD2     C12395   4.420   0.159  10.259 -0.2688  0.8888  0.1926
  840MPD2    C112396   4.498   0.059  10.303 -0.4826  0.8616 -0.5271
  840MPD2    C212397   4.631   0.085  10.321  0.4893  0.2932  0.1531
  840MPD2    C312398   4.682   0.215  10.304  0.0700  0.7182 -0.3165
  840MPD2    C412399   4.605   0.317  10.259  0.2759 -0.2895  0.1237
  840MPD2    C512400   4.469   0.287  10.238 -0.3164  0.3794  0.2552
  840MPD2     H12401   4.693   0.009  10.368 -0.8536 -1.3997 -0.7958
  840MPD2    H112402   4.646   0.417  10.252  0.6959 -0.4025  1.0041
  840MPD2    H212403   4.317   0.149  10.228 -0.2524  2.6719 -0.4542
  840MPD2    H312404   4.397   0.360  10.204  2.6384  2.9922 -0.4616
  840MPD2     N12405   0.080   0.253  10.349 -0.5474  0.1198 -0.7829
  840MPD2    H512406   0.115   0.345  10.325 -1.9844  0.0700 -3.0327
  840MPD2    N112407   4.432   4.673  10.328 -0.3655  0.5715  0.1072
  840MPD2    H712408   4.335   4.662  10.301  0.2212 -0.3674 -1.6521
  841MPD2     C12409   0.123   4.456  14.369 -0.3880  0.0947  0.2891
  841MPD2    C112410   0.165   4.420  14.498 -0.2397  0.5445  0.0202
  841MPD2    C212411   0.299   4.415  14.521 -0.4600  0.0595 -0.2616
  841MPD2    C312412   0.392   4.453  14.424  0.0618 -0.0483  0.0776
  841MPD2    C412413   0.352   4.508  14.300 -0.0128 -0.6563  0.4467
  841MPD2    C512414   0.220   4.498  14.279  0.1869  0.7837 -0.1098
  841MPD2     H12415   0.327   4.390  14.623  0.2025 -0.9849 -0.6965
  841MPD2    H112416   0.416   4.540  14.219 -0.6285  1.5228  0.8187
  841MPD2    H212417   0.019   4.451  14.337  0.0774 -1.1648 -1.0793
  841MPD2    H312418   0.181   4.518  14.179 -2.0142 -1.0035  0.3725
  841MPD2     N12419   0.527   4.458  14.476  0.2944  0.0446  0.1646
  841MPD2    H512420   0.540   4.416  14.568  0.4596 -0.8967 -0.2900
  841MPD2    N112421   0.088   4.379  14.603 -0.5715 -0.6307  0.7519
  841MPD2    H712422   0.128   4.344  14.690  1.9633 -0.3500 -0.3139
  842MPD2     C12423   0.265   0.136  17.152 -0.6173  0.2991 -0.4600
  842MPD2    C112424   0.350   0.236  17.113 -0.2595  0.8448 -0.0435
  842MPD2    C212425   0.395   0.315  17.212  0.1553  0.0228  0.8765
  842MPD2    C312426   0.325   0.328  17.333  0.2766 -0.5062 -0.0549
  842MPD2    C412427   0.240   0.228  17.371  0.3896  0.0006 -0.4014
  842MPD2    C512428   0.213   0.131  17.275  0.0066  0.2491  1.2395
  842MPD2     H12429   0.465   0.394  17.186  0.0850 -0.5492 -1.0863
  842MPD2    H112430   0.195   0.216  17.469  0.1578 -2.0008 -0.7593
  842MPD2    H212431   0.239   0.062  17.077  1.3512 -1.1437  0.2621
  842MPD2    H312432   0.161   0.039  17.304  1.3362 -0.7410  0.4478
  842MPD2     N12433   0.350   0.418  17.438 -0.9631  0.0612  0.3408
  842MPD2    H512434   0.294   0.402  17.521 -0.3673  0.1237  0.7504
  842MPD2    N112435   0.399   0.232  16.982  0.0798  0.7988 -0.7631
  842MPD2    H712436   0.354   0.166  16.919 -1.2198  2.1436 -1.2406
  843MPD2     C12437   2.742   1.627   0.261  0.1115 -0.0388  0.3815
  843MPD2    C112438   2.827   1.588   0.356  0.4709 -1.1533  0.3929
  843MPD2    C212439   2.936   1.675   0.394 -0.6610  0.4187  0.3981
  843MPD2    C312440   2.951   1.790   0.329  0.6338  0.1513  0.0453
  843MPD2    C412441   2.864   1.823   0.224  0.2449  0.3286  0.3805
  843MPD2    C512442   2.761   1.746   0.194  0.3010  0.1026 -0.0240
  843MPD2     H12443   3.020   1.634   0.450  1.1374  2.1152 -1.0624
  843MPD2    H112444   2.881   1.914   0.169  0.6000 -0.6561 -1.1159
  843MPD2    H212445   2.651   1.571   0.240  0.5672 -0.6952  0.1262
  843MPD2    H312446   2.690   1.786   0.123 -1.0640 -0.7149  0.8855
  843MPD2     N12447   3.058   1.883   0.352  0.0676  0.4209 -0.4207
  843MPD2    H512448   3.075   1.953   0.282  0.4001 -0.5412 -1.3039
  843MPD2    N112449   2.813   1.461   0.420 -0.3980  0.2928  0.4920
  843MPD2    H712450   2.729   1.409   0.401  0.6284 -1.0189 -0.4534
  844MPD2     C12451   1.872   0.522  16.690 -0.1414  0.1568 -0.3130
  844MPD2    C112452   1.829   0.579  16.574  0.0309  0.7352 -0.5574
  844MPD2    C212453   1.817   0.713  16.573 -0.1233  0.8499 -0.4080
  844MPD2    C312454   1.840   0.792  16.684 -0.3379 -0.1954  0.4526
  844MPD2    C412455   1.879   0.731  16.797  0.4130  0.2079  0.3631
  844MPD2    C512456   1.896   0.597  16.799 -0.3538  0.3225  1.1597
  844MPD2     H12457   1.790   0.759  16.479 -2.7590  0.0053 -0.0502
  844MPD2    H112458   1.919   0.777  16.886 -1.0470  1.2421  0.4855
  844MPD2    H212459   1.885   0.415  16.700  0.2578  0.2004 -0.3377
  844MPD2    H312460   1.930   0.550  16.890  2.2750  1.7307  0.9115
  844MPD2     N12461   1.835   0.935  16.677  0.6935 -0.3727 -0.8285
  844MPD2    H512462   1.827   0.965  16.581  0.7175 -0.6599 -0.9204
  844MPD2    N112463   1.804   0.509  16.455  0.1070 -0.2868 -0.4947
  844MPD2    H712464   1.791   0.573  16.377 -1.3447 -2.1283 -1.7548
  845MPD2     C12465   1.615   1.541  17.426  0.0672  0.4459 -0.2141
  845MPD2    C112466   1.535   1.466  17.343 -0.7699  0.2144  0.5497
  845MPD2    C212467   1.583   1.436  17.214  0.8041  0.5412 -0.2541
  845MPD2    C312468   1.713   1.473  17.171  0.2011  0.2247 -0.2834
  845MPD2    C412469   1.794   1.543  17.258  0.3173  0.0229  0.1854
  845MPD2    C512470   1.739   1.578  17.385 -0.7427  0.4765 -0.2510
  845MPD2     H12471   1.502   1.393  17.157 -1.0499  2.9663  0.5186
  845MPD2    H112472   1.894   1.582  17.249  0.4118 -0.6400 -1.6975
  845MPD2    H212473   1.586   1.558  17.529 -0.5067  0.0529 -0.3131
  845MPD2    H312474   1.804   1.641  17.445 -0.3569  0.6618 -0.8575
  845MPD2     N12475   1.748   1.432  17.035  0.8912  1.2423 -0.1666
  845MPD2    H512476   1.672   1.382  16.989  1.9720 -2.2041  1.7840
  845MPD2    N112477   1.400   1.437  17.365  0.5102  0.2174 -0.0959
  845MPD2    H712478   1.347   1.411  17.282  0.0658 -2.0353  0.8893
  846MPD2     C12479   3.192   0.845  13.535  0.3372  0.3971  0.4716
  846MPD2    C112480   3.139   0.968  13.576  0.9744 -0.3531 -0.2038
  846MPD2    C212481   3.138   1.004  13.707  0.2617  0.2174  0.3769
  846MPD2    C312482   3.163   0.917  13.812  0.8844  0.1311  0.0865
  846MPD2    C412483   3.210   0.790  13.770 -0.0324 -0.5513  0.0638
  846MPD2    C512484   3.220   0.753  13.635 -0.1524 -0.0852  0.3596
  846MPD2     H12485   3.114   1.106  13.735 -1.0871  0.1600 -0.5935
  846MPD2    H112486   3.231   0.712  13.843 -1.3091 -1.0140 -0.0502
  846MPD2    H212487   3.208   0.817  13.432  5.5547  0.1346  1.3461
  846MPD2    H312488   3.256   0.654  13.612 -1.0943 -0.3320 -0.0750
  846MPD2     N12489   3.144   0.956  13.947 -0.4444 -0.2693  0.1098
  846MPD2    H512490   3.080   1.032  13.968  1.0157  0.8707  0.4744
  846MPD2    N112491   3.107   1.069  13.479  0.0860 -0.1200 -0.2665
  846MPD2    H712492   3.105   1.165  13.511 -1.1614  0.3087 -1.6561
  847MPD2     C12493   3.452   1.868  13.628  0.1155  0.4904 -0.3680
  847MPD2    C112494   3.481   1.945  13.743 -0.6334  0.0772 -0.1680
  847MPD2    C212495   3.491   1.880  13.863  0.2437 -0.5676  0.4556
  847MPD2    C312496   3.469   1.747  13.883 -0.2436 -0.0157  0.2503
  847MPD2    C412497   3.448   1.664  13.769  0.2953  0.0612 -0.4783
  847MPD2    C512498   3.439   1.733  13.646 -0.0257 -0.4221 -0.3794
  847MPD2     H12499   3.527   1.933  13.950  0.4827  0.1850 -0.1004
  847MPD2    H112500   3.435   1.557  13.777  3.0336 -0.1800  0.5474
  847MPD2    H212501   3.431   1.916  13.533 -3.3849  0.8067  0.5807
  847MPD2    H312502   3.420   1.680  13.554  0.1969  1.6025 -1.5908
  847MPD2     N12503   3.488   1.701  14.016 -0.3800 -0.1244  0.5188
  847MPD2    H512504   3.506   1.767  14.091 -0.0993  0.1545  0.2059
  847MPD2    N112505   3.486   2.087  13.755 -0.8694 -0.0656 -0.2965
  847MPD2    H712506   3.487   2.122  13.850 -1.4874 -0.3821 -0.1701
  848MPD2     C12507   1.517   0.809  16.271 -0.1542  0.2304  0.8082
  848MPD2    C112508   1.454   0.834  16.391 -0.3876 -0.3351 -0.0202
  848MPD2    C212509   1.376   0.948  16.403 -0.4988 -0.3327 -0.7272
  848MPD2    C312510   1.353   1.032  16.299 -0.1556 -0.4344  0.2674
  848MPD2    C412511   1.429   1.016  16.189  0.3275 -0.2692 -0.6398
  848MPD2    C512512   1.498   0.902  16.171 -0.3482 -0.4458 -0.6927
  848MPD2     H12513   1.324   0.945  16.499 -0.2557 -0.9806 -0.6172
  848MPD2    H112514   1.430   1.095  16.114 -0.6616 -0.7576 -1.1642
  848MPD2    H212515   1.578   0.720  16.254 -0.7873 -0.4693  2.2379
  848MPD2    H312516   1.549   0.895  16.075  1.2745 -2.1117  0.3009
  848MPD2     N12517   1.266   1.140  16.305  0.0603 -0.0429  0.2589
  848MPD2    H512518   1.248   1.185  16.215  2.5412  1.4975  0.5031
  848MPD2    N112519   1.455   0.737  16.499  0.3728 -0.4065 -0.3328
  848MPD2    H712520   1.397   0.764  16.578  0.9078 -0.7818  0.1882
  849MPD2     C12521   0.917   0.102  13.771  0.2785 -0.8172 -0.1332
  849MPD2    C112522   0.881   0.222  13.722  0.6673  0.5726  0.3310
  849MPD2    C212523   0.967   0.325  13.724 -0.0423  0.4913  0.1318
  849MPD2    C312524   1.080   0.321  13.794  0.0533  0.3960  0.3953
  849MPD2    C412525   1.108   0.208  13.863 -0.1605 -0.3690  0.2677
  849MPD2    C512526   1.031   0.093  13.843  0.5896 -0.0284  0.3504
  849MPD2     H12527   0.952   0.409  13.657 -2.6058  0.8289  1.1201
  849MPD2    H112528   1.194   0.187  13.925 -0.5842 -0.4773  0.8109
  849MPD2    H212529   0.856   0.018  13.740  0.5090 -0.9719 -0.1641
  849MPD2    H312530   1.065   4.732  13.881  0.2242  0.1510  1.1263
  849MPD2     N12531   1.155   0.442  13.807 -0.2854 -0.2801 -0.3619
  849MPD2    H512532   1.115   0.520  13.757 -0.5510 -0.2749 -0.1401
  849MPD2    N112533   0.754   0.237  13.656 -0.4661 -0.4329 -0.2626
  849MPD2    H712534   0.701   0.153  13.637 -0.8021  0.1830 -2.0256
  850MPD2     C12535   3.094   2.574  14.796 -0.1310  0.2075 -0.0428
  850MPD2    C112536   3.089   2.690  14.871 -0.0164 -0.8085  0.3659
  850MPD2    C212537   3.215   2.730  14.905  0.2540  0.6506 -0.1962
  850MPD2    C312538   3.332   2.655  14.889  0.0069  0.6643 -0.0015
  850MPD2    C412539   3.328   2.541  14.814  0.1774  0.6779 -0.1111
  850MPD2    C512540   3.210   2.505  14.762  0.2742 -0.0029  0.6005
  850MPD2     H12541   3.224   2.825  14.957  0.7138  0.1262  0.6808
  850MPD2    H112542   3.409   2.470  14.801  1.7926  2.5909 -0.4601
  850MPD2    H212543   3.003   2.517  14.779  0.7078 -1.1359 -0.0813
  850MPD2    H312544   3.201   2.404  14.724  1.2657  1.0038 -2.2684
  850MPD2     N12545   3.448   2.672  14.965  0.3882  0.0369  0.4402
  850MPD2    H512546   3.505   2.588  14.975 -2.9182 -2.3799 -0.8068
  850MPD2    N112547   2.964   2.754  14.900 -0.4419  0.3454  0.1677
  850MPD2    H712548   2.885   2.718  14.848 -0.6525  0.5063  0.3799
  851MPD2     C12549   3.498   2.840  15.557 -0.2435 -0.1489  0.9484
  851MPD2    C112550   3.426   2.786  15.454  0.2291  0.1085 -0.0772
  851MPD2    C212551   3.479   2.675  15.399  0.2336  0.3767 -0.7558
  851MPD2    C312552   3.588   2.613  15.449  0.4218  0.2978 -0.4622
  851MPD2    C412553   3.657   2.669  15.547 -0.2567 -0.2628 -1.0601
  851MPD2    C512554   3.607   2.781  15.606 -0.1623  0.0845  0.0812
  851MPD2     H12555   3.431   2.625  15.315 -0.4341 -1.2205  0.5755
  851MPD2    H112556   3.748   2.626  15.585 -0.0560  1.7717  0.7957
  851MPD2    H212557   3.462   2.926  15.612 -0.3967  0.8224 -0.6664
  851MPD2    H312558   3.658   2.822  15.693  0.4166 -0.4842  0.0117
  851MPD2     N12559   3.643   2.495  15.389  0.1952  0.1704  0.3158
  851MPD2    H512560   3.610   2.476  15.295 -0.0027  1.5161  0.1077
  851MPD2    N112561   3.307   2.849  15.407 -0.0741  0.5083  0.0897
  851MPD2    H712562   3.286   2.944  15.436 -2.2291 -0.2791  1.1781
  852MPD2     C12563   2.124   0.805  10.423 -0.2684 -0.0910 -0.1912
  852MPD2    C112564   2.234   0.863  10.473 -0.0825  0.7637  0.2172
  852MPD2    C212565   2.235   1.001  10.491 -1.2433  0.3179  0.2328
  852MPD2    C312566   2.143   1.081  10.420  0.3790  0.0053  0.2755
  852MPD2    C412567   2.029   1.019  10.366  0.0279 -0.2594 -0.2375
  852MPD2    C512568   2.025   0.882  10.369  0.1783 -0.9013 -0.1518
  852MPD2     H12569   2.317   1.049  10.543 -0.8981  0.3939 -0.3794
  852MPD2    H112570   1.948   1.073  10.318 -0.1486 -1.2535 -1.0484
  852MPD2    H212571   2.128   0.698  10.410 -0.7133  0.0916 -1.8667
  852MPD2    H312572   1.940   0.831  10.325  2.3278 -2.0920 -2.9947
  852MPD2     N12573   2.162   1.223  10.407 -0.1092 -0.5539  0.4493
  852MPD2    H512574   2.241   1.260  10.459 -1.1067  0.7419  1.0538
  852MPD2    N112575   2.348   0.801  10.522  0.1970  0.9730 -0.2523
  852MPD2    H712576   2.417   0.864  10.561 -0.4476  0.4123  1.8168
  853MPD2     C12577   4.689   0.492  12.286 -0.1872  0.1716  0.1029
  853MPD2    C112578   4.637   0.603  12.227  0.4352 -0.0736  0.2646
  853MPD2    C212579   4.588   0.595  12.098  0.8241 -0.1191  0.4573
  853MPD2    C312580   4.591   0.474  12.027 -0.2878  0.1504 -0.4993
  853MPD2    C412581   4.653   0.373  12.084 -0.4940  0.3487  0.8049
  853MPD2    C512582   4.699   0.377  12.211  0.2203  1.3158  1.2184
  853MPD2     H12583   4.539   0.676  12.044  0.4214 -0.4246  0.3634
  853MPD2    H112584   4.664   0.281  12.028 -0.2700  0.0504  1.3424
  853MPD2    H212585   4.727   0.489  12.388 -2.0227  0.5366  0.7967
  853MPD2    H312586   0.013   0.286  12.244  1.7021  1.5854 -0.2438
  853MPD2     N12587   4.534   0.452  11.900  0.3485  1.2470 -0.0055
  853MPD2    H512588   4.545   0.361  11.857 -0.9702  1.7598 -1.4669
  853MPD2    N112589   4.618   0.717  12.310 -0.7012 -0.7081  0.1644
  853MPD2    H712590   4.635   0.706  12.409  2.4085 -0.5428 -0.3327
  854MPD2     C12591   1.593   0.986  12.961 -0.2315  0.0851  0.3428
  854MPD2    C112592   1.706   1.056  12.936  0.2638 -0.3640  0.1643
  854MPD2    C212593   1.820   1.027  13.009  0.7282  0.6239  0.1042
  854MPD2    C312594   1.822   0.923  13.103  0.2380  0.1560 -0.2546
  854MPD2    C412595   1.704   0.846  13.116  0.0594  0.1363  0.7047
  854MPD2    C512596   1.587   0.869  13.037  0.6259  0.0003  0.2812
  854MPD2     H12597   1.903   1.095  12.992  0.8973  1.2479  3.5763
  854MPD2    H112598   1.689   0.773  13.195 -0.2368 -0.3480  0.2006
  854MPD2    H212599   1.499   1.027  12.928 -0.8172 -1.7857 -0.3137
  854MPD2    H312600   1.492   0.817  13.046  0.6407 -0.1610 -0.4632
  854MPD2     N12601   1.928   0.902  13.189  0.2884 -0.2382  0.1936
  854MPD2    H512602   1.923   0.820  13.247  0.3489 -0.1289  0.3528
  854MPD2    N112603   1.692   1.176  12.858  0.2692 -0.3286  0.1753
  854MPD2    H712604   1.602   1.194  12.815  0.5951  0.0552 -0.3501
  855MPD2     C12605   1.992   0.787  14.037  0.2565  0.8757 -0.3235
  855MPD2    C112606   2.028   0.682  13.961 -0.1890  0.2679  0.1006
  855MPD2    C212607   2.068   0.695  13.831  0.2077 -0.3530 -0.0888
  855MPD2    C312608   2.062   0.825  13.774 -0.1885 -0.0016  0.0927
  855MPD2    C412609   2.013   0.929  13.846 -0.2035  0.2227 -0.0779
  855MPD2    C512610   1.984   0.911  13.971 -0.3703 -0.8727 -0.4676
  855MPD2     H12611   2.107   0.610  13.776  1.2878 -0.1032  0.3008
  855MPD2    H112612   2.018   1.033  13.815  0.5770  1.1226  3.0347
  855MPD2    H212613   1.961   0.779  14.140  0.6936  1.0174 -0.1829
  855MPD2    H312614   1.957   1.002  14.022  0.3063 -0.6981 -0.4112
  855MPD2     N12615   2.118   0.852  13.647 -0.3274 -0.4099  0.0785
  855MPD2    H512616   2.120   0.947  13.611  0.6271 -0.8163 -0.9159
  855MPD2    N112617   2.023   0.551  14.019  0.4134 -0.5918 -0.1117
  855MPD2    H712618   2.017   0.545  14.120 -1.0598  1.8679 -0.0539
  856MPD2     C12619   4.453   1.115  13.713 -0.1197  0.5827 -0.1203
  856MPD2    C112620   4.455   1.249  13.662 -0.6436  0.9738 -0.2338
  856MPD2    C212621   4.336   1.315  13.639 -0.2422 -0.0911 -0.2529
  856MPD2    C312622   4.212   1.253  13.660 -0.3800  0.3456 -0.1948
  856MPD2    C412623   4.213   1.126  13.712  0.0870  0.1020  0.3005
  856MPD2    C512624   4.331   1.052  13.732  0.1182 -0.1285  0.0719
  856MPD2     H12625   4.338   1.419  13.609 -1.1583  0.3151  1.0690
  856MPD2    H112626   4.115   1.085  13.732 -0.2403 -0.1543 -1.7714
  856MPD2    H212627   4.537   1.052  13.742  0.1116  1.6961  1.6239
  856MPD2    H312628   4.331   0.949  13.766 -0.3292  0.5229  2.0536
  856MPD2     N12629   4.092   1.324  13.644 -0.3410 -0.5698 -0.6643
  856MPD2    H512630   4.007   1.275  13.671 -1.5479  1.6789 -0.4212
  856MPD2    N112631   4.568   1.325  13.635 -0.1970 -0.6598 -0.5666
  856MPD2    H712632   4.563   1.423  13.610 -2.6701 -0.2596  1.6284
  857MPD2     C12633   0.789   3.837  13.067  0.6587  0.2688  0.1019
  857MPD2    C112634   0.815   3.938  12.976  0.2854 -0.5501 -0.2192
  857MPD2    C212635   0.906   4.036  13.017  0.1509 -0.9627  0.3419
  857MPD2    C312636   0.963   4.036  13.148 -0.4389  0.2224  0.1997
  857MPD2    C412637   0.906   3.942  13.234  0.3471 -0.1794  0.3911
  857MPD2    C512638   0.821   3.842  13.196 -0.1726  1.4195 -0.0529
  857MPD2     H12639   0.942   4.125  12.965  1.2373 -0.7783  1.3864
  857MPD2    H112640   0.936   3.929  13.337  0.9621 -1.6839  0.0255
  857MPD2    H212641   0.714   3.768  13.029 -0.7885  1.6916  0.3318
  857MPD2    H312642   0.772   3.771  13.261  1.0641 -0.7454 -1.4802
  857MPD2     N12643   1.052   4.133  13.199  0.1763  0.3036  0.9472
  857MPD2    H512644   1.064   4.216  13.142  2.4193 -0.6596  0.0500
  857MPD2    N112645   0.758   3.935  12.849  0.1957  0.0707  0.7429
  857MPD2    H712646   0.699   3.855  12.829  0.9641  0.3690 -2.7272
  858MPD2     C12647   1.791   2.286  16.754  0.1121 -0.4619 -0.5989
  858MPD2    C112648   1.926   2.306  16.758  0.0573 -1.4642 -0.7802
  858MPD2    C212649   1.970   2.422  16.822  0.3998  0.2123 -0.2377
  858MPD2    C312650   1.891   2.500  16.905 -0.3749 -0.0885  0.2441
  858MPD2    C412651   1.753   2.463  16.906 -0.2306 -0.1844 -0.0142
  858MPD2    C512652   1.706   2.352  16.844 -0.0240 -0.1262 -0.7074
  858MPD2     H12653   2.075   2.447  16.818  0.6573 -0.6714  0.8726
  858MPD2    H112654   1.680   2.524  16.957 -0.3127 -0.0757 -0.2609
  858MPD2    H212655   1.747   2.212  16.688 -1.9114 -0.0675  0.2961
  858MPD2    H312656   1.603   2.323  16.862  0.1853 -1.2311 -1.2744
  858MPD2     N12657   1.932   2.613  16.984  0.2032  0.3444 -0.1525
  858MPD2    H512658   1.861   2.651  17.045 -0.4469  0.4371 -0.9760
  858MPD2    N112659   2.012   2.223  16.682  0.8822  0.0190  0.1820
  858MPD2    H712660   1.955   2.152  16.638 -1.1603  2.1323 -0.5783
  859MPD2     C12661   0.218   4.582  15.312 -0.0857  0.1570 -0.3867
  859MPD2    C112662   0.325   4.634  15.385  0.3698  0.0280 -0.1440
  859MPD2    C212663   0.430   4.551  15.419  0.1511 -0.2330 -0.6627
  859MPD2    C312664   0.423   4.415  15.387 -0.2361  0.0406  0.0325
  859MPD2    C412665   0.321   4.369  15.313  0.3243  0.3440 -0.0597
  859MPD2    C512666   0.220   4.450  15.280  0.0361  0.3032  0.0725
  859MPD2     H12667   0.515   4.594  15.471 -0.1767  1.4483 -1.5247
  859MPD2    H112668   0.322   4.268  15.275  0.2030 -0.3899  1.8962
  859MPD2    H212669   0.133   4.635  15.271 -1.9284 -0.8884  2.0925
  859MPD2    H312670   0.138   4.406  15.224 -0.1995  0.8667 -0.0184
  859MPD2     N12671   0.526   4.328  15.429 -0.2680  0.2051  0.1302
  859MPD2    H512672   0.535   4.246  15.369 -0.8609 -0.0124  0.3382
  859MPD2    N112673   0.336   0.031  15.435 -0.1967  0.0125  0.5818
  859MPD2    H712674   0.412   0.048  15.499 -0.1128 -0.3586  0.5785
  860MPD2     C12675   2.911   0.266  11.889  0.3655 -0.9168 -0.7922
  860MPD2    C112676   2.916   0.338  12.010  0.2291 -0.0050  0.1516
  860MPD2    C212677   2.807   0.359  12.089  0.2760 -0.2356  0.0215
  860MPD2    C312678   2.676   0.328  12.041  0.0282  0.6227 -0.1257
  860MPD2    C412679   2.663   0.264  11.920 -0.2866 -0.3604 -0.5029
  860MPD2    C512680   2.778   0.229  11.852  0.6185  0.4490  0.0356
  860MPD2     H12681   2.812   0.410  12.185 -0.1702 -1.1251  0.5183
  860MPD2    H112682   2.573   0.239  11.866  1.1774 -2.4583 -1.9523
  860MPD2    H212683   2.996   0.242  11.826  1.5194 -0.7336  0.6977
  860MPD2    H312684   2.765   0.181  11.756 -0.9911  1.3189 -0.1762
  860MPD2     N12685   2.566   0.367  12.121 -0.5410 -0.4592  0.0894
  860MPD2    H512686   2.573   0.410  12.212 -2.4993 -0.6989  0.3653
  860MPD2    N112687   3.043   0.369  12.072 -0.1775 -0.4643 -0.1566
  860MPD2    H712688   3.029   0.394  12.170 -0.0329  3.2511 -1.1019
  861MPD2     C12689   1.430   3.480  10.956 -0.5074  0.3358  0.0770
  861MPD2    C112690   1.318   3.492  11.028 -0.0531  0.4328  0.2613
  861MPD2    C212691   1.201   3.521  10.964 -0.1548  0.7938 -0.3661
  861MPD2    C312692   1.203   3.537  10.829 -0.0107 -1.1308 -0.3188
  861MPD2    C412693   1.311   3.523  10.750 -0.0338 -0.6063 -0.3033
  861MPD2    C512694   1.429   3.501  10.820  0.0629 -0.2861  0.2572
  861MPD2     H12695   1.106   3.535  11.014  0.2512 -0.1583  0.6969
  861MPD2    H112696   1.315   3.542  10.643 -0.0025 -2.4150 -0.6166
  861MPD2    H212697   1.527   3.452  10.996 -0.3825 -0.6320 -0.9106
  861MPD2    H312698   1.519   3.486  10.762 -1.3386 -0.0460 -2.0297
  861MPD2     N12699   1.081   3.571  10.761 -0.3765  0.2608  0.6941
  861MPD2    H512700   1.081   3.566  10.659  1.4002  2.0854  0.6103
  861MPD2    N112701   1.323   3.469  11.168  0.1288 -0.0451 -0.1963
  861MPD2    H712702   1.233   3.456  11.214  0.8974  1.5692  1.7637
  862MPD2     C12703   0.508   3.350  10.254 -0.2862 -0.9002  1.4964
  862MPD2    C112704   0.447   3.395  10.367  0.0039 -0.0555 -0.0270
  862MPD2    C212705   0.323   3.348  10.394  0.5755  0.1251 -0.0140
  862MPD2    C312706   0.267   3.254  10.313 -0.1605 -0.1880  0.4264
  862MPD2    C412707   0.331   3.211  10.198 -0.1941 -0.2418 -0.7083
  862MPD2    C512708   0.458   3.255  10.171  0.0598 -0.2485 -0.6747
  862MPD2     H12709   0.283   3.372  10.492  0.4528 -0.7055  0.1451
  862MPD2    H112710   0.295   3.142  10.123  0.7728 -0.2740 -1.1414
  862MPD2    H212711   0.603   3.394  10.225 -0.7614 -0.6308  0.3211
  862MPD2    H312712   0.522   3.216  10.092 -0.7869  2.6708 -2.8353
  862MPD2     N12713   0.153   3.186  10.361 -0.6057  0.4816 -0.3211
  862MPD2    H512714   0.122   3.218  10.452 -1.3002 -1.0858 -0.0080
  862MPD2    N112715   0.518   3.473  10.460 -0.2279  0.0864  0.5615
  862MPD2    H712716   0.457   3.521  10.526 -1.3191 -2.4581  1.3958
  863MPD2     C12717   0.152   1.797  16.839 -0.1113 -0.4280 -0.5722
  863MPD2    C112718   0.108   1.918  16.876  0.4351  0.4674  0.1563
  863MPD2    C212719   0.147   1.985  17.001  0.3368  0.4564 -0.5004
  863MPD2    C312720   0.228   1.907  17.085  0.9660  0.1283  0.6003
  863MPD2    C412721   0.260   1.775  17.052  0.6879  0.5709 -0.1811
  863MPD2    C512722   0.231   1.724  16.931  0.5055 -0.1302  0.1397
  863MPD2     H12723   0.115   2.086  17.025  1.3096  0.2066  1.8861
  863MPD2    H112724   0.316   1.716  17.124  1.2969 -1.7795 -2.5744
  863MPD2    H212725   0.128   1.752  16.744 -3.6666  1.9994 -0.8096
  863MPD2    H312726   0.266   1.623  16.913 -0.2859 -0.6510  1.5060
  863MPD2     N12727   0.285   1.948  17.209  0.3436 -0.2482  0.7995
  863MPD2    H512728   0.334   1.882  17.269  0.6153 -0.6733  0.1048
  863MPD2    N112729   0.026   1.987  16.783 -0.3797  0.7130 -0.0417
  863MPD2    H712730   0.019   1.934  16.697  0.4071 -1.7497  1.4050
  864MPD2     C12731   0.712   2.692  17.161  0.4006  0.4505 -0.7398
  864MPD2    C112732   0.651   2.810  17.122 -0.6879 -0.2977 -0.0932
  864MPD2    C212733   0.723   2.928  17.101 -0.0125 -0.1775 -1.1367
  864MPD2    C312734   0.859   2.920  17.133  0.3397 -0.6258 -0.3970
  864MPD2    C412735   0.926   2.799  17.155 -0.8046  0.4185 -0.4619
  864MPD2    C512736   0.850   2.687  17.164  0.0772 -0.3731 -0.2410
  864MPD2     H12737   0.675   3.018  17.064  0.0907  0.0390 -0.7433
  864MPD2    H112738   1.034   2.793  17.153 -0.7930  0.0425  1.0294
  864MPD2    H212739   0.665   2.595  17.169  0.2084  0.1950 -4.9519
  864MPD2    H312740   0.906   2.594  17.164 -0.0360 -0.4479  0.9792
  864MPD2     N12741   0.945   3.031  17.103  0.3915  0.7849  0.5790
  864MPD2    H512742   1.042   3.006  17.086 -0.7536 -4.2014  1.6817
  864MPD2    N112743   0.519   2.809  17.085 -0.4290 -0.6135  0.0386
  864MPD2    H712744   0.472   2.719  17.078  1.7314 -1.6915 -0.6076
  865MPD2     C12745   1.119   3.615  16.264  0.6229 -0.0110  0.3633
  865MPD2    C112746   1.027   3.528  16.315 -0.7513  0.3135 -0.1355
  865MPD2    C212747   1.027   3.496  16.453 -0.0661  0.1240 -0.0117
  865MPD2    C312748   1.128   3.549  16.537  0.2344  1.4155  0.4916
  865MPD2    C412749   1.220   3.632  16.480  0.1685  0.0501 -0.1928
  865MPD2    C512750   1.217   3.659  16.349 -0.6049 -0.0218  0.0693
  865MPD2     H12751   0.948   3.434  16.494  1.5913 -1.0700  1.3962
  865MPD2    H112752   1.296   3.680  16.541  0.2039 -1.8290  1.2612
  865MPD2    H212753   1.114   3.662  16.166 -1.8168 -1.0226  0.0003
  865MPD2    H312754   1.292   3.726  16.306 -1.4708  0.3734 -0.8313
  865MPD2     N12755   1.145   3.511  16.678  0.6955  0.0455 -0.6035
  865MPD2    H512756   1.228   3.556  16.716 -0.4142  2.0994 -0.6417
  865MPD2    N112757   0.931   3.482  16.220  0.4751 -0.7257  0.0562
  865MPD2    H712758   0.936   3.516  16.124 -1.7983  0.8877  0.5132
  866MPD2     C12759   1.947   3.584  11.387  0.2214  0.3683 -0.5050
  866MPD2    C112760   1.952   3.625  11.256  0.3518  0.5857 -0.2494
  866MPD2    C212761   1.847   3.698  11.206  0.3313  0.4080  0.4342
  866MPD2    C312762   1.738   3.733  11.289  0.1751  0.0920  0.6648
  866MPD2    C412763   1.729   3.691  11.418  0.1148 -0.0720 -0.4048
  866MPD2    C512764   1.834   3.614  11.459 -0.0973  0.9854  0.8468
  866MPD2     H12765   1.858   3.726  11.102 -0.3015 -0.3849  0.1596
  866MPD2    H112766   1.635   3.679  11.470  0.5511 -0.8776  0.1918
  866MPD2    H212767   2.038   3.545  11.432  0.7221  1.5436 -0.4821
  866MPD2    H312768   1.830   3.566  11.556  1.7664  0.7413  0.8053
  866MPD2     N12769   1.620   3.796  11.242  0.2854 -0.2807  0.0812
  866MPD2    H512770   1.558   3.827  11.316 -0.4432  1.7374 -1.3891
  866MPD2    N112771   2.066   3.583  11.179 -0.1697 -0.0915 -0.1041
  866MPD2    H712772   2.138   3.533  11.230  0.1023 -0.6527 -1.0389
  867MPD2     C12773   3.999   3.000  16.608 -0.8283 -0.3626 -0.7179
  867MPD2    C112774   4.052   3.016  16.735 -0.5185 -0.7616 -0.4231
  867MPD2    C212775   4.026   3.127  16.813 -0.0839 -0.3460  1.0520
  867MPD2    C312776   3.963   3.234  16.749  0.3762  0.3194  0.2967
  867MPD2    C412777   3.926   3.226  16.615 -0.1463  0.2682  0.0087
  867MPD2    C512778   3.944   3.113  16.546  0.1796  0.6189 -0.5653
  867MPD2     H12779   4.051   3.127  16.918  1.6460 -1.2232  0.6292
  867MPD2    H112780   3.882   3.306  16.556  0.7865 -0.1074 -1.2096
  867MPD2    H212781   4.007   2.909  16.550 -0.8044  0.2516 -1.6778
  867MPD2    H312782   3.909   3.119  16.443 -0.8933 -2.3351 -0.3703
  867MPD2     N12783   3.949   3.356  16.820  0.1937  0.0145  0.6750
  867MPD2    H512784   3.944   3.441  16.765 -1.3215 -0.3735  0.2282
  867MPD2    N112785   4.128   2.912  16.787 -0.2167  0.0383  0.7250
  867MPD2    H712786   4.152   2.843  16.717  1.4112  1.3167  0.0203
  868MPD2     C12787   1.245   2.974  13.450  0.3514  0.2888  0.6448
  868MPD2    C112788   1.285   2.856  13.495  0.0585  0.0973  0.5080
  868MPD2    C212789   1.205   2.781  13.584 -0.0862 -0.0118  0.2957
  868MPD2    C312790   1.086   2.833  13.630  0.7505  0.1082 -0.2842
  868MPD2    C412791   1.045   2.956  13.584  0.5196  0.8516  0.2447
  868MPD2    C512792   1.123   3.025  13.490  0.0606 -0.1745 -0.6820
  868MPD2     H12793   1.241   2.686  13.622  1.1510  0.0852 -0.6346
  868MPD2    H112794   0.950   2.993  13.621  1.0898  0.3734  2.1860
  868MPD2    H212795   1.302   3.038  13.384 -0.8252 -1.2295 -1.8551
  868MPD2    H312796   1.080   3.119  13.455 -1.9560 -1.7319 -2.4018
  868MPD2     N12797   1.008   2.755  13.717 -0.5665  0.6877  0.1406
  868MPD2    H512798   1.057   2.676  13.756 -0.2827  0.9566  0.3285
  868MPD2    N112799   1.416   2.811  13.453 -0.6253  0.0867 -0.3461
  868MPD2    H712800   1.456   2.873  13.383  1.6261  1.5247  2.2494
  869MPD2     C12801   3.117   1.847   2.359 -0.0873  0.4004 -0.1657
  869MPD2    C112802   3.106   1.715   2.310  0.2773  0.1443  0.1089
  869MPD2    C212803   3.093   1.691   2.174 -0.5783 -0.1278 -0.0813
  869MPD2    C312804   3.080   1.804   2.092 -0.0078 -0.1916  0.0530
  869MPD2    C412805   3.088   1.936   2.137 -0.2345 -0.5108  0.5952
  869MPD2    C512806   3.112   1.956   2.268  0.0898  0.4030 -0.4080
  869MPD2     H12807   3.077   1.589   2.141  3.1118 -0.8468  0.3289
  869MPD2    H112808   3.075   2.024   2.075 -3.0410 -1.6018 -0.3242
  869MPD2    H212809   3.139   1.862   2.464  0.7730  0.0953 -0.3005
  869MPD2    H312810   3.122   2.055   2.310  2.0551 -0.2229  0.5798
  869MPD2     N12811   3.037   1.786   1.962  0.0360  0.0744 -0.5944
  869MPD2    H512812   3.030   1.876   1.915  2.1452  0.0632 -0.9355
  869MPD2    N112813   3.106   1.616   2.404  0.0383 -0.1258  0.2534
  869MPD2    H712814   3.126   1.640   2.501 -1.5955  1.4623  0.1975
  870MPD2     C12815   2.145   4.064   1.624 -0.3056  0.4361 -0.1569
  870MPD2    C112816   2.120   3.996   1.510  0.6266  0.5084 -0.4645
  870MPD2    C212817   1.991   3.998   1.447  0.4436  0.4671 -0.1909
  870MPD2    C312818   1.899   4.097   1.490 -0.6891  0.2037 -0.1087
  870MPD2    C412819   1.927   4.170   1.605 -0.3636 -0.0055 -0.1851
  870MPD2    C512820   2.045   4.147   1.670  0.0901  0.0867 -0.4803
  870MPD2     H12821   1.978   3.939   1.357 -0.0783 -1.2552  1.0266
  870MPD2    H112822   1.862   4.247   1.645  1.1321  1.7513 -1.1949
  870MPD2    H212823   2.244   4.066   1.670 -0.3100  0.8907 -0.1657
  870MPD2    H312824   2.066   4.213   1.753  2.1017  0.1830 -1.0736
  870MPD2     N12825   1.785   4.113   1.411 -0.1023 -0.1948  0.2931
  870MPD2    H512826   1.789   4.090   1.312  0.2741  0.7897  0.0788
  870MPD2    N112827   2.212   3.902   1.459 -0.5995  0.2540 -0.8088
  870MPD2    H712828   2.193   3.875   1.363  0.0368  1.7833 -1.3694
  871MPD2     C12829   3.215   3.446  16.319 -0.4022  0.1768 -0.5072
  871MPD2    C112830   3.198   3.381  16.442  0.2355 -0.6220 -0.5374
  871MPD2    C212831   3.177   3.247  16.446 -0.5251  0.3962  0.3716
  871MPD2    C312832   3.181   3.174  16.327  1.2743  0.3271  0.5813
  871MPD2    C412833   3.196   3.239  16.205  0.7277  0.1701  0.2801
  871MPD2    C512834   3.210   3.378  16.202 -0.7259  0.1650 -0.1818
  871MPD2     H12835   3.171   3.196  16.541 -1.1109  2.8258  1.6448
  871MPD2    H112836   3.192   3.189  16.109 -2.3658 -0.5445  0.7847
  871MPD2    H212837   3.229   3.554  16.318 -0.0900  0.1136 -2.9388
  871MPD2    H312838   3.218   3.432  16.108 -1.3267 -0.8043 -0.7935
  871MPD2     N12839   3.162   3.030  16.333  0.3625 -0.0828 -0.4286
  871MPD2    H512840   3.135   2.988  16.421 -1.6121  1.7870 -0.1649
  871MPD2    N112841   3.202   3.468  16.553 -0.6234  0.7003 -0.6644
  871MPD2    H712842   3.228   3.565  16.536 -0.6056  0.6133 -1.1276
  872MPD2     C12843   4.264   0.438  13.567  0.0906  0.4145  0.4783
  872MPD2    C112844   4.275   0.570  13.539 -0.3030  0.2738 -0.2742
  872MPD2    C212845   4.168   0.651  13.518 -0.3201 -0.0995  0.0410
  872MPD2    C312846   4.043   0.604  13.549 -0.0924  0.5440 -0.0793
  872MPD2    C412847   4.026   0.473  13.583  0.2783  0.3440  0.3861
  872MPD2    C512848   4.136   0.388  13.592 -0.1897  0.4433 -1.3115
  872MPD2     H12849   4.194   0.756  13.511 -0.8894 -0.0533 -1.4077
  872MPD2    H112850   3.932   0.423  13.604 -0.0612  1.3527  1.2652
  872MPD2    H212851   4.351   0.374  13.560  0.2671  0.6479  0.5683
  872MPD2    H312852   4.114   0.288  13.630 -0.3422  0.9097 -0.1664
  872MPD2     N12853   3.923   0.686  13.540 -0.3129  0.1903  0.0533
  872MPD2    H512854   3.840   0.645  13.581 -0.2842  1.7687  1.6897
  872MPD2    N112855   4.404   0.627  13.530 -0.0099  0.0393 -0.2608
  872MPD2    H712856   4.404   0.728  13.514  0.7194 -0.0203 -0.6234
  873MPD2     C12857   1.540   1.606   1.414 -0.4465  0.2205 -0.6910
  873MPD2    C112858   1.406   1.623   1.432 -0.0194  0.0827  0.3062
  873MPD2    C212859   1.332   1.509   1.453  0.1464 -0.8078  0.7698
  873MPD2    C312860   1.386   1.381   1.464  0.2728 -0.7085 -0.2482
  873MPD2    C412861   1.519   1.370   1.433 -0.1462  0.0472  0.1194
  873MPD2    C512862   1.596   1.482   1.412 -0.4855 -0.2363  0.0136
  873MPD2     H12863   1.232   1.524   1.492 -0.0161 -2.0092  0.8168
  873MPD2    H112864   1.571   1.278   1.455 -0.0478  0.0467 -0.1142
  873MPD2    H212865   1.605   1.694   1.406  0.9854 -0.6661  1.0143
  873MPD2    H312866   1.704   1.482   1.421 -0.6135 -2.2129  1.5267
  873MPD2     N12867   1.314   1.262   1.479 -0.6910  1.0114  0.1305
  873MPD2    H512868   1.351   1.169   1.462 -1.1609  0.6203  1.2136
  873MPD2    N112869   1.349   1.753   1.432 -0.2727 -0.6285 -0.2454
  873MPD2    H712870   1.412   1.828   1.406  0.5148 -0.9816  0.6620
  874MPD2     C12871   0.531   0.658  16.172 -0.1844 -0.3768 -0.2206
  874MPD2    C112872   0.580   0.674  16.301  0.4178  1.0334  0.1401
  874MPD2    C212873   0.655   0.784  16.334  0.1368  0.0918 -0.4843
  874MPD2    C312874   0.679   0.890  16.245 -0.6255  0.1499  0.0357
  874MPD2    C412875   0.629   0.872  16.113 -0.4674 -0.1848  0.3645
  874MPD2    C512876   0.564   0.761  16.083  0.0335  0.0090 -0.2489
  874MPD2     H12877   0.695   0.800  16.434 -0.0651 -0.3255 -0.3330
  874MPD2    H112878   0.642   0.948  16.036  0.1808  0.3243  0.9744
  874MPD2    H212879   0.485   0.564  16.144  1.2621 -0.4434 -2.4162
  874MPD2    H312880   0.520   0.759  15.984  2.0633 -0.5579 -1.1404
  874MPD2     N12881   0.749   1.007  16.283 -0.1551  0.2796 -0.3942
  874MPD2    H512882   0.771   1.029  16.379  0.1565 -1.2047 -0.1315
  874MPD2    N112883   0.553   0.572  16.393  0.6531 -0.0630 -0.2590
  874MPD2    H712884   0.497   0.493  16.361  0.8970 -1.0711  1.7445
  875MPD2     C12885   1.606   3.797  14.767 -0.3067 -0.0505 -0.2528
  875MPD2    C112886   1.502   3.887  14.793 -0.4553 -0.4057  0.2935
  875MPD2    C212887   1.509   3.983  14.894  0.4149 -0.3506 -0.8284
  875MPD2    C312888   1.622   3.984  14.977  0.5430 -0.0709  0.2379
  875MPD2    C412889   1.722   3.892  14.946 -0.1687  1.5326 -0.5184
  875MPD2    C512890   1.718   3.799  14.842 -0.7239 -0.1514 -0.6366
  875MPD2     H12891   1.425   4.051  14.910  1.2556  0.8964 -1.7002
  875MPD2    H112892   1.807   3.875  15.011  0.2140  0.3117 -1.3491
  875MPD2    H212893   1.590   3.708  14.708 -1.2230  0.9499 -1.5334
  875MPD2    H312894   1.778   3.710  14.856 -0.2958  0.2821  0.3370
  875MPD2     N12895   1.650   4.076  15.082  0.4224 -0.1680  0.6587
  875MPD2    H512896   1.741   4.069  15.127  0.0452  2.4804  1.8314
  875MPD2    N112897   1.380   3.890  14.717  0.0064 -0.2327 -0.1331
  875MPD2    H712898   1.310   3.960  14.741  1.9557  2.0895 -1.2687
  876MPD2     C12899   0.539   0.336  15.891  0.1210  0.3281  0.2665
  876MPD2    C112900   0.668   0.362  15.939 -0.1822  0.3920 -0.3451
  876MPD2    C212901   0.738   0.281  16.033  0.0665 -0.7368 -0.4888
  876MPD2    C312902   0.676   0.166  16.080  0.2877 -0.7228 -0.0177
  876MPD2    C412903   0.554   0.129  16.018 -0.6858 -0.0767  0.8381
  876MPD2    C512904   0.487   0.214  15.933 -0.5271 -0.8160 -0.1193
  876MPD2     H12905   0.839   0.307  16.064 -0.7862  0.7102  1.0925
  876MPD2    H112906   0.504   0.036  16.045  0.2534 -0.1555  2.2729
  876MPD2    H212907   0.479   0.401  15.828 -0.6438 -0.5373  0.1070
  876MPD2    H312908   0.386   0.192  15.898 -1.1384  2.6442 -0.5442
  876MPD2     N12909   0.751   0.083  16.161 -0.3547  0.2482  0.0840
  876MPD2    H512910   0.837   0.127  16.195  1.1877 -1.1580 -1.9651
  876MPD2    N112911   0.723   0.482  15.887 -0.1314  0.1259 -0.3400
  876MPD2    H712912   0.672   0.523  15.810  0.3884 -0.0527 -0.7824
  877MPD2     C12913   0.433   0.866  15.416 -0.5961 -0.4124 -1.3278
  877MPD2    C112914   0.570   0.864  15.392 -0.4824 -0.3271  0.4922
  877MPD2    C212915   0.614   0.855  15.261  0.2883  0.0155  0.3388
  877MPD2    C312916   0.522   0.870  15.151 -0.3482  0.0015 -0.2160
  877MPD2    C412917   0.384   0.867  15.183 -0.0057 -0.0300 -0.1528
  877MPD2    C512918   0.344   0.868  15.313  0.4063  0.3461  0.4209
  877MPD2     H12919   0.720   0.843  15.244 -0.2375 -1.7023 -1.7276
  877MPD2    H112920   0.312   0.862  15.103 -0.0836  0.6257 -0.1278
  877MPD2    H212921   0.384   0.878  15.511 -0.1116  0.1089 -1.1428
  877MPD2    H312922   0.238   0.868  15.333  0.4939 -0.8776  0.8859
  877MPD2     N12923   0.567   0.870  15.017  0.1291 -0.3844 -0.1612
  877MPD2    H512924   0.496   0.858  14.945 -1.8859 -0.7042  1.8988
  877MPD2    N112925   0.666   0.859  15.490  0.6992 -0.6967 -0.3237
  877MPD2    H712926   0.757   0.849  15.448 -0.6667  0.2300 -3.5108
  878MPD2     C12927   0.518   0.228  12.705  0.1264 -0.3216  0.1550
  878MPD2    C112928   0.539   0.359  12.736 -0.7933  0.2162 -0.2785
  878MPD2    C212929   0.539   0.402  12.868  0.3221 -0.7036 -0.5570
  878MPD2    C312930   0.516   0.315  12.973  1.0274  0.0765 -0.2217
  878MPD2    C412931   0.480   0.184  12.937 -0.3236 -0.0193 -0.3953
  878MPD2    C512932   0.491   0.144  12.803 -0.9942  0.5526 -1.1729
  878MPD2     H12933   0.567   0.505  12.888  1.5134 -0.6683 -2.4419
  878MPD2    H112934   0.483   0.105  13.010  0.9104  0.7393  0.3732
  878MPD2    H212935   0.519   0.182  12.607 -2.7984 -1.3879  0.6292
  878MPD2    H312936   0.465   0.041  12.785  0.9897  0.1449 -1.7542
  878MPD2     N12937   0.526   0.367  13.105  0.5530  0.5931  0.7517
  878MPD2    H512938   0.554   0.464  13.113  0.4230  0.6136  0.9487
  878MPD2    N112939   0.548   0.441  12.625  0.1253 -0.0367  0.1060
  878MPD2    H712940   0.529   0.392  12.538 -0.7700 -1.2421  0.9816
  879MPD2     C12941   0.672   2.264  17.233  0.2616 -0.2057 -0.0766
  879MPD2    C112942   0.722   2.164  17.311  0.1209 -0.1022  0.9676
  879MPD2    C212943   0.696   2.034  17.275 -0.0699  0.3396 -0.4816
  879MPD2    C312944   0.637   1.999  17.157  0.3335 -0.3352 -0.5800
  879MPD2    C412945   0.594   2.109  17.076  0.0853 -0.5051  0.5205
  879MPD2    C512946   0.606   2.238  17.118 -0.7307  0.7057 -0.5399
  879MPD2     H12947   0.718   1.953  17.343 -3.1615 -1.4384 -1.5877
  879MPD2    H112948   0.537   2.096  16.985 -1.9375  0.0882  1.7126
  879MPD2    H212949   0.677   2.367  17.267  0.4513 -0.3282  0.2744
  879MPD2    H312950   0.572   2.321  17.057  1.4260  1.2251 -1.0301
  879MPD2     N12951   0.587   1.868  17.129  0.4634 -0.1324  0.1699
  879MPD2    H512952   0.556   1.849  17.035  0.1507 -0.6245  0.3714
  879MPD2    N112953   0.788   2.202  17.425  0.2463 -0.9713  0.2691
  879MPD2    H712954   0.775   2.298  17.455 -3.5959 -2.1810  2.5698
  880MPD2     C12955   1.958   3.532   0.647  0.1503 -0.2643 -0.0251
  880MPD2    C112956   2.035   3.593   0.554  0.1868 -0.2142  0.7553
  880MPD2    C212957   2.156   3.538   0.521  1.1085  0.4614  0.0622
  880MPD2    C312958   2.209   3.428   0.590 -0.3175  0.1243 -0.3138
  880MPD2    C412959   2.135   3.370   0.689 -0.7415 -0.4403 -0.0759
  880MPD2    C512960   2.006   3.414   0.714  0.5312 -0.0441 -0.6792
  880MPD2     H12961   2.214   3.590   0.447  0.1187 -0.0941 -1.1032
  880MPD2    H112962   2.172   3.277   0.732 -1.5666 -0.7524 -0.0463
  880MPD2    H212963   1.860   3.570   0.674  0.3003 -0.1797  0.4017
  880MPD2    H312964   1.950   3.364   0.792 -0.9482  1.5424 -0.7148
  880MPD2     N12965   2.341   3.387   0.551 -0.0899 -0.1541  0.2935
  880MPD2    H512966   2.392   3.440   0.481  0.5159  1.5761  2.0347
  880MPD2    N112967   1.986   3.714   0.502  0.3123 -0.7439 -0.2042
  880MPD2    H712968   1.906   3.755   0.548  0.6432  0.5352 -0.7595
  881MPD2     C12969   1.771   4.344  17.347  0.1745 -0.7081  0.1522
  881MPD2    C112970   1.860   4.241  17.361  0.2364 -1.1751  0.3063
  881MPD2    C212971   1.880   4.188  17.492  0.6937 -0.1769  0.4413
  881MPD2    C312972   1.805   4.233  17.598 -0.0582 -0.5585  0.0905
  881MPD2    C412973   1.711   4.332  17.575 -0.1683  0.3595  0.5364
  881MPD2    C512974   1.699   4.388  17.451  0.0384 -0.2142 -0.0169
  881MPD2     H12975   1.961   4.119  17.516  0.4866 -0.2275  0.9897
  881MPD2    H112976   1.638   4.367  17.646  0.1495  2.0519  0.0258
  881MPD2    H212977   1.738   4.374  17.248  0.6916  1.8044  0.7624
  881MPD2    H312978   1.619   4.458  17.428 -0.0790 -0.7062 -1.1263
  881MPD2     N12979   1.816   4.177  17.728 -0.0484  0.7810  0.0552
  881MPD2    H512980   1.741   4.198   0.054  0.3772  0.0323  0.7903
  881MPD2    N112981   1.957   4.229  17.259  0.1334 -0.8058  0.0459
  881MPD2    H712982   1.952   4.275  17.169  1.2634 -2.6874 -0.9728
  882MPD2     C12983   0.639   0.255  14.436 -0.2311  0.0128 -0.5247
  882MPD2    C112984   0.573   0.322  14.535  0.2450  0.5334  0.2169
  882MPD2    C212985   0.457   0.265  14.589 -0.4191 -0.7183 -0.3490
  882MPD2    C312986   0.403   0.143  14.541 -0.3315 -0.0400  0.2128
  882MPD2    C412987   0.471   0.078  14.436 -0.3036 -0.0251 -0.1654
  882MPD2    C512988   0.590   0.130  14.388 -0.5270 -0.1822 -0.0409
  882MPD2     H12989   0.401   0.321  14.663 -0.2627 -1.2878  0.1948
  882MPD2    H112990   0.433   4.719  14.397  2.4848 -0.0214 -2.9051
  882MPD2    H212991   0.731   0.291  14.392 -0.0541 -1.3071 -1.2417
  882MPD2    H312992   0.633   0.091  14.297  1.0946 -2.2475  1.6247
  882MPD2     N12993   0.276   0.087  14.583  0.4682 -0.1732  0.1205
  882MPD2    H512994   0.260   4.730  14.543 -0.2770 -0.2025  0.5045
  882MPD2    N112995   0.628   0.445  14.578 -0.3693 -0.4073  0.4899
  882MPD2    H712996   0.723   0.462  14.546 -0.3433  0.2696  0.9402
  883MPD2     C12997   2.949   0.766  15.745 -0.0357  0.1210 -0.8157
  883MPD2    C112998   3.046   0.844  15.686  0.4228 -0.2487  0.1718
  883MPD2    C212999   3.165   0.856  15.754  0.0309 -0.4460  0.6823
  883MPD2    C313000   3.184   0.797  15.875  0.0726  0.1757  0.5588
  883MPD2    C413001   3.085   0.727  15.937  0.4279 -0.5464 -0.3411
  883MPD2    C513002   2.969   0.704  15.868  0.6406 -0.1524 -0.6310
  883MPD2     H13003   3.242   0.913  15.702  0.8538 -1.9603  0.2416
  883MPD2    H113004   3.102   0.691  16.038 -0.0589 -2.1652 -0.8498
  883MPD2    H213005   2.855   0.746  15.695  0.6733 -0.2464 -2.0010
  883MPD2    H313006   2.896   0.638  15.914  2.2208 -0.7455  1.0497
  883MPD2     N13007   3.314   0.820  15.939 -0.8395  0.3244 -0.2179
  883MPD2    H513008   3.362   0.889  15.882  0.7473 -0.5565  0.0737
  883MPD2    N113009   3.031   0.916  15.560  0.6183 -0.1251 -0.0759
  883MPD2    H713010   3.116   0.963  15.528  2.5151 -3.5636 -0.0474
  884MPD2     C13011   4.598   1.307  14.858 -0.6589  0.7530 -0.6107
  884MPD2    C113012   4.614   1.381  14.976  0.3763 -0.1793  0.1917
  884MPD2    C213013   4.501   1.399  15.066 -0.2148 -0.1144 -0.5131
  884MPD2    C313014   4.376   1.371  15.020 -0.6547 -0.0564  0.2316
  884MPD2    C413015   4.369   1.284  14.908 -0.6127  0.0202 -0.3852
  884MPD2    C513016   4.480   1.249  14.828  1.0461 -0.3182 -0.1105
  884MPD2     H13017   4.524   1.466  15.148 -1.1110  1.9994 -1.9775
  884MPD2    H113018   4.271   1.259  14.869 -0.7999  0.0487  0.0717
  884MPD2    H213019   4.686   1.290  14.796 -1.1045 -2.6323 -0.3330
  884MPD2    H313020   4.463   1.198  14.734  0.1932  3.0686 -1.7846
  884MPD2     N13021   4.257   1.419  15.084  0.4548 -0.6996  0.2898
  884MPD2    H513022   4.177   1.412  15.021  1.1570 -2.1770 -0.4412
  884MPD2    N113023   0.006   1.441  15.010  0.4639 -0.5654  0.1013
  884MPD2    H713024   0.015   1.483  15.102 -1.0387 -2.3240  1.0209
  885MPD2     C13025   2.713   2.069   0.546 -0.3437  0.3473  0.5749
  885MPD2    C113026   2.813   2.160   0.531  0.9740 -0.4966 -1.0499
  885MPD2    C213027   2.815   2.237   0.417  0.1473  0.4579  0.1752
  885MPD2    C313028   2.724   2.227   0.310 -0.6191  0.0255  0.4120
  885MPD2    C413029   2.622   2.133   0.335  0.3704  0.1504  0.2473
  885MPD2    C513030   2.625   2.054   0.447 -0.2572 -0.4777 -0.9030
  885MPD2     H13031   2.900   2.304   0.411 -0.5627  1.4654  1.2274
  885MPD2    H113032   2.553   2.104   0.257  0.5702 -2.9830  1.2086
  885MPD2    H213033   2.704   2.013   0.639  0.4717 -0.5047  0.1485
  885MPD2    H313034   2.547   1.979   0.458  0.1899 -0.7742  0.1848
  885MPD2     N13035   2.745   2.302   0.198 -0.1137  0.1602 -0.2638
  885MPD2    H513036   2.821   2.368   0.203 -0.8034  1.1124 -2.2326
  885MPD2    N113037   2.905   2.169   0.640 -0.0651  0.7012 -0.0168
  885MPD2    H713038   2.886   2.114   0.723  0.1619  2.9238  1.4737
  886MPD2     C13039   4.433   4.382  14.961 -0.3574 -0.1772 -0.3859
  886MPD2    C113040   4.413   4.436  15.085  0.1433 -1.4431  0.9058
  886MPD2    C213041   4.357   4.563  15.092 -0.3218 -0.2985  0.2448
  886MPD2    C313042   4.317   4.642  14.985 -0.2744 -0.2302  0.5123
  886MPD2    C413043   4.318   4.575  14.862 -0.3918 -0.1421 -0.3405
  886MPD2    C513044   4.377   4.448  14.852  0.4528  0.0965  1.1037
  886MPD2     H13045   4.349   4.607  15.190 -3.4128 -2.0117  0.7325
  886MPD2    H113046   4.272   4.622  14.776 -0.6989 -0.3704 -0.3005
  886MPD2    H213047   4.467   4.281  14.944 -1.0607 -0.8394  2.1504
  886MPD2    H313048   4.363   4.392  14.760  1.2840 -0.5377  1.3626
  886MPD2     N13049   4.281   0.040  15.003 -0.1846  1.0771 -0.1047
  886MPD2    H513050   4.276   0.071  15.099  0.8874  1.0325 -0.0388
  886MPD2    N113051   4.449   4.374  15.206  0.0410  0.0537 -0.1983
  886MPD2    H713052   4.446   4.423  15.295 -1.3067  0.6208 -0.5627
  887MPD2     C13053   0.156   4.584  15.703 -0.0657 -0.2172  0.3312
  887MPD2    C113054   0.035   4.608  15.639  0.0293  0.4462 -0.3106
  887MPD2    C213055   4.707   4.727  15.648  0.0413  0.0551  0.4612
  887MPD2    C313056   0.024   0.096  15.714 -0.1418  0.7930  0.1459
  887MPD2    C413057   0.144   0.075  15.773  0.0330 -0.3931 -0.3444
  887MPD2    C513058   0.204   4.688  15.779  0.6758  0.6632  0.2252
  887MPD2     H13059   4.614   0.017  15.598 -1.4665 -1.4825  2.4827
  887MPD2    H113060   0.187   0.159  15.826 -1.2725 -1.2453  2.0765
  887MPD2    H213061   0.214   4.493  15.707 -0.3296 -0.3448  1.2375
  887MPD2    H313062   0.294   4.670  15.837  0.9146  1.5226  0.1265
  887MPD2     N13063   4.698   0.223  15.726  0.2627 -0.7123 -0.3184
  887MPD2    H513064   4.602   0.220  15.691  0.0176  0.9316  0.2097
  887MPD2    N113065   4.711   4.500  15.566  0.0776  0.1088 -0.0403
  887MPD2    H713066   4.631   4.524  15.507  0.8339  0.1107 -1.0723
  888MPD2     C13067   1.690   0.306  14.885 -0.1127 -0.7059 -0.6926
  888MPD2    C113068   1.710   0.363  15.009 -0.1494 -0.1783 -0.7178
  888MPD2    C213069   1.803   0.464  15.025 -0.0647  0.2237  0.7247
  888MPD2    C313070   1.865   0.518  14.915 -0.3088  0.3507 -0.2611
  888MPD2    C413071   1.818   0.482  14.794 -0.1042 -0.3970 -0.7663
  888MPD2    C513072   1.731   0.373  14.781 -0.5366  0.4844  0.0977
  888MPD2     H13073   1.838   0.506  15.118  2.6499  0.5704 -0.4733
  888MPD2    H113074   1.853   0.525  14.701 -1.7503  3.2120  0.2796
  888MPD2    H213075   1.618   0.225  14.874 -0.3227 -0.5652 -0.3707
  888MPD2    H313076   1.694   0.352  14.681 -2.9991 -3.3863  1.8220
  888MPD2     N13077   1.948   0.626  14.940 -0.1697 -0.0816  0.7601
  888MPD2    H513078   1.966   0.646  15.037  2.3406 -0.0640  0.3027
  888MPD2    N113079   1.661   0.315  15.137 -0.3201  0.2964  0.1043
  888MPD2    H713080   1.691   0.369  15.217 -0.0056  0.3917 -0.0805
  889MPD2     C13081   0.914   0.013  13.128 -0.4324  0.8172 -0.5076
  889MPD2    C113082   1.003   0.008  13.239  0.1130  0.1948  0.1169
  889MPD2    C213083   1.021   0.123  13.317  0.5818 -0.1885  0.2728
  889MPD2    C313084   0.952   0.236  13.283 -0.0365  0.1832  0.1175
  889MPD2    C413085   0.862   0.237  13.175 -0.4552  0.6140 -0.7322
  889MPD2    C513086   0.840   0.126  13.103  0.4709 -0.2011 -0.9441
  889MPD2     H13087   1.109   0.135  13.380 -0.9758 -1.8535  2.7391
  889MPD2    H113088   0.805   0.322  13.141 -2.4390 -2.2050 -4.4062
  889MPD2    H213089   0.887   4.657  13.074  1.3117 -0.0638  0.1062
  889MPD2    H313090   0.783   0.133  13.011  0.4804 -2.9198 -1.1790
  889MPD2     N13091   0.991   0.356  13.348 -0.0039  0.1849  0.6804
  889MPD2    H513092   1.077   0.342  13.401 -0.8274 -0.3100  1.8929
  889MPD2    N113093   1.080   4.627  13.247  0.4304 -0.1004 -0.3125
  889MPD2    H713094   1.044   4.549  13.193  3.1654 -0.6973 -1.2583
  890MPD2     C13095   0.532   1.472  14.634  0.2537 -0.2051 -0.5034
  890MPD2    C113096   0.637   1.518  14.705  0.4829 -0.0026  0.4274
  890MPD2    C213097   0.658   1.476  14.836 -0.8220 -0.3355  0.2267
  890MPD2    C313098   0.576   1.379  14.885 -0.0818 -0.0224 -0.5309
  890MPD2    C413099   0.479   1.318  14.805  0.1009  0.3181  0.1422
  890MPD2    C513100   0.450   1.372  14.684 -0.3297 -0.4341 -0.0492
  890MPD2     H13101   0.735   1.516  14.900 -0.0899  0.2968 -1.0591
  890MPD2    H113102   0.409   1.242  14.837  1.4047 -0.5367  0.9477
  890MPD2    H213103   0.507   1.511  14.535  0.7000  4.0861  1.0735
  890MPD2    H313104   0.362   1.343  14.628  0.2256 -0.7659 -0.7462
  890MPD2     N13105   0.602   1.328  15.016 -0.7494 -0.1514 -0.1429
  890MPD2    H513106   0.689   1.353  15.062 -1.5746  0.7603  0.8824
  890MPD2    N113107   0.718   1.613  14.644  0.4576 -0.4204  0.2873
  890MPD2    H713108   0.685   1.664  14.563  3.4206  1.0615  0.0340
  891MPD2     C13109   3.811   0.300  15.678 -1.0933  1.0110 -0.2062
  891MPD2    C113110   3.744   0.322  15.794  0.6692  0.1924 -0.5551
  891MPD2    C213111   3.787   0.289  15.920  0.4898 -0.1364  0.3364
  891MPD2    C313112   3.915   0.234  15.930 -0.3577 -0.3543 -0.1416
  891MPD2    C413113   3.986   0.206  15.813 -0.3644  0.0156 -0.0785
  891MPD2    C513114   3.939   0.236  15.687  0.4155  0.4443  0.2245
  891MPD2     H13115   3.731   0.283  16.013  1.2398  3.3499  0.9829
  891MPD2    H113116   4.078   0.151  15.801 -0.4393 -0.0859 -0.1837
  891MPD2    H213117   3.763   0.336  15.587  0.1029  0.1776 -1.1474
  891MPD2    H313118   4.002   0.220  15.600 -1.8836  0.3432 -1.4250
  891MPD2     N13119   3.966   0.197  16.052 -0.0476  0.4353 -0.6861
  891MPD2    H513120   3.913   0.203  16.138  0.1563 -1.8316 -0.4111
  891MPD2    N113121   3.617   0.382  15.782  0.3800 -0.5706 -0.0138
  891MPD2    H713122   3.588   0.391  15.685 -0.8223  1.1347  0.5158
  892MPD2     C13123   4.699   0.779  14.608 -0.4106  0.1173  0.0971
  892MPD2    C113124   4.568   0.723  14.614  0.0974  0.5874 -0.0657
  892MPD2    C213125   4.550   0.592  14.642 -0.6538 -0.0789  0.0111
  892MPD2    C313126   4.662   0.512  14.651 -0.6196 -0.3318 -0.1297
  892MPD2    C413127   0.052   0.564  14.645  0.1407  0.5149  0.1900
  892MPD2    C513128   0.072   0.699  14.635 -0.5699  0.7354  0.0758
  892MPD2     H13129   4.449   0.553  14.652 -0.9205  0.5639 -0.1046
  892MPD2    H113130   0.130   0.499  14.682 -1.2594 -1.4204 -0.2783
  892MPD2    H213131   4.724   0.884  14.594 -0.4647 -0.0744 -1.5248
  892MPD2    H313132   0.174   0.737  14.636  0.7005 -2.5834 -2.9216
  892MPD2     N13133   4.667   0.368  14.680 -0.6996 -0.0733 -0.1857
  892MPD2    H513134   0.023   0.323  14.679 -0.6239  0.0683  0.2820
  892MPD2    N113135   4.457   0.800  14.593 -0.3429 -0.1876 -0.1786
  892MPD2    H713136   4.369   0.750  14.598  0.6702 -2.0924 -0.9757
  893MPD2     C13137   2.770   0.087   2.112 -0.5417 -0.4005 -0.6152
  893MPD2    C113138   2.797   0.123   1.978 -0.1994  0.1903  0.3057
  893MPD2    C213139   2.809   0.021   1.886 -0.7368  0.1603 -0.1370
  893MPD2    C313140   2.787   4.620   1.923 -0.5449  0.6732 -0.3306
  893MPD2    C413141   2.759   4.589   2.055 -0.3904  0.0588 -0.1067
  893MPD2    C513142   2.753   4.691   2.150  0.0482  0.6539  0.2566
  893MPD2     H13143   2.840   0.042   1.784 -0.1199 -0.0395  0.0094
  893MPD2    H113144   2.743   4.486   2.084 -0.1549  0.4084  1.2941
  893MPD2    H213145   2.772   0.155   2.196 -2.4352 -0.7092 -0.3087
  893MPD2    H313146   2.725   4.663   2.251  1.6145  0.9430  0.7605
  893MPD2     N13147   2.790   4.517   1.829 -0.0014 -0.2985 -0.7885
  893MPD2    H513148   2.775   4.422   1.861  1.2036 -1.1964 -2.8341
  893MPD2    N113149   2.812   0.260   1.947 -0.2079  0.1167 -0.0150
  893MPD2    H713150   2.789   0.322   2.024 -0.8776  1.4451 -1.2826
  894MPD2     C13151   4.386   2.344   1.266 -0.4265  0.5817  0.2496
  894MPD2    C113152   4.314   2.438   1.337 -0.3036  0.5937 -0.4414
  894MPD2    C213153   4.317   2.572   1.292 -0.0104 -0.6017 -0.2241
  894MPD2    C313154   4.403   2.615   1.199  0.2245 -0.0192 -0.4171
  894MPD2    C413155   4.470   2.520   1.134 -0.4107  0.0967 -0.1840
  894MPD2    C513156   4.464   2.384   1.164 -0.4479 -0.6685  0.1721
  894MPD2     H13157   4.263   2.652   1.342  2.2438  2.6322 -2.9656
  894MPD2    H113158   4.529   2.539   1.045  2.2627 -2.6397  0.9880
  894MPD2    H213159   4.377   2.238   1.287 -0.3170  0.3690 -0.7822
  894MPD2    H313160   4.516   2.315   1.098 -1.3845 -2.3280  1.1731
  894MPD2     N13161   4.402   2.748   1.166 -0.8056 -0.2411 -0.9640
  894MPD2    H513162   4.335   2.810   1.210 -1.3180 -0.5615 -1.3046
  894MPD2    N113163   4.248   2.419   1.467 -0.5309  0.1778 -0.0802
  894MPD2    H713164   4.215   2.498   1.522 -0.9926 -0.2456  0.2516
  895MPD2     C13165   3.956   4.203  12.979  0.0419  0.4725 -0.1607
  895MPD2    C113166   3.915   4.295  13.071  0.1089 -1.0991 -0.2423
  895MPD2    C213167   3.786   4.339  13.058 -0.5338 -0.2816 -0.0278
  895MPD2    C313168   3.691   4.281  12.980  0.7080 -0.1396  0.6229
  895MPD2    C413169   3.730   4.182  12.890  0.0344  0.1396  0.6900
  895MPD2    C513170   3.866   4.151  12.896  0.8188 -0.5097  0.1651
  895MPD2     H13171   3.747   4.410  13.130  0.9206 -0.2859  0.7572
  895MPD2    H113172   3.659   4.139  12.820  1.0937 -0.4479 -0.0122
  895MPD2    H213173   4.058   4.170  12.965  0.7466  1.1852  3.3353
  895MPD2    H313174   3.896   4.078  12.822 -1.1190 -0.9363 -0.2165
  895MPD2     N13175   3.554   4.325  12.975  0.2882  0.3958 -0.0164
  895MPD2    H513176   3.503   4.302  12.890 -0.0899  2.2849 -0.2934
  895MPD2    N113177   3.998   4.344  13.172  0.3923  0.0031 -0.2754
  895MPD2    H713178   3.945   4.394  13.242 -0.9759 -1.6245 -0.1473
  896MPD2     C13179   1.182   3.925   1.148  0.2720 -0.7425 -0.3681
  896MPD2    C113180   1.173   3.810   1.069  0.6474  0.5982  0.1951
  896MPD2    C213181   1.060   3.725   1.083  0.0664 -0.3832  0.3606
  896MPD2    C313182   0.954   3.769   1.165  0.7696  0.0855 -0.6990
  896MPD2    C413183   0.962   3.891   1.231  0.0621 -0.0716  0.5881
  896MPD2    C513184   1.073   3.969   1.223  0.3315  0.4981  0.6033
  896MPD2     H13185   1.048   3.628   1.037  0.5457 -1.4375  2.4289
  896MPD2    H113186   0.886   3.935   1.294  0.3872 -1.5936  2.0599
  896MPD2    H213187   1.271   3.987   1.151  1.6619 -2.7196 -0.6917
  896MPD2    H313188   1.073   4.057   1.285  2.8048  2.1055 -1.6423
  896MPD2     N13189   0.835   3.693   1.159  0.4700 -0.6489  0.2829
  896MPD2    H513190   0.838   3.606   1.107  0.6138 -0.3513 -0.2072
  896MPD2    N113191   1.284   3.772   0.996 -0.7742 -0.4506 -0.4570
  896MPD2    H713192   1.374   3.819   1.010 -0.7052 -1.0777  1.1854
  897MPD2     C13193   2.045   0.095  10.989 -0.2369  0.4183 -0.2855
  897MPD2    C113194   1.972   0.098  10.875 -0.7959  0.5252  0.7549
  897MPD2    C213195   1.837   0.090  10.881  0.6013  0.6209 -0.0245
  897MPD2    C313196   1.778   0.077  11.004 -0.0792 -0.5023 -0.2657
  897MPD2    C413197   1.852   0.073  11.121  0.0443  0.0952  0.4790
  897MPD2    C513198   1.986   0.081  11.111  0.2591 -0.7835 -1.1142
  897MPD2     H13199   1.787   0.067  10.788  0.4397 -1.4396  0.5834
  897MPD2    H113200   1.807   0.052  11.217 -1.5522 -1.1469 -0.5439
  897MPD2    H213201   2.153   0.111  10.993 -0.1136 -0.8568  1.1445
  897MPD2    H313202   2.048   0.070  11.200 -0.1740  2.0111 -0.4656
  897MPD2     N13203   1.639   0.055  11.023 -0.3523  0.0722  0.0275
  897MPD2    H513204   1.604   0.039  11.117  0.1041  0.2838  0.2323
  897MPD2    N113205   2.047   0.095  10.753 -0.1454 -0.2965 -0.4806
  897MPD2    H713206   2.142   0.131  10.753  0.7024 -2.5303 -0.0504
  898MPD2     C13207   4.636   1.239  17.202  0.1247  0.1678  0.2022
  898MPD2    C113208   4.643   1.158  17.312 -0.1499  0.0515 -0.4855
  898MPD2    C213209   4.568   1.186  17.416 -0.4267 -0.4185  0.2866
  898MPD2    C313210   4.467   1.286  17.402 -0.9948 -0.3529 -0.2151
  898MPD2    C413211   4.453   1.358  17.289 -0.4618  0.4793  0.7482
  898MPD2    C513212   4.544   1.338  17.194 -0.2505 -0.2230 -0.5009
  898MPD2     H13213   4.577   1.125  17.505 -0.8488 -0.6414  0.1773
  898MPD2    H113214   4.388   1.444  17.278 -0.0089  0.6669 -0.5342
  898MPD2    H213215   4.709   1.233  17.123 -0.1192  0.2893 -0.0303
  898MPD2    H313216   4.557   1.406  17.111 -0.2496  0.9484  0.4624
  898MPD2     N13217   4.388   1.317  17.517 -0.6474 -0.0661 -0.2835
  898MPD2    H513218   4.410   1.265  17.601 -1.3477 -0.5033 -0.3659
  898MPD2    N113219   4.729   1.045  17.319  0.0720 -0.6898 -0.1505
  898MPD2    H713220   4.711   0.979  17.394 -1.0717  0.3216  0.4693
  899MPD2     C13221   0.548   1.515  17.596 -0.5398  0.3628 -0.1890
  899MPD2    C113222   0.505   1.622  17.671  0.3691 -0.5012 -0.0611
  899MPD2    C213223   0.462   1.592   0.057  0.1062 -0.5906 -0.5910
  899MPD2    C313224   0.467   1.466   0.101  0.3028  0.6156  0.2561
  899MPD2    C413225   0.513   1.361   0.032  0.4064  1.1175 -0.1038
  899MPD2    C513226   0.550   1.388  17.642  0.8404  0.3260 -0.6052
  899MPD2     H13227   0.423   1.677   0.113 -1.3303  0.2683 -2.8470
  899MPD2    H113228   0.527   1.267   0.083 -1.0840  1.6929  1.3905
  899MPD2    H213229   0.582   1.534  17.494  1.8241 -1.0951  0.3276
  899MPD2    H313230   0.580   1.303  17.582  1.0293  0.0976 -0.1937
  899MPD2     N13231   0.430   1.425   0.236 -0.1060  0.5288 -0.1389
  899MPD2    H513232   0.434   1.325   0.254 -1.8113  0.5569  0.3382
  899MPD2    N113233   0.483   1.752  17.616 -0.2074  0.2462 -0.1644
  899MPD2    H713234   0.512   1.754  17.519  0.9568 -3.2773  0.1122
  900MPD2     C13235   4.629   2.946  12.619  0.2341  0.5647 -0.9609
  900MPD2    C113236   4.510   2.876  12.632 -0.2005 -0.4821 -0.0899
  900MPD2    C213237   4.404   2.903  12.554 -0.1852 -0.6705 -0.1647
  900MPD2    C313238   4.405   3.000  12.457  0.4851 -0.1399  0.7580
  900MPD2    C413239   4.520   3.074  12.443 -0.2329  0.8523 -0.0086
  900MPD2    C513240   4.627   3.047  12.528  1.1302 -0.0647  0.5735
  900MPD2     H13241   4.302   2.870  12.567 -0.3229  0.0370  0.5638
  900MPD2    H113242   4.517   3.165  12.383 -3.0211  0.5263 -0.3705
  900MPD2    H213243   4.716   2.938  12.684  1.0639  0.2857 -2.1111
  900MPD2    H313244   4.712   3.114  12.524 -0.9508  2.5080 -1.0950
  900MPD2     N13245   4.280   3.016  12.386 -0.8104 -0.3951 -0.1842
  900MPD2    H513246   4.198   2.966  12.419 -0.2145 -1.9016 -0.9897
  900MPD2    N113247   4.519   2.767  12.725 -0.1270  0.1799  0.1210
  900MPD2    H713248   4.608   2.758  12.773 -0.4029 -3.7254 -0.1092
  901MPD2     C13249   4.113   1.785  12.798  0.3485 -0.8912  0.6701
  901MPD2    C113250   4.231   1.815  12.751  0.3108  0.3817 -0.2291
  901MPD2    C213251   4.319   1.919  12.794 -0.4437 -1.0145  0.2727
  901MPD2    C313252   4.257   2.028  12.857  0.2455 -0.5561 -0.1414
  901MPD2    C413253   4.130   2.006  12.895  0.4732  0.0509 -0.1315
  901MPD2    C513254   4.063   1.885  12.878  0.4092 -0.1782 -0.1089
  901MPD2     H13255   4.423   1.927  12.766 -0.2124 -1.3795  1.0149
  901MPD2    H113256   4.071   2.082  12.944  0.0283  0.4639 -1.3219
  901MPD2    H213257   4.057   1.695  12.773 -0.4477 -0.4670  0.9083
  901MPD2    H313258   3.963   1.874  12.919  0.8087  1.1048  1.1973
  901MPD2     N13259   4.337   2.142  12.884 -0.5824 -0.2104 -0.0888
  901MPD2    H513260   4.434   2.138  12.857  0.2970  2.1055  2.7599
  901MPD2    N113261   4.280   1.721  12.660  0.0988  0.3817 -0.2596
  901MPD2    H713262   4.240   1.629  12.644  2.2644 -0.8084  1.1830
  902MPD2     C13263   3.769   0.460  12.524 -0.1464 -0.3915 -0.3138
  902MPD2    C113264   3.862   0.559  12.533  0.3175  0.0259 -0.1392
  902MPD2    C213265   3.996   0.517  12.517  0.1603 -0.6317 -0.0241
  902MPD2    C313266   4.027   0.389  12.479 -0.6494 -0.3970 -0.4932
  902MPD2    C413267   3.927   0.301  12.454  0.2142  0.6604  0.0735
  902MPD2    C513268   3.798   0.333  12.488  0.3820 -0.4203 -0.4748
  902MPD2     H13269   4.077   0.588  12.528  1.1994 -1.9344  0.6798
  902MPD2    H113270   3.943   0.196  12.432 -1.6346  0.4540 -0.3197
  902MPD2    H213271   3.666   0.487  12.545 -1.0902 -2.6571 -2.0447
  902MPD2    H313272   3.726   0.252  12.486  0.0992 -0.2317  2.3539
  902MPD2     N13273   4.162   0.344  12.450 -0.4502 -0.4744  0.8939
  902MPD2    H513274   4.169   0.243  12.436  1.0661  0.0303 -1.7882
  902MPD2    N113275   3.819   0.695  12.552  0.7310 -0.0335 -0.0679
  902MPD2    H713276   3.720   0.713  12.562  1.0972  0.7553  2.1213
  903MPD2     C13277   4.077   0.689  11.992 -0.2164 -0.6654  0.6504
  903MPD2    C113278   4.077   0.561  12.044 -0.3537  0.1675 -0.3551
  903MPD2    C213279   3.961   0.505  12.095  0.1124 -0.2634  0.7727
  903MPD2    C313280   3.842   0.576  12.087 -0.1501 -0.1029 -0.8039
  903MPD2    C413281   3.842   0.696  12.020  1.0557  0.5543  0.3675
  903MPD2    C513282   3.957   0.758  11.974 -0.7952  0.3194 -0.5192
  903MPD2     H13283   3.964   0.404  12.133 -1.7110 -0.9379 -0.8774
  903MPD2    H113284   3.755   0.761  12.018 -0.1155 -0.9176  5.0015
  903MPD2    H213285   4.165   0.726  11.939 -0.3242 -0.0041  0.9309
  903MPD2    H313286   3.959   0.845  11.910  3.3338  0.1799 -0.5518
  903MPD2     N13287   3.723   0.513  12.125  0.5054  0.3087  0.5125
  903MPD2    H513288   3.730   0.433  12.187 -1.4109 -1.6817 -1.8235
  903MPD2    N113289   4.201   0.487  12.036  0.1195 -0.1851 -0.0003
  903MPD2    H713290   4.285   0.544  12.025  0.3602 -0.3650  0.8952
  904MPD2     C13291   3.642   4.029  13.396  0.1624  0.9186 -0.3167
  904MPD2    C113292   3.646   3.999  13.525  0.0603  0.0944 -0.2639
  904MPD2    C213293   3.765   3.982  13.589  0.4194 -0.9687 -0.4146
  904MPD2    C313294   3.884   4.012  13.525 -0.1694  0.6777  0.4533
  904MPD2    C413295   3.880   4.053  13.391  0.2551  0.0619 -0.0532
  904MPD2    C513296   3.758   4.072  13.331 -0.1911 -0.5945 -0.3007
  904MPD2     H13297   3.761   3.938  13.688  2.7505 -0.0785  0.0668
  904MPD2    H113298   3.973   4.070  13.338 -0.0660 -0.2606 -0.7198
  904MPD2    H213299   3.551   4.038  13.340 -0.2997  0.4746  0.3567
  904MPD2    H313300   3.750   4.107  13.229 -0.2592 -0.1616 -0.1485
  904MPD2     N13301   4.000   3.992  13.597 -0.0476 -0.4887  0.5872
  904MPD2    H513302   3.984   3.979  13.696 -0.4677  1.6912  0.8071
  904MPD2    N113303   3.527   3.989  13.609  0.5976 -0.4213  0.1096
  904MPD2    H713304   3.544   3.953  13.702 -0.3342  0.9009  0.7918
  905MPD2     C13305   3.168   4.609  13.701 -0.5784 -0.6319  0.8774
  905MPD2    C113306   3.113   4.499  13.633  0.3005 -0.5225  0.2616
  905MPD2    C213307   3.086   4.510  13.498 -0.4783 -0.1307  0.4541
  905MPD2    C313308   3.132   4.619  13.424  0.9421  0.0396  0.0300
  905MPD2    C413309   3.193   4.723  13.494 -0.6198 -0.0044  0.4198
  905MPD2    C513310   3.201   4.721  13.628  0.0372  0.7843  0.1313
  905MPD2     H13311   3.040   4.420  13.458  0.7588 -0.5820  0.0384
  905MPD2    H113312   3.222   0.080  13.444 -1.1776  0.4950  1.0064
  905MPD2    H213313   3.201   4.614  13.804 -0.6987  0.5507  0.8600
  905MPD2    H313314   3.238   0.075  13.677 -0.7238  0.8859  0.5370
  905MPD2     N13315   3.130   4.617  13.286 -0.4959  0.0916 -0.4697
  905MPD2    H513316   3.168   4.694  13.230 -1.3001  2.0210  1.6674
  905MPD2    N113317   3.091   4.374  13.691  0.3754 -0.4157  0.2832
  905MPD2    H713318   3.067   4.298  13.628  0.9072  0.4883 -1.0144
  906MPD2     C13319   0.180   0.463  10.991  0.6413 -0.4722 -0.2541
  906MPD2    C113320   0.284   0.375  10.961 -0.6121  0.3664  0.6283
  906MPD2    C213321   0.327   0.286  11.064 -0.1601  0.1425 -0.2313
  906MPD2    C313322   0.253   0.259  11.176 -0.0178  0.4049  0.0392
  906MPD2    C413323   0.140   0.337  11.196 -0.7209 -0.1462 -0.1919
  906MPD2    C513324   0.115   0.446  11.112 -0.2839  0.1491 -1.0638
  906MPD2     H13325   0.425   0.240  11.057 -1.8724 -3.6972  1.1899
  906MPD2    H113326   0.060   0.308  11.263  0.1993 -1.5328  0.3041
  906MPD2    H213327   0.139   0.531  10.918  1.3250  1.1886  0.9064
  906MPD2    H313328   0.026   0.502  11.141 -1.8582 -2.3652 -1.0161
  906MPD2     N13329   0.264   0.150  11.261 -0.1382  0.7843  0.4697
  906MPD2    H513330   0.202   0.145  11.341 -0.9835 -1.2175 -0.3064
  906MPD2    N113331   0.357   0.370  10.842  0.5684 -0.2082 -0.1457
  906MPD2    H713332   0.423   0.293  10.836  0.1082 -0.5550 -0.8210
  907MPD2     C13333   4.493   3.706  15.033  0.7490 -0.4566  0.0849
  907MPD2    C113334   4.506   3.577  15.085 -0.6324 -0.2727 -0.3284
  907MPD2    C213335   4.601   3.556  15.180 -0.0005  0.0717  0.3429
  907MPD2    C313336   4.684   3.652  15.230  1.0865 -0.2755 -0.0567
  907MPD2    C413337   4.663   3.777  15.185 -0.2281  0.8938 -0.1535
  907MPD2    C513338   4.570   3.804  15.088 -1.0283 -0.0817  0.3264
  907MPD2     H13339   4.615   3.454  15.216 -1.9174  0.3336  1.8723
  907MPD2    H113340   4.713   3.862  15.230  0.5411  0.3313  0.0649
  907MPD2    H213341   4.417   3.737  14.962 -0.4582 -0.4665  1.3599
  907MPD2    H313342   4.544   3.907  15.064 -0.8403 -0.6897 -2.4360
  907MPD2     N13343   0.036   3.613  15.333  0.4710 -0.3090  0.8438
  907MPD2    H513344   0.016   3.521  15.372  0.9752 -0.9807 -0.5130
  907MPD2    N113345   4.423   3.476  15.047 -0.1371  0.1322  0.4389
  907MPD2    H713346   4.433   3.385  15.091 -1.0025 -0.1302  0.0996
  908MPD2     C13347   1.654   0.481   9.952 -0.3807 -0.6018 -1.0457
  908MPD2    C113348   1.655   0.345   9.948 -0.0888  0.1500 -0.6651
  908MPD2    C213349   1.750   0.272  10.021 -0.0506 -0.3613 -0.0777
  908MPD2    C313350   1.844   0.336  10.099  0.0865  0.8101 -0.1987
  908MPD2    C413351   1.830   0.471  10.111 -0.0414 -0.3239  0.0783
  908MPD2    C513352   1.736   0.541  10.038 -0.5723 -0.4414 -0.7258
  908MPD2     H13353   1.736   0.165  10.018 -1.8650 -0.0682 -2.1463
  908MPD2    H113354   1.893   0.529  10.179 -0.7277 -0.0324  0.4636
  908MPD2    H213355   1.586   0.541   9.893 -0.2898 -0.5689 -1.1188
  908MPD2    H313356   1.732   0.649  10.046 -0.1143 -0.6595  2.4089
  908MPD2     N13357   1.947   0.260  10.168  0.2685  0.0392 -0.2680
  908MPD2    H513358   1.942   0.159  10.163  1.8832 -0.0610  0.3772
  908MPD2    N113359   1.550   0.287   9.876 -0.2204  0.1812 -0.2073
  908MPD2    H713360   1.487   0.348   9.825 -3.7064 -1.2047  2.3785
  909MPD2     C13361   2.620   2.134  11.545  0.0410  0.8001 -0.3898
  909MPD2    C113362   2.593   2.256  11.492 -0.8428 -0.5276  0.0428
  909MPD2    C213363   2.552   2.358  11.570  0.0421  0.2943 -0.1777
  909MPD2    C313364   2.495   2.330  11.690  0.2340  0.5808  0.1214
  909MPD2    C413365   2.519   2.215  11.754 -0.3757 -0.0870 -0.1512
  909MPD2    C513366   2.581   2.116  11.677 -0.6423  0.0145  0.1473
  909MPD2     H13367   2.541   2.459  11.532  2.1408 -0.3695 -2.5082
  909MPD2    H113368   2.494   2.195  11.857 -0.2951 -0.2118 -0.1565
  909MPD2    H213369   2.663   2.054  11.485 -2.1938  0.1804 -1.1455
  909MPD2    H313370   2.604   2.018  11.720 -1.9463 -0.5534 -0.4691
  909MPD2     N13371   2.414   2.430  11.750  0.1644  0.3511 -0.6758
  909MPD2    H513372   2.409   2.518  11.700  0.2452 -0.1422 -1.5574
  909MPD2    N113373   2.630   2.297  11.362 -0.4826  0.0751  0.5321
  909MPD2    H713374   2.625   2.398  11.348  1.6972  0.2198  0.8915
  910MPD2     C13375   4.129   4.385  16.013  0.7209 -0.2163 -0.0719
  910MPD2    C113376   4.121   4.252  15.979 -0.1975 -0.1403  0.2374
  910MPD2    C213377   4.040   4.209  15.879  0.2513  0.6117 -0.0450
  910MPD2    C313378   3.958   4.303  15.822 -0.6862 -0.6976  0.0112
  910MPD2    C413379   3.958   4.436  15.860 -0.4035 -0.2502 -0.2622
  910MPD2    C513380   4.051   4.473  15.950 -0.2513  0.7209  0.2002
  910MPD2     H13381   4.044   4.110  15.836  2.0678  1.2054 -1.2253
  910MPD2    H113382   3.879   4.502  15.826  1.6691  2.1513 -0.3071
  910MPD2    H213383   4.201   4.422  16.084 -0.0480  0.1862  0.5039
  910MPD2    H313384   4.059   4.577  15.978 -0.9036  0.3466  1.7979
  910MPD2     N13385   3.866   4.269  15.719  0.0962  0.4387 -0.6701
  910MPD2    H513386   3.811   4.344  15.678 -1.0929 -0.3542 -0.5386
  910MPD2    N113387   4.191   4.153  16.049 -0.3134  0.5312  0.3862
  910MPD2    H713388   4.178   4.059  16.013  0.2025  0.8543 -0.6503
  911MPD2     C13389   2.068   0.423  15.804  0.1086  0.1010  0.3548
  911MPD2    C113390   2.147   0.449  15.913  0.0635 -0.6811  0.6857
  911MPD2    C213391   2.175   0.581  15.948 -0.3831  0.4045  1.0206
  911MPD2    C313392   2.119   0.686  15.871 -0.4528 -0.3273  0.1291
  911MPD2    C413393   2.046   0.652  15.760 -0.0609 -0.7159 -0.7301
  911MPD2    C513394   2.018   0.525  15.724  0.4606  0.2878  0.0488
  911MPD2     H13395   2.241   0.608  16.030  1.4075  2.1727 -0.9849
  911MPD2    H113396   1.991   0.728  15.706  2.5620  1.9794  0.4428
  911MPD2    H213397   2.042   0.321  15.782 -1.6527  0.8485 -1.0445
  911MPD2    H313398   1.961   0.490  15.639  0.0804 -0.2424  0.5262
  911MPD2     N13399   2.132   0.823  15.899  0.0001  0.1368 -0.9097
  911MPD2    H513400   2.109   0.887  15.824  0.2981  1.2523 -0.0521
  911MPD2    N113401   2.192   0.340  15.987  0.0821 -0.7479 -0.1138
  911MPD2    H713402   2.164   0.247  15.958 -0.4880 -0.6272  0.0578
  912MPD2     C13403   1.751   0.869  15.716  0.2299 -0.3659 -0.5931
  912MPD2    C113404   1.762   0.896  15.852 -0.0956 -0.2634  0.1161
  912MPD2    C213405   1.752   0.790  15.938 -0.3449  0.6008 -0.0900
  912MPD2    C313406   1.722   0.658  15.892  0.0317 -0.2968 -0.4948
  912MPD2    C413407   1.698   0.639  15.755 -0.0994 -0.5610 -0.0203
  912MPD2    C513408   1.707   0.743  15.670 -0.7194 -0.7950  0.0071
  912MPD2     H13409   1.761   0.813  16.043 -1.6257 -0.2961  0.2102
  912MPD2    H113410   1.689   0.546  15.700  1.0865 -0.6453 -0.0855
  912MPD2    H213411   1.759   0.953  15.648 -1.5107 -1.4165 -2.1020
  912MPD2    H313412   1.695   0.725  15.563 -0.9563 -3.5519  0.4844
  912MPD2     N13413   1.728   0.555  15.984 -0.2633 -0.4704 -1.1046
  912MPD2    H513414   1.745   0.589  16.079 -1.4838 -2.4433 -0.1651
  912MPD2    N113415   1.809   1.021  15.901 -0.0329  0.1229 -0.0648
  912MPD2    H713416   1.841   1.081  15.826  1.2962  0.3088  0.6577
  913MPD2     C13417   2.204   1.695  11.285 -0.1246  0.3093  0.1064
  913MPD2    C113418   2.136   1.598  11.219  0.3594 -0.5232  0.0537
  913MPD2    C213419   2.037   1.637  11.129 -0.2649  0.3183  1.2169
  913MPD2    C313420   2.005   1.773  11.114  0.4650  0.7630 -0.1241
  913MPD2    C413421   2.069   1.868  11.182 -0.9319 -0.7424  0.2536
  913MPD2    C513422   2.170   1.829  11.269  0.0644  0.2941  0.0356
  913MPD2     H13423   1.973   1.563  11.083 -0.8537  0.7225  1.3986
  913MPD2    H113424   2.051   1.975  11.173 -5.4960 -1.6976 -1.6871
  913MPD2    H213425   2.281   1.662  11.353  0.2906  0.5147 -0.2637
  913MPD2    H313426   2.219   1.906  11.328  0.6303  1.3589 -1.8239
  913MPD2     N13427   1.923   1.817  11.005  0.3253  0.6281 -0.1254
  913MPD2    H513428   1.917   1.916  10.986  2.3671  1.1729  2.0864
  913MPD2    N113429   2.173   1.460  11.245 -0.1575  0.2755 -0.2304
  913MPD2    H713430   2.233   1.453  11.326 -1.6159 -1.3049  0.7284
  914MPD2     C13431   0.194   2.145  12.351  0.3038  0.1989  0.4243
  914MPD2    C113432   0.077   2.152  12.420  0.1884 -0.4915 -0.5909
  914MPD2    C213433   0.006   2.035  12.446 -0.1753  0.3935 -0.7702
  914MPD2    C313434   0.048   1.915  12.393  0.1610 -0.4353 -0.1261
  914MPD2    C413435   0.165   1.913  12.315 -0.2358 -0.6579  0.7666
  914MPD2    C513436   0.238   2.033  12.297 -0.6093  0.5638 -0.4084
  914MPD2     H13437   4.652   2.032  12.507 -0.8444  2.5412 -1.6588
  914MPD2    H113438   0.209   1.822  12.276  1.9584  0.7989 -0.1362
  914MPD2    H213439   0.252   2.235  12.336  0.6223 -0.2982 -1.3867
  914MPD2    H313440   0.329   2.031  12.239 -0.1738 -0.0635  0.2996
  914MPD2     N13441   4.705   1.797  12.411 -0.6196 -0.6782  0.1096
  914MPD2    H513442   4.622   1.796  12.470 -0.6426  0.3792  0.0961
  914MPD2    N113443   0.044   2.285  12.456 -0.0925 -0.1151  0.1465
  914MPD2    H713444   0.113   2.357  12.434  0.7307 -1.4193 -1.5987
  915MPD2     C13445   3.080   1.914  16.149  0.4423  0.0811  0.0705
  915MPD2    C113446   2.963   1.967  16.098  0.7458 -0.1686 -0.0830
  915MPD2    C213447   2.878   2.034  16.182  0.2804 -0.6026 -0.3106
  915MPD2    C313448   2.916   2.068  16.312 -0.2916 -0.1340 -0.3870
  915MPD2    C413449   3.036   2.009  16.353  0.2478 -0.3915  0.6101
  915MPD2    C513450   3.118   1.934  16.274  0.4564 -0.4926  0.3943
  915MPD2     H13451   2.784   2.075  16.145  0.3638  0.0970  0.2679
  915MPD2    H113452   3.093   2.039  16.440 -0.1811 -0.7229  1.0063
  915MPD2    H213453   3.151   1.860  16.088  1.1438 -0.0939  1.0351
  915MPD2    H313454   3.213   1.904  16.319  0.0736  0.2329  1.6914
  915MPD2     N13455   2.832   2.135  16.398 -0.1443  0.2170 -0.5155
  915MPD2    H513456   2.747   2.172  16.357  0.0670  0.7372 -0.4745
  915MPD2    N113457   2.939   1.932  15.961  0.7672  0.4273  0.1931
  915MPD2    H713458   2.995   1.859  15.919 -0.4543  0.8029 -2.0817
  916MPD2     C13459   1.349   0.144  16.188 -0.1795  0.5675  0.1656
  916MPD2    C113460   1.317   0.022  16.236 -0.4962  0.6555 -0.1612
  916MPD2    C213461   1.365   4.648  16.164  0.5457  0.3134  0.2111
  916MPD2    C313462   1.438   4.664  16.047 -0.5398 -0.4147 -0.0196
  916MPD2    C413463   1.462   0.050  15.998 -0.4093  0.6570 -0.4029
  916MPD2    C513464   1.407   0.157  16.066  0.6670  0.0360 -0.2932
  916MPD2     H13465   1.353   4.552  16.213 -0.6995 -0.7381 -2.1753
  916MPD2    H113466   1.514   0.078  15.907 -2.1434 -1.5551 -2.0781
  916MPD2    H213467   1.318   0.230  16.245  0.5242  0.6431  0.4315
  916MPD2    H313468   1.423   0.261  16.040  2.6280  0.8713  4.1528
  916MPD2     N13469   1.489   4.545  15.986  0.2782 -0.0292  0.0791
  916MPD2    H513470   1.456   4.459  16.030 -1.0578  0.3749 -0.1253
  916MPD2    N113471   1.218   0.011  16.335 -0.4938 -0.8263  0.5687
  916MPD2    H713472   1.155   0.090  16.344 -0.9341 -0.9977 -1.0634
  917MPD2     C13473   0.763   2.339  11.281  0.4347 -0.1927  0.5543
  917MPD2    C113474   0.760   2.435  11.379 -0.4197 -0.2063 -0.5087
  917MPD2    C213475   0.796   2.562  11.348  0.2245  0.2128  0.7994
  917MPD2    C313476   0.834   2.595  11.214  0.0397  0.1034 -0.6615
  917MPD2    C413477   0.834   2.497  11.116 -0.2206 -0.3539  0.0589
  917MPD2    C513478   0.797   2.369  11.152  0.1808  0.4784  0.1044
  917MPD2     H13479   0.799   2.633  11.430 -0.9090 -0.8461  1.7617
  917MPD2    H113480   0.851   2.500  11.009  2.1200  1.1332  0.4679
  917MPD2    H213481   0.728   2.237  11.293  0.9570 -0.5087 -0.5948
  917MPD2    H313482   0.782   2.296  11.073 -1.0048 -0.5266  1.2539
  917MPD2     N13483   0.874   2.720  11.177 -0.4103 -0.3882 -0.3570
  917MPD2    H513484   0.899   2.725  11.079 -2.2759  1.8691 -0.7082
  917MPD2    N113485   0.716   2.382  11.506 -0.0725 -0.3216 -0.7529
  917MPD2    H713486   0.682   2.287  11.497  0.1491 -0.2076 -2.9496
  918MPD2     C13487   0.787   2.792  12.369 -0.0622  0.2591  0.1481
  918MPD2    C113488   0.866   2.781  12.255  0.3221 -0.6804 -0.1520
  918MPD2    C213489   0.817   2.702  12.151 -0.2929  0.6098 -0.0285
  918MPD2    C313490   0.693   2.640  12.159  0.0027  0.1834  0.1725
  918MPD2    C413491   0.605   2.672  12.255 -0.2514  0.7206 -0.0182
  918MPD2    C513492   0.650   2.751  12.361 -0.5531  0.3700 -0.3275
  918MPD2     H13493   0.874   2.687  12.060  1.1663  0.3401  0.9223
  918MPD2    H113494   0.500   2.646  12.248 -0.9234  3.0538  1.4762
  918MPD2    H213495   0.809   2.857  12.452  0.8415  1.7583 -1.2656
  918MPD2    H313496   0.582   2.779  12.440 -1.4029  1.1138 -1.3195
  918MPD2     N13497   0.653   2.557  12.048 -0.5878 -0.0274 -0.2361
  918MPD2    H513498   0.724   2.542  11.977 -2.1520 -0.0200 -1.7998
  918MPD2    N113499   0.998   2.829  12.252  0.1676 -0.1736 -0.1761
  918MPD2    H713500   1.060   2.797  12.177 -0.0855 -0.6355 -0.1906
  919MPD2     C13501   2.108   1.412  11.749  0.2511 -0.2162  0.0633
  919MPD2    C113502   1.987   1.382  11.805  0.0691 -0.1618  0.1528
  919MPD2    C213503   1.872   1.424  11.739 -0.3921  0.2873  0.4739
  919MPD2    C313504   1.872   1.496  11.624  0.0811  0.3331  0.0148
  919MPD2    C413505   1.999   1.537  11.579 -0.3506 -0.1260  0.8446
  919MPD2    C513506   2.115   1.486  11.631 -0.1745  0.5419  0.4181
  919MPD2     H13507   1.779   1.393  11.786 -1.0080  2.0336  0.3875
  919MPD2    H113508   2.013   1.596  11.490  1.1748 -1.3022  0.2977
  919MPD2    H213509   2.200   1.382  11.799  0.3121  1.4951  0.9774
  919MPD2    H313510   2.206   1.523  11.586  1.1208 -0.1745  2.4172
  919MPD2     N13511   1.752   1.545  11.560 -0.6799 -0.2603  0.6658
  919MPD2    H513512   1.758   1.571  11.462 -1.9581 -2.3789  0.0423
  919MPD2    N113513   1.992   1.295  11.917  0.3422  0.0660 -0.5793
  919MPD2    H713514   2.084   1.261  11.944 -1.3521 -3.5335  0.5861
  920MPD2     C13515   1.420   1.469  10.644  0.4386 -0.5220 -0.3223
  920MPD2    C113516   1.310   1.397  10.692  0.0828 -1.0572 -0.1736
  920MPD2    C213517   1.314   1.359  10.827 -0.2586  0.5581  0.5080
  920MPD2    C313518   1.415   1.407  10.912  0.4968  0.2433 -0.2182
  920MPD2    C413519   1.525   1.465  10.858  0.2025 -0.3957 -0.0083
  920MPD2    C513520   1.527   1.499  10.725  0.0858  0.4568 -0.9736
  920MPD2     H13521   1.229   1.304  10.866 -1.6260  2.3699  0.0918
  920MPD2    H113522   1.606   1.504  10.918 -0.3475  0.5365  0.1275
  920MPD2    H213523   1.431   1.495  10.540 -0.2918 -0.1516 -0.3043
  920MPD2    H313524   1.613   1.558  10.694  2.1267 -0.7696  2.3567
  920MPD2     N13525   1.402   1.400  11.053  0.5349 -0.2132  0.3150
  920MPD2    H513526   1.328   1.347  11.098  1.0731 -0.3204  1.0857
  920MPD2    N113527   1.200   1.363  10.613 -0.3738 -0.2001  0.3397
  920MPD2    H713528   1.119   1.333  10.667 -0.8419 -1.4070 -1.0375
  921MPD2     C13529   3.064   0.446  16.330  0.3062  0.0111  1.5320
  921MPD2    C113530   3.014   0.392  16.211 -0.2176  0.7262 -0.4835
  921MPD2    C213531   2.897   0.321  16.209  0.2359  0.1564 -0.1068
  921MPD2    C313532   2.813   0.323  16.315  0.4254  0.0516  0.1807
  921MPD2    C413533   2.853   0.386  16.431  0.3404 -0.3527  0.5851
  921MPD2    C513534   2.980   0.446  16.436  0.2433  0.5073 -0.1454
  921MPD2     H13535   2.862   0.277  16.116 -0.5230 -0.8267  0.6453
  921MPD2    H113536   2.799   0.384  16.525 -1.0082  1.8114 -0.1606
  921MPD2    H213537   3.159   0.497  16.340 -0.8928  2.5698 -0.0839
  921MPD2    H313538   3.011   0.492  16.529  1.4729  0.0240 -0.3219
  921MPD2     N13539   2.687   0.258  16.306 -0.3092 -0.0745 -0.5359
  921MPD2    H513540   2.676   0.211  16.217  0.1190  0.4597 -0.8645
  921MPD2    N113541   3.095   0.413  16.099  0.1996  0.1827 -1.0235
  921MPD2    H713542   3.184   0.459  16.111  0.4401 -1.1037  1.9644
  922MPD2     C13543   3.324   3.367  17.166 -0.2411 -0.5055 -0.4254
  922MPD2    C113544   3.262   3.378  17.289 -0.1957  0.7126  0.3093
  922MPD2    C213545   3.195   3.270  17.340 -0.4360  0.3104 -0.4982
  922MPD2    C313546   3.180   3.152  17.269 -0.5775 -0.7736 -0.0324
  922MPD2    C413547   3.239   3.143  17.142 -0.2886 -0.7561 -0.6124
  922MPD2    C513548   3.320   3.247  17.101 -0.1622 -0.2756 -0.1116
  922MPD2     H13549   3.150   3.279  17.439  0.4462 -1.1595  0.0480
  922MPD2    H113550   3.217   3.059  17.077 -1.5830 -0.8963  0.0039
  922MPD2    H213551   3.358   3.455  17.111 -3.7705  2.4892  2.1881
  922MPD2    H313552   3.355   3.246  16.999  1.6067 -3.1447  0.5275
  922MPD2     N13553   3.092   3.053  17.325  0.3125 -0.0235  0.2710
  922MPD2    H513554   3.055   3.078  17.416 -0.2705 -0.7871  0.2462
  922MPD2    N113555   3.249   3.500  17.358  1.0645 -0.3188  0.2035
  922MPD2    H713556   3.205   3.480  17.447  2.0171  0.0876  0.7688
  923MPD2     C13557   4.154   0.200   8.842 -0.2891 -0.0556 -0.1712
  923MPD2    C113558   4.152   0.278   8.953  0.1976  0.4135  0.5972
  923MPD2    C213559   4.222   0.244   9.062 -0.1189  0.2472  0.1589
  923MPD2    C313560   4.290   0.123   9.075  0.0063 -0.2248 -0.0383
  923MPD2    C413561   4.295   0.045   8.964 -0.0901 -0.2223  0.3898
  923MPD2    C513562   4.232   0.087   8.848  0.0269  0.1322  0.4292
  923MPD2     H13563   4.213   0.299   9.155  1.1103 -2.4340  1.8604
  923MPD2    H113564   4.358   4.692   8.969 -0.7854 -0.6330  1.9102
  923MPD2    H213565   4.102   0.231   8.752  0.0589  1.7256  0.2321
  923MPD2    H313566   4.249   0.026   8.760 -0.0364 -0.2345  0.6678
  923MPD2     N13567   4.347   0.079   9.201  0.8736 -0.0448 -0.2003
  923MPD2    H513568   4.372   4.716   9.204  2.0781  0.1482 -4.2289
  923MPD2    N113569   4.062   0.387   8.945 -0.2838  0.1704  0.4599
  923MPD2    H713570   4.010   0.397   8.858  1.3392  0.8496 -0.4397
  924MPD2     C13571   4.645   3.166  15.128 -0.0239 -0.6155 -0.4152
  924MPD2    C113572   4.658   3.148  15.266 -0.0673 -0.3271  0.6868
  924MPD2    C213573   0.034   3.199  15.331 -0.2021 -0.8348  0.3017
  924MPD2    C313574   0.125   3.272  15.258  0.4109  0.6131  0.0698
  924MPD2    C413575   0.118   3.291  15.122  0.1133 -0.0950 -0.3103
  924MPD2    C513576   0.005   3.233  15.058 -0.2057  0.4947  0.4116
  924MPD2     H13577   0.045   3.186  15.438 -1.1985  2.2098  0.7661
  924MPD2    H113578   0.185   3.362  15.074 -2.2944  0.4196 -2.8779
  924MPD2    H213579   4.558   3.123  15.081  0.0052  0.6739 -1.6644
  924MPD2    H313580   4.726   3.252  14.953 -1.4444  0.0319  0.5029
  924MPD2     N13581   0.236   3.328  15.321  0.0795  0.1906  0.1385
  924MPD2    H513582   0.302   3.390  15.274  1.0573  0.4479  1.8399
  924MPD2    N113583   4.554   3.070  15.326  0.6193 -0.0194  0.1652
  924MPD2    H713584   4.471   3.058  15.269  1.1847 -1.9845 -0.2570
  925MPD2     C13585   3.980   0.619  13.970  0.0275  0.0812 -1.2230
  925MPD2    C113586   3.847   0.655  13.965 -0.0138  0.0347  0.7216
  925MPD2    C213587   3.758   0.613  14.064  0.6563  0.4467  0.2225
  925MPD2    C313588   3.816   0.548  14.171  0.1957 -0.4224 -0.7354
  925MPD2    C413589   3.951   0.516  14.186  0.2170 -0.1016  0.3113
  925MPD2    C513590   4.031   0.550  14.080 -0.2208  0.2124  0.1287
  925MPD2     H13591   3.651   0.629  14.056  0.4058  0.4008  3.3089
  925MPD2    H113592   3.994   0.473  14.276  2.4568  0.3317 -0.5429
  925MPD2    H213593   4.055   0.640  13.895  1.2378 -1.3631 -0.4170
  925MPD2    H313594   4.139   0.539  14.081 -0.0041  1.9226 -1.7483
  925MPD2     N13595   3.741   0.500  14.287 -0.0321  0.1536 -0.6938
  925MPD2    H513596   3.791   0.448  14.358  0.3670 -0.2122 -1.2441
  925MPD2    N113597   3.801   0.730  13.851  0.4028 -0.6650 -0.2984
  925MPD2    H713598   3.872   0.757  13.784 -0.1925 -2.5284 -1.6894
  926MPD2     C13599   2.367   3.873  13.697 -0.5899  0.8547 -0.2280
  926MPD2    C113600   2.253   3.943  13.666  0.4625 -0.1634 -0.0224
  926MPD2    C213601   2.255   4.038  13.568  0.3572 -0.0786  0.8832
  926MPD2    C313602   2.366   4.061  13.487  0.2129  0.5217 -0.5296
  926MPD2    C413603   2.482   3.988  13.522 -0.3175 -0.4593  0.1702
  926MPD2    C513604   2.482   3.896  13.628  0.3919  0.1579 -0.2296
  926MPD2     H13605   2.167   4.095  13.538 -1.3939 -2.9748  0.4827
  926MPD2    H113606   2.565   4.000  13.453 -1.2994  0.9524 -0.7774
  926MPD2    H213607   2.370   3.788  13.765  1.1761 -0.4137 -1.9011
  926MPD2    H313608   2.578   3.844  13.628 -0.1337 -0.7972  1.8153
  926MPD2     N13609   2.382   4.155  13.387 -0.0394 -0.4494  0.1688
  926MPD2    H513610   2.478   4.168  13.356  0.5593 -1.8352  1.4441
  926MPD2    N113611   2.138   3.935  13.736  0.1216  0.4106 -0.3811
  926MPD2    H713612   2.064   3.992  13.696 -2.0623 -1.7978  0.5694
  927MPD2     C13613   1.650   1.939  17.560 -0.5463  0.0839  0.0404
  927MPD2    C113614   1.745   1.928  17.659 -0.1056 -0.2754  0.3215
  927MPD2    C213615   1.875   1.920  17.619 -0.1874  0.3683 -0.1466
  927MPD2    C313616   1.913   1.912  17.483  0.1181  0.7761  0.5448
  927MPD2    C413617   1.819   1.930  17.387 -0.3749  0.1108  0.0825
  927MPD2    C513618   1.689   1.946  17.429  0.3181 -0.7258  0.1523
  927MPD2     H13619   1.956   1.914  17.692 -1.2326  0.4364  1.0165
  927MPD2    H113620   1.841   1.934  17.281  1.3575 -0.9213  0.3934
  927MPD2    H213621   1.547   1.945  17.593 -0.5074  0.3161  0.1192
  927MPD2    H313622   1.610   1.946  17.356  0.4950  0.4080 -0.0349
  927MPD2     N13623   2.049   1.900  17.456  1.3797 -0.0266  0.7958
  927MPD2    H513624   2.112   1.911  17.534  0.4408 -0.9038  1.6902
  927MPD2    N113625   1.692   1.926   0.055  0.0279  0.0739  0.0230
  927MPD2    H713626   1.592   1.940   0.068  0.0303  0.2729 -0.1641
  928MPD2     C13627   0.192   0.870   1.681 -0.1617  0.3525 -0.1315
  928MPD2    C113628   0.139   0.869   1.554  0.0882  0.5947 -0.4134
  928MPD2    C213629   0.222   0.846   1.448  0.1029 -0.1598  0.7883
  928MPD2    C313630   0.360   0.817   1.466  0.8199 -0.3683  0.0972
  928MPD2    C413631   0.418   0.814   1.590  0.1016  0.2104 -0.0007
  928MPD2    C513632   0.328   0.835   1.694 -0.0488  0.3640  0.3067
  928MPD2     H13633   0.177   0.850   1.350  2.0152 -0.1609 -0.0879
  928MPD2    H113634   0.521   0.786   1.609  0.8935  2.2932 -1.1613
  928MPD2    H213635   0.133   0.899   1.768 -0.0785 -0.2356  0.1251
  928MPD2    H313636   0.370   0.826   1.794 -0.2941 -2.7853  0.1171
  928MPD2     N13637   0.449   0.799   1.359  0.2158 -0.1568  0.1814
  928MPD2    H513638   0.547   0.788   1.386  0.9268  1.6050 -1.6612
  928MPD2    N113639   0.018   0.934   1.539 -0.0987  0.0724  0.1958
  928MPD2    H713640   4.712   0.967   1.626 -1.1517  0.0429 -0.2842
  929MPD2     C13641   4.225   0.377  10.556 -0.1502  0.7424 -0.4733
  929MPD2    C113642   4.135   0.292  10.498  0.1534  0.0667 -0.2900
  929MPD2    C213643   4.104   0.299  10.367 -1.1651  0.4084 -0.4468
  929MPD2    C313644   4.134   0.409  10.297  0.1690  0.1991 -0.7536
  929MPD2    C413645   4.215   0.506  10.362 -0.5168  0.3149  0.1213
  929MPD2    C513646   4.272   0.482  10.484  0.2578  0.1390 -0.1979
  929MPD2     H13647   4.038   0.230  10.315  0.1611 -0.6550 -0.7092
  929MPD2    H113648   4.233   0.601  10.314 -0.7287 -0.6782 -1.8972
  929MPD2    H213649   4.253   0.372  10.661  0.9203  2.6514 -0.6536
  929MPD2    H313650   4.344   0.552  10.524  0.0294  1.7006 -2.4875
  929MPD2     N13651   4.099   0.426  10.156 -0.3751 -0.0688  0.2940
  929MPD2    H513652   4.118   0.513  10.107 -0.0904 -0.7859 -0.8595
  929MPD2    N113653   4.088   0.194  10.585 -0.6943  0.2156 -0.5402
  929MPD2    H713654   4.124   0.201  10.679 -0.2082  2.0015 -0.8557
  930MPD2     C13655   1.704   1.924  13.940 -0.6938 -0.2617 -0.1779
  930MPD2    C113656   1.824   1.869  13.907 -0.2376 -0.1073  0.1849
  930MPD2    C213657   1.923   1.939  13.843 -0.2566  0.3816  0.2084
  930MPD2    C313658   1.891   2.059  13.791  0.0467  0.0868  0.3446
  930MPD2    C413659   1.764   2.112  13.808  1.1310 -0.2364  0.4636
  930MPD2    C513660   1.672   2.044  13.886  0.0173 -0.3045  0.3842
  930MPD2     H13661   2.020   1.896  13.821 -0.5354  0.1361 -0.5299
  930MPD2    H113662   1.727   2.206  13.767  0.1298 -1.1088 -0.6563
  930MPD2    H213663   1.636   1.877  14.009 -2.1211  0.0725 -1.3576
  930MPD2    H313664   1.571   2.083  13.890 -0.4814 -1.6924  1.3877
  930MPD2     N13665   1.975   2.134  13.714 -0.3441 -0.0202  0.1172
  930MPD2    H513666   1.939   2.225  13.687 -2.4193 -0.3465  1.7672
  930MPD2    N113667   1.847   1.744  13.969 -0.0231  0.4779 -0.1114
  930MPD2    H713668   1.769   1.700  14.017  0.1731 -0.0792 -0.3126
  931MPD2     C13669   2.129   1.761   0.697  0.2135  0.3834 -0.7678
  931MPD2    C113670   2.045   1.868   0.705  0.0998  0.0826  0.0885
  931MPD2    C213671   2.062   1.969   0.801 -0.5875 -0.2035 -0.1986
  931MPD2    C313672   2.178   1.968   0.876 -0.3334 -0.1799  0.0288
  931MPD2    C413673   2.271   1.869   0.852 -0.9064 -0.5753 -0.8528
  931MPD2    C513674   2.247   1.762   0.768  0.1342 -0.2855  0.0203
  931MPD2     H13675   1.995   2.054   0.805 -0.3030  0.1132 -2.2900
  931MPD2    H113676   2.367   1.865   0.902 -1.2343  1.2952 -0.0571
  931MPD2    H213677   2.110   1.697   0.611  1.7709 -1.7243  0.4491
  931MPD2    H313678   2.327   1.690   0.756  1.1123  0.7540  0.2936
  931MPD2     N13679   2.199   2.061   0.984 -0.4773  0.3979 -0.3419
  931MPD2    H513680   2.291   2.060   1.026 -0.7522  0.8719  0.2802
  931MPD2    N113681   1.922   1.859   0.627  0.9621 -0.2633  0.2340
  931MPD2    H713682   1.922   1.788   0.554 -2.4394 -1.5654  1.4601
  932MPD2     C13683   3.186   0.919  11.672  1.0894  0.2691 -0.3500
  932MPD2    C113684   3.305   0.879  11.605 -0.4434 -0.4611 -0.1272
  932MPD2    C213685   3.346   0.750  11.601  0.9792 -0.6830  0.0325
  932MPD2    C313686   3.261   0.654  11.656 -0.3582 -0.0348  0.8045
  932MPD2    C413687   3.143   0.692  11.719  0.2333 -0.1548  0.1718
  932MPD2    C513688   3.111   0.822  11.721 -0.1272  0.1676 -0.0089
  932MPD2     H13689   3.444   0.733  11.558  1.7181  0.6925  1.1868
  932MPD2    H113690   3.081   0.610  11.755 -0.4243  0.7794  1.1662
  932MPD2    H213691   3.156   1.023  11.660  1.7099  0.3900 -0.9107
  932MPD2    H313692   3.010   0.845  11.752 -0.3275 -0.4278 -0.2346
  932MPD2     N13693   3.299   0.517  11.664  0.2664 -0.2331  0.0795
  932MPD2    H513694   3.229   0.455  11.704  0.6821 -1.1868 -0.6802
  932MPD2    N113695   3.393   0.982  11.565  0.4664  0.7236 -0.5458
  932MPD2    H713696   3.462   0.944  11.501  0.1620 -1.3365  0.3606
  933MPD2     C13697   3.915   1.282   1.329  0.0242 -0.3201 -0.3959
  933MPD2    C113698   4.004   1.188   1.273  0.4407  0.3287  0.0302
  933MPD2    C213699   3.962   1.096   1.176 -0.5563 -0.0691 -0.5753
  933MPD2    C313700   3.830   1.091   1.134 -1.3167 -1.0310  0.2444
  933MPD2    C413701   3.744   1.185   1.187  0.5892 -0.5799 -0.2719
  933MPD2    C513702   3.784   1.279   1.283  0.0955 -0.3495  0.1799
  933MPD2     H13703   4.036   1.024   1.141  0.1234 -0.5558  1.8388
  933MPD2    H113704   3.641   1.191   1.154  0.7622  1.1593 -0.5096
  933MPD2    H213705   3.944   1.360   1.399  0.6584 -0.0668 -0.9417
  933MPD2    H313706   3.715   1.353   1.322  1.1839  0.8591 -0.1984
  933MPD2     N13707   3.797   0.994   1.039  0.5746 -0.4447  0.1697
  933MPD2    H513708   3.865   0.938   0.987 -1.2877 -0.8683 -1.8307
  933MPD2    N113709   4.136   1.186   1.324  0.0641  0.4070  0.3487
  933MPD2    H713710   4.169   1.256   1.390  1.2791 -0.2246  0.4067
  934MPD2     C13711   0.912   2.986   2.164 -0.1723 -0.4368  0.5962
  934MPD2    C113712   0.999   2.912   2.085 -0.7016 -0.1651  0.2955
  934MPD2    C213713   0.954   2.862   1.966 -0.1551 -0.1792  0.2821
  934MPD2    C313714   0.822   2.881   1.919  0.2764  0.0176  0.3844
  934MPD2    C413715   0.735   2.945   2.010 -0.3869 -0.0321 -0.5701
  934MPD2    C513716   0.784   2.997   2.126  0.0520  0.0970  0.5468
  934MPD2     H13717   1.026   2.808   1.906  0.2602  1.0505 -0.3206
  934MPD2    H113718   0.631   2.951   1.981 -0.4149 -1.3147 -0.7403
  934MPD2    H213719   0.935   3.029   2.261  0.5584 -0.1593  0.3019
  934MPD2    H313720   0.715   3.032   2.203  0.5134  0.4770  0.7874
  934MPD2     N13721   0.768   2.834   1.796  0.2737  0.2099 -0.8769
  934MPD2    H513722   0.678   2.859   1.758 -0.8692  0.2517  1.9073
  934MPD2    N113723   1.133   2.881   2.123  0.1509 -0.6853 -0.2004
  934MPD2    H713724   1.193   2.846   2.050  0.5377  2.0358 -1.2160
  935MPD2     C13725   1.263   2.228   1.211 -0.0102  0.0532  0.4643
  935MPD2    C113726   1.125   2.196   1.191 -0.1214 -0.5536 -0.6209
  935MPD2    C213727   1.030   2.286   1.230 -0.4143  0.6447 -0.5369
  935MPD2    C313728   1.057   2.381   1.318 -0.5344 -0.2114 -0.7213
  935MPD2    C413729   1.185   2.407   1.357 -0.1527 -0.0094  0.1155
  935MPD2    C513730   1.289   2.331   1.297  0.4113 -0.7423  0.4820
  935MPD2     H13731   0.927   2.278   1.198  0.0499  1.0332 -2.0865
  935MPD2    H113732   1.215   2.489   1.421 -1.9204  1.6816 -1.2514
  935MPD2    H213733   1.339   2.156   1.182 -0.4277  0.5451 -1.8932
  935MPD2    H313734   1.392   2.348   1.324  0.0274  0.2809  1.3263
  935MPD2     N13735   0.949   2.453   1.382 -0.3623  0.2929  0.0340
  935MPD2    H513736   0.977   2.530   1.443 -0.2082  0.6209 -0.4454
  935MPD2    N113737   1.080   2.081   1.128 -0.1009  0.6757 -0.0401
  935MPD2    H713738   0.979   2.071   1.119 -0.0662  0.1600  0.1721
  936MPD2     C13739   3.527   3.872  12.523 -0.4039  0.1750  0.5435
  936MPD2    C113740   3.592   3.782  12.604 -0.3017 -0.3876  0.0155
  936MPD2    C213741   3.714   3.744  12.567 -0.0528 -0.3684 -0.2743
  936MPD2    C313742   3.777   3.782  12.452 -0.0188 -0.3003 -0.1294
  936MPD2    C413743   3.710   3.874  12.368  0.2372 -0.0143 -0.0942
  936MPD2    C513744   3.587   3.919  12.409 -0.3705 -0.2503 -0.3947
  936MPD2     H13745   3.763   3.677  12.638  1.5891  1.6496  0.4957
  936MPD2    H113746   3.745   3.897  12.268 -1.8691  0.6707 -0.6805
  936MPD2    H213747   3.428   3.912  12.540 -0.9082 -0.4067 -0.9997
  936MPD2    H313748   3.526   3.986  12.350  0.1492 -0.3971 -1.0873
  936MPD2     N13749   3.908   3.741  12.419  0.1545  0.6616  0.4504
  936MPD2    H513750   3.939   3.794  12.337  1.3904  1.0617  1.1686
  936MPD2    N113751   3.550   3.734  12.729  0.2106 -0.6432 -0.6964
  936MPD2    H713752   3.628   3.698  12.782 -1.2595 -1.7995  0.7126
  937MPD2     C13753   2.120   0.590  11.849 -0.0262 -0.2076 -0.2573
  937MPD2    C113754   2.161   0.721  11.848 -0.2305 -0.1638 -0.2419
  937MPD2    C213755   2.255   0.750  11.745  1.0250 -0.0754  0.0678
  937MPD2    C313756   2.300   0.660  11.654  0.2928 -0.2923 -0.1520
  937MPD2    C413757   2.259   0.532  11.666 -0.1721  0.2856  0.0519
  937MPD2    C513758   2.169   0.496  11.761  0.7484 -0.4997 -0.2004
  937MPD2     H13759   2.277   0.855  11.731 -1.4410 -0.0639 -3.8140
  937MPD2    H113760   2.289   0.450  11.601 -0.9124  2.5184 -3.1023
  937MPD2    H213761   2.058   0.544  11.925  0.9255 -2.0117 -0.5594
  937MPD2    H313762   2.143   0.393  11.782  1.0417 -0.7921 -1.2441
  937MPD2     N13763   2.398   0.696  11.560  0.3632  0.5622  0.4490
  937MPD2    H513764   2.428   0.793  11.559 -1.4602  1.1044 -0.9458
  937MPD2    N113765   2.100   0.826  11.925 -0.2284  0.2120  0.0627
  937MPD2    H713766   2.125   0.923  11.908  0.3160 -0.2760 -1.9816
  938MPD2     C13767   4.689   2.285   0.620 -0.7905  0.4507 -0.1755
  938MPD2    C113768   4.685   2.368   0.731  0.7954 -0.8042  0.0749
  938MPD2    C213769   4.721   2.315   0.850 -0.2472 -0.1180 -0.0004
  938MPD2    C313770   4.732   2.180   0.868 -0.1837 -1.0954 -0.3553
  938MPD2    C413771   4.722   2.099   0.754 -0.1890  0.5465 -0.1397
  938MPD2    C513772   4.712   2.152   0.630  0.2723  0.2343  0.2140
  938MPD2     H13773   0.013   2.383   0.930 -1.5707  0.4693 -0.0588
  938MPD2    H113774   4.728   1.992   0.772 -1.2145  1.0750  3.3204
  938MPD2    H213775   4.704   2.331   0.524  0.1798  2.1032  0.7637
  938MPD2    H313776   4.702   2.084   0.546  1.3180 -1.0036  1.0959
  938MPD2     N13777   0.010   2.123   0.994 -0.0910 -0.3291 -0.0328
  938MPD2    H513778   0.004   2.022   1.008 -0.6557 -0.0938  1.3393
  938MPD2    N113779   4.678   2.511   0.717  0.0510  0.0733 -0.6822
  938MPD2    H713780   4.695   2.566   0.801  4.8755 -0.7259 -1.1907
  939MPD2     C13781   0.679   3.523   0.455  0.9672 -0.6437  0.7528
  939MPD2    C113782   0.807   3.549   0.495 -0.5588 -0.4503  0.0359
  939MPD2    C213783   0.912   3.481   0.433  0.2085  0.1910  0.3344
  939MPD2    C313784   0.883   3.377   0.344  0.4101  0.3212 -0.4111
  939MPD2    C413785   0.753   3.352   0.312  0.5291  0.5870  0.0621
  939MPD2    C513786   0.652   3.426   0.360  0.4219  0.2936 -0.1309
  939MPD2     H13787   1.015   3.486   0.465 -0.2499 -0.5201  1.9184
  939MPD2    H113788   0.723   3.290   0.228 -1.0141  0.5813  0.6193
  939MPD2    H213789   0.601   3.566   0.516 -1.3813 -1.5965 -1.5681
  939MPD2    H313790   0.549   3.410   0.331  0.6646 -2.0437  0.3146
  939MPD2     N13791   0.995   3.312   0.286  0.1323  0.1569  0.0611
  939MPD2    H513792   1.084   3.359   0.296  0.5418 -0.7672  0.7716
  939MPD2    N113793   0.823   3.652   0.589 -0.3433 -0.1913 -0.3537
  939MPD2    H713794   0.736   3.694   0.620 -0.6823 -0.3041 -1.1564
  940MPD2     C13795   4.507   3.777  13.577  0.3034  0.0370  0.4312
  940MPD2    C113796   4.643   3.789  13.579 -0.3913 -0.7691 -0.8438
  940MPD2    C213797   4.714   3.795  13.465  0.0447 -0.6291 -0.2683
  940MPD2    C313798   4.655   3.761  13.341  0.5709  0.2964  0.2665
  940MPD2    C413799   4.524   3.727  13.343 -0.3006 -0.2645  0.2175
  940MPD2    C513800   4.451   3.745  13.459 -0.3716  0.8567 -0.2815
  940MPD2     H13801   0.085   3.814  13.479  0.4486 -1.8449 -1.7375
  940MPD2    H113802   4.468   3.703  13.253  0.3275  0.7216 -0.4487
  940MPD2    H213803   4.439   3.776  13.661 -1.0760 -1.4154 -0.6801
  940MPD2    H313804   4.343   3.737  13.449 -0.2829  1.6930 -1.9427
  940MPD2     N13805   4.731   3.742  13.217  0.4827 -0.1713 -0.3425
  940MPD2    H513806   0.095   3.758  13.232  0.9243 -0.4246 -2.9056
  940MPD2    N113807   4.714   3.811  13.698 -0.5280 -0.2644  0.6248
  940MPD2    H713808   0.074   3.844  13.693 -0.3492 -1.1635 -1.5543
  941MPD2     C13809   3.277   3.048  10.052 -0.5459 -1.0932 -1.2936
  941MPD2    C113810   3.381   2.977  10.109 -0.1239  0.4411  0.0408
  941MPD2    C213811   3.345   2.861  10.182  0.5268 -0.6464 -0.1160
  941MPD2    C313812   3.210   2.821  10.186 -0.9336 -0.0988  0.3329
  941MPD2    C413813   3.112   2.901  10.137 -0.0808 -0.4036 -0.2050
  941MPD2    C513814   3.148   3.011  10.066 -0.3619 -0.8946  0.3200
  941MPD2     H13815   3.428   2.810  10.228  2.0955  2.4774  0.5486
  941MPD2    H113816   3.006   2.878  10.139 -0.1916  0.1276  0.2473
  941MPD2    H213817   3.303   3.125   9.980 -0.8629  0.1160 -0.1224
  941MPD2    H313818   3.071   3.067  10.015 -1.4435  0.1070  3.0418
  941MPD2     N13819   3.175   2.690  10.249 -0.2932 -0.7567 -0.2936
  941MPD2    H513820   3.081   2.674  10.285  0.1330 -2.7887 -0.0926
  941MPD2    N113821   3.517   3.007  10.106 -0.3101 -0.5737 -0.2593
  941MPD2    H713822   3.571   2.942  10.162 -0.2185  0.0425  0.3723
  942MPD2     C13823   3.425   0.549   8.766 -0.2960 -0.1676 -0.1743
  942MPD2    C113824   3.430   0.560   8.898  0.7122 -0.1525 -0.6016
  942MPD2    C213825   3.517   0.478   8.967  0.1411  0.2969 -0.1696
  942MPD2    C313826   3.600   0.384   8.899 -0.3982 -0.0789 -0.2218
  942MPD2    C413827   3.590   0.377   8.762 -0.1278  0.1604 -0.0387
  942MPD2    C513828   3.511   0.467   8.697  0.3480  0.1426  0.7304
  942MPD2     H13829   3.518   0.490   9.074 -0.2978  2.6085 -0.4394
  942MPD2    H113830   3.650   0.313   8.699  2.2623  2.2611  0.0982
  942MPD2    H213831   3.351   0.600   8.706 -0.3541 -0.3346 -0.2462
  942MPD2    H313832   3.501   0.463   8.589  1.9485  1.8666  0.5323
  942MPD2     N13833   3.692   0.299   8.968  0.5767 -0.1830 -0.4469
  942MPD2    H513834   3.743   0.225   8.919 -1.1143  0.3009 -2.8881
  942MPD2    N113835   3.355   0.652   8.972  0.4706  0.1357  0.0461
  942MPD2    H713836   3.365   0.647   9.073 -2.8021  1.8546  0.4688
  943MPD2     C13837   1.919   2.935   9.565  0.6480 -0.7374  1.0233
  943MPD2    C113838   1.899   2.920   9.696  0.2111  0.3947 -0.1451
  943MPD2    C213839   1.927   3.028   9.775 -0.1065 -0.1424 -0.3904
  943MPD2    C313840   1.991   3.141   9.724  0.1286 -0.5048  0.0896
  943MPD2    C413841   2.001   3.157   9.588  0.3049  0.2931 -0.5005
  943MPD2    C513842   1.968   3.051   9.511  0.6627 -0.1102  0.0885
  943MPD2     H13843   1.895   3.018   9.878  0.5537  0.9246 -0.0899
  943MPD2    H113844   2.040   3.246   9.540  0.0325  1.0270  0.6388
  943MPD2    H213845   1.904   2.857   9.492 -0.1878 -1.0304  1.5087
  943MPD2    H313846   1.977   3.050   9.403 -2.6923  2.2035 -0.2155
  943MPD2     N13847   2.041   3.246   9.806 -0.7050 -0.4163  0.1599
  943MPD2    H513848   2.089   3.321   9.759  0.9914 -1.1852  0.6670
  943MPD2    N113849   1.864   2.792   9.741 -0.4083  0.4222 -0.5110
  943MPD2    H713850   1.823   2.736   9.666 -0.4709  2.2965 -1.8835
  944MPD2     C13851   2.267   2.160  11.486 -0.0184  0.0491  0.1287
  944MPD2    C113852   2.268   2.204  11.352 -0.7487 -0.0895 -1.1200
  944MPD2    C213853   2.207   2.327  11.325  0.0933  0.2033 -1.2604
  944MPD2    C313854   2.132   2.398  11.420  0.1227  0.0252 -0.4016
  944MPD2    C413855   2.113   2.333  11.543 -0.2773 -0.0308 -0.6347
  944MPD2    C513856   2.184   2.220  11.574  0.7306 -0.2478 -0.1070
  944MPD2     H13857   2.223   2.371  11.227  1.7009  1.5042 -0.4114
  944MPD2    H113858   2.034   2.371  11.607 -1.3718  1.8795 -3.1202
  944MPD2    H213859   2.325   2.076  11.523 -2.3043 -1.7834 -0.4514
  944MPD2    H313860   2.185   2.188  11.677  1.5279 -1.1582 -0.3956
  944MPD2     N13861   2.080   2.525  11.383  0.3037  0.4857 -0.5359
  944MPD2    H513862   2.089   2.545  11.284 -3.0535  0.1021 -0.9437
  944MPD2    N113863   2.333   2.126  11.255  0.2049 -0.3062 -0.2407
  944MPD2    H713864   2.405   2.061  11.284 -1.8116 -2.3422  0.1400
    1TMC1    C113865   0.032   2.619  14.872  0.9320  0.3592  0.2364
    1TMC1    C213866   0.038   2.488  14.925  0.5449  0.1617  0.1385
    1TMC1    C313867   4.695   2.392  14.860 -0.7236 -0.5380 -0.0365
    1TMC1    C413868   4.675   2.658  14.779  0.2799  0.2020  0.8639
    1TMC1    C513869   4.588   2.562  14.740 -0.5776  0.1126 -0.8130
    1TMC1    C613870   4.592   2.430  14.776 -0.2173  0.1815 -0.6888
    1TMC1     C13871   0.128   2.720  14.931 -0.2692 -0.2161  0.5790
    1TMC1     O13872   0.178   2.691  15.037  0.1795 -0.2743  0.2200
    1TMC1     H13873   0.122   2.465  14.989 -0.9531 -2.0339  1.3204
    1TMC1    H113874   4.658   2.760  14.748  0.0172  0.1341  0.7832
    1TMC1    H213875   4.540   2.353  14.721  0.5751 -1.7514  1.2358
    1TMC1    C713876   4.478   2.619  14.662  0.2065  0.2040  0.5230
    1TMC1    C813877   4.718   2.252  14.870 -0.1629  0.1567  0.0244
    1TMC1    O113878   4.505   2.701  14.577  0.2998 -0.3469  0.4825
    1TMC1    O213879   4.677   2.167  14.790 -0.3032 -0.0517 -0.2976
    1TMC1    O313880   4.386   2.525  14.656 -0.2124  0.0791  0.3260
    1TMC1    H313881   4.359   2.509  14.749 -0.2703 -3.7527 -0.3147
    1TMC1    O513882   0.051   2.225  14.984  0.3754  0.4015  0.4159
    1TMC1    H513883   0.046   2.302  15.045 -1.6556 -0.6933  1.6050
    2MPD2     C13884   0.379   3.164  14.962 -1.1476 -0.6273  0.9794
    2MPD2    C113885   0.332   3.150  14.832 -0.0105  0.2657  0.0196
    2MPD2    C213886   0.264   3.037  14.800  0.0065 -0.6584  0.4545
    2MPD2    C313887   0.235   2.938  14.897  0.0710 -0.4869 -0.6145
    2MPD2    C413888   0.263   2.964  15.027 -0.2035  0.0667 -0.6628
    2MPD2    C513889   0.341   3.070  15.062  0.7813  0.5791 -0.1322
    2MPD2     H13890   0.214   3.021  14.705 -0.4794 -0.4157  0.6678
    2MPD2    H113891   0.228   2.900  15.108 -0.0009  0.8738  0.0645
    2MPD2    H213892   0.436   3.251  14.992 -1.5285 -1.0198  2.8859
    2MPD2    H313893   0.369   3.085  15.166 -2.0151  0.1342  0.6832
    2MPD2     N13894   0.153   2.829  14.853 -0.2684  0.1478  0.1670
    2MPD2    H513895   0.126   2.825  14.755  0.1202  0.2752  0.0566
    2MPD2    N113896   0.359   3.254  14.734  0.0909  0.1222  0.0188
    2MPD2    H713897   0.380   3.340  14.783 -0.1070  0.1542  0.0498
    3TMC2    C113898   0.382   3.380  14.522  0.5060  0.0241 -0.1988
    3TMC2    C213899   0.462   3.469  14.588  0.8447 -0.7934 -0.5557
    3TMC2    C313900   0.513   3.573  14.512 -0.3826  0.0177 -0.1823
    3TMC2    C413901   0.336   3.405  14.394  0.9158  0.2846  0.1618
    3TMC2    C513902   0.388   3.512  14.327  0.6336  0.0263  0.5003
    3TMC2    C613903   0.479   3.600  14.386  0.3738 -0.8498  0.3784
    3TMC2     C13904   0.340   3.257  14.595 -0.3778 -0.8353  0.3458
    3TMC2     O13905   0.288   3.174  14.526 -0.4997 -0.2833 -0.0849
    3TMC2     H13906   0.492   3.454  14.691 -1.4310 -0.1810  0.1936
    3TMC2    H113907   0.256   3.344  14.354  0.7182  1.4117 -1.1585
    3TMC2    H213908   0.538   3.674  14.333 -1.0884 -0.6272 -0.9554
    3TMC2    C713909   0.360   3.521  14.180  0.2734  0.6483 -0.3163
    3TMC2    C813910   0.623   3.647  14.574  0.0249  0.8580  0.1828
    3TMC2    O113911   0.301   3.427  14.132  0.1498 -0.0192 -0.0641
    3TMC2    O213912   0.687   3.598  14.668  0.7977 -0.1038 -1.1168
    3TMC2    O513913   0.589   3.777  14.575  0.2908 -0.4638 -0.0141
    3TMC2    H513914   0.527   3.787  14.499 -0.8068 -0.5749  0.8520
    4TMC2    C113915   0.270   4.248  13.552  0.1625  0.6101 -0.7787
    4TMC2    C213916   0.255   4.367  13.612  0.6989 -0.0578  0.0225
    4TMC2    C313917   0.342   4.397  13.717 -0.3382  0.3630  0.1692
    4TMC2    C413918   0.360   4.152  13.595  0.0682  0.6577  0.0964
    4TMC2    C513919   0.434   4.179  13.706  0.6715 -0.9315  0.4773
    4TMC2    C613920   0.429   4.299  13.766 -0.7334  0.3863  0.1759
    4TMC2     C13921   0.148   4.179  13.531  0.2617 -0.4728 -0.0549
    4TMC2     O13922   0.140   4.070  13.579 -0.4789  0.1382 -0.4585
    4TMC2     H13923   0.185   4.443  13.581  1.0395  0.0104 -0.5999
    4TMC2    H113924   0.372   4.065  13.533  0.3829  1.4152 -0.8977
    4TMC2    H213925   0.489   4.316  13.854 -0.9342 -0.0598  0.4005
    4TMC2    C713926   0.444   4.062  13.796 -0.5252  0.3444 -0.1390
    4TMC2    C813927   0.346   4.520  13.786  0.6646  0.3349 -0.1886
    4TMC2    O113928   0.485   4.083  13.908 -0.2030  0.2249 -0.4133
    4TMC2    O213929   0.339   4.628  13.732  0.2508  0.0791  0.2208
    4TMC2    O513930   0.351   4.491  13.915  0.3257  0.3729 -0.3657
    4TMC2    H513931   0.338   4.398  13.945  2.4733  0.4820  0.8592
    5MPD2     C13932   4.446   4.138  13.262 -0.3734 -0.5587 -0.3604
    5MPD2    C113933   4.536   4.226  13.198 -0.8418 -0.4993  0.1989
    5MPD2    C213934   4.662   4.240  13.246 -0.4209  0.0652  0.5953
    5MPD2    C313935   4.701   4.193  13.366 -0.0553 -0.0649  0.3428
    5MPD2    C413936   4.619   4.101  13.427 -0.4449  0.1971 -0.2635
    5MPD2    C513937   4.496   4.072  13.372  0.1454 -0.4898  0.1451
    5MPD2     H13938   4.724   4.312  13.195  1.5024 -0.6262  1.9392
    5MPD2    H113939   4.638   4.059  13.525 -1.5261 -1.3945 -0.7567
    5MPD2    H213940   4.344   4.116  13.232 -0.5774  2.8314 -2.2006
    5MPD2    H313941   4.428   4.003  13.421 -1.1738 -0.4943 -1.7281
    5MPD2     N13942   0.086   4.236  13.426  0.4343 -0.1248  0.2350
    5MPD2    H513943   0.132   4.317  13.385 -1.6813  0.9526 -0.0104
    5MPD2    N113944   4.490   4.284  13.075 -0.4988  0.4070 -0.1155
    5MPD2    H713945   4.391   4.288  13.052 -0.2827  2.4434 -0.6873
    6MPD1     C13946   3.696   1.181  13.147 -0.4796  0.8644 -0.5198
    6MPD1    C113947   3.600   1.113  13.066  1.7631 -0.5939 -0.6081
    6MPD1    C213948   3.639   0.993  13.023  0.0790  0.2095 -0.4770
    6MPD1    C313949   3.770   0.940  13.047  0.7304  0.0646 -0.4375
    6MPD1    C413950   3.862   1.017  13.120 -0.6942 -0.2423 -0.4185
    6MPD1    C513951   3.821   1.134  13.165 -0.6476 -1.0303  0.5253
    6MPD1     H13952   3.569   0.924  12.979  1.0556  0.6083 -2.6477
    6MPD1    H113953   3.965   0.986  13.137 -0.7747 -0.9765 -1.3112
    6MPD1    H213954   3.655   1.268  13.197 -0.6375 -1.2230  2.9730
    6MPD1    H313955   3.899   1.193  13.212 -1.5516 -0.3637  1.2130
    6MPD1     N13956   3.823   0.815  12.997  0.5380  0.2537  0.4591
    6MPD1    H513957   3.921   0.789  13.006  0.1326 -0.7384  2.0673
    6MPD1    N113958   3.469   1.150  13.066  0.2371 -0.3248 -0.1034
    6MPD1    H613959   3.405   1.112  12.995 -1.8902 -0.2912  1.8087
    6MPD1    H713960   3.452   1.250  13.074  2.4181 -0.0743  1.2970
    7MPD2     C13961   3.761   4.688  12.738  0.1833 -0.4141  0.3125
    7MPD2    C113962   3.874   0.037  12.713 -0.7033  0.2256 -0.5494
    7MPD2    C213963   3.996   4.720  12.685 -0.7119  1.2766 -0.0530
    7MPD2    C313964   4.023   4.585  12.691  0.5325 -0.1975  0.7027
    7MPD2    C413965   3.910   4.498  12.711 -0.3662 -0.0641  0.0907
    7MPD2    C513966   3.781   4.553  12.733 -0.1451  0.2542 -0.2907
    7MPD2     H13967   4.075   0.055  12.662  0.6206 -0.2737 -0.1959
    7MPD2    H113968   3.909   4.390  12.704  1.5007 -0.1720  1.6616
    7MPD2    H213969   3.662   4.730  12.751  0.4417 -0.2318  1.6527
    7MPD2    H313970   3.699   4.483  12.750 -1.7698  2.3523  0.5361
    7MPD2     N13971   4.151   4.541  12.673 -0.2633  0.1490 -0.3004
    7MPD2    H513972   4.211   4.620  12.649  1.1112 -0.5964  0.6608
    7MPD2    N113973   3.867   0.180  12.737  0.3424  0.7474 -0.3320
    7MPD2    H713974   3.947   0.234  12.704  2.7598 -1.5617  1.6973
    8TMC3    C113975   4.340   4.411  12.712 -0.3356 -0.4180  0.4845
    8TMC3    C213976   4.375   4.356  12.834 -0.2846  0.0531 -0.2851
    8TMC3    C313977   4.496   4.410  12.879  0.6935  0.7554 -0.0257
    8TMC3    C413978   4.406   4.514  12.648  0.2160 -0.1862  1.0415
    8TMC3    C513979   4.526   4.560  12.697  0.1698  1.2686  0.1493
    8TMC3    C613980   4.559   4.519  12.820  0.3627  0.3396  0.0555
    8TMC3     C13981   4.199   4.414  12.692 -0.0282  0.0984 -0.4770
    8TMC3     O13982   4.145   4.314  12.736 -0.2454  0.0449  0.3708
    8TMC3     H13983   4.330   4.267  12.877 -2.6815  1.2929 -0.2241
    8TMC3    H113984   4.376   4.555  12.552  0.9883  0.3420  1.0286
    8TMC3    H213985   4.631   4.576  12.877 -1.0478  0.3443  1.8342
    8TMC3    C713986   4.560   4.696  12.669 -0.5123  0.5226  0.6128
    8TMC3    C813987   4.568   4.353  12.990 -0.6335  0.6991 -0.6030
    8TMC3    O113988   4.588   4.726  12.554  0.2982  0.0922 -0.1567
    8TMC3    O213989   4.692   4.369  12.984 -0.6325  0.2542  0.3715
    9TMC3    C113990   3.819   0.606  12.894  0.3751  0.3145 -0.2823
    9TMC3    C213991   3.955   0.612  12.909  0.1844 -0.2075 -0.2615
    9TMC3    C313992   4.024   0.500  12.883  0.4821 -0.2822  0.1545
    9TMC3    C413993   3.747   0.496  12.858  0.4154 -0.2383 -0.1242
    9TMC3    C513994   3.823   0.386  12.833  0.3914 -0.7426  0.1291
    9TMC3    C613995   3.958   0.387  12.849 -0.3574 -0.2675  0.3785
    9TMC3     C13996   3.742   0.726  12.930 -0.3029  0.2716  0.0926
    9TMC3     O13997   3.624   0.718  12.902  0.4362 -0.5655 -0.0325
    9TMC3     H13998   4.009   0.706  12.902  1.8812 -1.2688 -1.3964
    9TMC3    H113999   3.640   0.493  12.843  0.4867 -3.2319 -0.1919
    9TMC3    H214000   4.022   0.301  12.829 -1.0061 -1.1703  2.1273
    9TMC3    C714001   3.769   0.254  12.802 -0.2123 -0.7653 -0.6656
    9TMC3    C814002   4.165   0.508  12.868 -0.0529  0.1655  0.0671
    9TMC3    O114003   3.661   0.210  12.837 -0.3028  0.4199 -0.3033
    9TMC3    O214004   4.208   0.620  12.853 -0.2377  0.3692 -0.2017
   10MPD2     C14005   4.559   0.257  12.676 -0.5148 -0.0837  0.3561
   10MPD2    C114006   4.494   0.175  12.764  0.0434  0.0770  0.2579
   10MPD2    C214007   4.407   0.229  12.857 -0.3977  0.2219 -0.8460
   10MPD2    C314008   4.352   0.355  12.839  0.0254  0.4756  0.4579
   10MPD2    C414009   4.414   0.437  12.748 -0.8996 -0.7011 -0.3174
   10MPD2    C514010   4.524   0.389  12.680 -0.5543 -0.8331 -0.0862
   10MPD2     H14011   4.371   0.160  12.932  0.1874  0.1666 -0.6173
   10MPD2    H114012   4.378   0.535  12.718 -0.4492 -0.6786 -0.7872
   10MPD2    H214013   4.630   0.214  12.607 -0.5851 -0.2441  0.3831
   10MPD2    H314014   4.579   0.452  12.611 -3.3339  0.5336 -1.0577
   10MPD2     N14015   4.227   0.389  12.892  0.4374 -0.0196  0.0883
   10MPD2    H514016   4.173   0.319  12.943 -1.2209  1.7993  0.8278
   10MPD2    N114017   4.518   0.037  12.774 -0.4364 -0.4737 -0.2893
   10MPD2    H714018   4.476   4.716  12.847 -0.5335  0.6341  0.4885
   11MPD2     C14019   0.317   3.573  13.884  0.2672  0.1236  0.0078
   11MPD2    C114020   0.387   3.659  13.972 -0.2145  0.2003 -1.0444
   11MPD2    C214021   0.417   3.783  13.917 -0.0115 -0.1402 -0.7938
   11MPD2    C314022   0.376   3.827  13.791 -0.0961  0.0356 -0.1678
   11MPD2    C414023   0.311   3.739  13.709  0.3916 -0.0215 -0.8381
   11MPD2    C514024   0.281   3.616  13.757  0.9171  0.0827  0.0149
   11MPD2     H14025   0.463   3.858  13.980  0.1204 -0.9831  0.1147
   11MPD2    H114026   0.286   3.755  13.605  0.1998  0.6248 -0.6954
   11MPD2    H214027   0.287   3.473  13.914  3.0915 -0.5071  0.8070
   11MPD2    H314028   0.238   3.548  13.685  2.3599 -0.1420 -0.6351
   11MPD2     N14029   0.387   3.954  13.733 -0.7570  0.5982  0.2711
   11MPD2    H514030   0.360   3.957  13.635  1.0006 -0.1533 -0.2317
   11MPD2    N114031   0.417   3.630  14.112  0.7538 -0.3096 -0.8705
   11MPD2    H714032   0.474   3.694  14.167  0.4658 -2.4389  1.9398
    1MPD1     C14033   4.598   0.720  16.959  0.7981  0.5700 -0.0887
    1MPD1    C114034   4.564   0.816  17.052 -0.2920 -0.3340 -0.4781
    1MPD1    C214035   4.508   0.781  17.175 -0.1752  0.3943  0.3809
    1MPD1    C314036   4.500   0.651  17.210  0.2949 -1.1991 -0.0291
    1MPD1    C414037   4.537   0.552  17.114 -0.1763 -0.3721 -0.6138
    1MPD1    C514038   4.580   0.586  16.984  0.2060 -0.2682 -0.5419
    1MPD1     H14039   4.474   0.867  17.231 -3.2547 -0.6433  0.0791
    1MPD1    H114040   4.531   0.446  17.139 -1.5489  0.1103  1.0990
    1MPD1    H214041   4.614   0.750  16.857  0.0512 -0.9910 -0.6601
    1MPD1    H314042   4.618   0.515  16.911 -0.7758 -1.3108 -0.0388
    1MPD1     N14043   4.468   0.611  17.342  0.2046  0.0917  0.2081
    1MPD1    H514044   4.448   0.512  17.351 -1.1408  0.5502  2.2120
    1MPD1    N114045   4.555   0.949  17.006  0.4485 -0.4010  0.1585
    1MPD1    H614046   4.552   1.022  17.077 -0.6023 -0.4495  0.1682
    1MPD1    H714047   4.611   0.984  16.929 -1.0539  0.5432 -0.5232
    2MPD1     C14048   4.180   0.975   0.609  0.2069 -0.4784 -0.7231
    2MPD1    C114049   4.079   0.903   0.551 -0.1439 -0.0115  0.1548
    2MPD1    C214050   4.107   0.823   0.443  0.0872  0.6164  0.7777
    2MPD1    C314051   4.223   0.839   0.366  0.5518  0.5839  0.3798
    2MPD1    C414052   4.324   0.920   0.419 -0.3489 -0.3275  0.3223
    2MPD1    C514053   4.301   0.983   0.542 -0.1951  0.1782  0.3572
    2MPD1     H14054   4.030   0.752   0.413 -1.1256  2.3061 -0.1281
    2MPD1    H114055   4.420   0.924   0.369 -0.1178  1.9201  0.9624
    2MPD1    H214056   4.181   1.008   0.712  3.7096  1.1381 -1.2984
    2MPD1    H314057   4.387   1.031   0.587  0.0061 -0.2008  0.3816
    2MPD1     N14058   4.245   0.763   0.248  1.0480  0.0157  0.5196
    2MPD1    H514059   4.168   0.701   0.222  1.5005 -0.1723 -0.3700
    2MPD1    N114060   3.956   0.884   0.619  0.3021 -0.3402  0.8881
    2MPD1    H614061   3.915   0.968   0.659 -0.1293  0.6054 -1.5335
    2MPD1    H714062   3.889   0.853   0.549 -0.8009 -0.6995  2.1226
    3TMC3    C114063   4.327   0.697   0.038 -0.0174  0.4900 -0.5181
    3TMC3    C214064   4.280   0.569   0.056 -0.5618  0.0771  0.9434
    3TMC3    C314065   4.270   0.487  17.679  0.0679  0.4040  0.4203
    3TMC3    C414066   4.392   0.730  17.663  1.0775  0.7808  0.2333
    3TMC3    C514067   4.396   0.645  17.559  0.2422 -0.1031 -0.3229
    3TMC3    C614068   4.332   0.523  17.560 -0.6450 -1.1873 -0.4455
    3TMC3     C14069   4.342   0.789   0.148  0.5518 -0.3838 -0.6749
    3TMC3     O14070   4.436   0.871   0.149 -0.7261  0.6982 -0.2553
    3TMC3     H14071   4.261   0.523   0.153 -0.9885  0.2520  0.9419
    3TMC3    H114072   4.436   0.828  17.647 -0.3895  1.4202  0.0963
    3TMC3    H214073   4.315   0.460  17.474 -0.5309  0.4121 -1.6322
    3TMC3    C714074   4.466   0.696  17.445 -0.3845  0.6271  0.2618
    3TMC3    C814075   4.213   0.354  17.698 -0.8062 -0.3864  0.5276
    3TMC3    O114076   4.534   0.799  17.457 -0.3552  0.2345  0.1058
    3TMC3    O214077   4.142   0.336   0.055  0.2463 -0.3112 -0.3236
    4MPD1     C14078   4.057   4.649  17.485 -0.6729 -0.6886  0.7054
    4MPD1    C114079   4.178   4.685  17.431  0.9959 -0.0342  0.2458
    4MPD1    C214080   4.238   0.064  17.477  0.4137 -0.3487  0.0759
    4MPD1    C314081   4.184   0.146  17.570 -0.8456 -0.2990 -0.5328
    4MPD1    C414082   4.065   0.116  17.619 -0.7322  0.2761  0.0105
    4MPD1    C514083   3.997   0.000  17.574 -0.4545  0.3058 -0.0374
    4MPD1     H14084   4.339   0.089  17.445  0.0699  1.0047  0.0517
    4MPD1    H114085   4.007   0.184  17.681  0.5720  2.3886 -1.0821
    4MPD1    H214086   4.013   4.552  17.465 -0.3012 -0.9650  1.2211
    4MPD1    H314087   3.897   4.715  17.610 -0.4700 -0.7877 -0.6999
    4MPD1     N14088   4.250   0.263  17.605 -0.0410  0.0009 -0.1449
    4MPD1    H514089   4.342   0.285  17.567  1.2782 -1.0851  2.4384
    4MPD1    N114090   4.256   4.603  17.344 -0.3224 -0.3417  0.3924
    4MPD1    H614091   4.314   4.663  17.286  0.3814  0.0522  1.5117
    4MPD1    H714092   4.202   4.534  17.290 -1.8517  0.5943  0.7194
    1TCq1    O114093   3.460   1.060  10.797  0.5898  0.1350  0.1101
    1TCq1    C114094   3.552   1.053  10.701 -0.4967 -0.2376  0.0581
    1TCq1    O214095   3.583   1.151  10.637 -0.0880 -0.6687 -0.1018
    1TCq1    C214096   3.555   0.916  10.662 -0.1853  0.2280 -0.3612
    1TCq1    C314097   3.546   0.825  10.761  0.6026  0.3205 -0.4041
    1TCq1    C414098   3.544   0.692  10.729 -0.0237 -0.6452 -0.1172
    1TCq1    C514099   3.534   0.649  10.602 -0.0031 -0.6964  0.9095
    1TCq1    C614100   3.525   0.745  10.505  0.4266  0.0030  0.2593
    1TCq1    C714101   3.547   0.877  10.536  0.0849  0.1370 -0.0082
    1TCq1    C814102   3.497   0.706  10.366 -0.3991 -0.0387 -0.3548
    1TCq1    O414103   3.497   0.794  10.282  0.0648  0.1247  0.1297
    1TCq1    C914104   3.615   0.602  10.819 -0.0708  0.5751  0.2287
    1TCq1    O514105   3.641   0.490  10.770  0.2396  0.0597 -0.3103
    1TCq1    O614106   3.654   0.654  10.929  0.9033 -0.4736 -0.4443
    1TCq1    H114107   3.434   0.970  10.827  0.3416 -0.2222 -1.2064
    1TCq1    H214108   3.577   0.857  10.860  0.0633  0.7523 -0.3753
    1TCq1    H314109   3.557   0.548  10.572  0.1968 -0.6332  0.8510
    1TCq1    H414110   3.541   0.959  10.465 -0.7713 -0.4355 -0.6012
    2MPD1     C14111   3.406   0.382   9.975 -0.0703  0.0021  0.3804
    2MPD1    C114112   3.411   0.305  10.092  0.6721  0.6293  0.0055
    2MPD1    C214113   3.425   0.367  10.216 -0.7207  0.2831  0.2239
    2MPD1    C314114   3.437   0.507  10.222 -0.3342  0.4462  0.1947
    2MPD1    C414115   3.435   0.579  10.101  0.5351  0.0066 -0.7026
    2MPD1    C514116   3.412   0.520   9.980  0.6402 -0.5917 -0.5832
    2MPD1     H14117   3.428   0.308  10.307  2.6655 -1.7016 -1.1883
    2MPD1    H114118   3.465   0.683  10.094  3.3096 -0.7145  0.3534
    2MPD1    H214119   3.392   0.335   9.878  0.7360  0.3627  0.0885
    2MPD1    H314120   3.412   0.575   9.887  0.5073 -2.2062 -1.5484
    2MPD1     N14121   3.475   0.573  10.349  0.2824  0.6570 -0.0251
    2MPD1    H514122   3.483   0.505  10.424  0.3134 -2.0661 -2.5037
    2MPD1    N114123   3.424   0.168  10.071 -0.8411 -0.6609 -0.0053
    2MPD1    H614124   3.390   0.111  10.148 -1.4109  0.7596  0.7944
    2MPD1    H714125   3.375   0.137   9.987 -1.1417 -1.5717  0.5137
    1TMC1    C114126   3.078   1.931   1.156  0.3037 -0.6136 -0.3866
    1TMC1    C214127   3.157   1.817   1.161 -0.1750 -0.6682 -0.3301
    1TMC1    C314128   3.138   1.716   1.072  0.4380  0.3326 -0.2096
    1TMC1    C414129   2.995   1.950   1.047  0.3699 -0.0207  0.4790
    1TMC1    C514130   2.973   1.849   0.963 -0.2641  0.4754 -0.3388
    1TMC1    C614131   3.045   1.737   0.973 -0.5077 -0.8604  0.0564
    1TMC1     C14132   3.130   2.045   1.220  0.1101 -0.3462  0.1062
    1TMC1     O14133   3.248   2.031   1.255  0.3456  0.2916 -0.3688
    1TMC1     H14134   3.222   1.791   1.244 -1.2479 -1.8792  0.1274
    1TMC1    H114135   2.938   2.042   1.041  0.2044 -0.1062  0.7432
    1TMC1    H214136   3.008   1.648   0.924 -0.5345  0.7786 -2.9233
    1TMC1    C714137   2.889   1.885   0.848  0.1361  0.3628 -0.3661
    1TMC1    C814138   3.212   1.589   1.080  0.2366  0.7084 -0.5890
    1TMC1    O114139   2.838   1.997   0.844 -0.3385 -0.3685  0.1096
    1TMC1    O214140   3.273   1.565   1.185  0.2792 -0.9356 -0.5050
    1TMC1    O314141   2.937   1.819   0.738  0.2503 -0.4450  0.4103
    1TMC1    H314142   2.991   1.738   0.755  2.7278  0.9108 -0.8704
    1TMC1    O514143   3.264   1.566   0.949  0.2152  0.5692  0.3996
    1TMC1    H514144   3.202   1.587   0.876 -1.8635 -0.5019  1.8654
    2MPD1     C14145   3.140   2.533   1.381  0.3923 -0.3592  0.7779
    2MPD1    C114146   3.006   2.499   1.362  0.3901 -0.0440 -0.4376
    2MPD1    C214147   2.983   2.372   1.305  0.4979  0.2576 -0.3107
    2MPD1    C314148   3.083   2.282   1.278 -0.7407  0.0641  0.3782
    2MPD1    C414149   3.218   2.324   1.299 -0.3788  0.5373 -0.9170
    2MPD1    C514150   3.243   2.450   1.349  0.1912 -0.3410  0.7925
    2MPD1     H14151   2.882   2.344   1.281  0.6139 -0.1745 -0.2897
    2MPD1    H114152   3.298   2.253   1.283 -0.6506 -0.4218  1.9552
    2MPD1    H214153   3.172   2.631   1.416 -0.4807  0.4678 -0.7444
    2MPD1    H314154   3.345   2.481   1.363  0.4821 -1.3208  0.8395
    2MPD1     N14155   3.041   2.156   1.226  0.1849 -0.5952  0.3527
    2MPD1    H514156   2.941   2.149   1.210  0.1957  1.5164 -0.7145
    2MPD1    N114157   2.904   2.597   1.380  0.1421 -0.2747 -0.1719
    2MPD1    H614158   2.927   2.653   1.462 -0.8207  0.8227 -0.6581
    2MPD1    H714159   2.813   2.555   1.396  0.0270 -0.2082 -0.6576
    1MPD1     C14160   1.665   0.932  11.718  0.1829  0.4718 -0.0916
    1MPD1    C114161   1.648   1.071  11.720  0.6704  0.3625  0.1925
    1MPD1    C214162   1.603   1.139  11.828  0.3603  0.8279  0.0401
    1MPD1    C314163   1.575   1.070  11.945 -0.1023 -1.0216  0.4977
    1MPD1    C414164   1.609   0.939  11.949 -0.2374 -0.0615 -0.5187
    1MPD1    C514165   1.644   0.874  11.838  0.0914  0.0819 -0.5039
    1MPD1     H14166   1.580   1.245  11.828 -0.9428  0.5679 -4.3508
    1MPD1    H114167   1.589   0.869  12.028  1.8459  0.5632  0.5599
    1MPD1    H214168   1.703   0.866  11.640  0.4053 -2.7627  2.7301
    1MPD1    H314169   1.658   0.766  11.843  0.5264  0.1808  0.4668
    1MPD1     N14170   1.501   1.133  12.047  0.4487  0.2323 -0.3271
    1MPD1    H514171   1.475   1.230  12.035 -0.3654 -0.1049 -1.2780
    1MPD1    N114172   1.676   1.145  11.595  0.5559 -0.1398  0.3262
    1MPD1    H614173   1.743   1.108  11.528  1.4803 -0.6480  1.5287
    1MPD1    H714174   1.680   1.247  11.601 -3.3601  0.0443 -0.6054
    2MPD1     C14175   4.587   0.722  11.394 -0.6527  0.1877 -0.0982
    2MPD1    C114176   4.561   0.768  11.266  0.3904 -0.1633  0.5845
    2MPD1    C214177   4.673   0.783  11.179 -0.3688  0.2229 -0.3376
    2MPD1    C314178   0.068   0.761  11.215 -0.3968 -0.4538 -0.0785
    2MPD1    C414179   0.089   0.719  11.340 -0.8364 -0.1050  0.0684
    2MPD1    C514180   4.721   0.707  11.425  0.1224 -0.3420 -0.0290
    2MPD1     H14181   4.662   0.834  11.084 -0.8074  0.5791 -0.0981
    2MPD1    H114182   0.187   0.706  11.386  0.2564  0.7198 -2.0429
    2MPD1    H214183   4.515   0.692  11.469 -1.7834  0.7752 -0.9564
    2MPD1    H314184   0.013   0.679  11.527 -0.0222 -1.9791 -0.4308
    2MPD1     N14185   0.171   0.792  11.134 -0.6049  0.0442  0.1793
    2MPD1    H514186   0.263   0.808  11.176  0.6714 -1.5255 -2.0606
    2MPD1    N114187   4.431   0.752  11.215 -0.2188  0.1963  0.0603
    2MPD1    H614188   4.359   0.751  11.286 -0.9650 -3.1703 -0.7570
    2MPD1    H714189   4.415   0.824  11.145 -4.3708 -0.1357  0.6962
    3MPD1     C14190   0.633   0.883  10.140  0.7300 -0.4961 -0.3331
    3MPD1    C114191   0.733   0.875  10.237  0.5213  0.4288 -0.9533
    3MPD1    C214192   0.692   0.887  10.368 -0.2237 -0.0542  0.3523
    3MPD1    C314193   0.562   0.922  10.395 -0.1047 -0.7168 -0.0477
    3MPD1    C414194   0.469   0.929  10.294  0.4445 -0.2019 -0.9118
    3MPD1    C514195   0.507   0.928  10.168 -0.6983 -0.8901  0.1631
    3MPD1     H14196   0.755   0.855  10.451 -0.4029 -0.2972  0.3966
    3MPD1    H114197   0.362   0.943  10.308  0.2794 -1.6408 -0.7298
    3MPD1    H214198   0.660   0.878  10.035  1.5040  1.0167 -0.2074
    3MPD1    H314199   0.432   0.913  10.092  0.0258  2.2995 -1.1730
    3MPD1     N14200   0.534   0.934  10.537  0.4506  0.1514 -0.3818
    3MPD1    H514201   0.607   0.907  10.603 -0.8338  0.9538  1.3755
    3MPD1    N114202   0.858   0.819  10.205  0.1646 -0.0402  0.2574
    3MPD1    H614203   0.891   0.848  10.113 -0.5052 -1.6496 -0.4783
    3MPD1    H714204   0.924   0.838  10.280 -0.2969 -0.2401  0.7158
    4MPD2     C14205   0.800   1.061  12.176 -0.3319 -0.0546 -0.9444
    4MPD2    C114206   0.886   1.168  12.148 -0.1543  0.1674  0.5468
    4MPD2    C214207   0.851   1.254  12.047  0.1864  0.2044  0.1291
    4MPD2    C314208   0.743   1.232  11.962  0.7050  0.6664 -0.1071
    4MPD2    C414209   0.671   1.118  11.978 -0.7118 -0.4970 -0.1622
    4MPD2    C514210   0.699   1.037  12.087 -0.1578  0.5732  0.0401
    4MPD2     H14211   0.913   1.341  12.035  0.3854 -0.3477 -2.7553
    4MPD2    H114212   0.591   1.097  11.909 -1.5102 -2.3847  1.3628
    4MPD2    H214213   0.813   1.003  12.267 -0.1224 -0.1829 -1.0551
    4MPD2    H314214   0.628   0.959  12.109  0.4446  0.1123  0.3723
    4MPD2     N14215   0.710   1.318  11.853  0.0341 -0.4162 -0.3778
    4MPD2    H514216   0.635   1.292  11.789 -0.1888  0.0788 -0.3228
    4MPD2    N114217   0.996   1.203  12.233  0.1132  0.1819  0.1973
    4MPD2    H714218   1.026   1.299  12.226 -0.7721  0.4142 -0.3634
    5TMC3    C114219   1.174   1.180  12.363 -0.1963  0.3248  0.4731
    5TMC3    C214220   1.282   1.104  12.334 -0.2071  0.7874 -0.4126
    5TMC3    C314221   1.380   1.157  12.256 -0.0666 -0.8580  0.1566
    5TMC3    C414222   1.182   1.317  12.354  0.4145  0.1721 -0.5515
    5TMC3    C514223   1.282   1.377  12.283  0.4070  0.0382  0.7994
    5TMC3    C614224   1.376   1.295  12.223 -0.6423 -0.3727 -0.5283
    5TMC3     C14225   1.059   1.113  12.310  0.1383 -0.6970  0.0493
    5TMC3     O14226   1.044   0.992  12.319 -0.2309  0.2299  0.4659
    5TMC3     H14227   1.279   0.997  12.348 -0.1611  0.6733 -1.3189
    5TMC3    H114228   1.099   1.378  12.388  1.1234 -0.6072  2.5315
    5TMC3    H214229   1.447   1.339  12.155  0.2010 -0.6832  0.1463
    5TMC3    C714230   1.221   1.461  12.186  0.1827  0.6858 -0.0300
    5TMC3    C814231   1.446   1.070  12.155  0.2914  0.0578 -0.6114
    5TMC3    O114232   1.100   1.460  12.174 -0.5438 -0.5131 -0.2153
    5TMC3    O214233   1.439   0.952  12.179 -0.0815  0.0364 -0.2769
    6TMC3    C114234   0.288   0.854  10.931  0.6394  0.3315  0.5977
    6TMC3    C214235   0.302   0.849  10.798 -0.2157 -0.0173 -0.2493
    6TMC3    C314236   0.408   0.922  10.740  0.1000 -0.0926 -0.4309
    6TMC3    C414237   0.378   0.925  11.000 -0.5438  0.0427  0.3250
    6TMC3    C514238   0.486   0.975  10.940 -0.3950 -0.2766 -0.0902
    6TMC3    C614239   0.508   0.982  10.810  0.0560  0.5968 -0.1755
    6TMC3     C14240   0.164   0.800  10.995 -0.2887 -0.0479  0.2659
    6TMC3     O14241   0.080   0.752  10.921  0.2745  0.0346  0.1144
    6TMC3     H14242   0.227   0.807  10.732  1.0433 -0.5563 -1.3094
    6TMC3    H114243   0.346   0.964  11.096  0.6379  0.5682  0.5067
    6TMC3    H214244   0.577   1.043  10.754  0.3941  1.6291  1.3593
    6TMC3    C714245   0.570   1.049  11.028  0.5941  0.1815  1.1869
    6TMC3    C814246   0.407   0.943  10.597  0.4130  0.1636 -0.4496
    6TMC3    O114247   0.527   1.078  11.138  0.5194 -0.1528 -0.4830
    6TMC3    O214248   0.296   0.941  10.548  0.1476 -0.3695 -0.7643
    7MPD2     C14249   1.240   1.768  11.774  0.3861  1.2593 -0.8360
    7MPD2    C114250   1.145   1.681  11.818  0.7856  0.2726  0.4582
    7MPD2    C214251   1.166   1.615  11.942  0.3891  0.6996  0.4277
    7MPD2    C314252   1.286   1.630  12.018 -0.0256 -0.0188 -0.1830
    7MPD2    C414253   1.389   1.702  11.962  0.5594  0.1946  0.0175
    7MPD2    C514254   1.361   1.778  11.847  0.0171  0.3923  0.0649
    7MPD2     H14255   1.086   1.554  11.982 -0.0456  0.8623 -0.1946
    7MPD2    H114256   1.477   1.734  12.016 -0.2793  0.9642  0.9238
    7MPD2    H214257   1.220   1.841  11.696  1.7812 -0.2201 -2.5727
    7MPD2    H314258   1.436   1.850  11.817  1.7634 -1.3601  0.2079
    7MPD2     N14259   1.313   1.550  12.131  0.2397 -0.1287 -0.0513
    7MPD2    H514260   1.411   1.544  12.156  0.2977  1.2190  0.0842
    7MPD2    N114261   1.018   1.655  11.756  0.3972 -0.8917  0.4697
    7MPD2    H714262   0.948   1.609  11.813 -0.2162 -0.0470  0.3939
    8TMC3    C114263   0.838   1.667  11.610  0.2847 -0.6789  1.1079
    8TMC3    C214264   0.826   1.601  11.490  0.1863  0.5499  1.0844
    8TMC3    C314265   0.758   1.487  11.507  0.2071  0.3136  0.4979
    8TMC3    C414266   0.779   1.637  11.727  0.6958 -0.8272 -0.0881
    8TMC3    C514267   0.711   1.520  11.730  0.4058  0.2800 -0.1681
    8TMC3    C614268   0.701   1.446  11.620  0.3109 -0.0811  0.6022
    8TMC3     C14269   0.978   1.703  11.631  0.2192 -0.6767 -0.2688
    8TMC3     O14270   1.046   1.737  11.534 -0.0003 -0.2116 -0.5242
    8TMC3     H14271   0.873   1.631  11.397 -1.5949 -2.7567 -0.8623
    8TMC3    H114272   0.777   1.702  11.814  2.3496 -1.3585  0.3462
    8TMC3    H214273   0.652   1.349  11.622  2.1655 -0.9790  2.3645
    8TMC3    C714274   0.768   1.445  11.840  0.2279  0.2631 -0.0294
    8TMC3    C814275   0.747   1.405  11.386 -0.6099  0.0602  0.2935
    8TMC3    O114276   0.856   1.503  11.904 -0.2031  0.3797 -0.7382
    8TMC3    O214277   0.638   1.350  11.369  0.4186  0.1227  0.3427
    9MPD2     C14278   1.017   1.257  11.183 -0.1536  0.6062 -0.0221
    9MPD2    C114279   0.887   1.293  11.212 -0.4109  1.1963 -1.1325
    9MPD2    C214280   0.784   1.232  11.144  0.8419  0.9573  0.2015
    9MPD2    C314281   0.805   1.142  11.048 -0.1859  0.0133  0.2511
    9MPD2    C414282   0.927   1.125  11.003 -0.0209 -0.5310  0.1382
    9MPD2    C514283   1.034   1.180  11.073 -0.3753 -0.2372  0.3866
    9MPD2     H14284   0.683   1.263  11.170  1.1635  0.0827  2.5310
    9MPD2    H114285   0.945   1.049  10.928 -1.1524 -1.3883  0.7515
    9MPD2    H214286   1.100   1.288  11.244  0.3829  0.0787 -0.4835
    9MPD2    H314287   1.134   1.142  11.052 -0.8044 -1.5050  0.6356
    9MPD2     N14288   0.697   1.073  10.975 -0.2121  0.0938 -0.5599
    9MPD2    H514289   0.728   1.021  10.893  1.2672  1.9435 -1.1581
    9MPD2    N114290   0.869   1.381  11.319  0.0745  0.7811 -0.3458
    9MPD2    H714291   0.947   1.422  11.370  2.0121 -0.3668 -2.3968
    1MPD1     C14292   0.900   3.568  17.219  0.2170  0.6068  0.2968
    1MPD1    C114293   0.810   3.612  17.128  0.3141 -0.0031  0.1395
    1MPD1    C214294   0.853   3.676  17.014  0.5179 -0.0481  0.3368
    1MPD1    C314295   0.995   3.688  16.987  0.1557  0.0158 -0.9473
    1MPD1    C414296   1.080   3.633  17.079 -0.0660  0.3193  0.2268
    1MPD1    C514297   1.034   3.568  17.189  0.1863 -0.2158  0.3223
    1MPD1     H14298   0.775   3.707  16.945 -1.4994  0.4963  2.9044
    1MPD1    H114299   1.187   3.639  17.062 -0.0009 -0.3884  0.3996
    1MPD1    H214300   0.878   3.527  17.317  1.3566  1.6776  1.0013
    1MPD1    H314301   1.101   3.524  17.262  1.3029 -0.7986 -1.0800
    1MPD1     N14302   1.041   3.749  16.872 -0.4886  0.0843 -0.0953
    1MPD1    H514303   1.141   3.763  16.872 -0.6367  1.1049  1.1645
    1MPD1    N114304   0.672   3.617  17.162  0.0234 -0.1509 -0.7080
    1MPD1    H614305   0.607   3.600  17.085  0.9529 -0.8242 -1.3381
    1MPD1    H714306   0.645   3.545  17.229  0.6036  2.6784  2.5639
    2TMC2    C114307   1.018   3.995  16.477 -0.1618 -0.6022 -0.4802
    2TMC2    C214308   1.158   4.003  16.478  0.2200 -0.2456 -0.3465
    2TMC2    C314309   1.230   3.942  16.571  0.1797  0.2807 -0.3726
    2TMC2    C414310   0.953   3.943  16.587  0.3061 -0.1119  0.1886
    2TMC2    C514311   1.029   3.889  16.682  0.5987  0.1515 -0.7301
    2TMC2    C614312   1.165   3.881  16.678  0.0399  0.5929  0.5693
    2TMC2     C14313   0.936   4.074  16.382  0.0332 -0.0863 -0.0270
    2TMC2     O14314   0.814   4.049  16.376  0.0916  0.3424 -0.8053
    2TMC2     H14315   1.211   4.035  16.388  3.1331  0.8340  1.7479
    2TMC2    H114316   0.844   3.948  16.589  0.3076  1.4546 -3.2486
    2TMC2    H214317   1.235   3.841  16.751 -0.8385 -1.3652  0.3445
    2TMC2    C714318   0.957   3.809  16.778  0.6818  0.0482 -0.6184
    2TMC2    C814319   1.379   3.951  16.570  0.1373 -0.0037 -0.4321
    2TMC2    O114320   0.836   3.807  16.765  0.6585  0.0869  0.1324
    2TMC2    O214321   1.441   3.850  16.598  0.3611 -0.4768 -0.2876
    2TMC2    O514322   1.416   4.060  16.502 -0.7337 -0.2520  0.2710
    2TMC2    H514323   1.349   4.130  16.487 -2.4374 -1.7975  0.5942
    3MPD1     C14324   0.886   4.435  16.017  0.3697 -0.0432  0.1433
    3MPD1    C114325   1.011   4.446  16.073 -0.4296  0.1183  0.2731
    3MPD1    C214326   1.043   4.363  16.175  0.1876 -0.9929  0.0147
    3MPD1    C314327   0.957   4.270  16.224 -0.4260 -0.5512  0.1647
    3MPD1    C414328   0.829   4.271  16.176 -0.2360 -0.4279  0.1425
    3MPD1    C514329   0.794   4.353  16.076  0.2670 -0.2310 -0.6112
    3MPD1     H14330   1.144   4.355  16.214 -0.4981 -0.5360  1.8599
    3MPD1    H114331   0.749   4.209  16.215  0.8224 -2.0825 -0.3078
    3MPD1    H214332   0.862   4.493  15.929 -1.7573 -0.0460  0.7262
    3MPD1    H314333   0.695   4.344  16.033  0.2225  0.3332 -0.6218
    3MPD1     N14334   1.011   4.176  16.318  0.1549  0.0060 -0.2835
    3MPD1    H514335   1.105   4.197  16.349 -0.0030  0.4880 -0.1185
    3MPD1    N114336   1.114   4.511  15.989 -0.3986  0.6360 -0.1092
    3MPD1    H614337   1.196   4.537  16.044 -0.7246  1.9886 -0.2521
    3MPD1    H714338   1.087   4.594  15.936  2.0441  2.4607  1.4946
    1TMC1    C114339   3.617   3.037  13.112  0.9222  0.5115 -0.7494
    1TMC1    C214340   3.539   3.068  13.219  0.0801  0.4534  0.1150
    1TMC1    C314341   3.411   3.096  13.200  0.4703  0.1769 -0.4496
    1TMC1    C414342   3.565   3.038  12.983  0.5655 -0.6241 -0.5825
    1TMC1    C514343   3.433   3.062  12.973  0.2108  0.4939  0.4973
    1TMC1    C614344   3.352   3.092  13.079  0.4938  0.5647  0.3137
    1TMC1     C14345   3.759   3.048  13.119  0.3745 -0.7993 -1.1346
    1TMC1     O14346   3.814   3.077  13.013 -0.1884 -0.0877 -0.3480
    1TMC1     H14347   3.578   3.097  13.316  1.5335  0.6609 -0.5304
    1TMC1    H114348   3.619   2.987  12.903  0.3779  0.7115 -1.5646
    1TMC1    H214349   3.255   3.139  13.065  0.7765  0.7027 -1.1164
    1TMC1    C714350   3.368   3.099  12.849 -0.2547  0.4518  0.0433
    1TMC1    C814351   3.338   3.142  13.315 -0.0545  0.0256 -0.7650
    1TMC1    O114352   3.246   3.098  12.830 -0.4445  0.1112  0.3928
    1TMC1    O214353   3.269   3.245  13.308  0.1881  0.1064 -0.3164
    1TMC1    O314354   3.459   3.162  12.772  0.0121  0.3898  0.2826
    1TMC1    H314355   3.545   3.146  12.815 -0.4195  0.5554  1.2068
    1TMC1    O514356   3.372   3.071  13.430  0.4312 -0.8968  0.9998
    1TMC1    H514357   3.400   2.982  13.401 -1.8947 -0.6849 -1.9285
    2MPD2     C14358   4.066   3.065  13.199 -0.1162 -0.0618 -0.4507
    2MPD2    C114359   3.963   3.017  13.278 -0.2595 -1.1139  0.2860
    2MPD2    C214360   3.994   2.972  13.411  0.1928  0.2647  0.2312
    2MPD2    C314361   4.122   2.967  13.457 -0.2430  0.1465  0.4600
    2MPD2    C414362   4.223   3.021  13.374  0.2622  0.3493  0.1737
    2MPD2    C514363   4.195   3.074  13.248  0.0472  0.7187 -0.0397
    2MPD2     H14364   3.917   2.930  13.476 -1.4643  1.3795 -1.0029
    2MPD2    H114365   4.329   3.025  13.396  0.5174 -2.0869 -0.5546
    2MPD2    H214366   4.045   3.108  13.102 -0.7146 -1.7513 -1.0723
    2MPD2    H314367   4.271   3.122  13.186 -1.2444  1.5342 -0.9953
    2MPD2     N14368   4.138   2.926  13.596 -0.1485  0.6592 -0.4193
    2MPD2    H514369   4.056   2.895  13.646 -0.2963  0.2681 -0.9054
    2MPD2    N114370   3.824   3.010  13.238 -0.2769  0.1643 -0.1377
    2MPD2    H714371   3.759   2.983  13.312  0.2556 -2.3678 -0.5836
    3TCq1    O114372   4.037   2.747  14.166 -0.0481 -0.1836 -0.2809
    3TCq1    C114373   3.999   2.779  14.041  0.0917  0.6043 -0.5359
    3TCq1    O214374   3.893   2.831  14.013 -0.2002  0.7097 -0.2403
    3TCq1    C214375   4.121   2.770  13.960  0.4369 -0.4519 -0.2933
    3TCq1    C314376   4.201   2.658  13.976  0.4476 -0.0767  0.9387
    3TCq1    C414377   4.307   2.638  13.892  0.0731 -0.2218  0.0975
    3TCq1    C514378   4.337   2.728  13.797  0.0193 -0.3251 -0.0032
    3TCq1    C614379   4.255   2.835  13.774 -0.5850  0.1810 -0.2547
    3TCq1    C714380   4.139   2.854  13.852  0.4471 -0.1866  0.2745
    3TCq1    C814381   4.264   2.907  13.650  0.1668  0.7832 -0.0128
    3TCq1    O414382   4.374   2.929  13.600 -0.3081 -0.0893  0.2073
    3TCq1    C914383   4.376   2.515  13.903  0.2453  0.2627  0.2730
    3TCq1    O514384   4.492   2.518  13.853  0.1882 -0.1703  0.1264
    3TCq1    O614385   4.304   2.420  13.954 -0.6225 -0.4112  0.0152
    3TCq1    H114386   4.132   2.724  14.170  1.0083  3.9681 -0.8869
    3TCq1    H214387   4.165   2.578  14.039  3.5306 -2.5524 -0.4490
    3TCq1    H314388   4.406   2.700  13.718  1.4648  0.9009  0.8109
    3TCq1    H414389   4.079   2.945  13.843  4.1862  2.3851  1.4138
    1MPD2     C14390   3.582   3.775  14.785 -0.1275  0.4605  0.1391
    1MPD2    C114391   3.458   3.720  14.752  0.2067 -0.2537 -0.0465
    1MPD2    C214392   3.456   3.594  14.695  0.3853  0.1327  0.6463
    1MPD2    C314393   3.575   3.533  14.659 -0.1256 -0.8415 -0.4566
    1MPD2    C414394   3.692   3.597  14.681  0.4237 -0.2703  0.3271
    1MPD2    C514395   3.693   3.718  14.748  0.2167 -0.4167  0.3163
    1MPD2     H14396   3.358   3.551  14.676  0.6592  0.5803 -1.7271
    1MPD2    H114397   3.787   3.556  14.649  0.8751  0.7435  0.3418
    1MPD2    H214398   3.604   3.859  14.850 -0.4449  0.4498  0.2581
    1MPD2    H314399   3.783   3.775  14.765  0.3912 -1.4614  2.8551
    1MPD2     N14400   3.585   3.408  14.599 -0.0956  0.5553  0.7865
    1MPD2    H514401   3.680   3.371  14.597 -0.6926 -0.9679  0.3707
    1MPD2    N114402   3.331   3.766  14.800  0.2966 -0.0106 -0.5506
    1MPD2    H714403   3.260   3.709  14.754 -0.5254 -1.6716  2.8324
    2TMC3    C114404   3.166   3.899  14.872 -0.7713 -0.1956 -0.4497
    2TMC3    C214405   3.094   3.786  14.872  0.5750  0.3152  0.3543
    2TMC3    C314406   2.960   3.795  14.839 -0.0944 -0.3467 -0.8559
    2TMC3    C414407   3.116   4.017  14.818  0.0017  0.8676  0.9143
    2TMC3    C514408   2.981   4.019  14.788  0.8977  0.2217 -0.2950
    2TMC3    C614409   2.899   3.907  14.801 -0.2492 -0.1759 -0.3409
    2TMC3     C14410   3.308   3.880  14.870  0.5223 -0.5985 -0.3334
    2TMC3     O14411   3.389   3.970  14.900 -0.0875  0.3932 -0.2480
    2TMC3     H14412   3.134   3.696  14.918  0.1032 -0.1535 -0.1510
    2TMC3    H114413   3.181   4.098  14.787 -0.0050  0.9303  1.0636
    2TMC3    H214414   2.801   3.912  14.754 -0.9893  3.7686  1.5505
    2TMC3    C714415   2.922   4.122  14.702 -0.4095  0.7054  0.2760
    2TMC3    C814416   2.882   3.677  14.799 -0.5279  0.0203 -1.1826
    2TMC3    O114417   2.795   4.129  14.705  0.1955  0.6787 -0.3028
    2TMC3    O214418   2.763   3.672  14.818 -1.0438  0.4557 -0.3267
    3TCq1    O114419   3.689   4.442  14.043 -0.2507  0.6933  0.0128
    3TCq1    C114420   3.566   4.394  14.016  0.2665 -0.3496 -0.2420
    3TCq1    O214421   3.535   4.279  14.044 -0.6919 -0.3262 -0.5717
    3TCq1    C214422   3.483   4.504  14.033 -0.0209  0.2951 -0.7946
    3TCq1    C314423   3.515   4.618  13.964  0.6308 -0.0063 -0.0379
    3TCq1    C414424   3.430   4.725  13.969 -0.5442 -0.1533  0.4945
    3TCq1    C514425   3.310   4.715  14.040 -0.8273  0.3423 -0.7790
    3TCq1    C614426   3.283   4.603  14.111 -0.0850 -1.0686 -0.5121
    3TCq1    C714427   3.368   4.493  14.102 -0.3075 -0.2548  0.0694
    3TCq1    C814428   3.153   4.585  14.179  1.1854 -0.0167 -0.2003
    3TCq1    O414429   3.060   4.663  14.148  0.2706  0.1857 -0.4321
    3TCq1    C914430   3.456   0.116  13.905  0.4559  0.7258 -0.1703
    3TCq1    O514431   3.569   0.134  13.854  0.4329  0.4443 -0.2192
    3TCq1    O614432   3.363   0.199  13.904 -0.2193  0.4419 -0.4137
    3TCq1    H114433   3.697   4.537  14.023  1.4379 -0.0205 -2.6785
    3TCq1    H214434   3.603   4.629  13.902  1.0263  0.0637  0.5436
    3TCq1    H314435   3.244   0.065  14.052 -1.5424 -0.0217 -2.0982
    3TCq1    H414436   3.347   4.394  14.141 -0.1305 -0.1042  0.5540
    4MPD2     C14437   2.918   4.469  14.323 -0.1145  0.0376 -0.0918
    4MPD2    C114438   3.049   4.420  14.336 -0.3222  0.4176  0.3544
    4MPD2    C214439   3.073   4.325  14.433 -0.5108 -0.5094  0.2200
    4MPD2    C314440   2.975   4.274  14.513  0.4489 -0.3580 -0.2577
    4MPD2    C414441   2.845   4.317  14.485 -0.5760 -0.0902  0.0846
    4MPD2    C514442   2.813   4.417  14.396  0.2915  0.2951 -0.1711
    4MPD2     H14443   3.173   4.289  14.453 -0.2492  0.0404 -0.0931
    4MPD2    H114444   2.774   4.287  14.561  1.0373 -2.5174  0.6564
    4MPD2    H214445   2.890   4.533  14.240 -0.3547  1.1240  0.8351
    4MPD2    H314446   2.711   4.449  14.377  0.3025  0.1990 -0.3971
    4MPD2     N14447   3.012   4.180  14.615  0.0656 -0.7572  0.1914
    4MPD2    H514448   3.110   4.153  14.619  0.3974  0.3812 -0.0988
    4MPD2    N114449   3.158   4.470  14.254 -0.7594  0.0719 -0.0479
    4MPD2    H714450   3.252   4.432  14.263 -0.6401  0.0009 -1.5196
    5TMC2    C114451   3.332   3.004  14.591 -0.1885  0.1974  0.3108
    5TMC2    C214452   3.418   2.953  14.682 -0.2560 -0.1256 -0.6701
    5TMC2    C314453   3.539   3.022  14.710  0.3180  0.2543 -0.3137
    5TMC2    C414454   3.377   3.121  14.528  0.3031 -0.1240 -0.0966
    5TMC2    C514455   3.490   3.186  14.564 -0.2687  0.5810 -0.5976
    5TMC2    C614456   3.586   3.132  14.644 -0.1899  0.1019  0.6017
    5TMC2     C14457   3.196   3.030  14.643  0.4647 -0.6000  0.1736
    5TMC2     O14458   3.134   2.943  14.702 -0.1288 -0.4031  0.6166
    5TMC2     H14459   3.384   2.861  14.730 -1.2144 -1.2736 -3.5463
    5TMC2    H114460   3.314   3.167  14.452  1.4712  1.6599  0.0116
    5TMC2    H214461   3.680   3.182  14.660 -0.4568  0.9790 -0.6383
    5TMC2    C714462   3.471   3.332  14.571 -0.5287 -0.0141  0.6562
    5TMC2    C814463   3.632   2.934  14.770 -0.0023 -0.8720 -0.1777
    5TMC2    O114464   3.358   3.373  14.556 -0.2410  0.3648 -0.2361
    5TMC2    O214465   3.624   2.813  14.763  0.1621 -0.0906  0.6075
    5TMC2    O514466   3.734   2.998  14.841 -0.7659  0.2929 -0.2411
    5TMC2    H514467   3.701   3.088  14.859 -0.6488  0.0698  1.0765
    6MPD2     C14468   2.829   3.376  14.777 -0.7060 -0.2084 -0.0822
    6MPD2    C114469   2.941   3.443  14.733 -0.3900  0.0026 -0.1724
    6MPD2    C214470   3.042   3.363  14.685  0.6558  0.4487 -0.3179
    6MPD2    C314471   3.043   3.227  14.679 -0.0004 -0.4459 -0.2228
    6MPD2    C414472   2.934   3.166  14.728  0.3793 -0.0081 -0.6436
    6MPD2    C514473   2.830   3.240  14.772  0.4663 -0.2012 -0.3590
    6MPD2     H14474   3.131   3.421  14.665  1.7548 -0.9603  0.4994
    6MPD2    H114475   2.927   3.059  14.743  2.8674 -0.0917 -0.0340
    6MPD2    H214476   2.739   3.429  14.804 -0.4066 -0.5811  1.6489
    6MPD2    H314477   2.741   3.184  14.801 -0.6546  1.8442  0.1142
    6MPD2     N14478   3.167   3.166  14.641 -0.4548  0.7951 -0.6780
    6MPD2    H514479   3.236   3.232  14.608  0.6060 -0.0499 -0.1555
    6MPD2    N114480   2.963   3.582  14.751  0.0231 -0.5194  0.1669
    6MPD2    H714481   3.057   3.617  14.731  1.2379 -2.6995  2.0386
  945NH3     N114482   1.406   0.042  12.598  0.2716  0.4571 -0.3045
  945NH3     H214483   1.488   0.026  12.540 -0.8274 -2.6771 -0.9894
  945NH3     H314484   1.432   0.006  12.689  0.9875  1.1502 -0.2341
  945NH3     H414485   1.340   4.707  12.565  1.4539  0.1687 -2.0734
  946SOD     NA14486   2.694   0.592  13.412  0.5107  0.5402  0.5779
  947SOD     NA14487   2.499   4.266   3.467  0.6668 -0.1949  0.6193
  948SOD     NA14488   0.969   0.161  11.961  0.3067  0.1161 -0.0593
  949SOD     NA14489   3.852   0.746  10.996 -0.2917 -0.4288  0.5220
  950SOD     NA14490   1.761   2.896   4.858  0.1297  0.0058 -0.0798
  951SOD     NA14491   3.382   3.096   9.215  0.5724 -0.0417 -0.0386
  952SOD     NA14492   1.708   0.316   7.293 -0.5998 -0.0284  0.2772
  953SOD     NA14493   2.840   3.188  15.590 -0.1746 -0.0088 -0.0886
  954SOL     OW14494   0.677   3.708  15.454 -0.4487  0.6361 -0.0204
  954SOL    HW114495   0.704   3.724  15.544  1.8805 -1.2597 -0.3909
  954SOL    HW214496   0.741   3.762  15.409  1.1405  0.0092  1.4979
  955SOL     OW14497   1.748   0.397   3.459 -0.1405  0.5411 -0.3335
  955SOL    HW114498   1.818   0.434   3.406 -1.6964  1.4654 -1.7139
  955SOL    HW214499   1.766   0.441   3.542  1.6903 -2.6751  1.0106
  956SOL     OW14500   2.993   0.143  12.312  0.5412  0.0783  0.0010
  956SOL    HW114501   3.044   0.108  12.239  0.3509  0.6958 -0.4281
  956SOL    HW214502   2.903   0.136  12.280  0.4103  1.6111  0.0389
  957SOL     OW14503   0.426   4.167   8.818 -0.2674  0.6218  0.2168
  957SOL    HW114504   0.503   4.184   8.872 -0.5471 -2.8287  1.7066
  957SOL    HW214505   0.428   4.071   8.820  1.3211  0.6704  1.4371
  958SOL     OW14506   2.112   0.849   6.923  0.5116 -0.0753  0.1272
  958SOL    HW114507   2.133   0.825   7.013  0.0952 -0.2081  0.1864
  958SOL    HW214508   2.080   0.936   6.943  0.2239 -0.8934  3.1859
  959SOL     OW14509   2.156   1.407   6.587  0.6892  0.3341  0.2574
  959SOL    HW114510   2.195   1.346   6.523 -0.3842 -0.0340 -0.0500
  959SOL    HW214511   2.062   1.392   6.578  0.8898 -1.5699  1.1851
  960SOL     OW14512   1.936   0.633  13.343 -0.1801  0.2688 -0.6301
  960SOL    HW114513   1.969   0.595  13.425 -0.7077 -1.7640 -1.3682
  960SOL    HW214514   2.014   0.620  13.290 -0.2868  0.7690 -0.9065
  961SOL     OW14515   3.617   0.348   5.098  0.1870  0.2584 -0.1340
  961SOL    HW114516   3.536   0.299   5.080  0.2764  0.1820 -0.3294
  961SOL    HW214517   3.660   0.351   5.013 -1.2191 -3.0597 -0.9937
  962SOL     OW14518   0.119   2.553   3.233 -0.0660  0.1051  1.2587
  962SOL    HW114519   0.185   2.484   3.237  0.8402  0.8464 -0.8714
  962SOL    HW214520   0.121   2.573   3.326  1.0068 -2.5211  1.7953
  963SOL     OW14521   2.206   0.236   2.791 -0.2802 -0.9094  0.7030
  963SOL    HW114522   2.119   0.212   2.759 -0.3340  0.1505  0.0569
  963SOL    HW214523   2.255   0.158   2.762  1.6534  0.8611 -0.8047
  964SOL     OW14524   3.931   2.056  15.714  0.9153  0.0606  0.2310
  964SOL    HW114525   3.927   2.031  15.621 -0.6832  1.0948  0.0135
  964SOL    HW214526   3.843   2.046  15.751  0.7274 -1.2027 -0.5515
  965SOL     OW14527   3.665   3.273   1.846  0.1781 -0.5384 -0.4771
  965SOL    HW114528   3.680   3.272   1.751  1.1539 -1.2952 -0.3203
  965SOL    HW214529   3.591   3.328   1.871 -1.5662 -2.5809 -1.1049
  966SOL     OW14530   3.556   0.313  16.609 -0.2075 -0.1803  0.2041
  966SOL    HW114531   3.526   0.223  16.602  0.8543 -0.6355  1.5334
  966SOL    HW214532   3.611   0.303  16.687  0.6960 -0.4995 -0.4720
  967SOL     OW14533   3.350   3.161   7.081  0.2745  0.5130  0.1551
  967SOL    HW114534   3.351   3.079   7.130 -0.8721 -1.6751 -3.5169
  967SOL    HW214535   3.422   3.139   7.022 -1.9441 -2.2347 -1.5108
  968SOL     OW14536   2.500   3.626   8.782  0.6564 -0.2232 -0.8941
  968SOL    HW114537   2.572   3.566   8.802 -1.7275 -2.1584  1.9448
  968SOL    HW214538   2.428   3.563   8.785 -0.2424  0.8917  0.6452
  969SOL     OW14539   2.903   3.362   4.581  0.5074 -0.2013 -0.1240
  969SOL    HW114540   2.894   3.408   4.498  0.3666  0.0015  0.0044
  969SOL    HW214541   2.993   3.332   4.568  0.8025  0.2964  0.7606
  970SOL     OW14542   0.778   3.544   6.170 -0.0025  0.1043 -0.2060
  970SOL    HW114543   0.827   3.462   6.168  0.9072  0.6654 -0.7510
  970SOL    HW214544   0.702   3.525   6.225  0.9391  1.1037  1.4757
  971SOL     OW14545   3.654   1.904  16.308  0.3579  0.2325 -0.1940
  971SOL    HW114546   3.712   1.974  16.339 -1.2446  1.5407 -0.1865
  971SOL    HW214547   3.685   1.892  16.217 -1.6420 -0.5854 -0.7557
  972SOL     OW14548   0.291   1.496   3.318  0.0776  0.3814  0.1709
  972SOL    HW114549   0.341   1.414   3.325 -1.7719 -0.6713  1.1677
  972SOL    HW214550   0.358   1.553   3.281  1.6018 -0.3824  1.7650
  973SOL     OW14551   2.884   1.017   4.942  0.0017  0.0096  0.2370
  973SOL    HW114552   2.941   1.092   4.925  0.9100 -0.6642  0.3104
  973SOL    HW214553   2.910   0.963   4.868 -1.3074  1.2699 -1.1493
  974SOL     OW14554   1.672   0.373  11.360 -0.8033  0.0595  0.0948
  974SOL    HW114555   1.688   0.449  11.416  1.0865  0.5052 -1.0522
  974SOL    HW214556   1.746   0.321  11.394 -0.5446  0.0792 -0.4411
  975SOL     OW14557   2.608   0.292  17.735  0.4904  0.3813  0.4883
  975SOL    HW114558   2.691   0.298   0.045  0.6545 -0.7362  0.3416
  975SOL    HW214559   2.634   0.224  17.674  1.4278  0.2198  1.0490
  976SOL     OW14560   2.498   3.037   8.485 -0.4412 -0.3006  0.0165
  976SOL    HW114561   2.431   3.102   8.463  1.3604  1.5302 -0.0406
  976SOL    HW214562   2.447   2.981   8.543 -0.5068  0.9810  1.1818
  977SOL     OW14563   4.672   1.136   4.636 -0.0278 -0.3520  0.2858
  977SOL    HW114564   4.644   1.045   4.624  0.0392 -0.4096  0.5735
  977SOL    HW214565   0.020   1.138   4.683  0.8193  0.5749 -1.2220
  978SOL     OW14566   1.475   0.429  13.606 -0.0474 -0.0929  0.2039
  978SOL    HW114567   1.458   0.484  13.530 -3.5646 -0.8845  0.3981
  978SOL    HW214568   1.570   0.442  13.610 -0.0363 -0.7563  2.1655
  979SOL     OW14569   3.549   3.505   8.050  0.2701 -0.4033  0.2158
  979SOL    HW114570   3.492   3.461   7.987 -0.2492 -0.7903  0.9556
  979SOL    HW214571   3.507   3.466   8.126  2.1269 -0.2703  1.3136
  980SOL     OW14572   0.500   2.355   3.500  0.2750  0.2541 -0.1916
  980SOL    HW114573   0.440   2.312   3.561  1.0059  2.2818  1.9655
  980SOL    HW214574   0.457   2.343   3.415  0.5337 -0.6136 -0.2034
  981SOL     OW14575   1.480   1.310  16.874  0.8944 -0.2503 -0.1159
  981SOL    HW114576   1.493   1.351  16.789 -2.1797 -0.5898 -0.7575
  981SOL    HW214577   1.440   1.226  16.849  0.2861  0.3137 -1.0457
  982SOL     OW14578   2.460   4.153   3.279 -0.3323  0.4053 -0.5290
  982SOL    HW114579   2.456   4.142   3.184 -2.0867 -0.6110 -0.3440
  982SOL    HW214580   2.369   4.131   3.301 -1.9685  3.4682 -4.2607
  983SOL     OW14581   1.581   1.535   9.709 -0.6283 -0.1880 -0.1469
  983SOL    HW114582   1.503   1.575   9.748 -1.9586 -0.6309 -2.3256
  983SOL    HW214583   1.547   1.498   9.627  0.6012 -3.3761  0.7911
  984SOL     OW14584   2.674   4.160   7.958 -0.3774  0.3178 -0.0753
  984SOL    HW114585   2.731   4.116   7.895  0.9220  1.2864  0.4213
  984SOL    HW214586   2.656   4.245   7.918  0.3251  0.3490 -0.3291
  985SOL     OW14587   0.336   1.052  14.207  0.2160  0.1246  0.0655
  985SOL    HW114588   0.253   1.057  14.160  0.4901 -0.2797 -0.4502
  985SOL    HW214589   0.336   0.956  14.214  1.8890  0.3027  2.4983
  986SOL     OW14590   1.745   0.318   9.047 -0.3539 -0.2633 -0.2724
  986SOL    HW114591   1.736   0.389   9.112 -1.2271 -0.4300 -0.2174
  986SOL    HW214592   1.767   0.365   8.967 -0.2821 -1.2218 -0.8127
  987SOL     OW14593   3.780   3.572   8.357 -0.1827  0.3009 -0.4911
  987SOL    HW114594   3.704   3.629   8.359 -1.5268 -1.5128  1.1054
  987SOL    HW214595   3.755   3.509   8.289 -3.1959  1.1375 -0.1567
  988SOL     OW14596   0.841   2.754   6.638  1.4592 -0.4606 -0.4942
  988SOL    HW114597   0.891   2.833   6.659  1.8528 -0.2206 -2.3381
  988SOL    HW214598   0.757   2.800   6.635 -0.1551 -3.4812 -1.4051
  989SOL     OW14599   4.611   2.180   1.992  0.3477 -0.3962  0.1423
  989SOL    HW114600   4.620   2.234   1.914  0.6727 -0.6721 -0.0103
  989SOL    HW214601   4.678   2.113   1.979 -0.8172 -1.6788  0.8610
  990SOL     OW14602   2.045   2.753   1.548  0.3621 -0.2510 -0.0986
  990SOL    HW114603   2.053   2.665   1.511  1.8186 -0.0951 -0.1659
  990SOL    HW214604   2.047   2.736   1.642  3.7191  2.5937  0.3604
  991SOL     OW14605   2.185   0.035   1.449  0.2811 -0.3072  0.1483
  991SOL    HW114606   2.236   0.035   1.368 -2.2769  1.8242 -1.5031
  991SOL    HW214607   2.113   4.720   1.411  1.4812 -0.6275 -1.6990
  992SOL     OW14608   2.668   3.098   6.245 -0.0238 -0.3012  0.2203
  992SOL    HW114609   2.581   3.101   6.206  0.4483 -0.9815 -0.8942
  992SOL    HW214610   2.642   3.136   6.329 -1.8181  0.8883 -0.8743
  993SOL     OW14611   2.961   2.843   2.423 -0.2239  0.3041  0.3647
  993SOL    HW114612   3.033   2.784   2.445 -0.5772 -1.2334 -2.6919
  993SOL    HW214613   2.895   2.774   2.413 -0.0012 -0.0331  1.1699
  994SOL     OW14614   3.563   0.423  15.501  0.0222 -0.0470  0.3704
  994SOL    HW114615   3.489   0.426  15.441  1.9758  0.9683 -1.9728
  994SOL    HW214616   3.630   0.448  15.438 -0.7391 -0.4925 -0.6204
  995SOL     OW14617   4.664   3.898  11.633  0.1117 -0.0556  0.3116
  995SOL    HW114618   4.603   3.835  11.671 -0.3779  0.6112  0.6339
  995SOL    HW214619   4.646   3.988  11.662 -0.8008  0.1746 -0.9814
  996SOL     OW14620   4.173   1.060  17.626 -0.2920  0.5037  0.1974
  996SOL    HW114621   4.137   1.121  17.690 -1.9292  0.5184 -0.7366
  996SOL    HW214622   4.134   0.977  17.654 -0.2694 -0.7580 -3.5258
  997SOL     OW14623   1.304   1.581   7.093  0.0839  0.2434  0.1419
  997SOL    HW114624   1.250   1.506   7.072 -1.5343  1.0479  1.4492
  997SOL    HW214625   1.344   1.545   7.172  0.1974 -0.9730 -0.4821
  998SOL     OW14626   3.534   2.706   4.640  0.5131 -0.6043  0.1703
  998SOL    HW114627   3.578   2.788   4.663 -0.4931  0.5552 -1.9354
  998SOL    HW214628   3.481   2.688   4.717  0.4477  1.6360  0.6391
  999SOL     OW14629   3.607   1.802  15.286  0.0285  0.1084 -0.0410
  999SOL    HW114630   3.663   1.833  15.358  3.0196 -0.2626 -2.2178
  999SOL    HW214631   3.558   1.732  15.329 -0.1823 -0.8169 -1.8316
 1000SOL     OW14632   2.696   4.631   4.322 -0.1929 -0.1908 -0.3207
 1000SOL    HW114633   2.710   4.640   4.227 -0.4779  3.1717 -0.0570
 1000SOL    HW214634   2.626   4.696   4.333 -0.9649 -0.4233 -3.6906
 1001SOL     OW14635   4.720   1.630   5.613  0.4109  0.5603 -0.0411
 1001SOL    HW114636   4.659   1.703   5.615 -1.7339 -1.2396  0.0427
 1001SOL    HW214637   0.067   1.665   5.648 -0.1179  2.2194 -0.4667
 1002SOL     OW14638   1.736   2.668   4.918 -0.2814 -0.3072  0.4259
 1002SOL    HW114639   1.701   2.593   4.870 -0.4331  1.2434 -1.9132
 1002SOL    HW214640   1.735   2.634   5.007  3.1727  0.7937  0.8631
 1003SOL     OW14641   1.955   3.815   7.419 -0.4482 -0.0235 -0.4269
 1003SOL    HW114642   2.044   3.812   7.452 -0.5074 -1.1208 -0.3875
 1003SOL    HW214643   1.908   3.857   7.491  0.5147  0.8476 -0.3062
 1004SOL     OW14644   2.254   2.958   4.789 -0.4850  0.0473  0.4177
 1004SOL    HW114645   2.289   2.920   4.870  0.1794 -0.5497 -0.1556
 1004SOL    HW214646   2.220   3.045   4.808 -2.0313 -0.2799 -0.8684
 1005SOL     OW14647   0.725   3.720  15.710 -0.2792  0.3433  0.6628
 1005SOL    HW114648   0.754   3.762  15.791  1.5460  1.0285 -0.3566
 1005SOL    HW214649   0.630   3.720  15.721 -0.6827 -2.4373 -2.5590
 1006SOL     OW14650   2.808   1.638  12.711 -0.2921 -0.2874  0.7439
 1006SOL    HW114651   2.841   1.647  12.622 -1.6672 -1.2665  0.1350
 1006SOL    HW214652   2.723   1.604  12.683 -0.8426  0.0923  1.9697
 1007SOL     OW14653   4.615   3.143   4.362  0.0634 -0.4459  0.3851
 1007SOL    HW114654   4.657   3.127   4.447  0.6869 -0.1190  0.1386
 1007SOL    HW214655   4.684   3.121   4.300 -0.3723 -0.3705 -0.1179
 1008SOL     OW14656   3.762   0.040   1.316  0.3990 -0.2724  0.5015
 1008SOL    HW114657   3.827   0.111   1.310  0.2303 -0.1634 -0.0128
 1008SOL    HW214658   3.826   4.704   1.314  0.4628 -0.2424  1.3545
 1009SOL     OW14659   4.624   2.515   8.997 -0.3990 -0.5974 -0.2430
 1009SOL    HW114660   4.657   2.495   9.084 -0.5193  0.6298  0.0870
 1009SOL    HW214661   4.587   2.430   8.973 -0.1571 -1.1693  1.4516
 1010SOL     OW14662   3.930   1.050   2.047  0.3578  0.2410 -0.2207
 1010SOL    HW114663   3.903   1.066   1.956 -3.2374 -1.2193  0.6089
 1010SOL    HW214664   4.011   1.101   2.058  2.3230 -3.3205  1.8218
 1011SOL     OW14665   3.853   2.287   9.568 -0.5367 -0.0766 -0.8138
 1011SOL    HW114666   3.945   2.303   9.547  0.2161 -3.1153  0.0425
 1011SOL    HW214667   3.810   2.304   9.484  0.1123  0.7042 -0.9861
 1012SOL     OW14668   0.891   1.045   6.375 -0.1380 -0.2045 -0.2531
 1012SOL    HW114669   0.819   1.104   6.395 -3.0004 -3.5519 -0.6797
 1012SOL    HW214670   0.859   0.984   6.308 -0.1007  0.6415 -1.0382
 1013SOL     OW14671   1.189   0.675  13.052 -0.0323 -0.6114 -0.2277
 1013SOL    HW114672   1.200   0.609  12.984 -1.2910 -0.3351 -0.7047
 1013SOL    HW214673   1.253   0.644  13.116  0.2151 -1.5449 -0.9408
 1014SOL     OW14674   3.431   1.643   4.276 -0.6606 -0.1314  0.1936
 1014SOL    HW114675   3.381   1.563   4.289 -1.8412  0.8151  1.5030
 1014SOL    HW214676   3.492   1.641   4.350  0.7949 -2.0309 -1.0642
 1015SOL     OW14677   2.593   3.950   2.665  0.1496 -0.3114  0.5312
 1015SOL    HW114678   2.603   3.859   2.635  1.8620 -0.3351  1.1998
 1015SOL    HW214679   2.509   3.957   2.712 -0.9016 -0.7749 -1.2901
 1016SOL     OW14680   1.908   2.408   0.916  0.6691 -0.0952 -0.7159
 1016SOL    HW114681   1.901   2.313   0.927 -0.2066  0.2034  1.2984
 1016SOL    HW214682   2.002   2.409   0.899  0.5718 -0.4987 -1.2532
 1017SOL     OW14683   1.989   4.410   7.483 -0.3260 -0.5269 -0.0727
 1017SOL    HW114684   1.900   4.395   7.451  0.7729 -2.0171 -2.3914
 1017SOL    HW214685   2.041   4.423   7.404  0.5935 -0.6514  0.5077
 1018SOL     OW14686   1.757   4.550   4.785  0.1485  0.1006  0.2090
 1018SOL    HW114687   1.714   4.480   4.835  1.9538 -0.4934  0.9491
 1018SOL    HW214688   1.796   4.597   4.858  3.1696 -0.0340 -1.3155
 1019SOL     OW14689   0.395   0.935   5.627  0.1439  0.5224 -0.2956
 1019SOL    HW114690   0.459   1.005   5.613  1.0079  0.0982  1.4713
 1019SOL    HW214691   0.323   0.976   5.675 -0.4005 -0.9048  0.1113
 1020SOL     OW14692   2.884   0.223   5.815  0.0104  0.0957 -1.0457
 1020SOL    HW114693   2.952   0.238   5.879 -0.2635  2.9663 -1.4080
 1020SOL    HW214694   2.901   0.285   5.743 -0.7165  3.5225  1.7339
 1021SOL     OW14695   4.375   2.636  11.952  1.0735 -0.2419  0.1186
 1021SOL    HW114696   4.311   2.568  11.932  1.3793 -1.0309  1.7725
 1021SOL    HW214697   4.425   2.610  12.029  2.8548  2.5458 -0.0942
 1022SOL     OW14698   1.912   2.344  15.914  0.0086  0.0736  0.2542
 1022SOL    HW114699   1.953   2.282  15.974 -0.4390 -0.3894  0.0823
 1022SOL    HW214700   1.824   2.307  15.910 -0.4766  1.2993 -0.1133
 1023SOL     OW14701   1.054   2.868   3.783  0.5131  0.6605  0.0998
 1023SOL    HW114702   1.065   2.945   3.837  0.7901  0.1851  0.7205
 1023SOL    HW214703   1.065   2.905   3.695  2.7383  0.6933  0.4016
 1024SOL     OW14704   3.122   4.643   7.342 -0.0933  0.1105 -0.4173
 1024SOL    HW114705   3.137   4.656   7.249  1.0094  2.8425  0.1351
 1024SOL    HW214706   3.198   4.690   7.376  0.6455 -1.1772 -0.2728
 1025SOL     OW14707   0.958   2.895  10.693  0.7028  0.1573 -0.4306
 1025SOL    HW114708   0.889   2.955  10.719 -0.1189 -0.5681 -0.9110
 1025SOL    HW214709   0.988   2.937  10.612  0.3238 -0.7356 -1.0375
 1026SOL     OW14710   4.185   1.447   0.633 -0.1709  0.5592 -0.0747
 1026SOL    HW114711   4.253   1.426   0.697  0.8600  3.0191 -0.3737
 1026SOL    HW214712   4.226   1.426   0.549 -0.2071  0.3963 -0.0534
 1027SOL     OW14713   0.833   0.847   0.580  0.9286 -0.2014 -0.3683
 1027SOL    HW114714   0.895   0.797   0.633 -1.6154 -2.8439  0.1232
 1027SOL    HW214715   0.749   0.818   0.618 -0.0390  0.7077 -1.8465
 1028SOL     OW14716   0.512   2.276   3.880  0.2722 -0.2797 -0.5015
 1028SOL    HW114717   0.421   2.297   3.858 -0.0051 -0.9827 -0.0306
 1028SOL    HW214718   0.549   2.360   3.855 -1.8297  0.2680 -1.8180
 1029SOL     OW14719   0.759   1.784   4.092  0.4763  0.1055  0.2387
 1029SOL    HW114720   0.726   1.828   4.170  1.6713  2.8893 -0.8381
 1029SOL    HW214721   0.697   1.713   4.076  1.0024 -0.4030  0.4406
 1030SOL     OW14722   0.405   2.897   7.038 -0.3254  0.2110  0.0871
 1030SOL    HW114723   0.399   2.807   7.070  2.4836  0.9811  2.8678
 1030SOL    HW214724   0.488   2.892   6.991 -0.7096 -1.2557 -0.4453
 1031SOL     OW14725   3.916   3.530   5.944 -0.3968  0.1411 -0.3724
 1031SOL    HW114726   3.835   3.555   5.990 -0.7698 -0.3766 -0.7460
 1031SOL    HW214727   3.883   3.485   5.866 -0.4362 -1.5712  0.6508
 1032SOL     OW14728   2.711   4.426  16.183 -0.3823 -0.1971  0.5020
 1032SOL    HW114729   2.725   4.518  16.206  1.3903 -0.7959  1.7849
 1032SOL    HW214730   2.626   4.409  16.223 -0.2661 -1.7062  0.0863
 1033SOL     OW14731   2.849   0.556  13.245 -0.0534  0.5445  0.4044
 1033SOL    HW114732   2.844   0.485  13.181  0.7595  1.1743 -0.3579
 1033SOL    HW214733   2.907   0.525  13.314  1.0412 -1.8921 -1.6028
 1034SOL     OW14734   2.592   2.403   6.813  0.0379  0.3989 -0.0192
 1034SOL    HW114735   2.685   2.414   6.831  0.1154  0.3911 -0.4343
 1034SOL    HW214736   2.603   2.325   6.759  1.8064  0.1369  0.7503
 1035SOL     OW14737   1.955   1.131   7.640 -0.4689 -0.1228 -0.3056
 1035SOL    HW114738   1.876   1.138   7.587 -0.0327  0.8152 -0.8377
 1035SOL    HW214739   2.024   1.173   7.588 -0.0957 -0.6390 -0.2360
 1036SOL     OW14740   2.068   1.741   5.133  0.4111  0.4082  0.2075
 1036SOL    HW114741   2.005   1.790   5.185  0.4691  1.6794 -0.9384
 1036SOL    HW214742   2.131   1.805   5.102 -0.8922  0.6960 -1.8860
 1037SOL     OW14743   4.204   1.530  16.650  0.1656  0.4915 -0.3047
 1037SOL    HW114744   4.141   1.561  16.715  1.8016  0.7666  1.1390
 1037SOL    HW214745   4.163   1.458  16.601  1.0101 -0.9060  1.0258
 1038SOL     OW14746   0.901   4.105   1.695  0.3868 -0.4091 -0.1863
 1038SOL    HW114747   0.883   4.197   1.717  2.3537  0.0690 -0.4969
 1038SOL    HW214748   0.865   4.057   1.769 -1.4647  0.0979 -0.7595
 1039SOL     OW14749   2.570   0.552   7.221 -0.0200  0.0856  0.3667
 1039SOL    HW114750   2.656   0.560   7.262  0.6647  0.1523 -1.0680
 1039SOL    HW214751   2.584   0.490   7.149  2.6346  0.7068  0.3206
 1040SOL     OW14752   1.462   2.861   8.192  0.2354  0.2203  0.0325
 1040SOL    HW114753   1.379   2.907   8.179 -0.9710 -2.2409 -1.0846
 1040SOL    HW214754   1.530   2.926   8.207 -1.0469  1.3274  1.0474
 1041SOL     OW14755   0.279   0.237   7.801 -0.1135 -0.1862  0.0267
 1041SOL    HW114756   0.255   0.329   7.817  0.4441  0.0745 -0.6620
 1041SOL    HW214757   0.269   0.221   7.707  2.4076  0.0327 -0.2744
 1042SOL     OW14758   4.523   1.054   0.897 -0.0864 -0.0378 -0.0565
 1042SOL    HW114759   4.512   1.131   0.953  2.1830  0.8311 -0.8304
 1042SOL    HW214760   4.580   1.088   0.828 -0.8343  1.6653  0.1752
 1043SOL     OW14761   1.849   4.077   8.170  0.5484 -0.3420  0.2483
 1043SOL    HW114762   1.826   4.155   8.120 -1.7652 -0.8364  0.5389
 1043SOL    HW214763   1.900   4.026   8.107  0.8912 -1.6854  1.6360
 1044SOL     OW14764   3.166   0.254   4.707 -0.4789  0.1209 -0.0993
 1044SOL    HW114765   3.134   0.276   4.794 -0.8523 -0.4479 -0.0968
 1044SOL    HW214766   3.206   0.336   4.677  1.7778  0.6798  4.4753
 1045SOL     OW14767   2.463   4.331  17.430  0.0914  0.0428  0.1297
 1045SOL    HW114768   2.386   4.364  17.385 -1.0719 -1.2271  1.1876
 1045SOL    HW214769   2.475   4.397  17.499  2.8778 -0.1302 -0.1934
 1046SOL     OW14770   3.535   0.426  16.359 -0.3872 -0.3006  0.8488
 1046SOL    HW114771   3.542   0.519  16.379 -1.8108  0.2130 -1.0094
 1046SOL    HW214772   3.555   0.396  16.448 -2.2135  0.8782  1.6600
 1047SOL     OW14773   2.133   0.583   3.904 -0.0471  0.4144  0.2247
 1047SOL    HW114774   2.074   0.578   3.979 -2.9061 -0.2635 -2.0725
 1047SOL    HW214775   2.155   0.676   3.898 -1.7255  0.8554  0.6901
 1048SOL     OW14776   0.629   0.396   9.692  0.7921  0.2117 -0.2972
 1048SOL    HW114777   0.650   0.344   9.770  1.0638  0.9290  0.1036
 1048SOL    HW214778   0.672   0.345   9.624 -1.3871  0.9956 -2.2324
 1049SOL     OW14779   4.374   3.375  10.500 -0.2923 -0.0402 -0.5244
 1049SOL    HW114780   4.301   3.314  10.494  0.9620 -1.5573 -0.3571
 1049SOL    HW214781   4.337   3.455  10.536  0.9705  0.7908 -1.0714
 1050SOL     OW14782   0.364   0.996   2.829  0.0126 -0.2809  0.0665
 1050SOL    HW114783   0.347   1.018   2.921 -1.5643  0.5570 -0.4271
 1050SOL    HW214784   0.425   1.065   2.803 -1.8996  0.5701 -2.1043
 1051SOL     OW14785   1.568   4.454   7.520 -0.0887  0.2751 -0.1148
 1051SOL    HW114786   1.588   4.406   7.600  1.5947 -0.1850 -0.8083
 1051SOL    HW214787   1.549   4.542   7.551 -1.8317 -0.1281  0.0041
 1052SOL     OW14788   2.943   3.297  16.918  0.2224 -0.3887  0.4066
 1052SOL    HW114789   2.988   3.318  16.836 -0.1762  2.3668  0.8910
 1052SOL    HW214790   2.951   3.202  16.913  0.4749 -0.5122  3.1099
 1053SOL     OW14791   3.214   0.107   9.845 -0.2124  0.4155 -0.1547
 1053SOL    HW114792   3.195   0.037   9.783 -0.1037  0.2180  0.0357
 1053SOL    HW214793   3.198   0.183   9.788 -0.0553 -0.3280 -1.1985
 1054SOL     OW14794   2.487   1.040   1.305  0.3755 -0.3126 -0.7053
 1054SOL    HW114795   2.516   1.129   1.287  0.4976  0.5597  3.9374
 1054SOL    HW214796   2.510   0.998   1.222 -1.1538 -0.0803 -1.2603
 1055SOL     OW14797   1.489   1.420   3.909  0.2937 -0.2356 -0.3275
 1055SOL    HW114798   1.552   1.431   3.979 -0.4363 -0.4816  0.3677
 1055SOL    HW214799   1.511   1.327   3.901  2.0233  0.3396 -2.2446
 1056SOL     OW14800   1.202   3.016   3.027  0.0764 -0.3785 -0.0076
 1056SOL    HW114801   1.138   2.953   3.061  0.2326 -0.1693  0.6938
 1056SOL    HW214802   1.283   2.966   3.037  1.1320  1.7302  1.9472
 1057SOL     OW14803   0.951   4.470  15.434 -0.0210  0.2553 -0.0291
 1057SOL    HW114804   0.971   4.553  15.391 -1.3558  1.2259  1.2371
 1057SOL    HW214805   1.037   4.429  15.430  0.1776  0.8825 -2.3676
 1058SOL     OW14806   3.221   1.148   5.170  0.2371 -0.4455 -0.4184
 1058SOL    HW114807   3.296   1.090   5.178  0.1891 -0.5261 -0.5555
 1058SOL    HW214808   3.272   1.229   5.176  3.6768 -2.7074  0.8669
 1059SOL     OW14809   2.094   3.979   6.849 -0.1533  0.2377 -0.3765
 1059SOL    HW114810   2.092   3.916   6.777 -1.6786 -1.7401  1.3912
 1059SOL    HW214811   2.188   3.997   6.842 -0.4544  2.1832  0.4930
 1060SOL     OW14812   3.909   1.217   5.973 -0.1378  0.1797 -0.2976
 1060SOL    HW114813   3.925   1.302   6.013  1.3012  0.1604 -0.8236
 1060SOL    HW214814   3.992   1.178   6.001  0.1943 -0.0128 -1.5460
 1061SOL     OW14815   3.082   3.437  10.075  0.1001  0.1343  0.1422
 1061SOL    HW114816   3.113   3.406   9.989 -1.4735  1.4752 -0.8953
 1061SOL    HW214817   3.148   3.408  10.138  0.4258  2.4035  0.8460
 1062SOL     OW14818   1.987   2.341   5.769 -0.1009  0.4105  0.2514
 1062SOL    HW114819   2.074   2.301   5.771 -0.2737  0.2165  3.4429
 1062SOL    HW214820   1.949   2.276   5.828 -1.4785  2.9316  2.1219
 1063SOL     OW14821   2.863   4.556   7.393 -0.2106  0.1989 -0.2713
 1063SOL    HW114822   2.948   4.597   7.382  0.2374 -1.1435 -1.8177
 1063SOL    HW214823   2.830   4.544   7.304  1.6927  1.1072 -1.0891
 1064SOL     OW14824   3.460   0.875   4.534 -0.1540  0.2584 -0.7381
 1064SOL    HW114825   3.410   0.901   4.456  0.1273 -0.9548 -1.3279
 1064SOL    HW214826   3.384   0.847   4.584 -0.1538 -0.2012 -0.9924
 1065SOL     OW14827   1.248   3.041   7.954 -0.1358  0.0426  0.5825
 1065SOL    HW114828   1.175   3.090   7.917  0.6150  0.0836 -0.8471
 1065SOL    HW214829   1.211   2.994   8.029  1.8552 -1.6599  0.4731
 1066SOL     OW14830   4.347   0.043   3.736  0.0502 -0.3247 -0.0822
 1066SOL    HW114831   4.332   4.701   3.792 -1.3142  0.3630  0.4929
 1066SOL    HW214832   4.399   0.100   3.792 -0.2394  2.4356 -2.6258
 1067SOL     OW14833   1.130   0.492  16.917  0.1375 -0.0964  0.3805
 1067SOL    HW114834   1.066   0.451  16.975  1.7506 -0.8760  1.6075
 1067SOL    HW214835   1.092   0.492  16.829  0.7231  0.8866  0.1250
 1068SOL     OW14836   0.848   4.437   2.076 -0.0209  0.3755 -0.6384
 1068SOL    HW114837   0.881   4.453   2.165 -3.4484 -1.6555  0.9950
 1068SOL    HW214838   0.815   4.521   2.044 -0.0369  0.4701 -0.3725
 1069SOL     OW14839   1.069   4.488   7.245 -0.5652 -0.4918  0.5297
 1069SOL    HW114840   1.092   4.407   7.291  0.0222 -2.2047 -2.7777
 1069SOL    HW214841   1.154   4.531   7.233 -0.1859 -1.2326  0.5554
 1070SOL     OW14842   3.232   0.789  12.042 -0.1018  0.4405  0.2618
 1070SOL    HW114843   3.192   0.731  12.106  0.0868 -0.2218 -0.2178
 1070SOL    HW214844   3.173   0.789  11.967  1.5170 -1.6868 -1.0398
 1071SOL     OW14845   3.770   4.248  14.470  0.0663 -0.6672  0.0701
 1071SOL    HW114846   3.762   4.199  14.388  3.1491 -0.2411 -0.4929
 1071SOL    HW214847   3.811   4.324  14.429  1.9932 -2.8665 -2.0792
 1072SOL     OW14848   1.866   0.612   7.805  0.2068 -0.0237 -0.1328
 1072SOL    HW114849   1.892   0.694   7.848 -1.6153  1.5091 -1.9951
 1072SOL    HW214850   1.777   0.596   7.835  0.3012  0.6146  0.4901
 1073SOL     OW14851   3.251   0.274   5.784 -0.0748  0.3662 -0.3476
 1073SOL    HW114852   3.320   0.300   5.844  1.7065  0.9744 -2.6867
 1073SOL    HW214853   3.266   0.181   5.802  0.0029  0.3207 -0.6454
 1074SOL     OW14854   3.008   1.380  16.460 -0.2624 -0.4720 -0.1685
 1074SOL    HW114855   3.007   1.470  16.492  1.8420 -0.2998 -0.5450
 1074SOL    HW214856   2.979   1.333  16.539 -0.0824 -1.1132 -0.4821
 1075SOL     OW14857   3.149   1.753   3.051 -0.0035  0.1995  0.7530
 1075SOL    HW114858   3.137   1.839   3.011 -2.4295 -1.2900 -1.7276
 1075SOL    HW214859   3.236   1.725   3.024 -0.1595 -1.1453  1.6336
 1076SOL     OW14860   0.360   4.259   8.554  0.3428 -0.5079 -0.3435
 1076SOL    HW114861   0.275   4.218   8.538  0.4699 -0.6241 -0.7234
 1076SOL    HW214862   0.391   4.210   8.630  2.4980 -0.5789 -1.2556
 1077SOL     OW14863   1.148   4.254   5.573  0.1436 -0.2809 -0.0057
 1077SOL    HW114864   1.199   4.259   5.655  0.8444  1.3756 -0.5370
 1077SOL    HW214865   1.137   4.347   5.553  0.4730 -0.5725 -1.5481
 1078SOL     OW14866   4.115   2.066   8.588  0.7230 -0.1994  0.5878
 1078SOL    HW114867   4.043   2.006   8.606  0.6970 -0.8074 -1.5985
 1078SOL    HW214868   4.173   2.058   8.664  0.4587  0.4446  0.8554
 1079SOL     OW14869   3.566   4.126   1.454 -0.2886  0.3603  0.4008
 1079SOL    HW114870   3.584   4.109   1.361  1.1279  0.0456  0.7370
 1079SOL    HW214871   3.648   4.098   1.495  0.7048  0.7439 -1.2959
 1080SOL     OW14872   0.970   1.558  16.051  0.0954 -0.3484 -0.2171
 1080SOL    HW114873   1.023   1.483  16.079  0.7267  0.0892 -0.2670
 1080SOL    HW214874   1.024   1.636  16.055 -0.3282 -0.0264 -0.8004
 1081SOL     OW14875   4.008   1.091   8.056  0.4608  0.2750 -0.1314
 1081SOL    HW114876   4.068   1.035   8.006 -0.9007 -1.4416  0.1298
 1081SOL    HW214877   3.955   1.019   8.092 -0.7475  1.4804  0.4914
 1082SOL     OW14878   2.352   0.016   8.894  0.1515 -0.6359 -0.1377
 1082SOL    HW114879   2.338   0.016   8.988  2.4788 -1.0691  0.2164
 1082SOL    HW214880   2.278   0.072   8.871  2.2880  1.5648 -1.6895
 1083SOL     OW14881   1.118   0.777   2.968  0.1911 -0.3050  0.1363
 1083SOL    HW114882   1.119   0.873   2.960  1.0778 -0.0976  2.7978
 1083SOL    HW214883   1.193   0.766   2.910 -0.7515  1.7133 -1.4706
 1084SOL     OW14884   2.023   1.715  16.746  0.1254  0.2859 -0.1817
 1084SOL    HW114885   1.957   1.775  16.711 -0.7314 -0.1984  0.5924
 1084SOL    HW214886   1.970   1.680  16.817 -0.1243  0.1539 -0.4336
 1085SOL     OW14887   2.470   3.446  16.441 -0.1928  0.1570 -0.1766
 1085SOL    HW114888   2.408   3.453  16.514  0.9093  1.0238  0.6742
 1085SOL    HW214889   2.471   3.352  16.420  1.2219  0.1191  0.0182
 1086SOL     OW14890   0.240   3.968  11.386  0.1365  0.0656  0.1422
 1086SOL    HW114891   0.319   3.946  11.435 -0.0127 -1.6288 -0.3698
 1086SOL    HW214892   0.283   4.004  11.308  1.9964 -0.3369  0.9762
 1087SOL     OW14893   1.990   0.781   1.971 -0.3558  0.6871  0.0243
 1087SOL    HW114894   2.048   0.848   2.006  0.2374 -0.4571  1.2623
 1087SOL    HW214895   2.005   0.711   2.035  0.7697  0.5698 -0.3675
 1088SOL     OW14896   0.156   4.271   8.269  0.2252 -0.1605 -0.2978
 1088SOL    HW114897   0.244   4.243   8.245  0.0695  0.7503 -1.9334
 1088SOL    HW214898   0.111   4.187   8.266 -0.0184  0.0691 -2.5734
 1089SOL     OW14899   1.205   1.116   3.030  0.0635  0.0563  0.5380
 1089SOL    HW114900   1.276   1.087   3.087  1.2110 -0.1516 -0.9789
 1089SOL    HW214901   1.240   1.191   2.982  2.3184 -2.4942 -1.8026
 1090SOL     OW14902   2.388   3.135  11.364  0.8401  0.3436  0.2894
 1090SOL    HW114903   2.307   3.177  11.392  0.9234  1.9061 -1.7936
 1090SOL    HW214904   2.383   3.130  11.268  0.7596  1.6980  0.2274
 1091SOL     OW14905   2.892   4.677  10.019  0.5378 -0.2669  0.0713
 1091SOL    HW114906   2.862   4.669  10.110  0.4029 -1.5799 -0.0837
 1091SOL    HW214907   2.949   0.018  10.027 -2.2081  1.8620 -0.6228
 1092SOL     OW14908   3.329   0.667   8.484 -0.2810 -1.0209  0.0220
 1092SOL    HW114909   3.245   0.624   8.498 -0.3345 -0.6668  0.7524
 1092SOL    HW214910   3.306   0.720   8.408  2.4538  0.1036 -0.0145
 1093SOL     OW14911   0.249   0.861   5.146  0.5660 -0.1710  0.2719
 1093SOL    HW114912   0.215   0.854   5.236 -2.7574 -0.4515 -1.0111
 1093SOL    HW214913   0.343   0.848   5.156  0.6581  0.8631  0.7725
 1094SOL     OW14914   1.251   0.261   8.050 -0.2753  0.0757 -0.3723
 1094SOL    HW114915   1.219   0.181   8.009  1.6862  0.1427 -2.0581
 1094SOL    HW214916   1.170   0.311   8.048 -0.4486 -0.2431 -1.4739
 1095SOL     OW14917   4.055   3.663  10.544 -0.1423 -0.5246  0.3508
 1095SOL    HW114918   4.034   3.593  10.481 -4.0704  1.8213 -0.9500
 1095SOL    HW214919   4.077   3.738  10.488  3.2314 -0.3696  1.8594
 1096SOL     OW14920   3.915   0.657   4.704  0.2360 -0.0267 -0.3047
 1096SOL    HW114921   3.849   0.588   4.704  0.5253 -0.2746 -3.8055
 1096SOL    HW214922   3.943   0.652   4.796 -2.8632  0.0014  0.6605
 1097SOL     OW14923   0.934   4.364   4.222  0.6599 -0.4908  0.0439
 1097SOL    HW114924   1.013   4.347   4.171  0.9981  0.9452  0.0773
 1097SOL    HW214925   0.861   4.363   4.160  0.2647  2.0092  0.4848
 1098SOL     OW14926   4.063   3.832  17.648 -0.2524 -0.5508  0.7139
 1098SOL    HW114927   4.011   3.905  17.681 -2.2031  0.0002 -3.5314
 1098SOL    HW214928   4.018   3.818  17.564  0.3248 -0.6873  0.4256
 1099SOL     OW14929   3.947   0.696   4.994 -0.6381  0.0506  0.4633
 1099SOL    HW114930   3.869   0.704   5.050 -1.0596 -2.0477  0.1803
 1099SOL    HW214931   4.018   0.712   5.056  0.4244 -0.3967 -0.6469
 1100SOL     OW14932   1.609   3.670   5.914 -0.0271  0.5119 -0.0383
 1100SOL    HW114933   1.597   3.576   5.931  0.1011  0.7283  1.2337
 1100SOL    HW214934   1.519   3.702   5.907 -0.7738 -1.9465 -2.0220
 1101SOL     OW14935   2.069   2.952   6.880 -0.0399 -0.1404  0.0811
 1101SOL    HW114936   2.162   2.962   6.901  0.1866 -0.9842 -0.5508
 1101SOL    HW214937   2.054   3.023   6.818 -2.7886 -0.7836  0.0238
 1102SOL     OW14938   1.736   2.042   2.050 -0.1310  0.4931  0.1143
 1102SOL    HW114939   1.802   2.102   2.084 -1.1477  1.1920  0.8577
 1102SOL    HW214940   1.773   2.032   1.963  0.4784  0.7668  0.3437
 1103SOL     OW14941   0.799   0.521  11.719 -0.5268 -0.0765  0.0230
 1103SOL    HW114942   0.716   0.516  11.671 -0.6059 -2.2792  0.3749
 1103SOL    HW214943   0.824   0.607  11.687 -0.5444 -0.2123 -0.3574
 1104SOL     OW14944   4.123   2.912   8.138  0.0990 -0.4690  0.2897
 1104SOL    HW114945   4.035   2.873   8.138 -0.5508  0.9855 -0.4640
 1104SOL    HW214946   4.153   2.876   8.055  0.1983 -0.2804  0.2443
 1105SOL     OW14947   2.220   4.138   0.114  0.2987  0.1978  0.1761
 1105SOL    HW114948   2.143   4.116   0.061 -0.7932  0.1173  1.7879
 1105SOL    HW214949   2.264   4.054   0.129 -0.4642 -0.0887  0.8589
 1106SOL     OW14950   2.288   0.192  13.949 -0.2122  0.1820 -0.1224
 1106SOL    HW114951   2.363   0.230  13.904  0.0521 -0.5725 -0.3072
 1106SOL    HW214952   2.317   0.106  13.979 -0.4389  0.2817  0.3978
 1107SOL     OW14953   0.140   1.340   7.793 -0.5547  0.3240 -0.4723
 1107SOL    HW114954   0.169   1.420   7.835 -0.4717 -0.6730  1.3588
 1107SOL    HW214955   0.072   1.311   7.854  1.4817  0.6891  1.9599
 1108SOL     OW14956   3.406   0.630   4.728 -0.0273  0.4254  0.4220
 1108SOL    HW114957   3.440   0.549   4.766 -1.0519 -0.9194 -1.5535
 1108SOL    HW214958   3.361   0.599   4.649 -0.0961 -1.2308  1.1082
 1109SOL     OW14959   3.094   0.455   3.629  0.2272 -0.3415  0.3616
 1109SOL    HW114960   3.064   0.384   3.571  1.9053 -0.0668 -0.8652
 1109SOL    HW214961   3.078   0.411   3.712 -1.3383  0.8928  0.7209
 1110SOL     OW14962   4.354   0.835  11.681  0.3036  0.1219 -0.3543
 1110SOL    HW114963   4.301   0.893  11.736  1.6338 -0.2958  1.3688
 1110SOL    HW214964   4.366   0.764  11.744 -2.2598  0.3125  0.3484
 1111SOL     OW14965   3.226   1.565  16.250 -0.0774  0.5567 -0.6263
 1111SOL    HW114966   3.240   1.537  16.340 -1.3523  1.6764 -0.0688
 1111SOL    HW214967   3.138   1.600  16.268 -1.1177 -0.2271 -4.3132
 1112SOL     OW14968   1.701   2.922   3.330 -0.3326 -0.4220 -0.2984
 1112SOL    HW114969   1.640   2.853   3.354  1.0665 -1.2577  0.8623
 1112SOL    HW214970   1.753   2.884   3.259  1.3876  1.6797 -0.1512
 1113SOL     OW14971   4.547   2.543   8.103 -0.0493  0.1025  0.4614
 1113SOL    HW114972   4.509   2.509   8.184  1.2399 -2.9186 -0.1869
 1113SOL    HW214973   4.552   2.633   8.135 -0.1138  0.4828 -0.5967
 1114SOL     OW14974   2.032   4.256   8.847 -0.6289 -0.5109 -0.4427
 1114SOL    HW114975   2.014   4.343   8.882 -0.4446 -0.7409  0.2158
 1114SOL    HW214976   2.067   4.206   8.921 -0.8157 -0.6589 -0.4546
 1115SOL     OW14977   3.342   0.647   7.688 -0.2438  0.5444 -0.0265
 1115SOL    HW114978   3.401   0.638   7.614  1.7443 -1.1868  1.7585
 1115SOL    HW214979   3.395   0.610   7.758 -0.0816 -0.4793 -0.7001
 1116SOL     OW14980   1.406   1.494   7.329  0.0010  0.5778  0.0898
 1116SOL    HW114981   1.479   1.442   7.363 -0.0742 -0.2300 -0.9908
 1116SOL    HW214982   1.325   1.454   7.359  2.0091 -1.8478  2.2325
 1117SOL     OW14983   3.112   3.026   8.808 -0.1807 -0.0411  0.0693
 1117SOL    HW114984   3.029   2.986   8.833 -0.8203  1.1119 -0.2293
 1117SOL    HW214985   3.103   3.022   8.713  2.0509  2.0542 -0.2416
 1118SOL     OW14986   0.278   2.574   6.751  0.2156 -0.1979 -0.7586
 1118SOL    HW114987   0.343   2.543   6.688 -0.0805 -3.6902  0.6527
 1118SOL    HW214988   0.240   2.487   6.767 -1.0128  0.5490  0.3581
 1119SOL     OW14989   2.876   0.459   5.312 -0.5164 -0.2207  0.5209
 1119SOL    HW114990   2.781   0.451   5.303 -0.3201 -1.6438 -0.2944
 1119SOL    HW214991   2.903   0.470   5.221  3.1014 -0.2596  1.6220
 1120SOL     OW14992   0.915   4.617   5.950 -0.2631 -0.1055 -0.0343
 1120SOL    HW114993   0.843   4.667   5.988 -0.1667  0.9600 -1.2575
 1120SOL    HW214994   0.869   4.535   5.931 -1.3072  0.8989 -1.8760
 1121SOL     OW14995   3.609   4.460   9.254  0.4445  0.2633  0.7759
 1121SOL    HW114996   3.644   4.411   9.179 -0.6122  0.2362  0.2901
 1121SOL    HW214997   3.588   4.545   9.214  1.2422 -0.7566 -1.8425
 1122SOL     OW14998   1.243   2.060   7.171 -0.7189 -0.2198  0.5706
 1122SOL    HW114999   1.184   1.986   7.163 -2.0174  1.0956 -2.1264
 1122SOL    HW215000   1.282   2.036   7.255  1.8259  0.7545 -0.3344
 1123SOL     OW15001   0.674   2.737   8.041 -0.0157 -0.2965  0.4215
 1123SOL    HW115002   0.692   2.708   7.951  2.1126 -0.9473  1.0591
 1123SOL    HW215003   0.578   2.741   8.046 -0.0131  1.1046 -0.5906
 1124SOL     OW15004   2.596   0.805   5.120 -0.3716 -0.1266 -0.0640
 1124SOL    HW115005   2.575   0.797   5.213  1.7727 -1.9656  0.2366
 1124SOL    HW215006   2.689   0.826   5.126  0.0844 -1.5921 -1.9423
 1125SOL     OW15007   2.610   4.164  10.104 -0.1247 -0.5392 -0.1596
 1125SOL    HW115008   2.522   4.136  10.078  0.8391 -3.7817  0.1048
 1125SOL    HW215009   2.672   4.119  10.046  0.9833  0.3147  0.3509
 1126SOL     OW15010   0.590   1.558   7.820  1.1479 -0.7200 -0.2389
 1126SOL    HW115011   0.524   1.601   7.875  0.6895 -2.2315  0.3998
 1126SOL    HW215012   0.593   1.474   7.867 -1.3903 -0.4349  0.4454
 1127SOL     OW15013   1.399   2.210   4.694 -0.7400 -0.0297  0.4334
 1127SOL    HW115014   1.315   2.167   4.683 -0.5688  0.3039 -2.1814
 1127SOL    HW215015   1.421   2.214   4.788  1.2931 -2.2050  0.0558
 1128SOL     OW15016   2.143   1.105   4.776  0.2069  0.2134 -0.0917
 1128SOL    HW115017   2.134   1.072   4.686 -0.3886 -1.2160  0.4970
 1128SOL    HW215018   2.078   1.047   4.814 -1.5448  2.4968  0.3424
 1129SOL     OW15019   4.490   0.956   7.403 -0.3047 -0.1062 -0.5164
 1129SOL    HW115020   4.487   0.863   7.383  1.7155  0.0252 -1.4705
 1129SOL    HW215021   4.395   0.964   7.409 -0.4302 -2.1485  0.0252
 1130SOL     OW15022   2.426   2.400   9.668 -0.0832 -0.5590 -0.1169
 1130SOL    HW115023   2.333   2.414   9.688  1.1575  1.4352  3.9687
 1130SOL    HW215024   2.420   2.354   9.584 -0.9089  0.2517 -0.5083
 1131SOL     OW15025   1.918   4.517   9.801 -0.1187 -0.0211 -0.2276
 1131SOL    HW115026   1.967   4.570   9.864  0.0425  0.7683 -1.0059
 1131SOL    HW215027   1.886   4.589   9.747 -0.0714  0.4231  0.3370
 1132SOL     OW15028   1.001   1.048   0.528 -0.1610 -0.6486  0.4647
 1132SOL    HW115029   0.977   1.127   0.577  0.3823  1.3794 -2.4854
 1132SOL    HW215030   0.936   0.988   0.564 -2.0293  1.2580  0.2686
 1133SOL     OW15031   1.289   2.437  13.122  0.0636  0.3003  0.2317
 1133SOL    HW115032   1.313   2.415  13.212  0.4527 -2.1453 -0.4668
 1133SOL    HW215033   1.214   2.377  13.114 -0.1009  0.6592 -0.9019
 1134SOL     OW15034   0.313   0.708   5.959  0.1825  0.2789 -0.4157
 1134SOL    HW115035   0.377   0.674   6.022 -0.5110  1.3102  0.8573
 1134SOL    HW215036   0.369   0.771   5.915  1.9126 -1.6035 -0.9199
 1135SOL     OW15037   2.444   4.081   9.372  0.3269  0.0206  0.4198
 1135SOL    HW115038   2.486   4.124   9.447  1.7240 -1.6274  0.5712
 1135SOL    HW215039   2.477   3.992   9.374 -1.3689 -0.5731  1.9194
 1136SOL     OW15040   2.975   2.393   2.558  0.2396 -0.9315  0.0201
 1136SOL    HW115041   3.001   2.482   2.533 -2.2719  0.0417  0.9146
 1136SOL    HW215042   2.988   2.345   2.476  0.3313 -0.2722 -0.3505
 1137SOL     OW15043   1.035   2.340  16.537 -0.0063 -0.8655 -0.2214
 1137SOL    HW115044   1.028   2.432  16.510 -0.0025 -1.2230 -1.4409
 1137SOL    HW215045   0.945   2.312  16.551  0.6816 -2.4139  1.0402
 1138SOL     OW15046   4.552   3.872  17.459  0.1490  0.1277  0.6468
 1138SOL    HW115047   4.489   3.891  17.529 -0.2497  1.3167 -0.0287
 1138SOL    HW215048   4.595   3.794  17.494  1.6436  0.2514 -0.9299
 1139SOL     OW15049   1.767   3.194   3.088  0.0112 -0.0851 -0.1369
 1139SOL    HW115050   1.739   3.224   3.001  1.1755  1.6328  0.0823
 1139SOL    HW215051   1.779   3.099   3.085 -0.8460 -0.1123 -2.9292
 1140SOL     OW15052   4.450   3.389   4.730 -0.2441 -0.7004  0.6100
 1140SOL    HW115053   4.438   3.366   4.822 -1.9252 -0.5625  0.4329
 1140SOL    HW215054   4.384   3.458   4.723 -0.7336 -1.2981 -0.7601
 1141SOL     OW15055   4.247   2.075   4.523 -0.3508  0.0510 -0.2982
 1141SOL    HW115056   4.184   2.095   4.592 -0.0847 -1.1122  0.2884
 1141SOL    HW215057   4.289   1.996   4.557  0.8951  0.8218 -0.0639
 1142SOL     OW15058   2.797   2.165  14.234 -0.3692 -0.4483  0.7830
 1142SOL    HW115059   2.793   2.071  14.214 -1.2674 -0.7121  2.1698
 1142SOL    HW215060   2.892   2.173  14.239 -0.5060  2.4708 -1.5815
 1143SOL     OW15061   2.740   1.728   6.084  0.0156  0.0384  0.3029
 1143SOL    HW115062   2.692   1.670   6.024  0.7644  1.3029 -1.5167
 1143SOL    HW215063   2.809   1.667   6.107  0.3058  0.3794  0.3282
 1144SOL     OW15064   1.973   3.872   7.990  0.0410  0.4436  0.5152
 1144SOL    HW115065   1.915   3.820   7.935  0.8157 -1.3888  1.4227
 1144SOL    HW215066   1.988   3.949   7.935  0.5932 -0.5978 -0.7827
 1145SOL     OW15067   0.724   3.874   9.127 -0.1515  0.5428  0.3927
 1145SOL    HW115068   0.772   3.798   9.094  1.5422  1.3344  1.0033
 1145SOL    HW215069   0.649   3.883   9.068  1.7035 -2.8117 -2.4979
 1146SOL     OW15070   3.266   1.835  17.206  0.3030 -0.1421  0.3174
 1146SOL    HW115071   3.356   1.806  17.222 -0.7468 -2.9905  1.0213
 1146SOL    HW215072   3.223   1.829  17.292  0.0179  1.2331  0.2712
 1147SOL     OW15073   0.018   0.452   5.289  0.2314  0.4752 -0.0605
 1147SOL    HW115074   4.725   0.458   5.197 -0.4744  2.0656  0.2471
 1147SOL    HW215075   0.096   0.507   5.289  0.3185  0.3709 -2.1134
 1148SOL     OW15076   3.922   1.847   6.349 -0.1050  0.2448 -0.3322
 1148SOL    HW115077   3.890   1.926   6.306 -0.2779  1.6739  2.4513
 1148SOL    HW215078   3.876   1.842   6.432 -1.1783 -0.5837 -0.9771
 1149SOL     OW15079   2.308   1.533   7.159 -0.1644  0.3678  0.0891
 1149SOL    HW115080   2.327   1.486   7.078 -1.4466 -0.0389  0.0337
 1149SOL    HW215081   2.224   1.575   7.141  0.4306  1.1673 -0.7962
 1150SOL     OW15082   2.629   2.755   3.465 -0.1831 -0.2488 -1.0915
 1150SOL    HW115083   2.692   2.691   3.498  1.5231  2.2055  0.4020
 1150SOL    HW215084   2.542   2.717   3.471  0.4889 -1.7870 -1.1359
 1151SOL     OW15085   1.149   3.371   3.489 -0.2169  0.2584 -0.4409
 1151SOL    HW115086   1.138   3.368   3.584 -1.2687 -1.8760 -0.6215
 1151SOL    HW215087   1.194   3.288   3.474 -0.5647 -0.1359  0.6864
 1152SOL     OW15088   2.656   2.421   9.098 -0.1951 -0.4011  0.5971
 1152SOL    HW115089   2.574   2.449   9.059 -0.1470 -0.5380  0.4026
 1152SOL    HW215090   2.628   2.338   9.136  1.6806 -1.6899 -0.8680
 1153SOL     OW15091   1.682   0.488  12.973 -0.2064  0.2204  0.5925
 1153SOL    HW115092   1.698   0.504  13.066  1.2574  1.8148  0.0780
 1153SOL    HW215093   1.717   0.566  12.930 -0.4580  0.3752  0.6676
 1154SOL     OW15094   4.033   1.049   7.561 -0.6359 -0.3593 -0.3705
 1154SOL    HW115095   4.055   1.142   7.565 -1.6759 -0.2365  2.2665
 1154SOL    HW215096   3.952   1.069   7.609 -0.3299 -0.2946  0.1115
 1155SOL     OW15097   3.778   1.416   7.842 -0.2149 -0.6467 -0.1054
 1155SOL    HW115098   3.773   1.388   7.933  0.3098 -1.8045 -0.4365
 1155SOL    HW215099   3.685   1.415   7.820 -0.6829  2.0377  1.7861
 1156SOL     OW15100   2.542   3.095   3.978 -0.1757 -0.4281  0.0057
 1156SOL    HW115101   2.482   3.055   4.041 -0.6405 -0.7250 -0.6256
 1156SOL    HW215102   2.543   3.189   3.995  0.3402 -0.3061 -0.6869
 1157SOL     OW15103   4.616   3.243  16.479 -0.0995  0.0366 -0.0752
 1157SOL    HW115104   4.682   3.192  16.433 -0.5681 -0.3356 -0.3317
 1157SOL    HW215105   4.543   3.182  16.472 -2.0261  2.5143 -1.3862
 1158SOL     OW15106   1.249   0.806   6.624  0.1240  0.3892  0.3440
 1158SOL    HW115107   1.289   0.893   6.633 -0.5931  0.7562  0.0044
 1158SOL    HW215108   1.164   0.839   6.595 -0.2685  0.5322  1.6785
 1159SOL     OW15109   3.199   4.424   3.309 -0.1131 -1.0703 -0.1594
 1159SOL    HW115110   3.229   4.352   3.254  1.3184 -1.1497  0.7097
 1159SOL    HW215111   3.256   4.410   3.384  0.7986 -2.6763 -1.1491
 1160SOL     OW15112   2.601   0.888   2.902 -0.0385 -0.2016 -0.4449
 1160SOL    HW115113   2.586   0.883   2.996 -0.0586 -2.3394 -0.5556
 1160SOL    HW215114   2.549   0.813   2.874 -0.4418 -0.4498  0.9969
 1161SOL     OW15115   2.609   0.417   5.274  0.2928 -0.0096 -0.1936
 1161SOL    HW115116   2.576   0.376   5.354  0.4158 -1.6666 -0.9924
 1161SOL    HW215117   2.531   0.400   5.221  0.5772 -1.9235  0.0222
 1162SOL     OW15118   0.679   4.723   5.601 -0.1227  0.0105  0.4049
 1162SOL    HW115119   0.648   4.711   5.691 -0.6539  0.3309  0.2626
 1162SOL    HW215120   0.599   0.015   5.556  0.7859 -0.4623 -1.4816
 1163SOL     OW15121   4.559   1.400   2.674  0.3239 -0.0156 -0.6065
 1163SOL    HW115122   4.541   1.306   2.670 -0.2259  0.0587  0.1082
 1163SOL    HW215123   4.547   1.420   2.767 -0.5953 -0.8613 -0.5443
 1164SOL     OW15124   0.340   0.169   3.847 -0.3502 -0.1500  0.7404
 1164SOL    HW115125   0.296   0.147   3.765 -1.0246 -0.2299  1.1227
 1164SOL    HW215126   0.268   0.175   3.910 -0.5806  0.2706  0.4409
 1165SOL     OW15127   1.582   3.936   6.810  0.5489  0.0837 -0.3050
 1165SOL    HW115128   1.576   4.017   6.760  1.2050  2.4329  3.4805
 1165SOL    HW215129   1.536   3.965   6.888 -2.3749  0.1691 -2.0884
 1166SOL     OW15130   1.379   2.356   3.534 -0.4777  0.5269  0.2720
 1166SOL    HW115131   1.468   2.320   3.535 -0.1370  1.3689  0.2809
 1166SOL    HW215132   1.329   2.289   3.580 -0.4312 -1.1696 -2.1305
 1167SOL     OW15133   3.132   0.360   9.307  0.0382 -0.1202  0.1079
 1167SOL    HW115134   3.047   0.340   9.270  1.6863 -1.5732 -2.8803
 1167SOL    HW215135   3.106   0.429   9.368  1.9667  0.3234  0.4207
 1168SOL     OW15136   0.756   2.844   2.475 -0.5609 -0.0603  0.1078
 1168SOL    HW115137   0.723   2.759   2.503  0.5467 -0.5539 -0.0729
 1168SOL    HW215138   0.781   2.823   2.385 -0.5877  1.4087 -0.2381
 1169SOL     OW15139   1.966   4.583   1.291  0.4551 -0.5113 -0.1038
 1169SOL    HW115140   1.910   4.513   1.257 -1.5925  0.6177  0.9636
 1169SOL    HW215141   2.008   4.544   1.367  0.5733 -1.5305 -0.6921
 1170SOL     OW15142   0.950   1.758  15.285  0.1389 -0.1533  0.3631
 1170SOL    HW115143   1.037   1.784  15.255  0.3835  3.0649  3.8175
 1170SOL    HW215144   0.920   1.841  15.322  1.1591  0.2465  0.2705
 1171SOL     OW15145   2.849   1.353   4.944  0.1446  0.1493  0.5760
 1171SOL    HW115146   2.840   1.395   5.030  1.4532 -0.1467  0.8616
 1171SOL    HW215147   2.927   1.296   4.951  3.0198  3.6824 -2.7748
 1172SOL     OW15148   3.548   0.875   0.134  0.1512  0.0381  1.3473
 1172SOL    HW115149   3.544   0.961   0.175 -0.1992 -0.2947  2.0125
 1172SOL    HW215150   3.581   0.894   0.046 -1.1480  0.9147  1.0488
 1173SOL     OW15151   4.392   4.714   3.476 -1.1043  0.4765  0.3537
 1173SOL    HW115152   4.365   0.053   3.422  0.4171 -0.0620 -1.1586
 1173SOL    HW215153   4.378   0.021   3.561 -0.3105  1.0242  0.2252
 1174SOL     OW15154   3.961   0.142   2.863 -0.1722  0.1124 -0.3155
 1174SOL    HW115155   3.975   0.134   2.769  1.6180 -1.0691  0.0473
 1174SOL    HW215156   4.048   0.173   2.889 -1.3719  1.2521  2.3953
 1175SOL     OW15157   0.567   4.255   6.630  0.2304 -0.0306 -0.0760
 1175SOL    HW115158   0.544   4.270   6.722 -3.1805  1.0539 -1.1206
 1175SOL    HW215159   0.504   4.312   6.586 -2.1658 -1.6398  1.2814
 1176SOL     OW15160   3.778   4.729  16.763  0.0028 -0.0108  0.5966
 1176SOL    HW115161   3.784   4.637  16.738 -4.5257  0.4281 -2.1379
 1176SOL    HW215162   3.749   4.713  16.853 -0.9396  0.5278  0.3974
 1177SOL     OW15163   3.306   3.423   7.537 -0.1020 -0.1426 -0.0885
 1177SOL    HW115164   3.261   3.493   7.585  0.6776 -0.2928  0.8657
 1177SOL    HW215165   3.234   3.359   7.546  0.7344 -1.4442 -2.7225
 1178SOL     OW15166   0.523   2.038   7.059  0.4354 -0.0667 -0.1188
 1178SOL    HW115167   0.532   1.949   7.026  0.7446 -0.8662  2.0685
 1178SOL    HW215168   0.481   2.022   7.144  0.5516 -0.8686 -0.2176
 1179SOL     OW15169   2.389   2.841   3.164 -0.0236  0.0212  0.2822
 1179SOL    HW115170   2.450   2.786   3.213 -0.1209  0.6843  1.1586
 1179SOL    HW215171   2.393   2.921   3.217 -0.1756 -1.0614  1.9311
 1180SOL     OW15172   2.825   1.123   7.639  0.2902  0.2411  0.4378
 1180SOL    HW115173   2.787   1.193   7.691  1.5813 -1.2913  3.4464
 1180SOL    HW215174   2.873   1.078   7.709  1.5209  1.6605  0.4962
 1181SOL     OW15175   1.535   0.649   3.306  0.4887 -0.0940 -0.5301
 1181SOL    HW115176   1.556   0.742   3.316 -0.0318  0.3469 -3.5433
 1181SOL    HW215177   1.535   0.617   3.396 -0.2835 -1.2343 -0.9378
 1182SOL     OW15178   3.240   3.075  16.774  0.5588  0.3260 -0.0464
 1182SOL    HW115179   3.162   3.073  16.719  1.4165  1.3380 -1.3077
 1182SOL    HW215180   3.247   3.170  16.776 -0.3567  0.4936 -3.9271
 1183SOL     OW15181   1.964   4.549   8.923 -0.2102  0.2711  0.0376
 1183SOL    HW115182   1.893   4.586   8.871  0.7194  0.2330 -1.2535
 1183SOL    HW215183   1.986   4.632   8.965  2.3383 -0.5597  0.3296
 1184SOL     OW15184   3.851   3.821   1.858 -0.7535  0.0000 -0.3784
 1184SOL    HW115185   3.907   3.767   1.915 -1.6791  0.1023  0.6248
 1184SOL    HW215186   3.923   3.859   1.808 -1.1388 -0.6294 -1.4177
 1185SOL     OW15187   1.752   1.211  15.693  0.3851 -0.7286  0.2712
 1185SOL    HW115188   1.715   1.287  15.738  1.3370 -0.6794  0.9520
 1185SOL    HW215189   1.672   1.184  15.647  0.2377 -0.7276  0.5256
 1186SOL     OW15190   2.848   1.804   4.736  0.1137 -0.0908 -0.1658
 1186SOL    HW115191   2.772   1.819   4.792 -0.1166 -2.0025  0.0189
 1186SOL    HW215192   2.832   1.869   4.667  1.0554 -1.2417 -1.4593
 1187SOL     OW15193   2.635   2.559  13.403 -0.0872 -0.0335 -1.0302
 1187SOL    HW115194   2.714   2.557  13.349  0.0243 -2.0023 -0.7908
 1187SOL    HW215195   2.575   2.503  13.354  0.3284 -0.4560 -1.0555
 1188SOL     OW15196   0.138   3.938   4.623 -0.5951  0.5230  0.0266
 1188SOL    HW115197   0.171   3.975   4.705 -2.1517  1.0427  0.4140
 1188SOL    HW215198   0.165   3.847   4.635 -0.6673  0.5502  0.3794
 1189SOL     OW15199   2.507   4.492   3.416 -0.5094  0.3273  0.2856
 1189SOL    HW115200   2.519   4.550   3.341 -0.6555 -0.7216 -0.5442
 1189SOL    HW215201   2.468   4.550   3.482 -0.7471 -1.4847  1.7438
 1190SOL     OW15202   4.617   3.371  16.735 -0.0731 -0.1952 -0.1216
 1190SOL    HW115203   4.523   3.384  16.749  0.1110  0.2685  0.7264
 1190SOL    HW215204   4.622   3.320  16.655  2.2564  1.6515 -1.1360
 1191SOL     OW15205   1.469   4.639   2.057 -0.0561  0.2692  0.1158
 1191SOL    HW115206   1.518   4.644   2.139 -2.5319  1.5845  1.5105
 1191SOL    HW215207   1.406   4.707   2.081  1.4559  0.4760  3.5268
 1192SOL     OW15208   3.136   4.325   2.507  0.0773  0.0087 -0.1283
 1192SOL    HW115209   3.144   4.233   2.485 -1.8145 -0.2081  0.1048
 1192SOL    HW215210   3.131   4.327   2.603  0.3025 -0.0852 -0.1162
 1193SOL     OW15211   3.553   1.200   6.258  0.1264 -0.4316  0.4024
 1193SOL    HW115212   3.577   1.144   6.331  0.0929  1.3493  1.7753
 1193SOL    HW215213   3.587   1.285   6.284 -1.3150 -0.0033  0.8801
 1194SOL     OW15214   3.302   4.726   4.586 -0.4717  0.5504 -0.4774
 1194SOL    HW115215   3.233   0.020   4.645 -0.0658  1.9278 -0.6958
 1194SOL    HW215216   3.382   0.003   4.638  0.7426 -2.7761 -1.5270
 1195SOL     OW15217   1.928   0.260   8.716  0.0604 -0.0259  0.4108
 1195SOL    HW115218   1.979   0.192   8.671 -1.2973 -1.2975  0.7865
 1195SOL    HW215219   1.995   0.271   8.783  0.2351  3.4648 -0.3636
 1196SOL     OW15220   2.111   0.011  16.342  0.3679 -0.4624  0.1504
 1196SOL    HW115221   2.099   0.052  16.428  1.1550  1.5309 -0.6855
 1196SOL    HW215222   2.058   4.667  16.347 -3.0840  1.6732 -2.0195
 1197SOL     OW15223   3.636   4.052  13.882 -0.3939 -0.0755 -0.3270
 1197SOL    HW115224   3.574   4.122  13.904 -0.6683 -0.0053 -1.2983
 1197SOL    HW215225   3.716   4.100  13.904 -1.5576  2.3181 -1.3422
 1198SOL     OW15226   2.511   0.823   7.280 -0.2596 -0.7023  1.0344
 1198SOL    HW115227   2.573   0.835   7.352  0.5701 -1.3740  0.4218
 1198SOL    HW215228   2.557   0.749   7.242  0.5539  0.3115  0.0500
 1199SOL     OW15229   1.456   0.234   5.780 -0.3559 -0.4867 -0.3758
 1199SOL    HW115230   1.542   0.219   5.820 -0.6281 -1.4372 -0.1446
 1199SOL    HW215231   1.400   0.169   5.823  1.2985 -1.2259  0.6493
 1200SOL     OW15232   4.500   0.121   5.316 -0.0067  0.2275  0.4534
 1200SOL    HW115233   4.576   0.095   5.369  0.6982 -0.3090 -0.8141
 1200SOL    HW215234   4.513   0.056   5.247 -0.0541  2.1047 -1.3337
 1201SOL     OW15235   4.313   4.441   7.405 -0.0046 -0.3013 -0.5287
 1201SOL    HW115236   4.383   4.484   7.355  1.9382 -2.4246  0.3608
 1201SOL    HW215237   4.357   4.430   7.489 -3.6416 -1.8881  1.1378
 1202SOL     OW15238   1.502   0.225   4.367 -0.2834  0.4829 -0.2445
 1202SOL    HW115239   1.504   0.144   4.418 -0.4119  1.7332  1.7439
 1202SOL    HW215240   1.503   0.188   4.279  0.3310 -2.0041  0.8206
 1203SOL     OW15241   3.811   0.084  13.793 -0.4459  0.3684  0.2920
 1203SOL    HW115242   3.724   0.109  13.822 -1.6668 -1.3769 -1.8451
 1203SOL    HW215243   3.787   0.079  13.700 -1.3405 -0.6141  0.5762
 1204SOL     OW15244   0.116   3.401   7.622  0.0102  0.2223 -0.0111
 1204SOL    HW115245   0.124   3.329   7.685 -1.2927 -1.5055 -1.8069
 1204SOL    HW215246   0.137   3.473   7.681 -2.0512  0.0789  0.8933
 1205SOL     OW15247   2.468   4.367   6.168 -0.4714  0.5437 -0.2542
 1205SOL    HW115248   2.397   4.306   6.149  1.6518 -1.2493 -2.4444
 1205SOL    HW215249   2.459   4.434   6.101  0.7596 -0.6614 -1.6213
 1206SOL     OW15250   2.328   3.374   2.588 -0.0973 -0.2000  0.0908
 1206SOL    HW115251   2.282   3.448   2.626  2.8275  1.4455  0.4431
 1206SOL    HW215252   2.398   3.427   2.551  0.6712 -1.3462 -0.1138
 1207SOL     OW15253   3.975   1.311   5.329  0.1330  0.3786  0.1606
 1207SOL    HW115254   4.056   1.319   5.379  0.4281 -1.8147  0.0686
 1207SOL    HW215255   3.910   1.322   5.399  0.5361 -0.8138  0.7264
 1208SOL     OW15256   2.842   2.883   0.953  0.2463  0.2161 -0.3438
 1208SOL    HW115257   2.873   2.883   0.862  1.0354  3.0643 -0.0695
 1208SOL    HW215258   2.754   2.921   0.949  0.8280  1.6099  0.1785
 1209SOL     OW15259   2.570   2.099   6.093  0.0703  0.2748 -0.3728
 1209SOL    HW115260   2.615   2.179   6.119  1.3468 -1.2964  2.2626
 1209SOL    HW215261   2.595   2.105   6.000  0.2285 -0.2027 -0.3634
 1210SOL     OW15262   4.024   1.108   0.317 -0.4901 -0.2020  0.1271
 1210SOL    HW115263   4.013   1.144   0.405  1.7604  0.4064  0.1744
 1210SOL    HW215264   4.117   1.083   0.317 -0.4412 -0.0381 -2.1551
 1211SOL     OW15265   4.554   0.236   7.432 -0.0906  0.7241 -1.1050
 1211SOL    HW115266   4.497   0.290   7.486 -0.3252 -0.4954 -0.1437
 1211SOL    HW215267   4.625   0.221   7.494 -0.2275 -2.4401 -1.7308
 1212SOL     OW15268   0.286   4.388   5.289 -0.8866 -0.5958 -0.3584
 1212SOL    HW115269   0.248   4.301   5.281 -1.8515 -0.3207  1.2972
 1212SOL    HW215270   0.315   4.412   5.200 -0.5493 -0.7661 -0.2967
 1213SOL     OW15271   2.729   2.154   5.805 -0.2422  0.2576 -0.1040
 1213SOL    HW115272   2.689   2.165   5.718  2.7357  0.2206 -1.4835
 1213SOL    HW215273   2.764   2.243   5.808 -1.5344  0.7348  0.9095
 1214SOL     OW15274   4.355   1.501   3.781  0.5468 -0.0715 -0.2916
 1214SOL    HW115275   4.373   1.427   3.839 -0.4300 -0.9206 -1.0687
 1214SOL    HW215276   4.381   1.580   3.828 -2.1119  1.9261 -2.1876
 1215SOL     OW15277   4.498   4.706   8.726  1.0318  0.7782  0.3456
 1215SOL    HW115278   4.508   4.629   8.670  1.1227  0.7746  0.3669
 1215SOL    HW215279   4.493   0.041   8.661  2.3215  0.3502 -0.2040
 1216SOL     OW15280   0.483   1.608   9.506  0.1195 -0.6336  0.6927
 1216SOL    HW115281   0.396   1.645   9.521 -0.2937 -1.0890 -0.6124
 1216SOL    HW215282   0.514   1.605   9.597 -0.1972  5.6451  0.9934
 1217SOL     OW15283   4.560   4.461  17.472  0.1349 -0.4144 -0.4924
 1217SOL    HW115284   4.527   4.382  17.514  1.8442 -0.3239  1.0056
 1217SOL    HW215285   4.540   4.435  17.382 -1.0234 -1.3071  0.0266
 1218SOL     OW15286   3.058   0.179   6.009  0.0717 -0.1271 -0.6425
 1218SOL    HW115287   3.128   0.144   5.954 -2.0575 -1.4390 -2.5184
 1218SOL    HW215288   3.087   0.147   6.095  1.1631 -1.3547 -1.4603
 1219SOL     OW15289   0.924   4.392   8.430 -0.2243 -0.0765  0.3440
 1219SOL    HW115290   0.878   4.452   8.372  1.5959 -1.4676 -2.5145
 1219SOL    HW215291   1.016   4.414   8.416 -0.1200  1.1562  3.0008
 1220SOL     OW15292   0.133   3.406   2.135 -0.4812  0.6478 -0.3774
 1220SOL    HW115293   0.107   3.323   2.095  0.9923 -1.6671  3.4950
 1220SOL    HW215294   0.086   3.398   2.218 -0.5298 -3.5691 -0.8069
 1221SOL     OW15295   2.685   4.511   5.433  0.2840  0.4832 -0.0258
 1221SOL    HW115296   2.665   4.430   5.386  3.1631  0.6562 -1.5113
 1221SOL    HW215297   2.669   4.585   5.375  0.2371 -0.6181 -1.4244
 1222SOL     OW15298   1.361   2.877   7.025 -0.3143 -0.2423 -0.5105
 1222SOL    HW115299   1.393   2.919   7.105  2.3471 -3.9971  0.4152
 1222SOL    HW215300   1.414   2.920   6.958  2.4451  0.1132  1.9360
 1223SOL     OW15301   2.468   0.450   3.338  0.1522  0.6186 -0.1049
 1223SOL    HW115302   2.381   0.481   3.315 -0.1795  1.1575  1.7988
 1223SOL    HW215303   2.436   0.400   3.414  1.7846  0.0151  0.1764
 1224SOL     OW15304   1.698   2.197   2.648 -0.2213  0.1302 -0.5621
 1224SOL    HW115305   1.704   2.257   2.722 -0.1535  0.5588 -0.9188
 1224SOL    HW215306   1.778   2.145   2.659 -0.0555  0.2292 -1.2938
 1225SOL     OW15307   2.650   2.313   8.426  0.1224  0.2491  0.0043
 1225SOL    HW115308   2.596   2.250   8.472  0.3343 -0.2605 -0.4474
 1225SOL    HW215309   2.723   2.313   8.487  2.0325 -0.9773 -2.2909
 1226SOL     OW15310   1.671   4.555   2.723 -0.6167  0.1434 -0.3426
 1226SOL    HW115311   1.674   4.651   2.720 -1.9059  0.2551  2.6054
 1226SOL    HW215312   1.582   4.539   2.752  0.0291 -1.7791  0.5708
 1227SOL     OW15313   4.368   0.593   8.446  0.1645 -0.3061  0.1131
 1227SOL    HW115314   4.328   0.518   8.489 -2.7515  1.2653  0.0919
 1227SOL    HW215315   4.294   0.652   8.444  0.7921  0.4807  0.1378
 1228SOL     OW15316   0.540   1.566   4.184  0.2877 -0.2230  0.2816
 1228SOL    HW115317   0.509   1.656   4.174  0.4773 -0.1616  0.2443
 1228SOL    HW215318   0.458   1.520   4.201  1.0243 -0.3761  3.5281
 1229SOL     OW15319   2.347   1.632   2.082 -0.4811 -0.1262  0.0359
 1229SOL    HW115320   2.431   1.599   2.049 -0.5404  0.4969 -0.7520
 1229SOL    HW215321   2.370   1.622   2.174  2.7334  0.7949 -0.6795
 1230SOL     OW15322   4.729   0.643   8.302 -0.5293 -0.1536 -0.1567
 1230SOL    HW115323   0.049   0.710   8.262 -1.1433  1.1846  1.2052
 1230SOL    HW215324   0.055   0.576   8.333 -0.1712 -0.1150 -0.7843
 1231SOL     OW15325   2.578   2.688   1.472 -0.4784 -0.1504  0.3138
 1231SOL    HW115326   2.527   2.722   1.545  2.1022  2.2628  0.9782
 1231SOL    HW215327   2.662   2.694   1.517 -0.2686  1.6015 -0.3417
 1232SOL     OW15328   4.367   4.579  17.664  0.0892  0.5623 -0.3640
 1232SOL    HW115329   4.302   4.582  17.594  0.9105  1.2405 -1.0988
 1232SOL    HW215330   4.447   4.596  17.615  0.6566  1.1917  0.7706
 1233SOL     OW15331   3.611   2.289   4.599  0.4531 -0.0365 -0.4756
 1233SOL    HW115332   3.679   2.263   4.536 -0.3864 -0.6721 -1.1191
 1233SOL    HW215333   3.657   2.285   4.682  1.0569  0.3139 -0.7911
 1234SOL     OW15334   1.111   3.714   2.245 -0.3260 -0.5780 -0.0871
 1234SOL    HW115335   1.199   3.679   2.257 -0.1132  0.2668  0.8451
 1234SOL    HW215336   1.113   3.808   2.227 -2.6812 -1.1606 -3.5527
 1235SOL     OW15337   2.262   2.134   2.684 -0.2938 -0.4762 -0.6457
 1235SOL    HW115338   2.268   2.147   2.589  0.9180  1.3582 -0.3113
 1235SOL    HW215339   2.261   2.038   2.681 -0.3537 -0.5229  0.7103
 1236SOL     OW15340   2.290   0.565  10.212  0.2778  0.0930 -0.3117
 1236SOL    HW115341   2.289   0.588  10.305 -0.1953  1.5920 -0.6957
 1236SOL    HW215342   2.204   0.522  10.211  0.5751 -0.4716 -2.4899
 1237SOL     OW15343   2.159   1.245  15.322  0.3613  0.2028 -0.3803
 1237SOL    HW115344   2.245   1.215  15.353 -2.1523 -1.7058  4.5835
 1237SOL    HW215345   2.122   1.161  15.293 -0.3260  0.1411  0.7088
 1238SOL     OW15346   0.325   2.668  17.503  0.3831  0.5076  0.3687
 1238SOL    HW115347   0.263   2.648  17.432  1.3153 -1.3395  0.0739
 1238SOL    HW215348   0.361   2.581  17.520  0.0522  0.4819  0.9078
 1239SOL     OW15349   1.505   3.237   1.615  0.1999 -0.8324 -0.5384
 1239SOL    HW115350   1.584   3.231   1.561  0.9036 -1.6775  0.6035
 1239SOL    HW215351   1.501   3.142   1.621 -2.0669 -0.7850 -1.3137
 1240SOL     OW15352   0.884   0.624   1.654 -0.4262  0.5514 -0.2611
 1240SOL    HW115353   0.891   0.562   1.727  1.1886  0.1027 -0.7899
 1240SOL    HW215354   0.874   0.706   1.704 -0.6370  0.8331 -0.7725
 1241SOL     OW15355   2.076   2.268   2.869 -0.1111 -0.8603  0.2007
 1241SOL    HW115356   2.132   2.207   2.822  1.4780 -1.3844  2.7545
 1241SOL    HW215357   2.101   2.343   2.815  0.8133 -1.8175 -0.6881
 1242SOL     OW15358   2.605   2.195   3.392  0.1150 -0.0354 -0.3750
 1242SOL    HW115359   2.667   2.230   3.327  3.1634 -2.7464  1.0558
 1242SOL    HW215360   2.570   2.280   3.420  1.7958  1.8117 -3.8515
 1243SOL     OW15361   1.345   2.409   6.258  0.1552  0.3743 -0.1773
 1243SOL    HW115362   1.359   2.315   6.246  2.9058  1.1288 -2.8617
 1243SOL    HW215363   1.365   2.411   6.352 -0.4955  2.4260 -0.0788
 1244SOL     OW15364   3.061   4.734  17.376 -0.0326  0.6745  0.1443
 1244SOL    HW115365   3.090   0.080  17.419  1.3587  0.6305 -0.7041
 1244SOL    HW215366   3.126   4.728  17.305 -0.2706 -1.4170  0.1112
 1245SOL     OW15367   2.255   4.033   4.537  0.2795  0.2052  0.3888
 1245SOL    HW115368   2.176   3.994   4.500 -0.6021  2.8727 -0.5427
 1245SOL    HW215369   2.301   4.057   4.457 -0.8598  0.0519 -0.3124
 1246SOL     OW15370   0.386   0.984  14.579  0.4700 -0.5589  0.1241
 1246SOL    HW115371   0.444   1.050  14.540  2.4535 -2.0085  0.5944
 1246SOL    HW215372   0.359   0.934  14.502  0.4397  0.1211 -0.3105
 1247SOL     OW15373   3.814   3.471  15.040 -0.6451 -0.8696  0.2936
 1247SOL    HW115374   3.873   3.538  15.005  1.2934 -2.0225  1.4011
 1247SOL    HW215375   3.857   3.407  15.096 -1.6580 -1.9034 -0.1221
 1248SOL     OW15376   4.398   0.474  10.852  0.0335 -0.0072 -0.0114
 1248SOL    HW115377   4.461   0.403  10.838  0.6862  0.4292  0.7123
 1248SOL    HW215378   4.456   0.546  10.825  1.6577 -0.8267  1.2575
 1249SOL     OW15379   0.796   2.889   3.482 -0.1897  0.5742 -0.2085
 1249SOL    HW115380   0.797   2.973   3.529 -0.0199  0.2725  0.3237
 1249SOL    HW215381   0.805   2.919   3.392  2.3103 -0.3495 -0.2859
 1250SOL     OW15382   0.705   2.487   3.869  0.1990  1.0559  0.0069
 1250SOL    HW115383   0.755   2.558   3.908  0.7266  0.9414 -0.4642
 1250SOL    HW215384   0.780   2.448   3.824 -0.2351  0.5467 -0.2744
 1251SOL     OW15385   4.675   2.115  12.124 -0.1617  0.2247 -0.2500
 1251SOL    HW115386   4.687   2.116  12.219  1.2995 -1.7922 -0.4093
 1251SOL    HW215387   4.652   2.022  12.118 -0.2508  0.2063  0.4507
 1252SOL     OW15388   0.452   0.601   8.201 -0.1863 -0.4417  0.2000
 1252SOL    HW115389   0.440   0.518   8.246 -1.7588  0.0883  0.7570
 1252SOL    HW215390   0.530   0.586   8.149  0.4094  0.9405  0.6966
 1253SOL     OW15391   2.364   4.405   5.868 -0.0868 -0.1991 -0.0942
 1253SOL    HW115392   2.450   4.443   5.887  0.3951 -0.9149 -0.8580
 1253SOL    HW215393   2.302   4.477   5.864  0.8482  0.7332  2.1276
 1254SOL     OW15394   2.678   3.484   3.106 -0.0719  0.5381  0.2112
 1254SOL    HW115395   2.678   3.408   3.047  1.5481  0.5851  0.1464
 1254SOL    HW215396   2.597   3.468   3.154 -0.7753  1.6958 -0.5786
 1255SOL     OW15397   0.265   2.246   9.234 -0.3200  0.8603  0.5846
 1255SOL    HW115398   0.333   2.187   9.266 -1.5581 -1.1355 -0.5306
 1255SOL    HW215399   0.291   2.332   9.267 -1.9911  0.8760  1.8662
 1256SOL     OW15400   0.452   3.038   6.326 -0.1747 -0.1124 -0.4526
 1256SOL    HW115401   0.403   3.018   6.406  0.5815 -1.2328 -0.2693
 1256SOL    HW215402   0.405   3.111   6.286  0.3906 -0.3625 -1.5683
 1257SOL     OW15403   0.783   4.654   3.331 -0.3152  0.3579  0.4800
 1257SOL    HW115404   0.867   4.621   3.363 -0.9000  0.8387  2.5351
 1257SOL    HW215405   0.796   4.638   3.238  1.4482  2.4842  0.3733
 1258SOL     OW15406   3.098   0.554  16.784 -0.0698  0.5479 -0.2692
 1258SOL    HW115407   3.186   0.543  16.748  0.8373 -4.9402  3.5925
 1258SOL    HW215408   3.129   0.604  16.859 -1.6794  0.8784  0.1789
 1259SOL     OW15409   2.151   4.633  17.632  0.1460 -0.3774  0.5234
 1259SOL    HW115410   2.114   4.570  17.695 -1.0899  0.5261  0.7051
 1259SOL    HW215411   2.077   4.639  17.571 -0.8994 -0.7228  1.7498
 1260SOL     OW15412   0.411   4.644  14.880 -0.2158 -0.0432  0.2292
 1260SOL    HW115413   0.504   4.631  14.894 -0.0589 -1.6012 -2.2558
 1260SOL    HW215414   0.386   4.727  14.920  1.6900 -0.2189  1.7424
 1261SOL     OW15415   0.216   1.915  14.209 -0.7653  1.1099  0.8442
 1261SOL    HW115416   0.292   1.951  14.256  0.1823  1.0477 -0.6287
 1261SOL    HW215417   0.196   2.006  14.185 -1.8555  1.1021  1.7423
 1262SOL     OW15418   0.764   0.975   6.792 -0.0839 -0.0937  0.7516
 1262SOL    HW115419   0.700   1.045   6.783  0.3687  0.2500  0.2477
 1262SOL    HW215420   0.719   0.906   6.842  1.4619 -1.4732  0.2420
 1263SOL     OW15421   0.287   3.358   5.922  0.5845 -0.0115 -0.0405
 1263SOL    HW115422   0.362   3.401   5.963  0.6935  0.7010 -0.9868
 1263SOL    HW215423   0.212   3.409   5.951  0.1535 -0.3370 -0.5791
 1264SOL     OW15424   1.332   2.771  12.864  0.5162 -0.4130 -0.6566
 1264SOL    HW115425   1.407   2.761  12.923 -1.6380 -2.5850  1.7349
 1264SOL    HW215426   1.362   2.824  12.791  3.7435  0.8114  1.5712
 1265SOL     OW15427   3.177   3.775   6.913 -0.1897 -0.2842 -0.5739
 1265SOL    HW115428   3.252   3.804   6.965  0.9004  1.9071 -3.3881
 1265SOL    HW215429   3.173   3.679   6.920 -1.9112 -0.3379 -2.3584
 1266SOL     OW15430   2.092   2.749  16.636  0.5836  0.7020  0.3108
 1266SOL    HW115431   2.158   2.690  16.600 -3.4672 -2.0274 -2.7198
 1266SOL    HW215432   2.117   2.745  16.728  1.8589  0.7437 -0.0302
 1267SOL     OW15433   2.979   2.856   4.023 -0.4507  0.3205  0.0353
 1267SOL    HW115434   3.067   2.892   4.033 -1.0501  1.6916  0.4628
 1267SOL    HW215435   2.936   2.931   3.981  0.6910  1.6996  1.3338
 1268SOL     OW15436   1.073   0.716   6.104  0.8542 -0.1213  0.2570
 1268SOL    HW115437   1.033   0.710   6.191  1.4304 -0.7738  0.4802
 1268SOL    HW215438   1.149   0.766   6.133  1.7032 -1.2338 -0.0287
 1269SOL     OW15439   2.385   4.357   0.044 -0.7028  0.1497 -0.0802
 1269SOL    HW115440   2.311   4.324  17.732 -0.8681  1.2771 -0.5739
 1269SOL    HW215441   2.374   4.322   0.132  2.2439 -0.1260  0.2011
 1270SOL     OW15442   3.175   0.552   5.788  0.6472 -0.2633  0.1334
 1270SOL    HW115443   3.125   0.518   5.714  0.0509 -2.1339  1.3953
 1270SOL    HW215444   3.222   0.477   5.823  0.1928 -0.4719  0.2916
 1271SOL     OW15445   2.426   4.698   3.640  0.1529 -0.5796 -0.4796
 1271SOL    HW115446   2.521   4.712   3.646  0.2557 -1.2367 -0.6468
 1271SOL    HW215447   2.388   0.027   3.701  0.2622  0.2155 -1.2412
 1272SOL     OW15448   3.285   3.941   2.934 -0.5657 -0.0479 -0.0675
 1272SOL    HW115449   3.353   4.008   2.933  0.2223 -0.8537 -0.7169
 1272SOL    HW215450   3.329   3.858   2.915  1.1119  0.6268  0.8750
 1273SOL     OW15451   1.077   3.061  10.336  0.2811 -0.6879 -0.4318
 1273SOL    HW115452   1.109   3.147  10.363  0.4426  0.4544 -4.2011
 1273SOL    HW215453   0.988   3.067  10.370  0.8193 -2.0829  1.1815
 1274SOL     OW15454   2.139   0.404   3.668 -0.1587  0.0349  0.0681
 1274SOL    HW115455   2.059   0.350   3.674 -0.4067  0.3166 -0.6772
 1274SOL    HW215456   2.122   0.462   3.742  1.1203 -1.9567  1.9245
 1275SOL     OW15457   0.956   3.778   0.328  0.1189 -0.0210  0.0283
 1275SOL    HW115458   0.996   3.743   0.408  1.3922 -0.3775 -0.7755
 1275SOL    HW215459   0.897   3.848   0.355 -2.7232 -1.4924 -2.3898
 1276SOL     OW15460   0.523   0.878   9.754  0.3092  0.0739  0.4675
 1276SOL    HW115461   0.477   0.927   9.822 -1.8101 -0.0865 -0.8576
 1276SOL    HW215462   0.598   0.929   9.724 -0.2562  0.9027  0.4683
 1277SOL     OW15463   4.331   2.873   9.516 -0.4923 -0.8751 -0.3669
 1277SOL    HW115464   4.341   2.871   9.611 -1.6172  0.3950 -0.2106
 1277SOL    HW215465   4.261   2.933   9.491 -0.9205 -1.4486 -0.5499
 1278SOL     OW15466   4.440   0.282   4.205 -0.8070 -0.7754  0.3857
 1278SOL    HW115467   4.388   0.202   4.199 -1.4689 -0.0899 -2.7313
 1278SOL    HW215468   4.481   0.274   4.119  0.1785 -1.0845  0.8891
 1279SOL     OW15469   4.475   2.001  14.733  0.2455 -0.4704 -0.7179
 1279SOL    HW115470   4.471   1.966  14.822  0.0298 -1.4823 -1.1307
 1279SOL    HW215471   4.543   2.069  14.735 -0.7872  0.5552 -0.6203
 1280SOL     OW15472   3.695   2.675   6.897  0.2601  0.1997  1.1496
 1280SOL    HW115473   3.757   2.726   6.846  0.4178 -0.3576  0.7858
 1280SOL    HW215474   3.743   2.593   6.909 -0.9956 -0.5409  1.1804
 1281SOL     OW15475   3.624   1.141   0.564 -0.3031 -0.7616  0.5040
 1281SOL    HW115476   3.551   1.180   0.612  0.5136 -0.5531  1.5664
 1281SOL    HW215477   3.684   1.122   0.635  1.2836  1.6231 -0.1857
 1282SOL     OW15478   1.067   1.268   2.555  0.2100 -0.0166  0.3113
 1282SOL    HW115479   1.115   1.328   2.497 -2.2637 -0.2387 -1.9593
 1282SOL    HW215480   1.132   1.221   2.607  0.9673  1.8255  1.0323
 1283SOL     OW15481   1.402   3.643   3.553 -0.3353  0.6359  0.3287
 1283SOL    HW115482   1.333   3.621   3.490 -0.4332 -1.7179  1.2585
 1283SOL    HW215483   1.424   3.735   3.544 -0.7942  0.6412 -0.7286
 1284SOL     OW15484   2.390   1.476  17.042 -0.4813  0.2720 -0.9664
 1284SOL    HW115485   2.420   1.392  17.007 -1.8030 -1.1526  1.3018
 1284SOL    HW215486   2.378   1.525  16.960 -0.8184  2.3681  0.3453
 1285SOL     OW15487   1.794   3.872  17.574 -0.2853  0.2405  1.2329
 1285SOL    HW115488   1.735   3.932  17.621  0.9165 -0.1580  3.2427
 1285SOL    HW215489   1.746   3.790  17.575  2.3916 -1.3433 -0.7498
 1286SOL     OW15490   2.194   0.629   7.676 -0.0131 -0.2205  0.4200
 1286SOL    HW115491   2.120   0.690   7.673  1.2082  1.2333 -0.3541
 1286SOL    HW215492   2.245   0.677   7.611  1.2086 -2.8244 -0.5486
 1287SOL     OW15493   2.810   1.454   5.204 -1.0799  0.3120  1.0044
 1287SOL    HW115494   2.805   1.537   5.157  2.8396 -0.7616 -1.3192
 1287SOL    HW215495   2.789   1.480   5.294 -0.3555  0.1196  1.2268
 1288SOL     OW15496   2.962   0.752   8.005  0.8358  0.4343 -0.5160
 1288SOL    HW115497   2.884   0.728   7.954  0.4751 -1.4464  0.9248
 1288SOL    HW215498   3.015   0.685   7.963 -0.7894 -0.2556 -1.4924
 1289SOL     OW15499   0.622   1.570   3.300  0.0023 -0.3164  0.4436
 1289SOL    HW115500   0.572   1.590   3.221  0.2449  0.5437  0.5102
 1289SOL    HW215501   0.689   1.638   3.291 -2.1054  1.7877  0.7636
 1290SOL     OW15502   0.615   0.874   7.965 -0.0254 -0.6562  0.0628
 1290SOL    HW115503   0.614   0.882   7.869  1.3988 -0.4745  0.0677
 1290SOL    HW215504   0.697   0.919   7.984  1.1231 -1.9919 -1.7531
 1291SOL     OW15505   1.115   0.664   9.019 -0.0621  0.3930 -0.1200
 1291SOL    HW115506   1.090   0.683   8.928  2.1290 -0.3634 -0.8689
 1291SOL    HW215507   1.034   0.629   9.056  0.4429  1.3395  1.8853
 1292SOL     OW15508   4.223   3.385   3.112 -0.3728  0.4216 -0.0787
 1292SOL    HW115509   4.162   3.346   3.174 -0.0754  2.0950  1.2717
 1292SOL    HW215510   4.286   3.315   3.092  0.4220  1.2780 -0.5751
 1293SOL     OW15511   1.301   0.799   3.819  0.0626  0.0345  0.3132
 1293SOL    HW115512   1.209   0.773   3.825  0.0552  0.5317  2.4342
 1293SOL    HW215513   1.307   0.875   3.877 -0.0350 -0.8446  1.4966
 1294SOL     OW15514   2.863   3.980   2.072 -0.6982  0.2477  0.1852
 1294SOL    HW115515   2.828   4.064   2.042  2.2065  0.2918 -2.9030
 1294SOL    HW215516   2.897   4.008   2.158 -0.2891  2.8526 -0.8155
 1295SOL     OW15517   1.094   0.071   4.983  0.7635  0.4189  0.2454
 1295SOL    HW115518   1.146   0.088   4.905 -0.1054 -0.3411 -0.5063
 1295SOL    HW215519   1.146   0.005   5.029 -1.1658 -1.1601  0.1354
 1296SOL     OW15520   2.845   0.083   2.892  0.0666 -0.2644  0.0760
 1296SOL    HW115521   2.924   0.082   2.946 -1.2364  0.8247  2.0477
 1296SOL    HW215522   2.875   0.084   2.801 -1.3701 -0.0548 -0.3953
 1297SOL     OW15523   3.402   3.411   9.769 -0.5647 -0.9604 -0.3785
 1297SOL    HW115524   3.443   3.451   9.846 -1.7853  1.2889 -0.9288
 1297SOL    HW215525   3.460   3.335   9.757  0.8079  0.2965 -1.6383
 1298SOL     OW15526   2.850   1.673  14.731  0.8049  0.3841 -0.8148
 1298SOL    HW115527   2.787   1.601  14.723  0.2752  0.6402  1.1901
 1298SOL    HW215528   2.800   1.741  14.776  2.1320  0.8033  0.0096
 1299SOL     OW15529   0.845   3.645   6.433  0.3006  0.3407  0.0628
 1299SOL    HW115530   0.878   3.731   6.405  0.4778 -0.0252 -0.8553
 1299SOL    HW215531   0.880   3.599   6.357  0.6260 -0.6261  0.7995
 1300SOL     OW15532   3.844   1.386   3.969  0.2549  0.3846 -0.3071
 1300SOL    HW115533   3.758   1.361   4.001 -0.2149  0.6808 -1.3456
 1300SOL    HW215534   3.886   1.300   3.962  0.8869  0.6528  0.1490
 1301SOL     OW15535   2.938   3.501   3.645  0.3582  0.1702  0.0199
 1301SOL    HW115536   2.946   3.482   3.738 -0.2719  0.0153  0.0451
 1301SOL    HW215537   3.020   3.543   3.620  0.3914  0.5526  0.7812
 1302SOL     OW15538   1.129   1.121  14.872  0.2850 -0.1017  0.2680
 1302SOL    HW115539   1.157   1.031  14.855  3.3395  0.5493  1.7994
 1302SOL    HW215540   1.193   1.185  14.841  1.0773 -0.4343  1.2235
 1303SOL     OW15541   1.140   3.541  10.461  0.1671  0.3701  0.4502
 1303SOL    HW115542   1.162   3.613  10.402  0.2965 -0.0890 -0.0615
 1303SOL    HW215543   1.126   3.465  10.404  2.7321 -0.0440  0.3584
 1304SOL     OW15544   2.746   4.481   7.170 -0.5110  0.2632  0.8663
 1304SOL    HW115545   2.728   4.388   7.182 -1.5053  0.6847  2.5695
 1304SOL    HW215546   2.660   4.518   7.148 -0.4991 -0.9106 -1.1144
 1305SOL     OW15547   1.755   1.570   5.815  0.0164  0.4077 -0.2257
 1305SOL    HW115548   1.685   1.614   5.863 -0.7106  0.3134 -1.2300
 1305SOL    HW215549   1.816   1.575   5.890 -1.3025 -0.9438  0.9276
 1306SOL     OW15550   0.001   1.704   7.026  0.5898  0.2116  0.1635
 1306SOL    HW115551   4.676   1.665   6.962  0.9658 -0.0713 -0.0178
 1306SOL    HW215552   0.000   1.792   6.988  0.7724 -0.1603 -0.6907
 1307SOL     OW15553   4.500   4.668   6.644  0.0806 -0.2276 -0.0238
 1307SOL    HW115554   4.506   0.015   6.693 -0.0048 -0.0022 -0.3903
 1307SOL    HW215555   4.432   4.631   6.699 -3.0301  2.1245 -2.2493
 1308SOL     OW15556   3.825   4.072   5.750  0.4955 -0.0834  0.4205
 1308SOL    HW115557   3.784   4.158   5.742 -0.7745 -0.8842 -1.8713
 1308SOL    HW215558   3.909   4.088   5.707  0.8029 -1.0191  0.6674
 1309SOL     OW15559   2.462   4.690   9.482 -0.6664 -0.1870 -0.2948
 1309SOL    HW115560   2.376   4.671   9.444 -1.2196  0.1005  0.8049
 1309SOL    HW215561   2.452   4.675   9.576 -3.3580  4.1298  0.0766
 1310SOL     OW15562   2.975   3.969  17.310 -0.1338 -0.6346  0.4040
 1310SOL    HW115563   2.994   3.890  17.259 -4.0834 -0.8054 -0.8302
 1310SOL    HW215564   2.880   3.958  17.309 -0.2295 -0.0305  3.5711
 1311SOL     OW15565   4.554   0.774   5.787  0.2340  0.1403  0.2289
 1311SOL    HW115566   4.622   0.828   5.826 -0.6166  2.8991 -2.1701
 1311SOL    HW215567   4.481   0.830   5.813  0.2603  0.6027 -0.7080
 1312SOL     OW15568   4.019   3.357   5.525 -0.3894 -0.4352  0.4391
 1312SOL    HW115569   4.059   3.440   5.501  0.6383 -0.9924  0.2243
 1312SOL    HW215570   4.015   3.309   5.442  3.2429 -0.4936  0.2880
 1313SOL     OW15571   4.164   0.021  11.471  0.2510 -0.4545  0.4910
 1313SOL    HW115572   4.110   4.692  11.424  0.5986  0.4865 -1.2105
 1313SOL    HW215573   4.104   0.094  11.486 -2.1905 -2.3780  0.1759
 1314SOL     OW15574   0.033   0.511   2.606  0.3185  0.1321 -0.4594
 1314SOL    HW115575   4.727   0.470   2.530 -0.0982  0.6558 -0.5157
 1314SOL    HW215576   0.117   0.471   2.627  0.2660  0.3843  0.2584
 1315SOL     OW15577   4.217   1.586   3.439 -0.4281  0.4692  0.1099
 1315SOL    HW115578   4.186   1.662   3.390  0.5595  1.2609  0.7238
 1315SOL    HW215579   4.186   1.519   3.378 -1.5211  1.3827 -0.3471
 1316SOL     OW15580   2.474   4.091  16.411  0.1536 -0.0482 -0.3004
 1316SOL    HW115581   2.494   4.175  16.370  1.1654 -1.2772 -2.3204
 1316SOL    HW215582   2.380   4.081  16.395  0.0214 -0.4286  0.7020
 1317SOL     OW15583   1.097   3.771  13.959  0.2333  0.8762  0.1309
 1317SOL    HW115584   1.161   3.740  14.023  0.6634 -0.2091 -0.8292
 1317SOL    HW215585   1.147   3.756  13.878  1.7386  0.5091  1.1265
 1318SOL     OW15586   3.866   0.357   2.483  0.0892 -0.5119  0.1169
 1318SOL    HW115587   3.909   0.434   2.520  0.2703 -0.6280  0.1451
 1318SOL    HW215588   3.828   0.387   2.400  1.4435  0.4130 -0.1645
 1319SOL     OW15589   4.625   3.381   8.889  0.1607 -0.3309 -0.3016
 1319SOL    HW115590   4.612   3.474   8.871 -0.2876 -1.0438 -3.5811
 1319SOL    HW215591   4.552   3.338   8.843  0.1440 -0.5966 -0.0340
 1320SOL     OW15592   3.543   3.686  17.551  0.3212  0.3454  0.0006
 1320SOL    HW115593   3.553   3.727  17.466 -0.3856 -0.2007 -0.3507
 1320SOL    HW215594   3.618   3.628  17.563 -1.9735 -2.6517  0.1105
 1321SOL     OW15595   4.234   2.700   8.474 -0.2218 -0.0876 -0.0043
 1321SOL    HW115596   4.143   2.700   8.446 -0.1490  1.2937 -0.2158
 1321SOL    HW215597   4.256   2.607   8.478  2.0673  0.4455 -0.0848
 1322SOL     OW15598   3.739   1.652   7.104 -0.0399 -0.2234  0.1503
 1322SOL    HW115599   3.659   1.617   7.144 -0.9213  0.4286 -1.0367
 1322SOL    HW215600   3.807   1.654   7.171 -0.5234 -3.3450  0.7104
 1323SOL     OW15601   0.260   1.871  12.739  0.3827 -0.7854 -0.3158
 1323SOL    HW115602   0.165   1.878  12.730  0.6514  2.0134 -0.8480
 1323SOL    HW215603   0.267   1.776  12.728 -1.1297 -0.7561 -1.4749
 1324SOL     OW15604   4.486   1.721   5.002  0.4296 -0.1427 -0.2435
 1324SOL    HW115605   4.426   1.647   5.003  0.5528 -0.2320  1.8661
 1324SOL    HW215606   4.567   1.687   5.042 -0.1947 -0.7762  0.4803
 1325SOL     OW15607   3.013   3.817   8.177 -0.1016 -0.5120  0.2662
 1325SOL    HW115608   3.018   3.845   8.268  0.1576 -1.7939  0.6560
 1325SOL    HW215609   2.918   3.806   8.168  0.1220 -1.3535 -1.1199
 1326SOL     OW15610   2.958   3.220   1.652  0.9986  0.4814 -0.3340
 1326SOL    HW115611   2.943   3.297   1.596  1.6714 -0.1407 -1.3812
 1326SOL    HW215612   2.957   3.251   1.742 -0.2471 -1.5859  0.3544
 1327SOL     OW15613   2.060   4.046   5.473  0.0156 -0.2684 -0.4654
 1327SOL    HW115614   1.973   4.027   5.437  0.5233 -0.5761 -1.5252
 1327SOL    HW215615   2.117   3.997   5.414 -2.3853 -0.2676 -2.7699
 1328SOL     OW15616   0.667   4.007   5.315 -0.0308  0.3496  0.0426
 1328SOL    HW115617   0.651   4.096   5.346 -1.3491  0.1227  0.0476
 1328SOL    HW215618   0.582   3.965   5.328 -0.9248  2.0273 -0.4230
 1329SOL     OW15619   3.346   2.502   8.697  0.4936 -0.4226  0.4555
 1329SOL    HW115620   3.435   2.511   8.664  0.6432 -0.2941  0.9027
 1329SOL    HW215621   3.356   2.420   8.746 -2.1099 -0.7359  0.4681
 1330SOL     OW15622   4.210   4.333   9.091 -0.3057 -0.8676  0.1572
 1330SOL    HW115623   4.166   4.279   9.157  0.6301  0.6238  1.9940
 1330SOL    HW215624   4.196   4.273   9.018  1.1997 -0.7534 -0.2277
 1331SOL     OW15625   1.207   3.331   0.563  0.1988  0.1118 -0.0373
 1331SOL    HW115626   1.227   3.240   0.540  1.0048 -0.3846  2.6368
 1331SOL    HW215627   1.163   3.319   0.648 -1.4772 -2.8179 -1.3396
 1332SOL     OW15628   4.484   3.036   8.081  0.2751 -0.0639  0.3266
 1332SOL    HW115629   4.446   3.051   7.995  0.7303  0.4957  0.2231
 1332SOL    HW215630   4.488   3.125   8.116  0.4181  0.5987 -1.3931
 1333SOL     OW15631   4.240   4.414   4.816 -0.5579  0.4113  0.2439
 1333SOL    HW115632   4.302   4.483   4.795  0.4390 -0.4725  0.3169
 1333SOL    HW215633   4.283   4.331   4.795  0.9546  1.4839 -0.8212
 1334SOL     OW15634   4.357   4.063   4.890  0.2267 -0.2237  0.2594
 1334SOL    HW115635   4.402   4.136   4.847 -0.1541  1.4582  2.6973
 1334SOL    HW215636   4.423   4.033   4.953  2.3092  2.6401 -0.5070
 1335SOL     OW15637   4.710   3.352  17.556  0.1962  0.3274 -0.0132
 1335SOL    HW115638   4.652   3.426  17.539  0.8184  1.1754  1.5225
 1335SOL    HW215639   0.055   3.371  17.507 -0.4992  2.5990 -0.2441
 1336SOL     OW15640   3.781   0.387  10.356  0.1457  0.9299  0.2211
 1336SOL    HW115641   3.852   0.407  10.417  1.1952 -2.1956  0.0175
 1336SOL    HW215642   3.819   0.336  10.284 -3.3919 -1.6114  0.1013
 1337SOL     OW15643   3.434   1.965   5.116 -0.1302 -0.6905  0.6643
 1337SOL    HW115644   3.342   1.969   5.090 -0.1016 -2.4780  0.3372
 1337SOL    HW215645   3.478   1.997   5.037  1.9274 -1.4437  1.5002
 1338SOL     OW15646   2.154   0.328  16.657 -0.0085  0.1280 -0.5530
 1338SOL    HW115647   2.173   0.354  16.747  0.6135  0.4034 -0.7610
 1338SOL    HW215648   2.187   0.409  16.618 -0.0289  1.8526  2.9791
 1339SOL     OW15649   2.280   4.266   3.541 -0.0164  0.3996  0.3663
 1339SOL    HW115650   2.216   4.208   3.499 -0.8547  0.6263  1.3452
 1339SOL    HW215651   2.228   4.344   3.560  0.1724  0.6797 -0.2591
 1340SOL     OW15652   2.781   0.604  11.720 -0.5202  0.0196  0.1763
 1340SOL    HW115653   2.703   0.553  11.742  0.1146 -0.5777  1.0413
 1340SOL    HW215654   2.832   0.554  11.657  0.8622  3.2444 -1.2738
 1341SOL     OW15655   1.647   1.999   7.464 -0.0517 -0.0933  0.5932
 1341SOL    HW115656   1.732   2.020   7.425 -0.2623  0.8599  0.6502
 1341SOL    HW215657   1.594   1.971   7.390 -0.9543 -1.5568  1.8023
 1342SOL     OW15658   0.663   2.526  13.253 -0.2995  0.4584  0.5189
 1342SOL    HW115659   0.694   2.594  13.313  1.5581 -1.0945  1.3082
 1342SOL    HW215660   0.717   2.544  13.177 -0.7927  0.7498  0.2327
 1343SOL     OW15661   2.709   4.637   6.409 -0.0425 -0.6780  0.5772
 1343SOL    HW115662   2.736   4.599   6.325 -0.0074 -0.6517  0.5767
 1343SOL    HW215663   2.646   4.568   6.428  1.0065 -1.5203  1.0291
 1344SOL     OW15664   3.040   0.006   2.636 -0.0281  0.2365 -0.1573
 1344SOL    HW115665   3.114   4.697   2.594 -0.9889 -0.0277 -1.5570
 1344SOL    HW215666   3.065   0.097   2.619  0.7332 -0.0654 -0.6486
 1345SOL     OW15667   1.675   3.532   1.994  0.3630  0.3468 -0.1594
 1345SOL    HW115668   1.608   3.599   1.978 -0.4242  0.0834  1.9898
 1345SOL    HW215669   1.650   3.507   2.083  1.3723  0.1699  0.0674
 1346SOL     OW15670   1.385   2.883   6.353 -0.0974  0.0457  0.6038
 1346SOL    HW115671   1.480   2.883   6.363 -0.1553  0.4151  1.1336
 1346SOL    HW215672   1.351   2.807   6.399 -1.6452 -0.0010 -0.5947
 1347SOL     OW15673   3.786   4.043   8.321  0.0830 -0.5001  0.0428
 1347SOL    HW115674   3.716   4.102   8.348 -0.1098 -0.4288 -0.6003
 1347SOL    HW215675   3.817   4.086   8.241 -3.8031  1.3632 -0.4783
 1348SOL     OW15676   4.003   3.448   2.936  0.1204  0.6269  0.7259
 1348SOL    HW115677   4.054   3.474   3.013 -2.7784  0.6636  2.6198
 1348SOL    HW215678   4.022   3.355   2.927 -2.1160  0.3123 -0.7029
 1349SOL     OW15679   1.883   1.759   1.744 -0.0939  0.1537 -0.1410
 1349SOL    HW115680   1.805   1.784   1.694 -0.7689  0.3112  0.9934
 1349SOL    HW215681   1.956   1.733   1.687 -0.4884  1.3295 -1.1770
 1350SOL     OW15682   0.230   4.476  13.287  0.1424 -0.2822 -0.1714
 1350SOL    HW115683   0.260   4.564  13.308  2.1615 -0.8718 -0.6679
 1350SOL    HW215684   0.138   4.493  13.267  0.5278  0.8840 -0.9467
 1351SOL     OW15685   1.725   4.109   7.314  0.2243 -0.5652  0.4856
 1351SOL    HW115686   1.721   4.113   7.219 -3.3536 -0.1645  0.6608
 1351SOL    HW215687   1.757   4.196   7.338  0.1020  0.2013 -2.1101
 1352SOL     OW15688   1.700   1.882   0.983  0.2212 -0.2010  0.0787
 1352SOL    HW115689   1.626   1.843   0.936 -1.7054  2.5355  0.8173
 1352SOL    HW215690   1.760   1.889   0.909  0.9478  0.5594  0.7432
 1353SOL     OW15691   3.177   3.787  10.939 -0.7625  0.0513 -0.5164
 1353SOL    HW115692   3.208   3.703  10.972 -2.7780  0.1502  1.6004
 1353SOL    HW215693   3.243   3.850  10.965  1.6328 -2.5354 -0.4026
 1354SOL     OW15694   3.632   1.329   9.424 -0.3755 -0.0976  0.0562
 1354SOL    HW115695   3.596   1.241   9.429 -1.1107  0.2283  0.6021
 1354SOL    HW215696   3.723   1.308   9.440 -0.2289  0.3427 -0.1810
 1355SOL     OW15697   0.388   2.982   9.348 -0.0484 -0.4121  0.2619
 1355SOL    HW115698   0.361   3.030   9.270 -1.3756  0.6039  1.3472
 1355SOL    HW215699   0.316   2.921   9.364 -0.2590 -0.6184 -1.5357
 1356SOL     OW15700   2.012   1.257   9.847  0.4951 -0.4630 -0.0124
 1356SOL    HW115701   1.962   1.187   9.888  1.5532 -1.4885 -0.4489
 1356SOL    HW215702   1.946   1.326   9.847  0.9660 -0.0186 -0.7567
 1357SOL     OW15703   0.980   3.047  14.755 -0.5414 -0.2320 -0.1379
 1357SOL    HW115704   0.947   3.123  14.804  1.9527 -0.4350  1.8233
 1357SOL    HW215705   1.011   2.987  14.823 -0.2675  0.2945  0.2057
 1358SOL     OW15706   3.225   1.996  13.307 -0.2587  0.7867 -0.4387
 1358SOL    HW115707   3.309   1.955  13.289  0.1201  0.5817  1.7541
 1358SOL    HW215708   3.169   1.943  13.251  1.3135  1.1151 -2.3021
 1359SOL     OW15709   4.000   2.492   6.109 -1.2135 -0.3165 -0.0177
 1359SOL    HW115710   3.963   2.493   6.020 -0.6535  0.3615 -0.2401
 1359SOL    HW215711   4.005   2.398   6.127 -1.6745 -0.6581 -1.5921
 1360SOL     OW15712   2.988   4.491   5.488 -0.2641  0.2114  0.1185
 1360SOL    HW115713   3.008   4.557   5.421  0.6594 -0.3046 -0.1214
 1360SOL    HW215714   2.893   4.500   5.483 -0.6973 -3.8550  1.7295
 1361SOL     OW15715   2.153   2.728   2.562 -0.5479  0.2220  0.5137
 1361SOL    HW115716   2.232   2.713   2.509 -2.4525 -0.9497 -2.0019
 1361SOL    HW215717   2.178   2.793   2.627  3.1788 -0.2349 -0.4347
 1362SOL     OW15718   0.649   4.472   3.922 -0.1583 -0.2426  0.5948
 1362SOL    HW115719   0.697   4.481   3.839 -1.4393  2.0364  0.1016
 1362SOL    HW215720   0.701   4.398   3.954  0.4674  0.0240  0.2049
 1363SOL     OW15721   0.572   4.380  12.107 -0.0269 -0.2171 -0.1052
 1363SOL    HW115722   0.582   4.351  12.016  1.0630  0.0689 -0.0746
 1363SOL    HW215723   0.659   4.405  12.139 -0.1118 -1.2617  0.9378
 1364SOL     OW15724   1.067   0.075   5.847 -0.5770  0.0684 -0.6408
 1364SOL    HW115725   1.012   0.105   5.775 -0.8660 -0.3897 -0.6071
 1364SOL    HW215726   1.010   0.016   5.897  0.2432 -1.6398 -1.7157
 1365SOL     OW15727   3.878   3.560   0.517 -0.0866  0.0207  0.5978
 1365SOL    HW115728   3.847   3.625   0.580  4.2793  2.3763  0.3398
 1365SOL    HW215729   3.963   3.602   0.504  0.0464 -0.6267 -0.6208
 1366SOL     OW15730   4.621   3.994   2.457  0.2735  0.0453 -0.0285
 1366SOL    HW115731   4.560   4.046   2.509  2.3260  0.7669  1.6757
 1366SOL    HW215732   4.621   4.038   2.372  0.2016 -1.1897 -0.6763
 1367SOL     OW15733   3.361   2.236   8.274 -0.0408  0.3469  0.6093
 1367SOL    HW115734   3.401   2.184   8.343 -0.1446  0.2968  0.6320
 1367SOL    HW215735   3.421   2.308   8.255 -2.3511  2.2989  0.6427
 1368SOL     OW15736   4.518   2.572   5.749  0.2300  0.2550  0.0172
 1368SOL    HW115737   4.515   2.619   5.666 -0.5490 -0.6721 -0.4858
 1368SOL    HW215738   4.473   2.637   5.803 -2.0487 -0.8790 -0.4762
 1369SOL     OW15739   1.291   0.747  14.530  0.5306 -0.7285 -0.1098
 1369SOL    HW115740   1.370   0.796  14.506 -1.0082  1.8337 -0.0175
 1369SOL    HW215741   1.257   0.730  14.442  0.7371 -0.0040 -0.3311
 1370SOL     OW15742   4.727   2.337   8.023 -0.0066 -0.1286 -0.0973
 1370SOL    HW115743   0.022   2.394   7.953 -1.7883  2.1910  1.0088
 1370SOL    HW215744   4.673   2.401   8.070 -0.5278 -0.2639 -0.5206
 1371SOL     OW15745   0.527   2.289  10.695  0.4038  0.8199  0.1390
 1371SOL    HW115746   0.501   2.313  10.784  0.7763 -0.7264  0.6558
 1371SOL    HW215747   0.440   2.290  10.656  0.2935  1.7101  0.3981
 1372SOL     OW15748   2.256   0.289   1.222  0.9175  0.0954  0.4057
 1372SOL    HW115749   2.250   0.333   1.307  0.4617  1.1595 -0.1756
 1372SOL    HW215750   2.335   0.330   1.188  0.0304  0.6534 -1.0014
 1373SOL     OW15751   3.415   2.455   2.238  0.4031 -0.0669  0.1584
 1373SOL    HW115752   3.371   2.501   2.167 -0.4049 -0.6200  0.2956
 1373SOL    HW215753   3.505   2.434   2.214  0.1985 -0.7673  0.0031
 1374SOL     OW15754   3.938   4.579   1.239  0.6663  0.4053  0.0709
 1374SOL    HW115755   4.032   4.577   1.224  0.6698  0.1875  0.1282
 1374SOL    HW215756   3.925   4.508   1.301 -0.4385 -0.4462 -1.1228
 1375SOL     OW15757   2.595   1.778  17.175 -0.4708  0.0138 -0.4038
 1375SOL    HW115758   2.508   1.817  17.173 -1.2829 -1.7532  0.3602
 1375SOL    HW215759   2.625   1.829  17.100 -0.5498  1.1163  0.3158
 1376SOL     OW15760   2.075   4.464   7.239  0.8157  0.2570  0.2078
 1376SOL    HW115761   2.009   4.419   7.187  0.4100 -2.8444  3.4377
 1376SOL    HW215762   2.094   4.543   7.188  1.2535  1.0999  1.6570
 1377SOL     OW15763   0.960   4.428   4.754 -0.0525 -0.3479  0.0104
 1377SOL    HW115764   0.919   4.397   4.673 -1.5881  0.3218  0.5454
 1377SOL    HW215765   1.027   4.359   4.752  0.6560  0.3444 -0.1502
 1378SOL     OW15766   2.972   4.156  12.409 -0.5230 -0.2468  0.2204
 1378SOL    HW115767   2.947   4.240  12.373  0.8430  0.5001  1.0106
 1378SOL    HW215768   2.910   4.097  12.366  1.3294 -1.9065 -0.1971
 1379SOL     OW15769   2.667   2.753   2.163  0.3633  1.0282  0.4015
 1379SOL    HW115770   2.589   2.799   2.131  0.1310  0.4096  0.0866
 1379SOL    HW215771   2.738   2.795   2.115 -0.6145  0.5231 -1.4652
 1380SOL     OW15772   3.844   0.555   2.074 -0.0942  0.0153 -0.3641
 1380SOL    HW115773   3.848   0.621   2.143 -0.3396  3.0924 -3.2752
 1380SOL    HW215774   3.816   0.624   2.014  0.2633 -0.1095 -0.6732
 1381SOL     OW15775   2.387   4.153  11.046  0.2489  0.2803  0.0773
 1381SOL    HW115776   2.292   4.163  11.050 -0.0611 -2.6587  0.1856
 1381SOL    HW215777   2.418   4.222  10.988  0.6399  0.1600  0.1394
 1382SOL     OW15778   1.422   1.216  13.908 -0.2334 -0.3049  1.0734
 1382SOL    HW115779   1.382   1.286  13.959 -1.6601 -1.2619  1.2561
 1382SOL    HW215780   1.485   1.171  13.964  0.3889  0.1473  0.7324
 1383SOL     OW15781   3.436   4.280  12.692  0.0722  0.5431  0.7465
 1383SOL    HW115782   3.398   4.192  12.688 -0.0957  0.7483 -1.9976
 1383SOL    HW215783   3.438   4.304  12.600  1.9409 -2.6414 -0.0662
 1384SOL     OW15784   4.144   1.447   3.177  0.7430 -0.2628  0.5610
 1384SOL    HW115785   4.131   1.482   3.089 -0.9152  1.2552  1.4081
 1384SOL    HW215786   4.058   1.406   3.185  1.0428 -0.9496  0.2986
 1385SOL     OW15787   2.094   1.702   7.054  0.1384  0.2492  0.1647
 1385SOL    HW115788   2.060   1.616   7.076 -0.9667  0.7963  0.5752
 1385SOL    HW215789   2.049   1.751   7.122 -2.2456 -0.7099 -0.7234
 1386SOL     OW15790   0.493   4.276   0.293 -0.0163 -0.2956 -0.5745
 1386SOL    HW115791   0.502   4.356   0.345  0.6260  0.4434 -1.8138
 1386SOL    HW215792   0.414   4.239   0.332 -0.6670  0.8907 -0.7548
 1387SOL     OW15793   3.054   1.335  12.190  0.4092 -0.3441  0.3804
 1387SOL    HW115794   3.075   1.277  12.117 -2.5345 -0.7808 -0.1185
 1387SOL    HW215795   3.127   1.309  12.247  2.0125  1.0267 -1.0173
 1388SOL     OW15796   3.102   1.476   5.224  0.0642  0.2554 -0.2690
 1388SOL    HW115797   3.119   1.507   5.313 -2.0746  2.4014 -0.5869
 1388SOL    HW215798   3.014   1.440   5.236 -0.0345  0.9431  1.0477
 1389SOL     OW15799   0.468   2.236   5.505  0.5406 -0.5158  1.0012
 1389SOL    HW115800   0.416   2.240   5.585 -0.1002 -2.1120  0.6783
 1389SOL    HW215801   0.473   2.330   5.491  1.9580 -0.8529 -0.7624
 1390SOL     OW15802   2.388   2.454   2.757 -0.4447  0.0597 -0.1828
 1390SOL    HW115803   2.409   2.439   2.849 -0.8305  1.1113  0.0751
 1390SOL    HW215804   2.294   2.471   2.751 -0.2704  1.4900  1.0461
 1391SOL     OW15805   4.531   3.711  11.766  0.0461 -0.0028 -0.2081
 1391SOL    HW115806   4.517   3.649  11.695  0.9432  1.7568 -1.9337
 1391SOL    HW215807   4.557   3.650  11.835 -0.3252  0.8424  0.6965
 1392SOL     OW15808   1.451   3.522   8.835  0.5276  0.7598  0.5356
 1392SOL    HW115809   1.539   3.485   8.827 -0.4074 -0.9080 -2.0332
 1392SOL    HW215810   1.473   3.602   8.882 -0.8549  2.4787 -1.7417
 1393SOL     OW15811   2.132   0.394   2.362  0.4173 -0.0065 -0.0872
 1393SOL    HW115812   2.197   0.378   2.431  1.3300 -0.6669 -1.0980
 1393SOL    HW215813   2.150   0.326   2.297 -0.6167  0.1613 -0.5470
 1394SOL     OW15814   2.393   2.915   4.141  0.6293 -0.3463  0.2882
 1394SOL    HW115815   2.325   2.908   4.074  0.9471 -2.6392  0.2157
 1394SOL    HW215816   2.372   2.836   4.190  0.7327 -0.0755  0.7650
 1395SOL     OW15817   3.139   1.367  17.525  0.3272 -0.1694  0.4360
 1395SOL    HW115818   3.195   1.299  17.562 -1.1809 -1.9045 -0.4251
 1395SOL    HW215819   3.089   1.312  17.464 -1.2225  0.2322  1.3354
 1396SOL     OW15820   0.709   4.154   8.654 -0.0319 -0.5429  0.4741
 1396SOL    HW115821   0.719   4.199   8.737 -0.5194 -0.5892  0.5617
 1396SOL    HW215822   0.782   4.093   8.667 -1.2211 -2.0582  0.1801
 1397SOL     OW15823   0.735   2.115   2.785 -0.9210 -0.2195 -0.0967
 1397SOL    HW115824   0.643   2.124   2.810 -1.1840  2.1274 -2.0093
 1397SOL    HW215825   0.737   2.042   2.724 -0.4586  1.6123 -2.2520
 1398SOL     OW15826   0.654   4.060   2.547  0.1708  0.2883  0.2498
 1398SOL    HW115827   0.575   4.028   2.591  1.6894 -1.8015  1.4876
 1398SOL    HW215828   0.609   4.116   2.484  0.0083 -0.9540 -0.7453
 1399SOL     OW15829   1.906   2.328   5.358 -0.3002  0.3689  0.1534
 1399SOL    HW115830   1.940   2.380   5.431 -0.2027 -1.9991  1.8126
 1399SOL    HW215831   1.923   2.380   5.279  2.1232  0.4608  0.7301
 1400SOL     OW15832   2.311   0.645   1.745 -0.5292  0.5924 -0.1595
 1400SOL    HW115833   2.219   0.617   1.737  0.2000 -2.1023  0.8928
 1400SOL    HW215834   2.350   0.622   1.661 -0.0681 -0.2033  0.2645
 1401SOL     OW15835   1.110   4.373   7.722  0.2360  0.0839  0.0514
 1401SOL    HW115836   1.021   4.339   7.727  0.6007 -1.3104 -2.8633
 1401SOL    HW215837   1.159   4.292   7.739 -0.8735 -0.5981  0.0036
 1402SOL     OW15838   1.826   1.133   8.355  0.0927  0.4593 -0.0467
 1402SOL    HW115839   1.861   1.160   8.440  0.8879  1.3588 -0.6613
 1402SOL    HW215840   1.787   1.217   8.333 -0.9501  0.4225  1.7536
 1403SOL     OW15841   3.827   2.100   0.355  0.1811  0.5510 -0.1635
 1403SOL    HW115842   3.767   2.026   0.344 -0.1366  0.5360  1.7170
 1403SOL    HW215843   3.912   2.074   0.319  0.9711  0.8516  1.4912
 1404SOL     OW15844   3.705   4.471   2.016 -0.2178 -0.1365  0.5393
 1404SOL    HW115845   3.730   4.444   2.105 -1.4883  0.1322  0.9759
 1404SOL    HW215846   3.613   4.449   2.003 -1.0668  2.8869  1.4456
 1405SOL     OW15847   1.246   4.554   5.056  0.1997 -0.5120  0.2797
 1405SOL    HW115848   1.252   4.485   4.990  0.3265  0.8269 -1.1040
 1405SOL    HW215849   1.222   4.506   5.135  0.4968 -2.2459 -0.6661
 1406SOL     OW15850   1.959   1.695   8.623  0.2605  0.2356 -0.2435
 1406SOL    HW115851   1.984   1.704   8.715 -0.2780  0.8348 -0.1533
 1406SOL    HW215852   1.940   1.602   8.619 -0.6841  0.4224 -0.1017
 1407SOL     OW15853   1.440   2.982   7.288 -0.1250 -0.5801  0.0238
 1407SOL    HW115854   1.509   2.932   7.332 -1.4849 -2.5091 -0.0309
 1407SOL    HW215855   1.424   3.062   7.337  3.4829 -0.5339  1.1392
 1408SOL     OW15856   4.628   4.106   1.732 -1.0196  0.3399  0.3189
 1408SOL    HW115857   4.700   4.088   1.672 -1.4023  1.3003 -0.4269
 1408SOL    HW215858   4.664   4.184   1.775 -0.5195  1.4360 -2.1041
 1409SOL     OW15859   0.555   0.841   7.194  0.4012  0.1509 -0.2915
 1409SOL    HW115860   0.587   0.834   7.103  1.7372 -1.7170  0.3148
 1409SOL    HW215861   0.627   0.884   7.241  0.9803 -0.0366 -1.0021
 1410SOL     OW15862   3.354   0.268   9.582 -0.1294  0.7825 -0.4749
 1410SOL    HW115863   3.281   0.329   9.580  0.7307  1.7994 -1.0500
 1410SOL    HW215864   3.422   0.310   9.530 -0.3236  0.9455 -0.5972
 1411SOL     OW15865   3.445   4.416   4.733  0.6519  0.3340 -0.5817
 1411SOL    HW115866   3.451   4.326   4.700 -0.5795  0.7827 -2.0267
 1411SOL    HW215867   3.526   4.456   4.703  0.3137  0.0639 -1.8413
 1412SOL     OW15868   4.526   2.728  16.128  0.4907 -0.2283 -0.0083
 1412SOL    HW115869   4.508   2.693  16.041  0.4307 -1.7259  0.6155
 1412SOL    HW215870   4.439   2.714  16.165  0.0968 -0.0602 -0.8767
 1413SOL     OW15871   3.334   1.184  12.174 -0.0062  1.0871  0.6556
 1413SOL    HW115872   3.309   1.149  12.089  0.8056  0.0023  0.8663
 1413SOL    HW215873   3.319   1.276  12.154  0.8238  0.5207 -2.5325
 1414SOL     OW15874   2.645   2.383   2.341  0.3804 -0.6927 -0.0386
 1414SOL    HW115875   2.661   2.289   2.337  0.6757 -0.6765  0.9677
 1414SOL    HW215876   2.553   2.373   2.364 -0.1544 -0.1623 -1.8793
 1415SOL     OW15877   3.920   1.429  10.293 -0.0152 -0.7390  0.0254
 1415SOL    HW115878   3.994   1.453  10.239  0.0273 -1.2079 -0.1260
 1415SOL    HW215879   3.851   1.425  10.227  0.5600 -2.4310 -0.4715
 1416SOL     OW15880   2.819   4.702  17.078 -0.1785 -0.8890 -0.4221
 1416SOL    HW115881   2.752   0.025  17.114 -0.3513  0.0235 -2.2176
 1416SOL    HW215882   2.864   4.679  17.160 -0.2476 -0.4946 -0.2746
 1417SOL     OW15883   2.261   2.313   8.770 -0.0298  0.0753 -0.1454
 1417SOL    HW115884   2.212   2.382   8.725 -1.3160 -1.9777 -1.8875
 1417SOL    HW215885   2.189   2.262   8.806 -1.6707  1.9092 -0.8401
 1418SOL     OW15886   2.320   0.005   3.021  0.3783 -0.0759 -0.2043
 1418SOL    HW115887   2.309   4.675   2.952  0.2365 -0.3821  0.1114
 1418SOL    HW215888   2.375   0.068   2.974 -1.1612  1.8630  0.5750
 1419SOL     OW15889   3.215   1.598   7.868  0.1303 -0.0787 -0.1046
 1419SOL    HW115890   3.143   1.554   7.913 -0.5355 -0.7379 -1.8246
 1419SOL    HW215891   3.274   1.604   7.943 -2.2761  0.7909  1.7143
 1420SOL     OW15892   3.192   0.006   9.595  0.5386 -0.3624 -0.9860
 1420SOL    HW115893   3.286   0.012   9.578  1.1010  0.5060  2.4726
 1420SOL    HW215894   3.152   0.051   9.521 -1.7257 -0.4095  0.1902
 1421SOL     OW15895   3.442   2.615   4.878  0.2578 -0.5468 -0.2003
 1421SOL    HW115896   3.519   2.559   4.888  1.2631  1.0105  0.8143
 1421SOL    HW215897   3.430   2.663   4.960  0.4995 -0.3714 -0.2685
 1422SOL     OW15898   0.981   2.798   9.840 -0.2398  0.3643 -0.9836
 1422SOL    HW115899   0.961   2.759   9.926  1.3560  0.2535 -0.6608
 1422SOL    HW215900   0.901   2.796   9.788 -1.1169  0.7602  0.3578
 1423SOL     OW15901   2.980   2.491  14.487 -0.1887  0.1571  1.0111
 1423SOL    HW115902   2.978   2.409  14.537 -0.7059 -0.6811 -0.3929
 1423SOL    HW215903   3.023   2.467  14.405 -1.2162 -3.6834  1.6065
 1424SOL     OW15904   2.707   4.371   8.612 -0.5235 -0.8774 -0.2473
 1424SOL    HW115905   2.750   4.322   8.682 -1.7554 -1.9037 -0.1993
 1424SOL    HW215906   2.683   4.446   8.666  1.4383  1.4221 -2.6035
 1425SOL     OW15907   1.867   2.322   9.583 -0.4312  0.3755 -0.2494
 1425SOL    HW115908   1.780   2.287   9.565  0.1639 -0.3931 -1.7176
 1425SOL    HW215909   1.861   2.406   9.537 -0.5106  1.3821  1.6001
 1426SOL     OW15910   1.108   3.514   5.854 -0.2603 -0.2008  0.3759
 1426SOL    HW115911   1.118   3.546   5.944  0.2755  0.4733  0.0726
 1426SOL    HW215912   1.063   3.580   5.802  0.4939  1.4735  1.8645
 1427SOL     OW15913   2.000   1.272   5.290 -0.4062 -0.3277 -0.2470
 1427SOL    HW115914   1.974   1.344   5.232 -1.9986 -0.6214  0.1227
 1427SOL    HW215915   2.010   1.203   5.224  1.6531  2.1723 -2.5669
 1428SOL     OW15916   2.457   0.333   8.475  0.0257  0.7693 -0.2274
 1428SOL    HW115917   2.471   0.238   8.480  1.6206  0.9797 -0.8019
 1428SOL    HW215918   2.455   0.354   8.381  4.5065 -2.2422 -1.0085
 1429SOL     OW15919   2.720   2.868   8.562  0.3843  0.5378 -0.0355
 1429SOL    HW115920   2.653   2.863   8.494 -0.9252  4.0718  0.9818
 1429SOL    HW215921   2.735   2.775   8.577 -0.4414  0.2543 -0.9917
 1430SOL     OW15922   2.719   0.614   4.925  0.0930  0.7502 -0.0834
 1430SOL    HW115923   2.694   0.648   5.011 -0.9943 -1.3550  0.4182
 1430SOL    HW215924   2.787   0.679   4.908  0.5018  0.7315  1.4761
 1431SOL     OW15925   0.036   3.123   5.246 -0.0984  0.0345 -0.0788
 1431SOL    HW115926   0.069   3.034   5.237  0.8441  0.4245 -0.3958
 1431SOL    HW215927   4.688   3.120   5.198  0.9595 -0.5840 -1.8459
 1432SOL     OW15928   3.998   3.962   3.764  0.6799 -0.3484  0.3865
 1432SOL    HW115929   3.903   3.969   3.750  0.9914  1.0978 -1.0827
 1432SOL    HW215930   4.013   4.035   3.823 -1.1955  0.5726 -0.2530
 1433SOL     OW15931   3.331   1.177   4.787  0.0124 -0.0942  0.1900
 1433SOL    HW115932   3.419   1.182   4.824  0.3890 -1.6703 -0.5172
 1433SOL    HW215933   3.297   1.088   4.789  0.3828 -0.1929  2.4074
 1434SOL     OW15934   1.080   3.067   2.560 -0.5768  0.7452 -0.4153
 1434SOL    HW115935   0.984   3.072   2.567 -0.7591 -1.4531 -1.3263
 1434SOL    HW215936   1.084   3.012   2.482 -0.0484  0.1059  0.0638
 1435SOL     OW15937   3.111   2.421   6.247 -0.0534 -0.0577  0.5422
 1435SOL    HW115938   3.194   2.441   6.292  0.7118  1.8499 -1.7042
 1435SOL    HW215939   3.080   2.345   6.295 -1.4795  0.3187  0.1981
 1436SOL     OW15940   2.955   0.353   7.238  0.0608 -0.1954  0.2750
 1436SOL    HW115941   2.903   0.335   7.316 -0.1947 -0.1240  0.1174
 1436SOL    HW215942   3.039   0.377   7.277  0.7439 -1.6459 -0.3019
 1437SOL     OW15943   3.272   4.272   5.846 -0.3196  0.2894  0.2013
 1437SOL    HW115944   3.177   4.273   5.854 -0.3400 -1.3597 -0.0029
 1437SOL    HW215945   3.284   4.299   5.755 -2.2989  0.1748 -0.0814
 1438SOL     OW15946   2.624   0.115   1.627  0.5392 -0.2701  0.1369
 1438SOL    HW115947   2.700   0.172   1.629  0.0423  0.4050 -0.3654
 1438SOL    HW215948   2.664   0.028   1.627 -3.1864 -1.9987  0.3106
 1439SOL     OW15949   0.622   1.968   0.427  0.1791 -0.7904  0.0456
 1439SOL    HW115950   0.702   2.019   0.431 -0.2124  0.0765 -2.7718
 1439SOL    HW215951   0.643   1.896   0.367  0.1208 -0.4680 -0.3639
 1440SOL     OW15952   1.798   1.500  12.361  0.0193  0.4104 -0.3972
 1440SOL    HW115953   1.890   1.476  12.375  0.0037 -0.2142 -1.3779
 1440SOL    HW215954   1.748   1.433  12.408 -1.6124  1.6657 -0.3340
 1441SOL     OW15955   0.789   0.798   6.205  0.3251 -0.1456  0.3725
 1441SOL    HW115956   0.819   0.730   6.145 -0.8735  0.5069 -0.9596
 1441SOL    HW215957   0.843   0.781   6.282 -1.9375 -0.5793  1.8474
 1442SOL     OW15958   1.695   1.835   9.985 -0.0493  0.3990  0.1957
 1442SOL    HW115959   1.633   1.769  10.015 -1.0256  1.2822  0.1276
 1442SOL    HW215960   1.772   1.823  10.042 -1.0165 -0.7785  1.2586
 1443SOL     OW15961   4.658   4.178   4.274 -0.2231 -0.1585  0.2231
 1443SOL    HW115962   4.715   4.243   4.233 -0.4735 -0.4210 -0.5372
 1443SOL    HW215963   4.709   4.098   4.275  1.0014  0.6391  2.8883
 1444SOL     OW15964   0.353   0.413   3.623 -0.9055 -0.0927 -0.3981
 1444SOL    HW115965   0.404   0.456   3.554  0.0611  1.0849  1.0465
 1444SOL    HW215966   0.359   0.478   3.693 -1.8797 -0.3763 -0.0512
 1445SOL     OW15967   0.648   4.280   4.660 -0.0476  0.5240 -0.1537
 1445SOL    HW115968   0.726   4.307   4.612  0.4387  1.2597  1.0296
 1445SOL    HW215969   0.608   4.363   4.688 -0.5250 -0.1824  1.2846
 1446SOL     OW15970   1.924   4.091   2.671  0.1113  0.4618 -0.4375
 1446SOL    HW115971   1.933   4.186   2.673 -2.1739  0.6792 -0.9862
 1446SOL    HW215972   1.895   4.075   2.760  0.4734 -1.0532 -0.5870
 1447SOL     OW15973   4.672   1.236   4.342 -0.2769  0.0219  0.0577
 1447SOL    HW115974   0.031   1.245   4.350 -0.2064  0.6659 -1.6191
 1447SOL    HW215975   4.654   1.226   4.436 -0.6066 -0.4663 -0.0521
 1448SOL     OW15976   4.615   1.953   7.427 -0.3683 -0.1261 -0.6853
 1448SOL    HW115977   4.649   1.955   7.517  2.2940 -0.5360 -1.6643
 1448SOL    HW215978   4.539   1.896   7.434  1.7734 -3.0083 -0.9941
 1449SOL     OW15979   1.211   1.371  13.189 -0.4432 -0.9953 -0.3467
 1449SOL    HW115980   1.149   1.436  13.222  0.4220 -0.2015 -0.2847
 1449SOL    HW215981   1.281   1.418  13.143 -1.6976  1.6924  0.4995
 1450SOL     OW15982   3.948   2.516  11.109 -0.4059 -0.3989  0.1080
 1450SOL    HW115983   4.032   2.562  11.107  0.1610 -1.3972  0.8001
 1450SOL    HW215984   3.899   2.545  11.033 -0.9602 -0.7476  0.3354
 1451SOL     OW15985   1.088   1.149  13.063  0.1345 -0.8437 -0.1413
 1451SOL    HW115986   1.052   1.115  13.145  1.1340 -0.6838  0.3601
 1451SOL    HW215987   1.129   1.229  13.096  1.2570 -1.5233  0.1282
 1452SOL     OW15988   0.993   0.402   4.061  0.1258 -0.0951  0.4862
 1452SOL    HW115989   0.963   0.323   4.015  1.4646 -1.3108  1.6856
 1452SOL    HW215990   0.915   0.452   4.038  1.2183  0.2440 -2.4333
 1453SOL     OW15991   2.462   2.275   9.372 -0.3862  0.0732  0.4575
 1453SOL    HW115992   2.530   2.209   9.362 -1.7750 -1.2248 -0.4914
 1453SOL    HW215993   2.402   2.250   9.301  0.6374  0.2163 -0.4540
 1454SOL     OW15994   2.157   4.709  16.864 -0.3418 -0.0877 -0.0737
 1454SOL    HW115995   2.176   4.624  16.822  0.7913  1.4162 -2.6275
 1454SOL    HW215996   2.102   0.013  16.796  0.0907 -0.3620 -0.5852
 1455SOL     OW15997   3.676   0.562   5.944 -0.0445  0.4139  0.5825
 1455SOL    HW115998   3.745   0.507   5.909 -1.7108 -1.4578  0.2221
 1455SOL    HW215999   3.722   0.599   6.020  0.1639  1.6021 -0.1289
 1456SOL     OW16000   1.317   3.251  10.477  0.2731  0.3605  0.4162
 1456SOL    HW116001   1.251   3.301  10.429  0.9641  0.1532 -0.7610
 1456SOL    HW216002   1.397   3.299  10.454 -1.3650  2.6050 -0.5580
 1457SOL     OW16003   1.330   1.353   3.204 -0.2384 -0.1345 -0.0552
 1457SOL    HW116004   1.328   1.362   3.299 -1.1166 -1.6988  0.0732
 1457SOL    HW216005   1.246   1.308   3.195 -0.6937  0.6847  0.1206
 1458SOL     OW16006   2.846   2.010   3.845  0.0641  0.5712 -0.3238
 1458SOL    HW116007   2.939   1.988   3.849 -0.1525 -0.0787  1.0147
 1458SOL    HW216008   2.820   1.967   3.764 -0.4896 -0.5872  0.4658
 1459SOL     OW16009   3.758   0.449   4.668 -0.1789  0.2451  0.0243
 1459SOL    HW116010   3.682   0.400   4.638 -1.8737  1.8296  1.6458
 1459SOL    HW216011   3.795   0.382   4.725 -0.1565  1.9189  1.9980
 1460SOL     OW16012   1.304   2.271  16.184  0.1535  0.0861  0.3472
 1460SOL    HW116013   1.332   2.361  16.201  2.6799 -0.4784 -0.8541
 1460SOL    HW216014   1.255   2.270  16.102  1.0353  0.9451 -0.1897
 1461SOL     OW16015   3.389   2.888  11.873 -0.3817 -0.3333  0.4152
 1461SOL    HW116016   3.425   2.804  11.903  1.0555  0.2780  0.3860
 1461SOL    HW216017   3.440   2.917  11.798  1.0232  1.2470  1.9889
 1462SOL     OW16018   4.553   1.218   8.163  0.1342  0.3875  0.0129
 1462SOL    HW116019   4.471   1.175   8.187  0.2733 -0.3313 -0.7986
 1462SOL    HW216020   4.586   1.245   8.249 -0.3336 -1.8084  0.8904
 1463SOL     OW16021   0.552   0.459   1.421  0.8543  0.7956 -0.2356
 1463SOL    HW116022   0.572   0.433   1.511  0.3843 -0.4405 -0.4866
 1463SOL    HW216023   0.554   0.381   1.365 -0.0564  1.0643 -0.6381
 1464SOL     OW16024   1.359   4.334   8.989 -0.0013 -0.2262 -0.0395
 1464SOL    HW116025   1.292   4.344   9.056 -0.3340  0.3942 -0.4588
 1464SOL    HW216026   1.364   4.240   8.973  0.7064 -0.3900  1.1900
 1465SOL     OW16027   2.312   0.920  12.826 -0.5496  0.1462  0.1780
 1465SOL    HW116028   2.244   0.987  12.833 -1.1514 -0.5227  0.6963
 1465SOL    HW216029   2.305   0.898  12.733 -1.2442 -3.2988  1.0773
 1466SOL     OW16030   0.395   4.198   3.291 -0.1756 -0.3067  0.1808
 1466SOL    HW116031   0.488   4.214   3.279 -0.0687  0.5613  2.0611
 1466SOL    HW216032   0.362   4.182   3.203  1.5606 -0.8834 -0.3449
 1467SOL     OW16033   0.016   3.991   3.864  0.1154  0.6271 -0.0690
 1467SOL    HW116034   0.062   4.071   3.840 -0.6973  1.0109 -0.3128
 1467SOL    HW216035   4.694   3.971   3.791  0.1458  0.6072 -0.0876
 1468SOL     OW16036   1.900   2.566   6.991  0.1314  0.2792  0.4700
 1468SOL    HW116037   1.967   2.531   6.932 -1.3702 -0.0133 -1.0439
 1468SOL    HW216038   1.850   2.615   6.925  0.0045 -0.1196  0.2749
 1469SOL     OW16039   0.143   3.436   5.635  0.2568 -0.1256  0.8421
 1469SOL    HW116040   0.114   3.416   5.546  2.4133  0.8692 -0.1145
 1469SOL    HW216041   0.127   3.530   5.628 -0.0705 -0.4556 -2.9706
 1470SOL     OW16042   2.659   0.006  10.894  0.3368 -0.4768 -0.2753
 1470SOL    HW116043   2.607   0.017  10.973 -1.2938  0.3407 -1.4605
 1470SOL    HW216044   2.744   0.037  10.924  0.3295 -0.9978  0.2629
 1471SOL     OW16045   2.428   0.299   9.524 -0.0005 -0.4630 -0.3133
 1471SOL    HW116046   2.385   0.306   9.609  0.0186 -1.9240 -0.1700
 1471SOL    HW216047   2.481   0.221   9.543  0.1606 -0.5966 -1.2898
 1472SOL     OW16048   1.171   3.644   6.101 -0.5477  0.1628 -0.0979
 1472SOL    HW116049   1.139   3.723   6.144 -0.7024 -0.6324  1.2537
 1472SOL    HW216050   1.171   3.583   6.176 -1.6304 -0.6294 -0.7434
 1473SOL     OW16051   4.465   2.391   3.567 -0.3989  0.0390  0.0671
 1473SOL    HW116052   4.497   2.402   3.477 -3.1098  1.8238 -0.6654
 1473SOL    HW216053   4.387   2.338   3.552  0.2350 -1.0275  0.5067
 1474SOL     OW16054   3.010   0.428  13.781  0.6301  0.0221  0.0177
 1474SOL    HW116055   2.995   0.374  13.859  0.2743 -1.1512 -0.8736
 1474SOL    HW216056   3.105   0.413  13.777  0.5292  0.1770 -2.7531
 1475SOL     OW16057   4.081   2.159  16.202 -0.5335 -0.0805 -0.2201
 1475SOL    HW116058   4.043   2.172  16.115  0.0815 -2.6490 -0.8693
 1475SOL    HW216059   4.066   2.065  16.211  2.9830 -0.5809  0.4013
 1476SOL     OW16060   4.657   1.314   6.843  0.5640  0.5064  0.1043
 1476SOL    HW116061   4.696   1.232   6.871 -0.3101 -0.1578 -0.6272
 1476SOL    HW216062   4.655   1.311   6.748 -0.6206  1.6261  0.0952
 1477SOL     OW16063   0.936   1.197   5.764 -0.0825  0.2102 -0.1373
 1477SOL    HW116064   0.990   1.266   5.802  0.6275  0.6567 -1.9538
 1477SOL    HW216065   1.006   1.143   5.729  1.2797  0.8130  1.6593
 1478SOL     OW16066   2.355   3.199  15.752  0.5309 -0.6244  0.3152
 1478SOL    HW116067   2.276   3.251  15.764  0.7206 -0.2196 -0.1905
 1478SOL    HW216068   2.371   3.150  15.833  1.5741 -0.0784  0.4408
 1479SOL     OW16069   3.309   3.728  11.400  0.6528  0.1631 -0.1349
 1479SOL    HW116070   3.401   3.754  11.394  1.0064 -1.0576 -0.0697
 1479SOL    HW216071   3.308   3.709  11.494  0.0826 -0.4029 -0.2506
 1480SOL     OW16072   2.150   2.021   7.475  1.0505 -0.3237 -0.1553
 1480SOL    HW116073   2.192   1.937   7.462  1.2827 -0.0452 -1.1691
 1480SOL    HW216074   2.220   2.076   7.439 -0.6351  2.4655  0.7503
 1481SOL     OW16075   1.030   0.961   9.291  0.1066 -0.1596  0.6319
 1481SOL    HW116076   1.109   0.939   9.240  1.0105  3.4565  0.4784
 1481SOL    HW216077   0.977   1.013   9.230  0.0057 -2.0975 -0.9411
 1482SOL     OW16078   0.920   4.017   8.790 -0.0933  0.2459 -0.3946
 1482SOL    HW116079   0.948   3.979   8.873  2.3167  0.8842 -0.8998
 1482SOL    HW216080   0.963   4.102   8.798  0.4521 -0.2630  2.1054
 1483SOL     OW16081   1.086   2.065   3.222 -0.2619 -0.3590 -0.0243
 1483SOL    HW116082   1.178   2.040   3.234 -0.2851 -0.5864 -0.2978
 1483SOL    HW216083   1.081   2.106   3.136  1.5337  0.5651  0.3179
 1484SOL     OW16084   0.037   1.410   2.142 -0.2745  0.1100  0.1187
 1484SOL    HW116085   0.114   1.357   2.159 -1.1118 -1.3480 -0.6227
 1484SOL    HW216086   0.043   1.429   2.048 -1.3042  1.3408  0.2890
 1485SOL     OW16087   0.744   4.499  13.715 -0.2643  0.7044 -0.4600
 1485SOL    HW116088   0.836   4.526  13.709 -0.1009  0.4200  0.7477
 1485SOL    HW216089   0.738   4.445  13.793  1.6607 -1.4345 -1.7972
 1486SOL     OW16090   3.929   1.932   2.898  0.3249 -0.7417  0.1777
 1486SOL    HW116091   4.008   1.950   2.950  0.3789  0.6294 -0.3753
 1486SOL    HW216092   3.967   1.909   2.813 -0.3454 -1.1247 -0.0195
 1487SOL     OW16093   4.576   4.313   1.301 -0.1230 -0.5369  0.0634
 1487SOL    HW116094   4.591   4.403   1.271  0.7349 -1.2204 -1.5615
 1487SOL    HW216095   4.655   4.275   1.264 -0.2721  0.1852 -1.0067
 1488SOL     OW16096   2.127   3.728   6.706  0.4658 -0.2542 -0.3333
 1488SOL    HW116097   2.085   3.675   6.639  0.7343 -1.2495  0.2858
 1488SOL    HW216098   2.180   3.789   6.655  0.8176 -1.6634 -1.6608
 1489SOL     OW16099   2.301   0.697  17.686  0.0234 -0.3484  0.3302
 1489SOL    HW116100   2.299   0.603  17.703 -1.1656 -0.2814  0.6198
 1489SOL    HW216101   2.365   0.709   0.016 -0.7100  1.2345  0.7525
 1490SOL     OW16102   2.508   4.217   5.132 -0.0315  0.3167  0.0393
 1490SOL    HW116103   2.560   4.279   5.081 -2.9673  0.7882 -2.3940
 1490SOL    HW216104   2.534   4.128   5.106 -0.1736  0.7506 -1.6094
 1491SOL     OW16105   3.871   4.500   6.826  0.0106 -0.2428  0.5201
 1491SOL    HW116106   3.926   4.481   6.750 -1.7431  0.6473 -0.9792
 1491SOL    HW216107   3.912   4.450   6.896 -0.1376 -1.4923 -0.2938
 1492SOL     OW16108   3.242   2.803   2.732 -0.4466 -0.0800  0.2817
 1492SOL    HW116109   3.197   2.874   2.686 -2.5671 -0.0462  2.4151
 1492SOL    HW216110   3.183   2.727   2.739 -0.6751  0.2030  1.5337
 1493SOL     OW16111   1.259   4.008  12.200  0.0198 -0.6613 -0.0969
 1493SOL    HW116112   1.340   4.057  12.212 -1.0348  1.4752 -1.5724
 1493SOL    HW216113   1.235   4.009  12.293  0.6549 -2.6159  0.0817
 1494SOL     OW16114   1.507   0.319   7.941 -0.0552  0.4159  0.5129
 1494SOL    HW116115   1.439   0.318   8.009  0.9079 -0.6214  1.4581
 1494SOL    HW216116   1.520   0.224   7.934 -1.2849  0.1648  1.6030
 1495SOL     OW16117   1.576   4.411   4.503 -0.6505 -0.5450  0.2008
 1495SOL    HW116118   1.559   4.379   4.592 -1.8956 -0.5114 -0.0339
 1495SOL    HW216119   1.667   4.390   4.482 -0.5707  0.2142 -0.1989
 1496SOL     OW16120   4.610   0.424   3.790  0.6180  0.0666 -0.3416
 1496SOL    HW116121   4.633   0.517   3.784 -1.1984  0.6025  0.9322
 1496SOL    HW216122   4.676   0.402   3.724  1.1685  1.5675 -0.2861
 1497SOL     OW16123   0.861   0.957   8.522  0.3148 -0.7211 -0.0126
 1497SOL    HW116124   0.777   1.001   8.533  0.5661 -0.2741  0.1154
 1497SOL    HW216125   0.925   1.026   8.541 -1.7103  1.5489 -1.5099
 1498SOL     OW16126   1.391   2.072  10.127 -0.1205  0.1786  0.0110
 1498SOL    HW116127   1.472   2.108  10.163  0.6055 -0.5465 -0.8941
 1498SOL    HW216128   1.344   2.080  10.210 -0.5520 -0.9935 -0.1205
 1499SOL     OW16129   2.211   1.105   5.869  0.0462  0.0259 -0.1489
 1499SOL    HW116130   2.209   1.134   5.778 -0.1236  0.7352  0.0793
 1499SOL    HW216131   2.227   1.190   5.911  0.0022  0.9455 -1.9884
 1500SOL     OW16132   2.223   3.044  16.909 -0.1803 -0.1184  0.1677
 1500SOL    HW116133   2.269   3.068  16.989  3.1092 -1.5591 -1.2944
 1500SOL    HW216134   2.297   3.034  16.849 -2.8243 -3.2106 -2.6236
 1501SOL     OW16135   4.719   2.366  15.206 -0.0835  0.1726 -0.1103
 1501SOL    HW116136   0.005   2.308  15.278 -3.5970  0.3494  1.0669
 1501SOL    HW216137   0.007   2.452  15.240 -0.4384 -0.6021  2.0526
 1502SOL     OW16138   2.559   1.443  10.203 -0.6795  0.7615  0.0766
 1502SOL    HW116139   2.551   1.361  10.153  0.6728  1.6025 -1.5287
 1502SOL    HW216140   2.547   1.413  10.293 -0.6556  1.2210  0.2305
 1503SOL     OW16141   3.144   0.649   5.289 -0.7404  0.1851  0.4623
 1503SOL    HW116142   3.200   0.647   5.366 -1.4326 -0.9504  0.9387
 1503SOL    HW216143   3.084   0.716   5.320 -0.9222  1.0779 -1.8030
 1504SOL     OW16144   0.839   3.933   2.673 -0.5136 -0.0696  0.6549
 1504SOL    HW116145   0.757   3.968   2.640 -0.5270 -0.6757  0.0420
 1504SOL    HW216146   0.867   4.006   2.728 -0.1024 -0.5977  1.1450
 1505SOL     OW16147   0.248   3.341  17.042  0.3840 -0.2691 -0.7200
 1505SOL    HW116148   0.342   3.360  17.045  0.6082 -1.3266 -1.1995
 1505SOL    HW216149   0.219   3.426  17.076  0.6545 -0.3230 -0.3457
 1506SOL     OW16150   1.491   4.183   6.738 -0.2544 -0.1267  0.2267
 1506SOL    HW116151   1.511   4.254   6.676  1.0178 -0.4364  0.2981
 1506SOL    HW216152   1.451   4.244   6.800 -0.2602 -1.7402  1.7929
 1507SOL     OW16153   0.113   4.517   8.906  0.6206  0.3516  0.0012
 1507SOL    HW116154   0.085   4.425   8.897 -1.1381  0.7914  1.0590
 1507SOL    HW216155   0.032   4.554   8.940 -0.3934 -1.9999  0.1580
 1508SOL     OW16156   1.388   1.953   9.389 -0.1102  0.2597  0.1871
 1508SOL    HW116157   1.343   2.019   9.442  1.0556 -2.2104  4.1846
 1508SOL    HW216158   1.457   1.938   9.454  0.0533 -1.6672 -0.4416
 1509SOL     OW16159   0.438   3.617  16.472  0.0214 -0.0909  0.0872
 1509SOL    HW116160   0.498   3.675  16.426 -0.6259  0.7251  0.2582
 1509SOL    HW216161   0.441   3.646  16.564  0.8618 -1.6876  0.5574
 1510SOL     OW16162   2.538   2.794   3.808  0.0788  0.5302 -0.0022
 1510SOL    HW116163   2.512   2.838   3.728  0.4726 -0.4320 -0.6599
 1510SOL    HW216164   2.467   2.730   3.815 -0.6559  1.4771  1.2685
 1511SOL     OW16165   1.197   2.085   7.982 -0.3712 -0.3968 -0.0224
 1511SOL    HW116166   1.279   2.039   7.996  1.4608  2.8862  0.0743
 1511SOL    HW216167   1.202   2.171   8.024 -3.8485 -0.5779  0.7809
 1512SOL     OW16168   1.722   3.609   3.250  0.3715  0.6096 -0.5075
 1512SOL    HW116169   1.721   3.573   3.161 -0.4047  0.4386 -0.4262
 1512SOL    HW216170   1.686   3.538   3.302  0.2869  0.9442 -0.1125
 1513SOL     OW16171   1.966   1.617   4.579  0.0982  0.1428 -0.4396
 1513SOL    HW116172   2.025   1.549   4.546  0.7134 -0.1582  1.3063
 1513SOL    HW216173   1.998   1.639   4.666 -0.3187 -0.9307 -0.0127
 1514SOL     OW16174   1.907   0.873  17.582 -0.1227  0.6602 -0.4673
 1514SOL    HW116175   1.936   0.877  17.490  1.7583 -3.3228 -0.0104
 1514SOL    HW216176   1.842   0.803  17.589 -1.0085  1.5496  0.2517
 1515SOL     OW16177   3.568   3.815  11.431 -0.3080 -0.4421 -0.2851
 1515SOL    HW116178   3.567   3.885  11.497  0.7491 -0.5020 -0.2061
 1515SOL    HW216179   3.617   3.857  11.361  0.7761  1.6880  1.7173
 1516SOL     OW16180   0.875   3.661   1.484 -0.0185 -0.4278 -0.1436
 1516SOL    HW116181   0.887   3.724   1.412  1.5442 -1.9254 -1.1700
 1516SOL    HW216182   0.792   3.688   1.524  0.9942  1.2603  0.8592
 1517SOL     OW16183   2.463   0.207  16.755 -0.3420  0.2681  0.1992
 1517SOL    HW116184   2.388   0.267  16.760 -0.5255  0.3972 -4.0891
 1517SOL    HW216185   2.485   0.221  16.663 -0.0457 -0.0585  0.2199
 1518SOL     OW16186   3.929   3.678   3.104  0.0454  0.1012 -0.2826
 1518SOL    HW116187   3.958   3.653   3.192 -0.2432  1.4859  0.2183
 1518SOL    HW216188   3.884   3.600   3.072  0.1222 -0.6050  1.3488
 1519SOL     OW16189   0.556   3.797   3.078 -0.5173  0.1587  0.0311
 1519SOL    HW116190   0.511   3.750   3.148 -1.3952  1.7748  0.5417
 1519SOL    HW216191   0.596   3.726   3.028 -3.9979 -0.4166 -1.9862
 1520SOL     OW16192   0.114   3.719   3.228 -0.7217  0.0178  0.0788
 1520SOL    HW116193   0.125   3.624   3.235 -0.5437 -0.2376 -3.6717
 1520SOL    HW216194   0.188   3.727   3.168 -0.4655  0.4239  0.4492
 1521SOL     OW16195   1.558   1.699   5.971  0.0861 -0.1040  0.1926
 1521SOL    HW116196   1.490   1.668   5.912  0.6465 -1.2171  0.1340
 1521SOL    HW216197   1.517   1.684   6.057 -0.1375  0.0784  0.1190
 1522SOL     OW16198   1.688   3.089   8.713 -0.2532  0.2149 -0.1867
 1522SOL    HW116199   1.593   3.088   8.717 -0.2739  0.6329 -0.4711
 1522SOL    HW216200   1.703   3.010   8.765  0.5549  1.4141  1.4083
 1523SOL     OW16201   3.300   0.839   6.574 -0.1445 -0.2854 -0.1344
 1523SOL    HW116202   3.368   0.818   6.511 -0.0700 -1.1954  0.2571
 1523SOL    HW216203   3.266   0.750   6.585  2.3392 -1.2551 -0.3186
 1524SOL     OW16204   0.101   0.249   7.203  0.5980  0.2009  0.0519
 1524SOL    HW116205   0.184   0.228   7.246  0.2669 -0.2341  0.4834
 1524SOL    HW216206   0.066   0.164   7.178 -0.8837  0.9655 -0.5136
 1525SOL     OW16207   2.213   2.906   3.946 -0.0117 -0.0607 -0.1403
 1525SOL    HW116208   2.126   2.875   3.971 -1.0393  1.3702 -1.9948
 1525SOL    HW216209   2.223   2.858   3.864 -0.5463 -0.8473  0.2474
 1526SOL     OW16210   1.310   0.269   6.707  0.1929  0.5436 -0.2569
 1526SOL    HW116211   1.276   0.228   6.786 -1.6757 -0.8268 -1.7741
 1526SOL    HW216212   1.235   0.316   6.669  0.4464  0.1960 -1.1809
 1527SOL     OW16213   2.315   4.317   7.691  0.2165  0.4126  0.1173
 1527SOL    HW116214   2.367   4.237   7.693  0.5115  0.6424  1.5317
 1527SOL    HW216215   2.378   4.377   7.731  1.9520 -1.6062  0.4128
 1528SOL     OW16216   1.863   3.139  16.467 -0.0012 -0.7611 -0.4126
 1528SOL    HW116217   1.928   3.195  16.425  1.2893 -0.4894  1.9718
 1528SOL    HW216218   1.887   3.121  16.557  0.1898  0.1416 -0.2819
 1529SOL     OW16219   4.235   1.822   8.104  0.1567  0.2257 -0.0296
 1529SOL    HW116220   4.145   1.818   8.070  0.3700 -0.3809 -0.5123
 1529SOL    HW216221   4.218   1.866   8.188 -0.7354 -0.0444 -0.0690
 1530SOL     OW16222   1.220   0.993  15.950 -0.5997 -0.3985 -0.2018
 1530SOL    HW116223   1.177   1.055  15.890 -2.3063 -0.0591  1.3565
 1530SOL    HW216224   1.284   0.965  15.885  0.2816  1.1041 -0.0041
 1531SOL     OW16225   2.560   2.272   5.022 -0.1340 -0.5508 -0.2660
 1531SOL    HW116226   2.642   2.317   5.002  0.0919 -1.2529 -0.8925
 1531SOL    HW216227   2.588   2.185   5.051 -0.6707 -0.1803  1.3941
 1532SOL     OW16228   4.055   0.808  17.504  0.1517  0.3771  0.1356
 1532SOL    HW116229   4.041   0.717  17.531  0.0371 -0.2662 -2.0687
 1532SOL    HW216230   4.079   0.796  17.412  0.3238 -0.0786  0.2418
 1533SOL     OW16231   3.114   0.601   8.201  0.2666 -0.7996  0.1740
 1533SOL    HW116232   3.067   0.608   8.284  1.3256 -3.3156  0.9926
 1533SOL    HW216233   3.061   0.664   8.152 -0.7294 -0.4279  1.7135
 1534SOL     OW16234   3.314   2.441   7.458  0.2564 -0.3314 -0.0466
 1534SOL    HW116235   3.289   2.365   7.406 -2.5296  1.0022 -0.6573
 1534SOL    HW216236   3.261   2.503   7.407 -0.7995  0.7102  2.3226
 1535SOL     OW16237   1.861   3.961   9.085  0.0970 -0.0969  0.1492
 1535SOL    HW116238   1.795   3.915   9.034 -0.7757 -1.0922  2.1775
 1535SOL    HW216239   1.829   4.050   9.072 -1.7888 -0.6777  0.9063
 1536SOL     OW16240   1.107   1.022   2.040  0.1723 -0.3035  0.5485
 1536SOL    HW116241   1.153   1.042   2.121  0.6256 -0.4630  0.3312
 1536SOL    HW216242   1.167   1.072   1.985  2.2994 -1.2515  2.0120
 1537SOL     OW16243   1.396   3.135   6.523 -0.0869  0.0695  0.3189
 1537SOL    HW116244   1.447   3.142   6.603 -1.2565 -0.1276  1.0819
 1537SOL    HW216245   1.325   3.086   6.564 -0.9354  1.8349  0.9751
 1538SOL     OW16246   2.622   1.219   4.865 -0.0867 -0.3251 -0.6539
 1538SOL    HW116247   2.567   1.231   4.943  0.7123  0.4950 -0.2113
 1538SOL    HW216248   2.701   1.272   4.881  1.4460 -2.4908 -1.0710
 1539SOL     OW16249   4.730   0.939   0.051  0.1064  0.0372  0.4295
 1539SOL    HW116250   0.050   0.881  17.738  0.6916  1.7538 -0.8760
 1539SOL    HW216251   4.709   0.895   0.133 -0.8364 -0.3970 -0.0360
 1540SOL     OW16252   4.712   2.037   9.416  0.6195  0.4237  0.1253
 1540SOL    HW116253   4.671   2.023   9.330  3.3941 -0.2598 -1.0992
 1540SOL    HW216254   0.061   1.999   9.389 -0.0041 -0.3826 -0.7096
 1541SOL     OW16255   2.203   1.270   0.938  0.6903  0.4227 -0.6233
 1541SOL    HW116256   2.197   1.315   0.854 -3.2472  0.8982 -0.0519
 1541SOL    HW216257   2.242   1.337   0.994  1.9663  0.5848 -1.7099
 1542SOL     OW16258   2.926   0.245   2.443  0.0571 -0.4823  0.0520
 1542SOL    HW116259   2.998   0.260   2.503 -1.5923  2.7423  1.1824
 1542SOL    HW216260   2.957   0.271   2.356  0.4233  0.6780  0.5364
 1543SOL     OW16261   2.661   2.813   7.385  0.0336 -0.1825 -0.0226
 1543SOL    HW116262   2.739   2.842   7.338 -0.2308  0.3647 -0.1307
 1543SOL    HW216263   2.682   2.727   7.421 -0.9104  0.3353  1.7508
 1544SOL     OW16264   1.673   2.997   7.647 -0.0817 -0.7648  0.1509
 1544SOL    HW116265   1.639   2.923   7.597 -0.4032 -0.1267 -0.5791
 1544SOL    HW216266   1.671   2.970   7.739 -1.7485  0.7724  0.5539
 1545SOL     OW16267   1.702   0.536  13.256  0.1211  0.2458  0.0027
 1545SOL    HW116268   1.681   0.481  13.331 -1.3646  0.6946 -0.0787
 1545SOL    HW216269   1.772   0.597  13.281  2.4597 -3.1017  1.4648
 1546SOL     OW16270   0.058   0.197  11.511  0.1371 -0.4960 -0.2279
 1546SOL    HW116271   4.701   0.183  11.488 -0.2569  1.3518  0.1665
 1546SOL    HW216272   0.069   0.155  11.597 -0.4259 -0.2909 -0.0496
 1547SOL     OW16273   3.178   2.681   2.427 -0.2326  0.0787 -0.6117
 1547SOL    HW116274   3.193   2.671   2.333  0.6312 -0.8444 -0.3819
 1547SOL    HW216275   3.263   2.657   2.466 -0.1969  0.8751 -0.1881
 1548SOL     OW16276   4.212   2.105   2.626 -0.0157 -0.2082 -0.0162
 1548SOL    HW116277   4.295   2.146   2.602 -1.8121  4.6052  2.0912
 1548SOL    HW216278   4.198   2.151   2.709  0.5579 -3.8408  2.0764
 1549SOL     OW16279   0.739   0.697  10.642 -0.1705 -0.4783 -0.4734
 1549SOL    HW116280   0.782   0.613  10.627 -2.8029 -1.2586 -3.6174
 1549SOL    HW216281   0.684   0.670  10.715 -3.3805  0.1991 -2.6674
 1550SOL     OW16282   0.710   3.204   6.854  0.0186 -0.1231 -0.0671
 1550SOL    HW116283   0.737   3.223   6.944 -0.3830  3.4723 -0.7374
 1550SOL    HW216284   0.616   3.219   6.864 -0.0089 -0.3761  0.0536
 1551SOL     OW16285   1.318   0.902   7.206  0.3675 -0.5402 -0.1094
 1551SOL    HW116286   1.235   0.947   7.217  0.7624  0.2216 -0.2512
 1551SOL    HW216287   1.374   0.978   7.219 -1.3987  0.5674  0.9882
 1552SOL     OW16288   4.269   3.008   7.842 -0.6932  0.1895  0.0045
 1552SOL    HW116289   4.175   2.990   7.854 -0.9917  0.9162 -1.2233
 1552SOL    HW216290   4.258   3.095   7.803  2.1587  0.5331  0.0101
 1553SOL     OW16291   1.589   2.616   8.638 -0.1585 -0.0430  0.6858
 1553SOL    HW116292   1.605   2.554   8.567 -1.9993  0.3928 -0.0908
 1553SOL    HW216293   1.563   2.550   8.702 -2.0523 -1.4339 -1.5175
 1554SOL     OW16294   1.582   4.730  17.585  0.6583  0.2775 -0.0866
 1554SOL    HW116295   1.555   0.000  17.493 -1.4516  1.4618  0.5970
 1554SOL    HW216296   1.664   0.045  17.575  0.7305  0.1538 -0.1149
 1555SOL     OW16297   1.656   1.426  15.836  0.1901 -0.5603  0.5628
 1555SOL    HW116298   1.622   1.509  15.804  0.9425 -0.6579 -0.5094
 1555SOL    HW216299   1.691   1.453  15.921 -0.6450  1.1446  0.3665
 1556SOL     OW16300   4.661   1.552   3.066  0.7649 -0.0896  0.0210
 1556SOL    HW116301   4.711   1.499   3.128  1.3814 -1.2085 -1.4246
 1556SOL    HW216302   4.589   1.582   3.121  1.1412 -0.7530  0.8749
 1557SOL     OW16303   0.297   3.857  16.986  0.1527 -0.0915 -0.2570
 1557SOL    HW116304   0.343   3.926  17.033  1.0143  0.1663 -1.5021
 1557SOL    HW216305   0.216   3.845  17.037  0.0241 -2.4117 -0.9920
 1558SOL     OW16306   2.380   4.616   4.968  0.1853 -0.2461  0.3588
 1558SOL    HW116307   2.304   4.608   5.026 -0.6798 -1.0953 -0.8990
 1558SOL    HW216308   2.379   4.526   4.936 -0.5173  0.0007 -0.3332
 1559SOL     OW16309   0.821   0.356   5.929  0.4450  0.2677  0.0582
 1559SOL    HW116310   0.752   0.318   5.874 -2.6449  0.2036  3.9795
 1559SOL    HW216311   0.890   0.376   5.866  0.7407  1.4864  0.7635
 1560SOL     OW16312   1.290   1.962   2.267  0.1035 -0.2781 -0.7372
 1560SOL    HW116313   1.271   1.873   2.235  0.2947 -0.0545 -1.4627
 1560SOL    HW216314   1.383   1.964   2.243  0.0633 -1.8493 -1.0520
 1561SOL     OW16315   4.149   4.018   6.236  0.3540 -0.3056 -0.4214
 1561SOL    HW116316   4.183   3.997   6.149  0.2374 -2.8335  0.1565
 1561SOL    HW216317   4.230   4.038   6.284 -0.5850  0.6812  0.7726
 1562SOL     OW16318   4.058   1.236  16.901  0.0137  0.2943 -0.2677
 1562SOL    HW116319   4.110   1.180  16.958 -0.2882 -0.1943 -0.4807
 1562SOL    HW216320   4.130   1.295  16.875  1.5245 -0.4625  2.1605
 1563SOL     OW16321   2.495   3.333  16.021 -0.4838 -0.0331  0.5438
 1563SOL    HW116322   2.505   3.283  15.940 -1.5087  0.4551  0.1145
 1563SOL    HW216323   2.533   3.417  15.994  1.0949 -0.4272  1.5327
 1564SOL     OW16324   2.603   1.986   4.478  0.2120 -0.3942  0.1942
 1564SOL    HW116325   2.572   1.896   4.474 -1.5086  0.3399 -2.9975
 1564SOL    HW216326   2.530   2.024   4.428  2.2777 -0.8114 -3.1135
 1565SOL     OW16327   0.597   1.691   8.240 -0.6787  0.4539  0.6079
 1565SOL    HW116328   0.692   1.701   8.249 -0.6895  2.4431 -1.5946
 1565SOL    HW216329   0.584   1.651   8.327  0.4682 -1.2378 -0.0038
 1566SOL     OW16330   3.116   3.273   8.567  0.1036  0.0927 -0.0624
 1566SOL    HW116331   3.126   3.310   8.654  1.4452 -1.3807  0.4289
 1566SOL    HW216332   3.025   3.291   8.546  0.0394  0.2677  0.3755
 1567SOL     OW16333   3.052   3.786  10.705  0.6311  0.1812  0.0467
 1567SOL    HW116334   3.101   3.794  10.786 -1.9870 -0.3578  1.6830
 1567SOL    HW216335   3.023   3.695  10.714 -2.4052  1.2173  0.9285
 1568SOL     OW16336   4.713   2.527   5.927  0.1253  0.4107 -0.6378
 1568SOL    HW116337   4.671   2.562   6.005  0.2148 -0.5197 -0.1759
 1568SOL    HW216338   4.643   2.544   5.864 -0.6510 -0.9105 -0.1161
 1569SOL     OW16339   4.523   3.456  14.613  0.7590  0.5006 -0.4859
 1569SOL    HW116340   4.497   3.537  14.570 -1.4054 -0.7816 -1.5877
 1569SOL    HW216341   4.511   3.496  14.699  1.7955 -0.5683  0.1469
 1570SOL     OW16342   2.670   3.415   5.404 -0.1695  0.1155  0.6039
 1570SOL    HW116343   2.665   3.372   5.489 -0.0181 -2.5746 -0.7438
 1570SOL    HW216344   2.597   3.475   5.417 -1.9690 -1.3854 -2.5164
 1571SOL     OW16345   1.428   2.642  11.848  0.1843 -0.1899 -0.7165
 1571SOL    HW116346   1.407   2.562  11.897  2.4479 -1.9205 -2.5994
 1571SOL    HW216347   1.481   2.694  11.909  0.2672 -1.8087  0.5911
 1572SOL     OW16348   2.007   1.091   1.702 -0.2908  0.5227 -0.5397
 1572SOL    HW116349   1.968   1.119   1.785 -0.1519 -0.3326 -0.1916
 1572SOL    HW216350   2.097   1.122   1.710 -0.5417  1.4758 -1.2826
 1573SOL     OW16351   2.271   1.865   2.402 -0.0880  0.2073  0.1390
 1573SOL    HW116352   2.268   1.961   2.411 -0.6977  0.0701  1.3647
 1573SOL    HW216353   2.361   1.848   2.371  0.4442  1.0559  1.2115
 1574SOL     OW16354   4.416   1.757   3.938 -0.4752 -0.2506  0.3839
 1574SOL    HW116355   4.436   1.714   4.021  3.2054  1.7978  0.5491
 1574SOL    HW216356   4.498   1.807   3.931 -0.1109 -0.8075  0.7283
 1575SOL     OW16357   4.643   0.732   5.498  0.3476 -0.1535 -0.0774
 1575SOL    HW116358   4.607   0.661   5.551  0.0502  0.2495  0.2680
 1575SOL    HW216359   4.559   0.776   5.482  0.9431  0.7560 -0.6979
 1576SOL     OW16360   0.425   4.275  15.858  0.0674 -0.0439  0.4036
 1576SOL    HW116361   0.360   4.252  15.924  1.2888 -0.2740  1.5380
 1576SOL    HW216362   0.383   4.347  15.811  1.4853  0.7758  0.4007
 1577SOL     OW16363   1.559   3.359   2.191 -0.2581  0.2610 -0.0172
 1577SOL    HW116364   1.523   3.328   2.274 -1.8582 -1.9573 -1.5450
 1577SOL    HW216365   1.648   3.325   2.191  0.5797  2.4156  0.3463
 1578SOL     OW16366   1.458   3.255  13.365  0.5065  0.6785  0.2737
 1578SOL    HW116367   1.385   3.309  13.334  0.6885  1.3803  1.0542
 1578SOL    HW216368   1.535   3.306  13.338  0.5527 -0.1408 -1.1027
 1579SOL     OW16369   4.405   4.123  11.836  0.1560 -0.0600 -0.1260
 1579SOL    HW116370   4.495   4.153  11.832  0.0746  0.0145 -1.4166
 1579SOL    HW216371   4.418   4.052  11.899 -1.0852 -0.7379 -0.6232
 1580SOL     OW16372   3.155   0.756   5.037  0.0152  0.4204 -0.5348
 1580SOL    HW116373   3.250   0.747   5.030  0.1110  1.1350 -0.1024
 1580SOL    HW216374   3.150   0.733   5.130  0.2548  2.8993  0.0821
 1581SOL     OW16375   1.095   2.511   5.310 -0.4266  0.8137 -0.4203
 1581SOL    HW116376   1.029   2.579   5.324  0.5346  1.7531 -0.4907
 1581SOL    HW216377   1.158   2.556   5.254  0.8043 -0.3638  0.0064
 1582SOL     OW16378   2.680   1.107   8.842  0.3100  0.4624 -0.4208
 1582SOL    HW116379   2.764   1.062   8.844 -0.9452 -1.7921  0.6936
 1582SOL    HW216380   2.622   1.038   8.811 -0.4648  1.7516 -1.8719
 1583SOL     OW16381   1.877   3.629   5.402  0.8230 -0.3292 -0.3447
 1583SOL    HW116382   1.876   3.637   5.497  1.5143 -0.8287 -0.2961
 1583SOL    HW216383   1.877   3.719   5.371  2.9852  0.0213  0.6701
 1584SOL     OW16384   1.864   3.648  10.357  0.2612  0.1606 -0.1488
 1584SOL    HW116385   1.833   3.609  10.439  1.4926 -0.0689  0.1978
 1584SOL    HW216386   1.788   3.627  10.303 -1.6933 -0.4955  2.8470
 1585SOL     OW16387   0.558   0.667  17.063 -0.3504 -0.2583 -0.0337
 1585SOL    HW116388   0.539   0.578  17.034 -1.9667 -0.3624  1.3307
 1585SOL    HW216389   0.542   0.661  17.157 -1.2545  1.6250 -0.0597
 1586SOL     OW16390   4.148   1.626   5.242 -0.2639 -0.2680  0.6182
 1586SOL    HW116391   4.178   1.608   5.331 -1.4419  1.4481  1.3666
 1586SOL    HW216392   4.161   1.541   5.200 -0.0487 -0.2577  0.6667
 1587SOL     OW16393   0.554   1.179   2.756 -0.0884  0.0507 -0.4115
 1587SOL    HW116394   0.535   1.265   2.794  0.1811 -0.1793  0.2587
 1587SOL    HW216395   0.623   1.202   2.695 -0.3985 -0.1750 -0.8441
 1588SOL     OW16396   1.662   4.364  10.578  0.3426  0.1098  0.4382
 1588SOL    HW116397   1.660   4.410  10.661  2.7505  0.0655  0.4954
 1588SOL    HW216398   1.680   4.434  10.515  1.4550  0.4636  1.1673
 1589SOL     OW16399   1.142   2.284   4.385  0.8466 -0.2873  0.6636
 1589SOL    HW116400   1.101   2.369   4.401  2.2115  0.2908  1.1136
 1589SOL    HW216401   1.196   2.302   4.309  1.3602  1.0481  1.3465
 1590SOL     OW16402   3.525   2.187   5.518  0.2900  0.5369  0.1156
 1590SOL    HW116403   3.484   2.203   5.603 -0.4501 -1.2303  0.0868
 1590SOL    HW216404   3.620   2.184   5.530  0.0031 -1.8952  1.6211
 1591SOL     OW16405   2.759   4.298   3.122  1.3220 -0.3275  0.4661
 1591SOL    HW116406   2.696   4.243   3.075  0.7766  1.3100 -0.6919
 1591SOL    HW216407   2.742   4.384   3.084  1.1667  0.3680  2.0863
 1592SOL     OW16408   1.954   2.534   3.468 -0.1960 -0.2802 -0.0398
 1592SOL    HW116409   1.966   2.459   3.526 -1.0302 -0.2329  0.1967
 1592SOL    HW216410   1.947   2.608   3.528 -1.4901  0.9594 -1.7396
 1593SOL     OW16411   3.860   3.067  17.155 -0.5946  0.4249  0.2363
 1593SOL    HW116412   3.921   3.080  17.228  0.2772  1.4033 -0.6638
 1593SOL    HW216413   3.899   3.137  17.102  1.3444 -1.6837 -1.0882
 1594SOL     OW16414   3.465   3.197   0.090  0.3247 -0.6283  0.7427
 1594SOL    HW116415   3.512   3.117   0.114  0.1816 -0.9892 -0.2165
 1594SOL    HW216416   3.537   3.260   0.092 -0.0085 -0.1874 -1.8443
 1595SOL     OW16417   0.449   4.705   0.276  0.2067 -0.4182 -0.4937
 1595SOL    HW116418   0.467   4.644   0.348  0.1709 -0.9492 -0.9361
 1595SOL    HW216419   0.537   4.696   0.239  0.5102 -1.3718  0.4689
 1596SOL     OW16420   4.557   2.327   2.516 -0.5632  0.1389 -0.2586
 1596SOL    HW116421   4.565   2.273   2.438 -0.4908 -0.9913  0.5314
 1596SOL    HW216422   4.560   2.414   2.477 -1.8811 -0.9104 -2.6845
 1597SOL     OW16423   1.499   0.986  10.004  0.8145 -0.4559  0.6209
 1597SOL    HW116424   1.447   1.037  10.067 -0.4261  0.6924 -1.3558
 1597SOL    HW216425   1.531   1.056   9.948  1.2258 -0.0090  1.4110
 1598SOL     OW16426   0.276   2.974   7.706 -0.1703  0.3850 -0.2587
 1598SOL    HW116427   0.317   2.891   7.682  0.0727  0.3491  0.2928
 1598SOL    HW216428   0.221   2.944   7.778 -1.0384  2.6261  0.0233
 1599SOL     OW16429   2.150   3.348   6.948 -0.0430 -0.6187 -0.4765
 1599SOL    HW116430   2.209   3.338   7.023 -1.6763 -0.5557  0.8433
 1599SOL    HW216431   2.067   3.366   6.993  0.0779 -2.2869  0.4150
 1600SOL     OW16432   4.080   3.885   5.404  0.0595  0.0653  0.0078
 1600SOL    HW116433   4.067   3.977   5.428 -0.7454 -0.1388  0.3575
 1600SOL    HW216434   4.045   3.838   5.479  0.0450  0.1766  0.0707
 1601SOL     OW16435   1.008   2.966  11.914  0.5097 -0.3531  0.6151
 1601SOL    HW116436   0.945   2.970  11.842  0.5415 -0.4348  0.5827
 1601SOL    HW216437   0.955   2.930  11.986 -0.3948 -0.3414 -0.0420
 1602SOL     OW16438   0.449   2.418  13.386  0.7475 -0.1981 -0.1993
 1602SOL    HW116439   0.477   2.347  13.445  0.9944 -0.3198 -0.4644
 1602SOL    HW216440   0.532   2.460  13.365 -0.9811  2.5826 -1.3419
 1603SOL     OW16441   2.413   1.343   7.799  0.1036 -0.0187  0.1769
 1603SOL    HW116442   2.504   1.335   7.827 -0.7837  0.1316  3.1545
 1603SOL    HW216443   2.419   1.342   7.704 -0.1176 -2.9103  0.1863
 1604SOL     OW16444   4.591   3.399   6.844 -0.0865 -0.5484 -0.3598
 1604SOL    HW116445   4.663   3.457   6.870 -1.1245  1.4195 -1.8796
 1604SOL    HW216446   4.630   3.320   6.881  1.6505 -0.2003 -1.4635
 1605SOL     OW16447   0.550   2.456   7.328 -0.1173 -0.3162  0.0363
 1605SOL    HW116448   0.587   2.542   7.310  0.0197 -0.5235 -0.6646
 1605SOL    HW216449   0.574   2.411   7.247 -1.7665  1.2712 -1.3258
 1606SOL     OW16450   2.323   1.021   6.563 -0.5525  0.3984 -0.0391
 1606SOL    HW116451   2.324   0.934   6.523 -0.6803  0.5535 -0.3865
 1606SOL    HW216452   2.341   1.007   6.656  0.1251  1.0458 -0.0845
 1607SOL     OW16453   3.702   4.068   6.633  0.3533  0.1862  0.2601
 1607SOL    HW116454   3.617   4.077   6.588 -0.6054  0.4566  2.1514
 1607SOL    HW216455   3.741   4.151   6.607  1.0015 -0.2346 -0.0995
 1608SOL     OW16456   1.643   1.740   4.324 -0.5606 -0.3646 -0.6124
 1608SOL    HW116457   1.564   1.702   4.363  0.2688 -0.8469  0.6000
 1608SOL    HW216458   1.604   1.805   4.266  0.7120 -0.2473 -1.3168
 1609SOL     OW16459   1.989   1.024  11.675 -0.1368  0.3794 -0.5410
 1609SOL    HW116460   1.978   1.054  11.585 -0.3899  1.8341 -0.0357
 1609SOL    HW216461   1.903   0.984  11.690  0.9706 -0.8551  2.7345
 1610SOL     OW16462   3.926   2.755   6.160  0.0591  0.2948 -0.4898
 1610SOL    HW116463   3.959   2.666   6.154  0.8630  0.3960  2.4704
 1610SOL    HW216464   3.980   2.788   6.232 -0.1672  0.6684 -0.4889
 1611SOL     OW16465   2.100   0.499   2.969 -0.3195  0.3483  0.3660
 1611SOL    HW116466   2.121   0.520   3.060 -1.3763  2.5386  0.1010
 1611SOL    HW216467   2.139   0.412   2.972  0.3329  0.6247 -0.3518
 1612SOL     OW16468   3.036   1.713   6.788 -0.0094  0.0175 -0.1958
 1612SOL    HW116469   3.087   1.730   6.709 -1.0462 -1.0286 -1.1052
 1612SOL    HW216470   2.949   1.694   6.753 -0.2131 -0.7982  0.7306
 1613SOL     OW16471   1.100   3.019   4.026 -0.0586  0.1922  0.1022
 1613SOL    HW116472   1.191   3.043   4.045  0.0915 -0.4764  0.2171
 1613SOL    HW216473   1.046   3.069   4.087  0.3854  0.3002  0.4066
 1614SOL     OW16474   0.878   0.336   2.730 -0.0677 -0.5567  0.1525
 1614SOL    HW116475   0.811   0.404   2.718  0.6203 -0.1537 -1.4159
 1614SOL    HW216476   0.853   0.290   2.810  0.5846  2.3984  2.0366
 1615SOL     OW16477   2.408   4.177   4.325 -0.2047  0.2396  0.1355
 1615SOL    HW116478   2.502   4.175   4.304 -0.0941  1.8878  0.4379
 1615SOL    HW216479   2.388   4.269   4.308  3.0294  1.3193  2.0315
 1616SOL     OW16480   2.059   4.548  10.246  0.0264 -0.2007  0.4338
 1616SOL    HW116481   2.093   4.562  10.157 -0.4856  1.4844  0.5102
 1616SOL    HW216482   2.108   4.467  10.263  1.0742  0.7508  1.9128
 1617SOL     OW16483   1.744   1.107   7.468  0.0960  0.1012  0.1647
 1617SOL    HW116484   1.708   1.045   7.405 -1.9456  0.5653  0.8471
 1617SOL    HW216485   1.682   1.097   7.541 -0.3390 -0.4099 -0.2805
 1618SOL     OW16486   0.610   4.626  14.035  0.0254  0.1398  0.0908
 1618SOL    HW116487   0.625   4.607  14.127 -1.7036  2.8057  0.9018
 1618SOL    HW216488   0.623   4.538  13.999  1.7801  0.3538  0.2429
 1619SOL     OW16489   3.057   0.208  15.583  0.2885  0.1162 -0.7464
 1619SOL    HW116490   3.072   0.161  15.501  0.7252 -1.2147  0.1012
 1619SOL    HW216491   3.128   0.165  15.632 -0.2439 -0.3462 -0.3836
 1620SOL     OW16492   1.159   2.292   5.746 -0.4699  0.1002  0.0094
 1620SOL    HW116493   1.232   2.302   5.685  0.0915 -1.5456  0.4041
 1620SOL    HW216494   1.174   2.209   5.792 -0.4337 -0.3396 -0.7963
 1621SOL     OW16495   3.458   3.643   3.307  0.1408 -0.1828  0.0203
 1621SOL    HW116496   3.501   3.710   3.255  2.0914 -2.2596 -1.0309
 1621SOL    HW216497   3.368   3.636   3.274  0.2065 -0.4670 -0.1042
 1622SOL     OW16498   1.591   2.406   6.515 -0.4843 -0.0269  0.4298
 1622SOL    HW116499   1.562   2.322   6.550 -0.3685 -0.5037 -0.6341
 1622SOL    HW216500   1.616   2.439   6.601 -1.7449 -1.0178  1.1913
 1623SOL     OW16501   0.421   4.269   9.625 -0.3115 -1.0314  0.0910
 1623SOL    HW116502   0.358   4.215   9.673  0.4004 -1.2380  0.7991
 1623SOL    HW216503   0.393   4.347   9.672  0.7237 -0.0812 -0.8998
 1624SOL     OW16504   1.233   1.568   9.527 -0.8751  0.1040 -0.1536
 1624SOL    HW116505   1.298   1.502   9.500  0.2322  2.1709 -2.5581
 1624SOL    HW216506   1.170   1.506   9.564  0.1406  0.3319  1.9555
 1625SOL     OW16507   1.417   0.080   8.445 -0.1936 -0.4069  0.2743
 1625SOL    HW116508   1.397   0.098   8.537 -1.2724 -3.1467  0.5789
 1625SOL    HW216509   1.508   0.051   8.454 -0.1942 -0.6253 -0.4045
 1626SOL     OW16510   3.857   2.746   8.197 -0.2023 -0.5296  0.1206
 1626SOL    HW116511   3.876   2.761   8.290  0.0470 -0.0630 -0.0087
 1626SOL    HW216512   3.778   2.693   8.197  0.1732 -1.0812 -1.5179
 1627SOL     OW16513   2.614   0.871   3.186  0.0913  0.5103  0.1724
 1627SOL    HW116514   2.608   0.967   3.186 -0.7949  0.4483  3.4131
 1627SOL    HW216515   2.548   0.838   3.247  1.0248 -0.3158  0.7221
 1628SOL     OW16516   0.838   2.211   9.841 -0.0318  0.1383  0.3196
 1628SOL    HW116517   0.834   2.245   9.751  0.4166 -2.1215 -0.5505
 1628SOL    HW216518   0.915   2.155   9.829  0.5833  0.8054  1.1337
 1629SOL     OW16519   1.983   1.824   7.274  0.1338  0.1248  0.4323
 1629SOL    HW116520   1.924   1.898   7.262  0.5096  0.0458 -1.8650
 1629SOL    HW216521   1.964   1.799   7.365 -1.0859  0.9655  0.4069
 1630SOL     OW16522   2.532   0.681   4.729 -0.2234 -0.6053  0.0715
 1630SOL    HW116523   2.570   0.634   4.804  0.0232  1.1639  1.0521
 1630SOL    HW216524   2.613   0.707   4.685 -0.1494 -2.0439 -0.6460
 1631SOL     OW16525   3.102   4.086   8.827 -0.2329 -0.4694 -0.0628
 1631SOL    HW116526   3.009   4.109   8.834 -0.2916 -0.2788 -1.5816
 1631SOL    HW216527   3.142   4.173   8.825  1.4463 -1.1391  3.4987
 1632SOL     OW16528   3.597   2.416   5.313 -0.3624 -0.0249  0.3265
 1632SOL    HW116529   3.663   2.418   5.382 -0.5725  0.0262  0.5271
 1632SOL    HW216530   3.602   2.327   5.279 -3.8163 -0.4977  1.0314
 1633SOL     OW16531   0.876   0.700  17.637 -0.2935 -0.3884 -0.2888
 1633SOL    HW116532   0.891   0.755  17.560 -0.1530 -0.7036 -0.4844
 1633SOL    HW216533   0.888   0.609  17.613 -1.7592 -0.1437 -2.0012
 1634SOL     OW16534   2.792   0.620   0.289  0.3211 -0.1462  0.1819
 1634SOL    HW116535   2.722   0.612   0.353 -0.0723 -1.1753 -0.3781
 1634SOL    HW216536   2.850   0.546   0.310 -0.0320 -0.8254 -1.2643
 1635SOL     OW16537   4.344   2.606  16.292  0.2327 -0.2846  0.0078
 1635SOL    HW116538   4.290   2.538  16.252  0.9240  0.0482 -1.4601
 1635SOL    HW216539   4.374   2.551  16.364  1.7653  1.2099  0.5197
 1636SOL     OW16540   2.740   2.100   1.170  0.9130  0.2104  0.8688
 1636SOL    HW116541   2.666   2.138   1.217 -0.1112  1.3148 -1.6233
 1636SOL    HW216542   2.763   2.020   1.217  2.7880  0.5522  0.5536
 1637SOL     OW16543   0.398   2.302   6.852 -0.4916  0.1779  0.5839
 1637SOL    HW116544   0.373   2.297   6.759  0.6894 -0.9055  0.3212
 1637SOL    HW216545   0.493   2.303   6.846 -0.5392  0.2450 -0.2688
 1638SOL     OW16546   0.467   2.293   5.220 -0.2270 -0.4592 -0.3333
 1638SOL    HW116547   0.407   2.222   5.200  1.3116 -2.2615  1.3390
 1638SOL    HW216548   0.466   2.272   5.314  0.0745  1.6904  0.1570
 1639SOL     OW16549   3.792   4.714   3.512  0.0981  0.2350  0.2097
 1639SOL    HW116550   3.834   4.707   3.426  0.6637 -0.7863  0.5786
 1639SOL    HW216551   3.810   0.069   3.540  0.0797  0.5222 -0.7116
 1640SOL     OW16552   2.739   0.808  14.542 -0.5064  0.1994  0.2531
 1640SOL    HW116553   2.683   0.787  14.468  2.3875 -0.8014 -1.6470
 1640SOL    HW216554   2.676   0.775  14.607 -0.1778 -1.0166 -0.0344
 1641SOL     OW16555   0.224   2.609   2.681  0.1901  0.4943  0.4245
 1641SOL    HW116556   0.186   2.653   2.605  0.9384  1.4449  0.5979
 1641SOL    HW216557   0.148   2.558   2.709  0.2454  0.7192  0.9976
 1642SOL     OW16558   1.390   1.962  15.209 -0.4152  0.0659  0.9648
 1642SOL    HW116559   1.428   1.905  15.141 -0.7994  0.1765  0.6564
 1642SOL    HW216560   1.475   1.992  15.241 -0.3632 -1.8855  2.6086
 1643SOL     OW16561   0.841   2.534   4.623  0.4496  0.0181 -0.8410
 1643SOL    HW116562   0.781   2.468   4.588  0.8484 -0.3854 -0.7712
 1643SOL    HW216563   0.784   2.609   4.636  0.6806  0.0337  0.1244
 1644SOL     OW16564   4.386   1.926   5.387  0.3828 -0.4334 -0.2438
 1644SOL    HW116565   4.437   1.931   5.467 -1.4100 -0.5804  0.9072
 1644SOL    HW216566   4.386   1.830   5.382  0.3868 -0.5328  1.9610
 1645SOL     OW16567   4.327   2.762   7.937 -0.1565  0.9327 -0.2832
 1645SOL    HW116568   4.317   2.846   7.892  1.2537  0.1871 -2.0299
 1645SOL    HW216569   4.416   2.728   7.924 -0.1521  1.6460 -2.1469
 1646SOL     OW16570   4.071   1.702   5.620  0.3105 -0.6677  0.1176
 1646SOL    HW116571   4.015   1.737   5.550  3.1242 -0.9816 -2.3152
 1646SOL    HW216572   4.019   1.636   5.665  0.6092 -0.8838  0.1454
 1647SOL     OW16573   2.871   4.498   8.137 -0.5929  0.0838 -0.0836
 1647SOL    HW116574   2.919   4.567   8.092 -0.7984 -1.2555 -2.3510
 1647SOL    HW216575   2.895   4.513   8.228 -0.6595  1.9095 -0.3714
 1648SOL     OW16576   3.362   1.024   6.209  0.7008  0.3259 -0.2670
 1648SOL    HW116577   3.301   1.025   6.283 -0.8659 -0.4014 -1.5374
 1648SOL    HW216578   3.427   1.087   6.239  0.6228  0.6929 -0.8537
 1649SOL     OW16579   3.861   1.672   8.200 -0.6334  0.0992 -0.6276
 1649SOL    HW116580   3.932   1.646   8.141 -2.2570 -0.6467 -2.2325
 1649SOL    HW216581   3.911   1.660   8.281  1.4706  0.5186 -1.8481
 1650SOL     OW16582   2.779   2.561  10.678  0.0532  0.0137 -0.2009
 1650SOL    HW116583   2.794   2.480  10.629 -0.7510  0.9179 -1.9442
 1650SOL    HW216584   2.830   2.622  10.625  1.3045  0.4070  1.4614
 1651SOL     OW16585   0.134   0.889   5.424 -0.5481 -0.3751 -0.4414
 1651SOL    HW116586   0.139   0.937   5.507  0.5714 -0.9029 -0.2110
 1651SOL    HW216587   0.057   0.834   5.442 -0.8304  0.2025  0.1338
 1652SOL     OW16588   3.336   2.841   6.798 -0.2353  0.2572 -0.0565
 1652SOL    HW116589   3.252   2.885   6.812  0.0890  0.2027  2.0848
 1652SOL    HW216590   3.382   2.906   6.745 -1.5122  0.9270 -0.3514
 1653SOL     OW16591   3.303   3.515  10.476 -0.5178 -0.1531  0.1786
 1653SOL    HW116592   3.220   3.561  10.467 -1.0498 -1.0105  0.7211
 1653SOL    HW216593   3.353   3.552  10.404 -1.3819 -1.1770 -0.9363
 1654SOL     OW16594   0.471   3.305   6.927 -0.1506 -0.5179  0.5570
 1654SOL    HW116595   0.477   3.258   7.010 -1.9394 -0.8067  0.5370
 1654SOL    HW216596   0.384   3.346   6.923  0.3992  0.4828 -1.2729
 1655SOL     OW16597   0.451   4.617   2.406  0.0351 -0.1065  0.2469
 1655SOL    HW116598   0.543   4.642   2.401 -0.0552 -0.0818 -1.1769
 1655SOL    HW216599   0.405   4.688   2.361  0.9559  1.5389  1.9097
 1656SOL     OW16600   3.047   2.258   5.503  0.1395  0.0366 -0.5271
 1656SOL    HW116601   3.029   2.350   5.484 -0.0103  0.4852  1.8534
 1656SOL    HW216602   3.052   2.252   5.598  0.2068  4.6032 -0.2334
 1657SOL     OW16603   2.985   2.136   4.315 -0.8944 -0.0512  0.2118
 1657SOL    HW116604   3.050   2.069   4.338 -0.3373  0.3704 -0.1306
 1657SOL    HW216605   2.925   2.095   4.253 -0.0419  0.7224 -1.1396
 1658SOL     OW16606   0.775   1.847  15.906  0.8820  0.0203 -0.1780
 1658SOL    HW116607   0.842   1.876  15.845  0.6880 -0.4512 -0.6155
 1658SOL    HW216608   0.775   1.923  15.963 -3.3765  0.1760 -0.3421
 1659SOL     OW16609   0.628   2.803  12.721  0.1722  0.0006 -0.3649
 1659SOL    HW116610   0.649   2.710  12.724  1.1599  0.2085 -1.0478
 1659SOL    HW216611   0.542   2.795  12.680 -0.9359  1.8568  1.5833
 1660SOL     OW16612   3.873   1.602  16.307  0.3868  0.0903 -0.1361
 1660SOL    HW116613   3.863   1.560  16.393  0.1184 -0.2338 -0.3243
 1660SOL    HW216614   3.966   1.616  16.292  0.3622 -0.4917 -0.8442
 1661SOL     OW16615   1.904   3.935  16.286  0.3765  0.8450  0.3196
 1661SOL    HW116616   1.819   3.930  16.331  1.0078 -0.4803  1.3564
 1661SOL    HW216617   1.860   3.960  16.205  0.2885 -1.2566 -0.2932
 1662SOL     OW16618   0.660   4.359   9.694 -0.0359 -0.4942 -0.0984
 1662SOL    HW116619   0.627   4.352   9.784  1.1905 -1.4810  0.2644
 1662SOL    HW216620   0.581   4.332   9.647  0.6875 -0.3202 -1.4144
 1663SOL     OW16621   4.674   2.798   9.289  0.0570  0.0196 -0.2400
 1663SOL    HW116622   4.655   2.844   9.371 -1.2947 -1.0579  0.0359
 1663SOL    HW216623   4.650   2.708   9.312  1.7214 -0.6234 -1.0229
 1664SOL     OW16624   1.179   3.405   2.697 -0.1746  0.2204  0.2802
 1664SOL    HW116625   1.118   3.331   2.703 -0.5962  0.3983 -1.7791
 1664SOL    HW216626   1.252   3.378   2.753 -1.2159  0.2330  1.6496
 1665SOL     OW16627   1.085   4.288  16.758  0.1936  0.4180 -0.6394
 1665SOL    HW116628   1.080   4.324  16.847  1.1898  2.1024 -1.2632
 1665SOL    HW216629   1.011   4.337  16.722 -0.2664 -0.2579 -0.6112
 1666SOL     OW16630   3.982   3.393  15.280  0.6239 -0.5729 -0.7924
 1666SOL    HW116631   3.890   3.393  15.306  0.8174  0.6179 -0.1134
 1666SOL    HW216632   4.026   3.330  15.338  0.9854  0.8226  0.4452
 1667SOL     OW16633   1.765   0.829  17.102  0.6093 -0.0625  0.4959
 1667SOL    HW116634   1.803   0.906  17.060 -1.6734 -0.5904 -2.4874
 1667SOL    HW216635   1.723   0.778  17.033  0.2846  0.6542  0.1623
 1668SOL     OW16636   2.265   3.261  16.618  0.4348  0.5782  0.1227
 1668SOL    HW116637   2.198   3.325  16.593 -0.8201 -1.3344 -1.4847
 1668SOL    HW216638   2.319   3.306  16.682  0.7749  1.4436 -0.7692
 1669SOL     OW16639   2.180   3.608   2.321  0.9334  0.1491  0.5052
 1669SOL    HW116640   2.174   3.703   2.315  1.5701  0.1280 -0.4572
 1669SOL    HW216641   2.225   3.604   2.405 -2.3486  0.3921  2.2524
 1670SOL     OW16642   2.556   2.670   1.203 -0.3872  0.1330 -0.2889
 1670SOL    HW116643   2.550   2.673   1.298  1.3006 -2.3876 -0.1093
 1670SOL    HW216644   2.597   2.754   1.184  1.3209 -1.2971 -2.9430
 1671SOL     OW16645   2.341   4.516  10.636 -0.0659  0.0197  0.6321
 1671SOL    HW116646   2.289   4.567  10.698 -0.4076 -1.3079  1.4433
 1671SOL    HW216647   2.432   4.522  10.667  0.8461  0.2130 -2.0595
 1672SOL     OW16648   4.373   3.939  17.635 -0.0163  0.4379 -0.1725
 1672SOL    HW116649   4.287   3.973  17.656 -0.6959 -2.5302  1.8929
 1672SOL    HW216650   4.380   3.857  17.684 -1.6294 -0.4634 -1.4746
 1673SOL     OW16651   0.961   4.303   1.127 -0.4942 -0.0772  0.2970
 1673SOL    HW116652   0.973   4.398   1.126 -0.9669 -0.0065  1.6133
 1673SOL    HW216653   1.024   4.292   1.198 -1.7969 -0.4964  1.3746
 1674SOL     OW16654   3.765   3.413   2.833  0.3557  0.0304 -0.2641
 1674SOL    HW116655   3.854   3.420   2.866  0.0153  0.5189  0.5420
 1674SOL    HW216656   3.775   3.457   2.748 -0.4648  0.6499 -0.0431
 1675SOL     OW16657   4.193   1.100  13.310 -0.2301 -0.0472 -0.8312
 1675SOL    HW116658   4.161   1.119  13.222 -0.5736  1.0675 -0.4673
 1675SOL    HW216659   4.287   1.108  13.293  0.0834 -3.4716 -0.6456
 1676SOL     OW16660   1.158   1.730   9.265 -0.2641 -0.1761 -0.2275
 1676SOL    HW116661   1.111   1.791   9.322  2.9956 -0.3858  2.6973
 1676SOL    HW216662   1.169   1.660   9.329  2.1843 -0.2207 -0.7042
 1677SOL     OW16663   3.665   2.442   9.977 -0.0879  0.0238  0.2821
 1677SOL    HW116664   3.656   2.515  10.038  2.6241  0.8485 -0.3237
 1677SOL    HW216665   3.608   2.372  10.009  0.2891 -0.2528  0.3414
 1678SOL     OW16666   0.322   0.245   5.299  0.1482  0.1686  0.2885
 1678SOL    HW116667   0.235   0.284   5.312 -0.4159 -0.9911 -0.0487
 1678SOL    HW216668   0.303   0.167   5.247 -0.1440 -0.6245  1.5756
 1679SOL     OW16669   2.284   0.389   9.092 -0.0121  0.3317  0.1775
 1679SOL    HW116670   2.316   0.328   9.159 -0.5695  0.2841  0.3973
 1679SOL    HW216671   2.212   0.438   9.130 -0.9431 -0.8611 -0.0778
 1680SOL     OW16672   2.510   2.975   6.639  0.2797  0.1574 -0.3142
 1680SOL    HW116673   2.524   3.069   6.624  1.1499  0.4688  2.5340
 1680SOL    HW216674   2.463   2.954   6.558 -2.1424 -1.6628  1.5552
 1681SOL     OW16675   0.037   1.003  11.561 -0.0119 -0.5062  0.5581
 1681SOL    HW116676   4.726   0.970  11.484  1.5760 -0.3355 -0.4526
 1681SOL    HW216677   0.124   1.030  11.531 -0.4302 -1.1700 -1.2256
 1682SOL     OW16678   4.657   3.104   2.938 -0.0858 -0.1621  0.2343
 1682SOL    HW116679   4.624   3.048   2.867  1.3109 -0.4204 -0.2145
 1682SOL    HW216680   0.012   3.073   2.932 -0.5910 -1.8028  1.1251
 1683SOL     OW16681   1.299   0.196  14.806 -0.0234  0.2984 -0.1922
 1683SOL    HW116682   1.359   0.179  14.878  0.9404  2.2373 -0.5300
 1683SOL    HW216683   1.217   0.163  14.842 -1.6273  3.7928 -0.5946
 1684SOL     OW16684   1.184   3.417   6.663 -0.1183 -0.4236 -0.2611
 1684SOL    HW116685   1.252   3.428   6.730 -2.1709 -1.4355  1.9978
 1684SOL    HW216686   1.111   3.379   6.713  0.0604 -0.1384  0.2156
 1685SOL     OW16687   1.065   4.048   3.132 -0.2305 -0.0851 -0.3866
 1685SOL    HW116688   1.090   3.997   3.210  0.7358  3.0095  1.3283
 1685SOL    HW216689   1.010   3.985   3.085 -1.1057 -0.2379  0.8101
 1686SOL     OW16690   0.098   4.334   2.087 -0.0782 -0.3962 -0.8506
 1686SOL    HW116691   0.165   4.373   2.142 -0.9450 -2.1633  1.4804
 1686SOL    HW216692   0.111   4.241   2.105 -1.1908 -0.4469 -0.2772
 1687SOL     OW16693   0.778   1.578  13.144  0.3090 -0.5025  0.2603
 1687SOL    HW116694   0.702   1.594  13.199 -0.6050 -1.3844 -0.7493
 1687SOL    HW216695   0.752   1.617  13.060  0.1239 -1.0993  0.0393
 1688SOL     OW16696   1.054   1.448  16.754 -0.2130  0.2098  0.2286
 1688SOL    HW116697   1.015   1.505  16.820 -0.5625 -1.3548  1.3896
 1688SOL    HW216698   1.095   1.517  16.702 -2.7123  2.8107  1.6776
 1689SOL     OW16699   4.717   0.038   0.114 -0.2780 -0.0471 -0.0938
 1689SOL    HW116700   4.657   4.703   0.139  0.9451  0.0343  3.1247
 1689SOL    HW216701   4.717   0.029   0.019  1.9084 -1.7485  0.0720
 1690SOL     OW16702   3.892   0.700  10.306 -0.3126 -0.0282 -0.0701
 1690SOL    HW116703   3.814   0.716  10.252 -1.2816 -0.8316  1.0841
 1690SOL    HW216704   3.859   0.634  10.367  2.5418 -2.0881 -0.7667
 1691SOL     OW16705   1.462   2.562   7.566 -0.2055 -0.1614 -0.0618
 1691SOL    HW116706   1.443   2.553   7.660  1.6944 -2.4791  0.1033
 1691SOL    HW216707   1.527   2.494   7.548 -1.5547 -1.3252 -0.5756
 1692SOL     OW16708   2.680   1.748   0.611  0.1680 -0.2270  0.3470
 1692SOL    HW116709   2.757   1.790   0.649  0.1421 -3.2029  3.7390
 1692SOL    HW216710   2.688   1.781   0.521  2.3636  0.6251  0.8677
 1693SOL     OW16711   3.868   4.613   4.161 -0.5655  0.1394  1.0000
 1693SOL    HW116712   3.796   4.675   4.153 -0.8798 -0.5422 -1.3019
 1693SOL    HW216713   3.935   4.676   4.135 -0.3947 -1.4420 -2.4392
 1694SOL     OW16714   0.829   3.031   8.502 -0.1147  0.3490 -0.0209
 1694SOL    HW116715   0.827   2.968   8.574  2.6564  1.3862  0.9513
 1694SOL    HW216716   0.818   2.969   8.429 -1.9593  1.3918 -0.6148
 1695SOL     OW16717   3.569   3.504  11.751  0.0521  0.1174 -0.2020
 1695SOL    HW116718   3.577   3.517  11.845 -0.5032 -0.7174 -0.0405
 1695SOL    HW216719   3.581   3.409  11.744  0.2208  0.0328  1.2527
 1696SOL     OW16720   4.085   3.606  11.601 -0.0298 -0.2787 -0.1949
 1696SOL    HW116721   4.062   3.548  11.673  0.0520 -0.7533 -0.5469
 1696SOL    HW216722   3.993   3.607  11.573  0.2283  0.4681 -1.0221
 1697SOL     OW16723   1.011   1.935  17.275  0.5796 -0.7326 -0.6769
 1697SOL    HW116724   0.971   1.956  17.360  2.1335 -2.5623  0.4877
 1697SOL    HW216725   1.066   2.012  17.262  0.3121 -0.1093  1.8181
 1698SOL     OW16726   1.439   3.761   6.290  0.4767  0.2838  0.1017
 1698SOL    HW116727   1.467   3.679   6.330 -0.3294  0.8388  1.7772
 1698SOL    HW216728   1.409   3.816   6.362  0.9576 -1.2216  1.4491
 1699SOL     OW16729   1.107   0.930  17.133 -0.1500  0.0028  0.1721
 1699SOL    HW116730   1.181   0.869  17.129  0.7711  1.0993  0.6555
 1699SOL    HW216731   1.070   0.941  17.045 -1.7820  1.3978  1.0427
 1700SOL     OW16732   2.351   4.425   1.591 -0.1338 -0.0767 -0.4267
 1700SOL    HW116733   2.375   4.516   1.608 -2.2913  0.6685 -1.4485
 1700SOL    HW216734   2.348   4.383   1.677 -0.6690 -0.4185 -0.6124
 1701SOL     OW16735   0.636   3.970   3.531  0.3618 -0.5576  0.0369
 1701SOL    HW116736   0.561   4.012   3.572 -0.8001 -2.7360  0.1021
 1701SOL    HW216737   0.595   3.893   3.493 -0.6628  0.0588 -0.0818
 1702SOL     OW16738   3.536   0.686  12.621 -0.1834  0.2081  0.1202
 1702SOL    HW116739   3.505   0.692  12.531  0.5487 -1.4671 -0.2418
 1702SOL    HW216740   3.463   0.720  12.674 -2.2037 -2.3828 -0.9955
 1703SOL     OW16741   0.254   3.279   0.210  0.3894  0.2472 -0.3744
 1703SOL    HW116742   0.230   3.235   0.128 -0.0733 -0.6355  0.2334
 1703SOL    HW216743   0.220   3.224   0.280 -1.1675 -1.2422 -2.2914
 1704SOL     OW16744   2.397   1.789  13.473 -0.2900 -0.4690 -0.2290
 1704SOL    HW116745   2.335   1.852  13.509 -0.3420 -0.6209 -0.0475
 1704SOL    HW216746   2.363   1.703  13.498 -0.6951 -0.6151 -1.2785
 1705SOL     OW16747   0.837   0.557   9.707  0.4308  0.1966 -0.1805
 1705SOL    HW116748   0.776   0.494   9.745  0.8823  0.7487  1.4385
 1705SOL    HW216749   0.855   0.609   9.785 -1.3062 -0.2124  0.4912
 1706SOL     OW16750   0.446   3.624   7.553  0.3479  0.0173  0.7410
 1706SOL    HW116751   0.375   3.658   7.607 -0.5733 -1.3946  0.4358
 1706SOL    HW216752   0.434   3.529   7.563 -2.3876  0.2820  0.0496
 1707SOL     OW16753   4.244   0.916   2.232 -0.0043  0.3411  0.0613
 1707SOL    HW116754   4.274   1.005   2.252 -0.9862  0.7098 -0.0907
 1707SOL    HW216755   4.307   0.876   2.172 -0.0935  0.3343 -0.0278
 1708SOL     OW16756   1.702   1.509  10.079  0.1807  0.1813  0.0749
 1708SOL    HW116757   1.702   1.537  10.170 -2.7497  2.2315 -0.5428
 1708SOL    HW216758   1.622   1.553  10.052 -0.6438 -1.4772 -0.2132
 1709SOL     OW16759   4.262   1.011   2.637  0.1582  0.7102  0.6479
 1709SOL    HW116760   4.327   0.958   2.682 -0.5488  0.0674  0.9254
 1709SOL    HW216761   4.306   1.095   2.624  0.9872  0.2351  0.3871
 1710SOL     OW16762   4.539   0.679  10.430  0.0061 -0.2551  0.2596
 1710SOL    HW116763   4.575   0.622  10.498  1.4646 -2.3977 -2.2717
 1710SOL    HW216764   4.605   0.661  10.362  0.2571  2.2057 -0.1379
 1711SOL     OW16765   0.637   3.579   2.668 -0.4255  0.7756 -0.4641
 1711SOL    HW116766   0.709   3.516   2.675 -1.1959 -0.2078 -1.3149
 1711SOL    HW216767   0.587   3.547   2.593 -1.4463  0.0843  0.5096
 1712SOL     OW16768   1.644   4.393   6.593 -0.0438 -0.0301 -0.1963
 1712SOL    HW116769   1.699   4.320   6.567  0.8589 -0.1603  2.1634
 1712SOL    HW216770   1.624   4.435   6.509 -0.9876  1.1331  0.6066
 1713SOL     OW16771   2.603   1.912   8.551  0.8655  0.0338  0.4518
 1713SOL    HW116772   2.578   2.004   8.563  0.4518  0.1636 -1.4106
 1713SOL    HW216773   2.673   1.904   8.615  0.1309  0.5698  1.3224
 1714SOL     OW16774   2.488   1.937  10.199 -0.3249  0.2730 -0.2664
 1714SOL    HW116775   2.523   2.026  10.201 -1.8625  0.8190  2.4722
 1714SOL    HW216776   2.447   1.943  10.113 -1.0400 -1.2210 -0.0177
 1715SOL     OW16777   0.989   3.750   2.548  0.7859  0.1470 -0.1961
 1715SOL    HW116778   0.944   3.794   2.619  0.4720 -1.3503  0.5365
 1715SOL    HW216779   0.973   3.818   2.483 -1.0718  1.8684  2.0627
 1716SOL     OW16780   0.413   2.038   5.222 -0.1313 -0.6570  0.5576
 1716SOL    HW116781   0.496   2.052   5.267  1.2579 -0.6047 -2.0147
 1716SOL    HW216782   0.405   1.947   5.248 -1.4570 -0.8034 -0.3627
 1717SOL     OW16783   2.542   0.588   7.612  0.7462 -0.1669  0.3892
 1717SOL    HW116784   2.465   0.603   7.666  0.3376  1.6596 -0.6967
 1717SOL    HW216785   2.507   0.504   7.585 -0.2883 -0.0035  1.2079
 1718SOL     OW16786   3.014   3.518  10.839 -0.1423  0.3791 -0.4653
 1718SOL    HW116787   3.085   3.520  10.904  0.5681 -0.2064 -1.2291
 1718SOL    HW216788   3.050   3.437  10.803  1.2514  0.7855  0.0180
 1719SOL     OW16789   0.407   2.468   8.838  0.3298 -0.1119  0.3415
 1719SOL    HW116790   0.365   2.383   8.851  1.4618 -1.0161 -1.9340
 1719SOL    HW216791   0.344   2.536   8.864  1.3240  1.0364 -0.2478
 1720SOL     OW16792   0.549   0.450   2.824  0.8236  0.0526  0.0329
 1720SOL    HW116793   0.478   0.487   2.877  1.9714  1.6889  0.4279
 1720SOL    HW216794   0.603   0.528   2.832  0.1256  0.4917  0.5316
 1721SOL     OW16795   2.448   3.447   7.064  0.6644  0.4533 -0.0257
 1721SOL    HW116796   2.372   3.428   7.118  3.5565 -0.7167  3.6723
 1721SOL    HW216797   2.415   3.517   7.008  0.1398 -1.5833 -2.2349
 1722SOL     OW16798   2.281   4.500   4.060 -0.1289  0.1518 -0.1472
 1722SOL    HW116799   2.194   4.540   4.057  1.2124  3.0313 -0.6106
 1722SOL    HW216800   2.337   4.574   4.040  0.4899 -0.1281  0.5783
 1723SOL     OW16801   1.504   1.530  16.222  0.0114 -0.1253 -0.3206
 1723SOL    HW116802   1.522   1.619  16.193 -3.1960  0.3630 -0.8140
 1723SOL    HW216803   1.588   1.496  16.191  0.4674  0.6715  0.0586
 1724SOL     OW16804   1.605   2.048   9.216 -0.1936  0.5041 -0.3112
 1724SOL    HW116805   1.650   1.964   9.225 -2.7810 -0.9397 -0.9446
 1724SOL    HW216806   1.537   2.043   9.283 -0.2424 -1.0857 -0.4884
 1725SOL     OW16807   2.705   3.838   8.694  0.0601 -0.1588 -0.4889
 1725SOL    HW116808   2.638   3.772   8.709 -0.2849  0.6211  1.4062
 1725SOL    HW216809   2.658   3.919   8.713  1.5481  0.5533  0.1479
 1726SOL     OW16810   2.015   1.778   2.801  0.3602 -0.2154 -0.0111
 1726SOL    HW116811   2.059   1.717   2.860 -0.5887  0.1508  1.0711
 1726SOL    HW216812   2.055   1.760   2.716  0.2672  0.8404 -0.2799
 1727SOL     OW16813   3.968   0.856  16.791 -0.0658 -0.4159  0.4143
 1727SOL    HW116814   4.053   0.834  16.752 -1.2527 -0.0476 -2.3460
 1727SOL    HW216815   3.969   0.806  16.873  0.3295 -1.9394 -0.5225
 1728SOL     OW16816   0.261   2.244   7.546  0.0838 -0.1092  0.4279
 1728SOL    HW116817   0.289   2.327   7.584 -1.5648  0.1811  0.9849
 1728SOL    HW216818   0.190   2.266   7.486 -0.4122 -1.7567  0.4279
 1729SOL     OW16819   2.910   3.683   9.529  0.0718  0.0981  0.1758
 1729SOL    HW116820   2.908   3.705   9.622  0.6502 -0.4157  0.3072
 1729SOL    HW216821   2.842   3.616   9.529 -0.9777  1.1569 -2.2360
 1730SOL     OW16822   4.466   3.050   4.687 -0.4727  0.0034 -0.2076
 1730SOL    HW116823   4.463   3.140   4.719  0.4553 -0.0836  0.1206
 1730SOL    HW216824   4.415   3.063   4.607 -0.4312 -2.2055 -0.5983
 1731SOL     OW16825   1.326   3.917   8.663  0.1880 -0.5956 -0.1968
 1731SOL    HW116826   1.354   3.826   8.674  1.1775 -0.1613  0.9100
 1731SOL    HW216827   1.234   3.915   8.638  0.7717  0.3659 -2.3825
 1732SOL     OW16828   0.956   2.208   7.803  0.0718  0.0163  0.6649
 1732SOL    HW116829   0.897   2.218   7.729 -2.2749  0.2635  2.5430
 1732SOL    HW216830   1.013   2.142   7.764 -0.5291 -1.4586  2.2787
 1733SOL     OW16831   4.667   1.705   9.827  0.1882  0.3572  0.1109
 1733SOL    HW116832   4.576   1.713   9.799  0.4307 -0.8854 -1.0296
 1733SOL    HW216833   4.710   1.770   9.772  0.3610  0.9814  0.9750
 1734SOL     OW16834   1.362   0.121  17.139 -0.1005 -0.0050  0.3012
 1734SOL    HW116835   1.357   0.120  17.043  2.0831 -0.7349  0.1953
 1734SOL    HW216836   1.443   0.169  17.159  0.0537 -0.1006 -0.0929
 1735SOL     OW16837   1.008   1.978   9.884 -0.5966 -0.2494  0.0283
 1735SOL    HW116838   0.956   1.939   9.954 -0.7120  0.6843  0.4607
 1735SOL    HW216839   0.987   1.916   9.814 -0.7935  0.0780 -0.2047
 1736SOL     OW16840   1.580   3.014   3.876 -0.2093  0.0985  0.4913
 1736SOL    HW116841   1.548   2.933   3.918  1.7810 -1.2538 -0.6490
 1736SOL    HW216842   1.534   3.007   3.792  1.7895 -0.9844 -0.5097
 1737SOL     OW16843   0.728   0.247  12.428  0.2442 -0.3194 -0.0566
 1737SOL    HW116844   0.817   0.230  12.458  0.1534 -1.1572 -0.2642
 1737SOL    HW216845   0.679   0.168  12.452  0.5976 -1.0697 -1.8874
 1738SOL     OW16846   1.510   4.218   5.403  1.1661 -0.1505  0.2275
 1738SOL    HW116847   1.490   4.245   5.492 -3.0551  0.4519 -0.8736
 1738SOL    HW216848   1.460   4.282   5.351  0.5536  0.6443  1.8000
 1739SOL     OW16849   3.325   4.315  13.357 -0.2789 -0.6624  0.2307
 1739SOL    HW116850   3.344   4.224  13.380 -3.1937 -1.1794  0.5489
 1739SOL    HW216851   3.409   4.347  13.324  0.3013 -1.8749  0.5285
 1740SOL     OW16852   0.655   3.755   1.637  0.0353  0.2034 -0.2254
 1740SOL    HW116853   0.657   3.850   1.633  2.0364  0.1157 -1.3854
 1740SOL    HW216854   0.564   3.733   1.657  0.0205 -1.8353 -2.4680
 1741SOL     OW16855   1.740   2.551   5.170  0.0192 -0.1597  0.0260
 1741SOL    HW116856   1.652   2.521   5.149 -0.1122 -0.4880  1.0538
 1741SOL    HW216857   1.768   2.497   5.244 -0.3472  0.8898  0.9228
 1742SOL     OW16858   2.736   2.342   0.928 -0.0304 -0.0829  0.1560
 1742SOL    HW116859   2.706   2.288   0.855 -0.6223 -0.8839  0.9924
 1742SOL    HW216860   2.658   2.392   0.951 -0.1746 -0.4377  0.4360
 1743SOL     OW16861   1.181   2.709   4.139 -0.1905  0.2849  0.2792
 1743SOL    HW116862   1.147   2.711   4.228 -0.6300 -1.7226  0.1674
 1743SOL    HW216863   1.161   2.798   4.109  1.0034 -0.1479 -1.8174
 1744SOL     OW16864   3.835   0.758   7.253  0.5943 -0.0819 -0.1968
 1744SOL    HW116865   3.769   0.689   7.249  0.4197  0.0692  0.1047
 1744SOL    HW216866   3.878   0.741   7.169 -0.1393  1.8673 -0.9652
 1745SOL     OW16867   3.847   4.658  14.003  0.2383 -0.4235  0.0842
 1745SOL    HW116868   3.916   4.702  14.052 -0.8740 -0.4202  1.6382
 1745SOL    HW216869   3.849   4.705  13.919  1.7948 -0.7003 -0.0204
 1746SOL     OW16870   2.008   2.252   6.306  0.3613  0.5555 -0.2246
 1746SOL    HW116871   1.982   2.160   6.295 -1.5758  1.2413 -1.4284
 1746SOL    HW216872   1.919   2.286   6.297 -0.1790 -0.6553  0.4518
 1747SOL     OW16873   1.644   0.515  15.355  0.1934  0.5239 -0.1924
 1747SOL    HW116874   1.630   0.597  15.402  1.0036  0.8322 -0.5011
 1747SOL    HW216875   1.576   0.513  15.288 -0.3753  0.3236  0.3854
 1748SOL     OW16876   3.230   3.302   7.917 -0.7395 -0.2419 -0.0823
 1748SOL    HW116877   3.180   3.337   7.991  0.9338 -0.4093  1.1227
 1748SOL    HW216878   3.215   3.378   7.861  2.1578 -0.7078 -1.4829
 1749SOL     OW16879   1.416   0.716   4.554  0.0952 -0.6394  0.4145
 1749SOL    HW116880   1.332   0.692   4.594 -2.1813 -0.0643 -4.0886
 1749SOL    HW216881   1.417   0.643   4.492  0.3457  0.8069 -1.2788
 1750SOL     OW16882   0.164   0.280   5.763  0.1527  0.0327 -0.0088
 1750SOL    HW116883   0.185   0.329   5.684 -3.8650 -0.6118 -1.4855
 1750SOL    HW216884   0.243   0.294   5.814 -0.0519  0.7872  0.1084
 1751SOL     OW16885   3.340   3.146   1.574 -0.3532 -0.1955 -0.3692
 1751SOL    HW116886   3.278   3.125   1.504  1.3815  0.4968 -2.1088
 1751SOL    HW216887   3.307   3.089   1.644  0.8597  1.1506  1.2780
 1752SOL     OW16888   1.816   0.694  16.253  0.1633 -0.5435  0.5627
 1752SOL    HW116889   1.794   0.787  16.260  0.8787 -0.4146  1.1305
 1752SOL    HW216890   1.907   0.686  16.280  0.2976 -0.7863  0.0484
 1753SOL     OW16891   1.985   1.984   4.232 -0.3498 -0.1307  0.2298
 1753SOL    HW116892   2.049   2.039   4.277  1.4798 -1.1326 -1.1211
 1753SOL    HW216893   1.981   1.901   4.280 -1.0909  0.1206  0.5916
 1754SOL     OW16894   3.231   0.465   4.933  0.1948 -0.3869 -0.0902
 1754SOL    HW116895   3.251   0.548   4.977  1.5306  1.1601 -3.6551
 1754SOL    HW216896   3.316   0.455   4.891 -1.0375 -2.0989 -2.1690
 1755SOL     OW16897   1.870   4.227   3.135 -0.1161  0.6398  0.1402
 1755SOL    HW116898   1.869   4.175   3.215  0.1721  2.7782  1.5352
 1755SOL    HW216899   1.776   4.220   3.118  0.1310  1.1542 -1.4186
 1756SOL     OW16900   4.571   3.730   4.822  0.1767  0.7520  0.2160
 1756SOL    HW116901   4.526   3.701   4.743 -0.8276 -0.9550  1.4137
 1756SOL    HW216902   4.607   3.653   4.865 -1.4675  0.1999  0.5966
 1757SOL     OW16903   0.097   0.030  16.625  0.3321  0.4110 -0.3076
 1757SOL    HW116904   0.158   4.728  16.562 -1.3728 -1.2390 -1.0041
 1757SOL    HW216905   0.029   0.066  16.568  0.7623  1.5489 -0.0816
 1758SOL     OW16906   3.824   4.552   6.425 -0.5010  0.2680  0.0526
 1758SOL    HW116907   3.914   4.546   6.459 -1.2530  0.2136  2.0530
 1758SOL    HW216908   3.813   4.647   6.423  2.7255  0.6319 -0.9208
 1759SOL     OW16909   2.310   1.531   7.994  0.3540 -0.1627 -0.1804
 1759SOL    HW116910   2.304   1.623   7.971  0.2098 -0.4168 -1.1548
 1759SOL    HW216911   2.350   1.488   7.919  0.4900 -1.8729  0.8682
 1760SOL     OW16912   3.483   4.224   4.056 -0.0868  0.5290 -0.2308
 1760SOL    HW116913   3.566   4.269   4.040  0.3924 -0.6584 -1.0929
 1760SOL    HW216914   3.444   4.264   4.133  0.6908  0.4900  0.1758
 1761SOL     OW16915   4.021   3.590   5.043  0.3263  0.2952  0.3748
 1761SOL    HW116916   3.966   3.667   5.025  2.9998  2.3390  0.9506
 1761SOL    HW216917   3.980   3.533   4.978  0.5772 -0.3887  0.8200
 1762SOL     OW16918   2.683   0.430   2.139  0.2841 -0.7594 -0.0869
 1762SOL    HW116919   2.657   0.371   2.211  2.2330  1.9466  2.8444
 1762SOL    HW216920   2.591   0.450   2.125  0.1204 -0.0454  2.0118
 1763SOL     OW16921   1.321   1.965  14.003 -0.4194  0.4095  0.0414
 1763SOL    HW116922   1.235   1.982  13.964 -1.0229 -0.3104  1.0815
 1763SOL    HW216923   1.370   2.047  13.994 -0.9864  0.6390 -1.0649
 1764SOL     OW16924   2.056   0.229   3.345  0.2985  0.2239 -0.0883
 1764SOL    HW116925   2.041   0.177   3.266  1.9056 -2.8711  1.6485
 1764SOL    HW216926   2.123   0.180   3.393 -1.1276 -1.9315 -0.2960
 1765SOL     OW16927   2.137   4.719   2.115 -0.2668  0.0174  0.5707
 1765SOL    HW116928   2.163   4.712   2.023 -2.4321  2.0598 -0.1923
 1765SOL    HW216929   2.057   4.668   2.124  0.3906 -1.2989 -1.1140
 1766SOL     OW16930   2.058   2.525   6.016  0.6727  0.4528  0.1527
 1766SOL    HW116931   2.085   2.447   5.968 -0.3957 -0.1961  0.6048
 1766SOL    HW216932   2.131   2.581   5.989  0.8113  0.5089  0.6407
 1767SOL     OW16933   4.638   2.075   6.188  0.6076  0.0081 -0.2751
 1767SOL    HW116934   4.617   1.988   6.224 -2.0073  0.4513 -0.7320
 1767SOL    HW216935   4.607   2.059   6.099 -0.3724 -0.3760  0.1293
 1768SOL     OW16936   2.080   2.081   1.780 -0.8865 -0.1675 -0.0679
 1768SOL    HW116937   2.127   2.146   1.831  0.0798  0.7133 -2.0527
 1768SOL    HW216938   2.132   2.076   1.699  0.2638  0.2246  0.6489
 1769SOL     OW16939   3.468   0.773  15.089  0.2243  0.3957 -0.6274
 1769SOL    HW116940   3.376   0.794  15.109  0.6647  0.4791  1.3565
 1769SOL    HW216941   3.451   0.749  14.998  2.1088 -0.3344 -0.7873
 1770SOL     OW16942   3.158   0.305   2.635 -0.3664 -0.0265 -0.2287
 1770SOL    HW116943   3.239   0.300   2.584 -1.1461  0.3309 -1.4969
 1770SOL    HW216944   3.133   0.397   2.640 -3.4273 -0.8645 -0.4223
 1771SOL     OW16945   0.231   0.966   7.964 -0.4635 -0.3541  0.8519
 1771SOL    HW116946   0.265   0.963   8.054  1.2116  0.5829  0.2604
 1771SOL    HW216947   0.147   1.011   7.974 -0.8707 -0.1903 -3.2881
 1772SOL     OW16948   0.283   1.648   6.440  0.8254  0.1490 -0.2091
 1772SOL    HW116949   0.252   1.578   6.382 -0.4984 -0.2669  1.0248
 1772SOL    HW216950   0.270   1.612   6.527 -1.3293 -1.0532 -1.0265
 1773SOL     OW16951   4.313   2.537   4.803 -0.0458  0.1342 -0.4354
 1773SOL    HW116952   4.339   2.588   4.727  1.4302  0.3470  0.2157
 1773SOL    HW216953   4.253   2.478   4.758  0.2310  0.1186 -0.7839
 1774SOL     OW16954   1.617   0.802   1.447 -0.1228 -0.1083 -0.7541
 1774SOL    HW116955   1.617   0.759   1.533  0.6683  0.4951 -0.4583
 1774SOL    HW216956   1.543   0.755   1.407 -0.3205 -0.2906 -0.1859
 1775SOL     OW16957   1.554   0.305   1.313 -0.4043 -0.3550  0.2941
 1775SOL    HW116958   1.622   0.323   1.247 -2.9693 -0.7738 -2.4729
 1775SOL    HW216959   1.482   0.338   1.259  0.1722  0.9233  0.3077
 1776SOL     OW16960   1.265   2.554  11.302 -0.1277 -0.1554  0.3419
 1776SOL    HW116961   1.282   2.625  11.363  0.8877  1.0199 -1.2985
 1776SOL    HW216962   1.278   2.608  11.224 -2.0294  1.0130  0.8204
 1777SOL     OW16963   1.902   1.231   3.301  0.1776 -0.2489 -0.0681
 1777SOL    HW116964   1.830   1.268   3.250  0.6862 -0.7031 -1.1193
 1777SOL    HW216965   1.974   1.294   3.297 -2.2256  2.5501  0.1264
 1778SOL     OW16966   1.544   1.673   3.754 -0.3721  0.1262  0.9904
 1778SOL    HW116967   1.617   1.654   3.696 -0.5632 -1.3747  1.2352
 1778SOL    HW216968   1.528   1.589   3.797 -2.3426  0.6772  1.3453
 1779SOL     OW16969   1.494   3.956   9.534  0.3122 -0.7532  0.1989
 1779SOL    HW116970   1.427   3.902   9.492 -0.1853 -1.3759  1.8009
 1779SOL    HW216971   1.551   3.970   9.459 -2.1363 -2.1297 -1.9288
 1780SOL     OW16972   3.060   2.441  14.204  0.1070  0.1494 -0.3044
 1780SOL    HW116973   3.139   2.452  14.151  1.7727  3.0027  2.7637
 1780SOL    HW216974   2.997   2.501  14.165 -0.2774  0.1074  0.2469
 1781SOL     OW16975   1.956   2.149   7.734 -0.6623  0.0932  0.8482
 1781SOL    HW116976   1.953   2.059   7.700 -1.7141  0.6012 -0.3851
 1781SOL    HW216977   2.019   2.191   7.676 -1.4709  1.1866  0.7784
 1782SOL     OW16978   3.281   4.012  14.553 -0.0752  0.2030  0.6044
 1782SOL    HW116979   3.226   3.997  14.476  2.4041 -1.8594 -0.7599
 1782SOL    HW216980   3.335   4.076  14.505 -1.9798 -1.7529 -4.1045
 1783SOL     OW16981   0.327   0.440  14.921 -0.1520 -0.0375  0.8980
 1783SOL    HW116982   0.290   0.369  14.869 -0.6281 -1.5156  3.2193
 1783SOL    HW216983   0.403   0.468  14.870  0.2896  1.4608  2.3469
 1784SOL     OW16984   3.403   2.636   9.933  0.0497  0.2390 -0.3825
 1784SOL    HW116985   3.382   2.644  10.026  0.7418  2.8178 -0.4322
 1784SOL    HW216986   3.405   2.541   9.924 -0.6694  0.1925 -0.0722
 1785SOL     OW16987   4.032   2.311   8.531 -0.0605  0.2303  0.6907
 1785SOL    HW116988   4.055   2.222   8.558 -0.5056  0.7638  2.8768
 1785SOL    HW216989   3.996   2.295   8.444 -1.0406 -0.6705  1.2670
 1786SOL     OW16990   2.502   1.521   3.377 -0.4394  0.7472 -0.0106
 1786SOL    HW116991   2.427   1.502   3.320  0.0006 -1.3932  0.1208
 1786SOL    HW216992   2.468   1.574   3.449  0.8000  1.7600 -0.1859
 1787SOL     OW16993   0.707   3.821   8.670 -0.0747 -0.0577 -0.5478
 1787SOL    HW116994   0.647   3.879   8.625  0.3883  1.1277  0.3651
 1787SOL    HW216995   0.737   3.877   8.742  1.3875 -0.3038 -0.9530
 1788SOL     OW16996   0.465   1.420   2.856  0.5132  0.6421 -0.0013
 1788SOL    HW116997   0.394   1.378   2.904 -0.6691  0.1979 -2.1668
 1788SOL    HW216998   0.414   1.446   2.779 -0.9241 -1.2843  0.3232
 1789SOL     OW16999   3.889   3.992   8.824  0.4005 -0.3989  0.2992
 1789SOL    HW117000   3.897   3.920   8.762 -0.8870 -0.4401  0.1906
 1789SOL    HW217001   3.853   3.942   8.897 -1.8369 -1.4379 -1.5567
 1790SOL     OW17002   2.818   3.597   8.837 -0.1666  0.0537  0.6147
 1790SOL    HW117003   2.846   3.647   8.914  2.3689 -2.1178  1.0862
 1790SOL    HW217004   2.830   3.507   8.866 -0.5097 -0.0133  0.5554
 1791SOL     OW17005   1.317   4.044  15.285  0.3493  0.2412 -0.1144
 1791SOL    HW117006   1.299   4.117  15.226  0.2861 -1.0953 -1.7322
 1791SOL    HW217007   1.247   3.980  15.272  0.1453  0.2611  0.8824
 1792SOL     OW17008   2.294   4.227  15.730  0.5035 -0.7286  0.7713
 1792SOL    HW117009   2.367   4.281  15.759 -0.0239  0.6715 -0.4981
 1792SOL    HW217010   2.328   4.177  15.657 -2.5555 -2.1197  0.2764
 1793SOL     OW17011   4.225   1.343   8.937 -0.0382  0.2021 -0.0830
 1793SOL    HW117012   4.264   1.425   8.908  0.0080  0.0514 -0.4571
 1793SOL    HW217013   4.270   1.280   8.879  1.6359  1.2164  0.1038
 1794SOL     OW17014   2.414   2.409   3.013  0.0462  0.2274 -0.3360
 1794SOL    HW117015   2.334   2.389   3.062  0.5782 -1.3003 -0.0892
 1794SOL    HW217016   2.478   2.432   3.080 -1.9278  0.1919  1.5598
 1795SOL     OW17017   0.706   1.815   7.195 -0.0090 -0.2517  0.3104
 1795SOL    HW117018   0.645   1.870   7.245  0.2459  1.3025 -1.0738
 1795SOL    HW217019   0.785   1.862   7.220 -1.1421  2.2187 -0.6940
 1796SOL     OW17020   2.754   0.476  15.647  0.1686 -0.2174  0.0757
 1796SOL    HW117021   2.765   0.381  15.646  0.3659 -0.1754 -1.7543
 1796SOL    HW217022   2.709   0.482  15.732  0.0842  3.3939 -0.1974
 1797SOL     OW17023   2.279   1.616   7.659  0.0047  0.0714 -0.1666
 1797SOL    HW117024   2.286   1.540   7.601 -1.7188 -1.6452  1.8808
 1797SOL    HW217025   2.369   1.647   7.673 -0.5969  2.0782 -0.8094
 1798SOL     OW17026   1.455   4.135   5.779 -0.3577 -0.1398 -0.4126
 1798SOL    HW117027   1.403   4.214   5.792 -1.8390 -1.2063  0.1232
 1798SOL    HW217028   1.541   4.174   5.764 -0.1575 -0.5977 -0.4591
 1799SOL     OW17029   0.936   0.337   1.448 -0.4441  0.0672  0.1764
 1799SOL    HW117030   0.873   0.322   1.519 -1.2428 -2.1240 -0.9957
 1799SOL    HW217031   0.918   0.263   1.391 -1.8244  0.1151  0.5522
 1800SOL     OW17032   1.710   4.247   3.660 -0.0116  0.3801 -0.3255
 1800SOL    HW117033   1.717   4.334   3.700  1.8161 -0.5948  1.4831
 1800SOL    HW217034   1.782   4.250   3.598  1.4733 -0.1523  1.3736
 1801SOL     OW17035   2.616   3.375  14.495 -0.0707 -0.3024  0.5240
 1801SOL    HW117036   2.539   3.428  14.515  1.1109  0.7009  2.5014
 1801SOL    HW217037   2.578   3.288  14.480  2.0075 -1.2387  0.6400
 1802SOL     OW17038   1.605   1.031   7.763  0.0205 -0.3768 -0.1913
 1802SOL    HW117039   1.517   1.058   7.736  0.4787 -0.3661 -1.7035
 1802SOL    HW217040   1.611   0.939   7.737 -0.0786  0.2751 -2.5479
 1803SOL     OW17041   1.598   2.252  14.997  0.7039 -0.2283  0.5321
 1803SOL    HW117042   1.577   2.337  15.037 -1.8322 -0.6442  0.0899
 1803SOL    HW217043   1.670   2.224  15.054  0.9237  0.5168  0.6222
 1804SOL     OW17044   4.064   3.650   7.305 -0.4650 -0.3494 -0.6396
 1804SOL    HW117045   4.104   3.593   7.240 -0.1186  0.3386 -1.0307
 1804SOL    HW217046   4.085   3.601   7.384  0.0477  0.7379 -0.1022
 1805SOL     OW17047   1.510   4.673   5.101  0.4874  0.3322 -0.0517
 1805SOL    HW117048   1.455   0.013   5.124  0.4606  0.4128 -0.3767
 1805SOL    HW217049   1.456   4.599   5.129 -0.5955  1.1654  0.0643
 1806SOL     OW17050   0.943   3.660  16.001 -0.1449  0.1706 -0.5200
 1806SOL    HW117051   0.885   3.736  16.003  0.1712  0.4759 -2.4768
 1806SOL    HW217052   1.021   3.700  15.961 -1.7751  2.5003 -1.4027
 1807SOL     OW17053   0.796   4.686   1.922  0.4410  0.7590 -0.0950
 1807SOL    HW117054   0.755   4.711   2.005 -0.1659  1.7978 -0.7060
 1807SOL    HW217055   0.779   0.027   1.866 -1.2851 -0.0130 -0.6210
 1808SOL     OW17056   1.497   2.975  16.507  0.7981 -0.1719 -0.2999
 1808SOL    HW117057   1.502   2.884  16.537 -1.5432 -0.6955 -1.4758
 1808SOL    HW217058   1.572   3.017  16.548 -0.2788  0.2694  1.2363
 1809SOL     OW17059   0.509   2.019   7.706  0.1368 -0.1643 -0.0829
 1809SOL    HW117060   0.581   2.006   7.769  0.1994  1.7757  0.2364
 1809SOL    HW217061   0.533   1.947   7.647  0.0376 -0.2709  0.0052
 1810SOL     OW17062   3.462   0.637   9.564  0.3287 -0.5122  1.0168
 1810SOL    HW117063   3.478   0.552   9.523 -0.8907 -0.8029  1.1216
 1810SOL    HW217064   3.550   0.670   9.548 -0.1944  0.4102  0.1033
 1811SOL     OW17065   4.240   3.696   6.345 -0.0427 -0.0061  0.5280
 1811SOL    HW117066   4.160   3.719   6.393 -0.6185 -2.0519  0.5259
 1811SOL    HW217067   4.256   3.781   6.303 -0.8579 -1.0156 -1.8250
 1812SOL     OW17068   3.600   0.083   2.284  0.7439  0.1986 -0.5157
 1812SOL    HW117069   3.688   0.056   2.260 -0.1247 -2.0507 -1.1798
 1812SOL    HW217070   3.598   0.087   2.379 -1.5635  0.2553 -0.5678
 1813SOL     OW17071   0.760   2.613  15.396  0.8116 -0.0340 -0.2990
 1813SOL    HW117072   0.734   2.551  15.465 -0.3615  2.1964  1.2672
 1813SOL    HW217073   0.777   2.697  15.439  1.8143 -0.1800 -0.3932
 1814SOL     OW17074   1.589   0.131  11.942  0.3648 -0.2769  0.1492
 1814SOL    HW117075   1.589   0.082  12.024 -2.8225 -1.1850 -0.3805
 1814SOL    HW217076   1.583   0.218  11.981  0.2595 -0.5228  0.6876
 1815SOL     OW17077   3.204   1.589   6.996 -0.6031 -0.2948  0.5247
 1815SOL    HW117078   3.141   1.623   6.933  0.2652 -0.6658 -0.5371
 1815SOL    HW217079   3.289   1.617   6.963 -0.2927 -0.3757  1.2453
 1816SOL     OW17080   0.910   1.496   7.280 -0.3314  0.1426 -0.0571
 1816SOL    HW117081   0.867   1.526   7.200  1.3279  0.5336 -0.8154
 1816SOL    HW217082   0.884   1.404   7.277  0.9738 -0.2299 -0.1450
 1817SOL     OW17083   1.543   1.094   8.559 -0.4295  0.4791  0.1999
 1817SOL    HW117084   1.538   1.036   8.635 -1.6894  2.3389  1.5262
 1817SOL    HW217085   1.635   1.086   8.533 -0.5037  0.9962 -0.2169
 1818SOL     OW17086   0.525   1.220   9.983 -0.0098 -0.3666 -0.8450
 1818SOL    HW117087   0.499   1.219  10.075 -1.2919  1.4257 -1.1921
 1818SOL    HW217088   0.441   1.223   9.937 -0.6316  1.4052  0.4191
 1819SOL     OW17089   2.950   3.323   8.090  0.4146  0.0197 -0.1140
 1819SOL    HW117090   3.011   3.390   8.121 -0.0343 -0.3083  1.4677
 1819SOL    HW217091   3.005   3.265   8.037 -1.2559 -0.3529 -1.4533
 1820SOL     OW17092   0.887   2.342   6.920 -0.2770  0.2970  0.2795
 1820SOL    HW117093   0.930   2.416   6.877 -0.3497 -1.0400 -2.1124
 1820SOL    HW217094   0.962   2.293   6.953 -0.2977  0.4615  0.5698
 1821SOL     OW17095   0.979   0.365   7.702 -0.4722  0.0334 -0.1441
 1821SOL    HW117096   1.013   0.376   7.791  1.1214 -0.8086 -0.6432
 1821SOL    HW217097   0.941   0.278   7.707  0.1682 -0.3298 -1.7220
 1822SOL     OW17098   2.680   2.472   4.489  0.5079  0.1143  0.2973
 1822SOL    HW117099   2.753   2.425   4.447 -0.7203 -0.9481 -0.6392
 1822SOL    HW217100   2.705   2.562   4.466 -0.3427  0.4159  0.5786
 1823SOL     OW17101   1.545   1.015   1.200  0.4841  0.1774  0.4692
 1823SOL    HW117102   1.606   1.087   1.182  0.6420  0.0890  0.6507
 1823SOL    HW217103   1.539   1.016   1.295  0.8328 -2.7851  0.4991
 1824SOL     OW17104   2.681   2.678   5.248  0.0215  0.2487 -0.4283
 1824SOL    HW117105   2.753   2.729   5.211  0.0440  1.8767  1.8155
 1824SOL    HW217106   2.621   2.668   5.174 -0.5122  0.5621 -0.0397
 1825SOL     OW17107   2.662   0.134  17.519 -0.0482  0.4069  0.0824
 1825SOL    HW117108   2.602   0.106  17.450  0.9925 -0.4975 -0.4540
 1825SOL    HW217109   2.730   0.070  17.498 -2.4942 -1.2852 -2.5727
 1826SOL     OW17110   3.667   2.391  14.822 -0.5973 -0.0287 -0.0148
 1826SOL    HW117111   3.761   2.378  14.814 -0.3315  2.2304 -0.4363
 1826SOL    HW217112   3.643   2.298  14.820  1.8199 -0.6196 -1.5257
 1827SOL     OW17113   3.753   1.217   2.700 -0.0555  0.6303  0.3600
 1827SOL    HW117114   3.769   1.148   2.764 -4.2246  1.3756  2.2341
 1827SOL    HW217115   3.697   1.176   2.634 -0.1637 -1.0160  1.4962
 1828SOL     OW17116   3.251   1.094   3.232 -0.1688 -0.2185  0.0916
 1828SOL    HW117117   3.163   1.058   3.228 -0.4790  0.1979  2.6349
 1828SOL    HW217118   3.297   1.027   3.182  1.6563  1.2787 -0.2271
 1829SOL     OW17119   1.273   2.278   7.588 -0.0618 -0.5347  0.0139
 1829SOL    HW117120   1.297   2.354   7.534  1.2942  0.3880  1.8757
 1829SOL    HW217121   1.303   2.315   7.671 -0.1939 -1.4220  0.4545
 1830SOL     OW17122   2.637   0.706   8.034 -0.1659  0.1509 -0.4872
 1830SOL    HW117123   2.654   0.714   7.941 -1.3459 -1.6122 -0.8540
 1830SOL    HW217124   2.672   0.618   8.045 -0.2519 -0.0296 -1.7578
 1831SOL     OW17125   2.783   0.988   3.461 -0.4708  0.0235  0.7660
 1831SOL    HW117126   2.768   0.916   3.521  1.3953 -1.8297 -0.9961
 1831SOL    HW217127   2.791   1.063   3.521  0.7917 -0.2202  0.8943
 1832SOL     OW17128   0.430   2.528   5.045  0.4352 -0.1163  0.2670
 1832SOL    HW117129   0.448   2.481   5.126  0.6365 -1.7716 -0.7440
 1832SOL    HW217130   0.358   2.580   5.081  0.8641  0.9343 -0.3894
 1833SOL     OW17131   4.698   1.927   5.212  0.1473  0.1584 -0.2701
 1833SOL    HW117132   0.038   1.906   5.267 -0.3461  0.3132  0.4564
 1833SOL    HW217133   4.641   1.851   5.217  0.2227  0.0447 -1.0794
 1834SOL     OW17134   2.271   3.296   9.161  0.0612  0.1682 -0.1359
 1834SOL    HW117135   2.262   3.270   9.069 -0.2030 -0.1089 -0.0326
 1834SOL    HW217136   2.241   3.387   9.160  0.8302  0.4158 -0.1685
 1835SOL     OW17137   1.953   3.368  17.561  0.2619  0.6106  0.1912
 1835SOL    HW117138   1.939   3.276  17.537  1.2489  0.9697 -1.7529
 1835SOL    HW217139   1.996   3.355  17.646 -2.1636  1.9029  1.6037
 1836SOL     OW17140   3.488   1.462   7.919  0.2311  0.2078 -0.5523
 1836SOL    HW117141   3.484   1.472   8.014 -1.3177 -1.5484 -0.4367
 1836SOL    HW217142   3.469   1.368   7.919 -1.0912  0.4735  0.0289
 1837SOL     OW17143   0.291   3.203  16.315 -0.2973  0.2500 -0.0613
 1837SOL    HW117144   0.361   3.250  16.360  1.2928 -0.2918 -1.9769
 1837SOL    HW217145   0.230   3.191  16.388  0.4617 -2.4108  0.1637
 1838SOL     OW17146   2.830   0.125  11.285  0.3276 -0.0244  0.1245
 1838SOL    HW117147   2.887   0.069  11.339  0.4985 -3.0698 -3.1746
 1838SOL    HW217148   2.903   0.144  11.226 -1.0596  1.2922 -1.1640
 1839SOL     OW17149   0.837   4.122   8.033 -0.4010  0.3652  0.5443
 1839SOL    HW117150   0.870   4.125   8.123  1.9943  0.6639 -0.3313
 1839SOL    HW217151   0.751   4.160   8.049 -1.1678 -0.6876 -1.1033
 1840SOL     OW17152   2.620   2.096   6.916 -0.4727 -0.3762 -0.0807
 1840SOL    HW117153   2.685   2.028   6.898  1.3755  1.0816  1.0594
 1840SOL    HW217154   2.579   2.093   6.829 -0.9768  3.1550  0.0366
 1841SOL     OW17155   3.673   0.523   1.536 -0.1433  0.1287 -0.7654
 1841SOL    HW117156   3.750   0.563   1.496  1.2605 -0.7546  1.0616
 1841SOL    HW217157   3.714   0.445   1.573 -1.5312  0.3799  1.3129
 1842SOL     OW17158   4.732   2.818   2.505 -0.7909  0.3383  0.0693
 1842SOL    HW117159   4.674   2.817   2.429 -0.8738 -2.6612  0.1658
 1842SOL    HW217160   0.060   2.888   2.488 -1.5143  1.1007  0.5085
 1843SOL     OW17161   4.306   2.698  14.275 -1.0012 -0.1524  0.0071
 1843SOL    HW117162   4.304   2.695  14.370  1.1095  0.9306  0.0970
 1843SOL    HW217163   4.383   2.753  14.263  0.6143 -2.5898 -0.9111
 1844SOL     OW17164   4.493   3.658   2.437 -0.1037 -0.2968  0.4108
 1844SOL    HW117165   4.566   3.704   2.395 -0.6672 -0.8290 -1.1381
 1844SOL    HW217166   4.426   3.724   2.419 -0.4884 -0.4818  1.1672
 1845SOL     OW17167   2.789   2.584   8.087  0.1699  0.2577 -0.4519
 1845SOL    HW117168   2.791   2.494   8.119 -0.9932  1.1636  2.2077
 1845SOL    HW217169   2.871   2.612   8.130 -0.1787  0.8748 -0.1943
 1846SOL     OW17170   3.756   2.698   5.003  0.3781 -0.3806 -0.4606
 1846SOL    HW117171   3.791   2.692   5.092 -4.2509  1.1076  1.4693
 1846SOL    HW217172   3.680   2.754   5.017  0.7033 -0.4164  1.5607
 1847SOL     OW17173   2.628   0.696  15.401  0.5216  0.3335  0.0897
 1847SOL    HW117174   2.675   0.622  15.363 -0.9660 -0.4704 -0.1803
 1847SOL    HW217175   2.699   0.736  15.452 -0.8839  2.0334  0.7071
 1848SOL     OW17176   1.069   2.751  12.695  0.2037  0.1397 -0.1779
 1848SOL    HW117177   1.031   2.811  12.631 -1.3247  0.7488  1.2895
 1848SOL    HW217178   1.128   2.798  12.754  1.1666 -0.3617 -0.7398
 1849SOL     OW17179   3.951   0.607   2.550  0.6705  0.3127 -0.1912
 1849SOL    HW117180   3.959   0.645   2.637 -1.5209  0.0729  0.1341
 1849SOL    HW217181   4.012   0.667   2.509 -0.4697  1.6359  0.0518
 1850SOL     OW17182   1.646   4.679   1.235 -0.2831 -0.4322  0.1285
 1850SOL    HW117183   1.710   4.699   1.304  0.3662 -0.2730 -0.5202
 1850SOL    HW217184   1.574   4.719   1.285 -0.9028 -2.1325  0.5734
 1851SOL     OW17185   3.963   0.092   7.746 -0.0749 -0.0600  0.0848
 1851SOL    HW117186   3.890   0.040   7.711 -0.6624 -0.0233  1.2717
 1851SOL    HW217187   4.043   0.043   7.725  0.6792  0.4893  1.6647
 1852SOL     OW17188   1.456   3.728  13.852 -0.1689  0.2232  0.0392
 1852SOL    HW117189   1.539   3.753  13.892 -0.0613  0.2663 -0.2086
 1852SOL    HW217190   1.487   3.653  13.802 -1.7690 -0.1770 -0.3676
 1853SOL     OW17191   0.026   3.492   3.807  0.4485 -0.2176 -0.2457
 1853SOL    HW117192   4.700   3.506   3.734 -0.1581  1.2048  0.5244
 1853SOL    HW217193   0.105   3.531   3.768  1.7091 -1.4288  1.1180
 1854SOL     OW17194   1.451   2.043  12.008  0.1905 -0.7118 -0.1593
 1854SOL    HW117195   1.396   2.009  12.079 -0.6363  0.5105 -0.2251
 1854SOL    HW217196   1.537   2.009  12.033  0.3731 -0.5836 -0.6288
 1855SOL     OW17197   2.142   3.755   9.419  0.2148  0.1871  0.2451
 1855SOL    HW117198   2.141   3.776   9.326  0.4532  1.6877  0.5866
 1855SOL    HW217199   2.125   3.841   9.457  0.5523  0.6740 -0.7171
 1856SOL     OW17200   2.131   0.278   6.177 -0.4588  0.0075  0.1206
 1856SOL    HW117201   2.192   0.332   6.226  0.3123 -1.5760  0.9093
 1856SOL    HW217202   2.178   0.196   6.190  0.6655  0.4087 -1.5132
 1857SOL     OW17203   4.090   2.339   2.486  0.4113  0.1193 -0.3651
 1857SOL    HW117204   4.150   2.395   2.437  0.7738  1.2460  1.3760
 1857SOL    HW217205   4.150   2.273   2.521  1.1872  0.7858 -0.4471
 1858SOL     OW17206   0.502   4.684   6.729 -0.0927  0.2258  0.4516
 1858SOL    HW117207   0.497   0.032   6.682  2.6699 -0.3173 -0.8423
 1858SOL    HW217208   0.458   4.710   6.810  0.9217 -0.3566  1.1955
 1859SOL     OW17209   4.339   2.381  12.148  0.2113  0.1398  0.2874
 1859SOL    HW117210   4.324   2.299  12.101  0.8269 -1.2402  2.5324
 1859SOL    HW217211   4.284   2.370  12.225 -1.3568  0.0584 -0.8328
 1860SOL     OW17212   4.101   4.284   7.512 -0.1944  0.1560  0.1783
 1860SOL    HW117213   4.090   4.358   7.571 -0.1141 -1.2584  1.9755
 1860SOL    HW217214   4.144   4.330   7.440  0.1081  2.2907  1.7274
 1861SOL     OW17215   0.522   0.228   1.287  0.2359 -0.0507 -0.3429
 1861SOL    HW117216   0.551   0.163   1.223 -0.5175  0.0700 -0.7993
 1861SOL    HW217217   0.431   0.247   1.266 -0.6787 -2.2635  1.5198
 1862SOL     OW17218   0.515   4.435   9.939 -0.5069  0.0164  0.4067
 1862SOL    HW117219   0.465   4.510   9.906  0.5266  0.8244  0.6825
 1862SOL    HW217220   0.453   4.403  10.004 -0.5466 -0.1141  0.3037
 1863SOL     OW17221   3.888   0.515  10.573  0.0035  0.4535 -0.0472
 1863SOL    HW117222   3.959   0.480  10.627  0.6836  1.2484 -0.4327
 1863SOL    HW217223   3.824   0.532  10.642  2.5613 -0.6663  2.6211
 1864SOL     OW17224   2.502   2.174   8.629 -0.1463  0.3208 -0.2187
 1864SOL    HW117225   2.409   2.179   8.648  0.5258 -1.3110  3.4734
 1864SOL    HW217226   2.537   2.192   8.716 -0.5159  0.5763 -0.1236
 1865SOL     OW17227   4.048   3.249   5.006  0.3963  0.7163  0.2528
 1865SOL    HW117228   3.998   3.313   4.955 -0.6182 -0.8669 -0.7326
 1865SOL    HW217229   4.029   3.166   4.961 -1.6132  0.2282  2.0295
 1866SOL     OW17230   4.234   3.904   1.437 -0.2455 -0.2524 -0.2686
 1866SOL    HW117231   4.304   3.966   1.455 -0.9444  0.7315 -0.8917
 1866SOL    HW217232   4.263   3.823   1.478 -1.6777 -0.7779 -0.2807
 1867SOL     OW17233   1.286   3.127  16.086 -0.1882 -0.8015 -0.0406
 1867SOL    HW117234   1.361   3.072  16.107  0.5160  0.3383  0.4246
 1867SOL    HW217235   1.336   3.190  16.033 -0.1782 -0.5957  0.2181
 1868SOL     OW17236   2.385   2.993   6.402 -0.1543  0.5160  0.2759
 1868SOL    HW117237   2.312   2.961   6.347  0.8001 -0.6023 -0.3356
 1868SOL    HW217238   2.337   3.075   6.416 -1.2316 -0.1502  0.5567
 1869SOL     OW17239   1.649   0.676   1.052  0.4311 -0.4860 -0.4994
 1869SOL    HW117240   1.580   0.650   0.991 -0.7573  2.4639 -0.4293
 1869SOL    HW217241   1.718   0.700   0.990  0.7961  0.2690  0.1913
 1870SOL     OW17242   4.103   2.484   9.148 -0.2207 -0.3705 -0.4987
 1870SOL    HW117243   4.144   2.469   9.062  1.7450 -1.6312  0.6646
 1870SOL    HW217244   4.179   2.467   9.203 -0.1366 -1.7721 -1.0511
 1871SOL     OW17245   0.749   1.963   3.878 -0.2190 -0.1588  0.2906
 1871SOL    HW117246   0.745   1.906   3.954 -2.2082 -0.7056 -0.2096
 1871SOL    HW217247   0.738   1.898   3.808  0.2493  2.2361 -2.0361
 1872SOL     OW17248   4.472   2.371   9.758  0.1182 -0.5733  0.0220
 1872SOL    HW117249   4.525   2.305   9.713  2.1918  1.2968 -0.2889
 1872SOL    HW217250   4.397   2.371   9.698 -1.2755  1.6280  1.7603
 1873SOL     OW17251   0.348   3.700   6.746  0.6861  0.0241  0.2203
 1873SOL    HW117252   0.253   3.693   6.742  0.7853 -0.0786 -1.9771
 1873SOL    HW217253   0.373   3.649   6.669 -0.7274 -2.0912  1.1695
 1874SOL     OW17254   3.104   4.717   5.066 -0.2778 -0.3870 -0.4141
 1874SOL    HW117255   3.063   0.025   4.991 -0.4965 -0.7553 -0.5029
 1874SOL    HW217256   3.136   4.637   5.026  0.7951  0.6666 -1.6635
 1875SOL     OW17257   4.099   0.753   1.285  1.1618 -0.5444 -0.1672
 1875SOL    HW117258   4.110   0.847   1.269  0.1536 -0.2911  0.6028
 1875SOL    HW217259   4.026   0.763   1.346  1.6834  1.2491  0.1534
 1876SOL     OW17260   1.330   1.992   5.186  0.3118 -0.3233  0.6179
 1876SOL    HW117261   1.242   2.002   5.150  0.0113  0.0498  1.4417
 1876SOL    HW217262   1.357   1.918   5.133  1.2395 -0.9447  1.9555
 1877SOL     OW17263   1.315   4.355   4.049 -0.2617 -0.5928  1.2628
 1877SOL    HW117264   1.241   4.322   4.100  0.0340  1.1214  2.7892
 1877SOL    HW217265   1.375   4.382   4.118  1.0540 -1.2314  0.3751
 1878SOL     OW17266   4.608   1.310   1.014 -0.5050  0.7380  0.3171
 1878SOL    HW117267   4.699   1.295   0.987 -1.0555 -1.3303 -0.3856
 1878SOL    HW217268   4.619   1.364   1.092 -3.3413  1.6494  0.0772
 1879SOL     OW17269   2.091   0.623  16.290  0.9419  0.3113 -0.1641
 1879SOL    HW117270   2.156   0.670  16.238  0.5086  3.4607  2.1539
 1879SOL    HW217271   2.121   0.533  16.277 -0.4947 -0.3442  1.0622
 1880SOL     OW17272   0.936   2.146   4.619  0.0127 -0.0783 -0.1508
 1880SOL    HW117273   0.873   2.132   4.690 -1.3556  0.5060 -1.2552
 1880SOL    HW217274   0.901   2.226   4.579  2.3673  0.5563 -0.9268
 1881SOL     OW17275   4.696   1.271  14.018 -0.0781 -0.5389  0.2405
 1881SOL    HW117276   4.694   1.349  14.072  0.2621  0.5333 -1.3086
 1881SOL    HW217277   4.608   1.273  13.979 -0.6140  0.2959  1.4783
 1882SOL     OW17278   2.799   3.898   4.671 -0.5346 -0.1418  0.3555
 1882SOL    HW117279   2.759   3.956   4.736 -0.1080  0.9299 -0.3423
 1882SOL    HW217280   2.858   3.966   4.639  0.3719 -0.2270  1.8613
 1883SOL     OW17281   2.495   3.718   0.606  0.0349 -0.1390 -0.7620
 1883SOL    HW117282   2.544   3.714   0.524 -1.2470  1.2055 -1.5872
 1883SOL    HW217283   2.425   3.777   0.578  1.2948 -0.0698 -3.8018
 1884SOL     OW17284   3.675   4.258   8.025 -0.2116  0.3024  0.3259
 1884SOL    HW117285   3.678   4.275   8.120 -0.0794  0.6380  0.2626
 1884SOL    HW217286   3.748   4.196   8.014  1.0006  1.3054  2.4879
 1885SOL     OW17287   2.142   4.654   6.483 -0.5369 -0.2889  0.6348
 1885SOL    HW117288   2.166   4.697   6.401 -3.4369  1.0172  0.4799
 1885SOL    HW217289   2.220   4.669   6.536  1.0488 -3.9224 -0.6043
 1886SOL     OW17290   4.205   2.585   1.900 -0.4019 -0.3012 -0.4840
 1886SOL    HW117291   4.148   2.660   1.882  0.7915  1.3582  2.4630
 1886SOL    HW217292   4.281   2.602   1.844  0.6690 -1.1991  0.6952
 1887SOL     OW17293   2.142   4.100  16.610 -0.3817 -0.0612 -0.7090
 1887SOL    HW117294   2.089   4.023  16.631  2.6912 -1.8110  0.5568
 1887SOL    HW217295   2.086   4.170  16.641 -0.9525 -1.0222  0.4150
 1888SOL     OW17296   0.264   1.540   3.997 -0.5152 -0.1796  0.7198
 1888SOL    HW117297   0.217   1.467   4.038 -2.2729  0.0933 -0.8440
 1888SOL    HW217298   0.261   1.600   4.071 -0.5354  1.6906 -0.8059
 1889SOL     OW17299   0.270   3.945   9.530  0.1804 -0.7140 -0.7983
 1889SOL    HW117300   0.243   3.867   9.578 -2.5908  1.1203  0.6591
 1889SOL    HW217301   0.190   3.998   9.528 -0.1573 -1.2044 -0.2472
 1890SOL     OW17302   3.744   3.599   8.868  0.2571  0.1828 -0.1669
 1890SOL    HW117303   3.703   3.519   8.900 -1.1291  0.7961 -0.4049
 1890SOL    HW217304   3.716   3.601   8.777 -2.8194  0.0150  0.7728
 1891SOL     OW17305   4.299   3.421   6.367 -0.1771  0.5550  0.4627
 1891SOL    HW117306   4.262   3.407   6.280 -0.8673  0.1826  0.8144
 1891SOL    HW217307   4.290   3.516   6.377  1.7871  0.7645  0.1037
 1892SOL     OW17308   0.273   3.686   4.759 -0.7791  0.0241 -0.2290
 1892SOL    HW117309   0.294   3.601   4.721  0.6584 -0.2307  1.1095
 1892SOL    HW217310   0.356   3.734   4.752 -0.7740  0.3188  1.8952
 1893SOL     OW17311   4.206   3.969   3.500  0.0985 -0.5369  0.4386
 1893SOL    HW117312   4.252   4.052   3.514 -1.0142  0.2659 -0.6934
 1893SOL    HW217313   4.242   3.953   3.412 -0.8622 -0.3689  0.0144
 1894SOL     OW17314   1.557   0.055   0.829  0.1486  0.3270 -0.1043
 1894SOL    HW117315   1.642   0.096   0.839 -0.3578  1.0206  1.3336
 1894SOL    HW217316   1.557   0.021   0.739 -1.0680 -0.8662  0.3503
 1895SOL     OW17317   3.614   4.212   5.343  0.3782 -0.2992 -0.3107
 1895SOL    HW117318   3.673   4.275   5.384 -1.2033 -0.0705  1.6266
 1895SOL    HW217319   3.665   4.180   5.268  0.8748 -0.8128  0.2430
 1896SOL     OW17320   3.731   2.423   6.998  0.0226 -0.0270  0.0560
 1896SOL    HW117321   3.667   2.383   7.056  1.0938  0.2122  1.4294
 1896SOL    HW217322   3.723   2.358   6.928 -1.0852  1.8165 -1.5320
 1897SOL     OW17323   4.684   4.450  10.147  0.1202 -0.5583 -0.5025
 1897SOL    HW117324   0.020   4.508  10.173  0.1690 -0.5919 -0.5603
 1897SOL    HW217325   4.615   4.501  10.104 -0.2511  0.4168  1.2600
 1898SOL     OW17326   1.770   3.909   5.992 -1.0383  0.2411 -0.2685
 1898SOL    HW117327   1.827   3.852   5.940  0.4380  0.5889  0.9779
 1898SOL    HW217328   1.688   3.861   5.986  0.2272 -1.9275 -0.3425
 1899SOL     OW17329   2.108   1.744   1.599 -0.2321 -0.3813 -0.4549
 1899SOL    HW117330   2.189   1.693   1.602  0.3229  0.3663 -2.9849
 1899SOL    HW217331   2.093   1.739   1.505  0.4960  0.6537 -0.6302
 1900SOL     OW17332   1.997   0.817  17.289 -0.2367  0.0534 -0.5843
 1900SOL    HW117333   2.085   0.833  17.255  0.0574 -0.6470 -0.1724
 1900SOL    HW217334   1.931   0.839  17.224 -0.0368  0.7585 -0.5479
 1901SOL     OW17335   2.348   3.324   9.440 -0.1366 -0.0994 -0.6897
 1901SOL    HW117336   2.363   3.337   9.346  0.1790  2.4274 -0.2877
 1901SOL    HW217337   2.263   3.367   9.446  0.5629  1.1490  0.2401
 1902SOL     OW17338   3.254   2.763   3.785 -0.9288  0.4640 -0.2656
 1902SOL    HW117339   3.244   2.673   3.818 -0.4420  0.1996 -0.8275
 1902SOL    HW217340   3.193   2.768   3.712  0.3944 -2.0171 -1.5384
 1903SOL     OW17341   3.150   0.238   5.514  0.3486 -0.3257 -0.1549
 1903SOL    HW117342   3.086   0.307   5.530  0.6984  0.1542 -0.8505
 1903SOL    HW217343   3.188   0.235   5.602 -0.4959 -1.5011  0.1693
 1904SOL     OW17344   0.840   1.756   3.002 -0.2417 -0.3160  0.0074
 1904SOL    HW117345   0.777   1.692   2.969 -0.1036  0.6635 -2.1813
 1904SOL    HW217346   0.818   1.801   3.083  2.3131  1.1340 -0.0996
 1905SOL     OW17347   2.675   3.045   2.306 -0.4361  0.3870 -0.2178
 1905SOL    HW117348   2.688   2.988   2.230 -0.2342 -0.5831  0.5352
 1905SOL    HW217349   2.596   3.012   2.349 -0.8103 -1.3549 -2.2449
 1906SOL     OW17350   4.073   2.383   7.192  0.5121 -0.0554  0.0224
 1906SOL    HW117351   4.039   2.295   7.173 -0.9684  0.6872 -0.7794
 1906SOL    HW217352   4.150   2.369   7.248 -0.7991 -0.9443  1.6085
 1907SOL     OW17353   3.770   3.014   0.622 -0.2129  1.0034  0.1431
 1907SOL    HW117354   3.719   2.933   0.613 -1.5745  1.6229  2.5705
 1907SOL    HW217355   3.707   3.086   0.613 -1.0937  0.2793  0.5432
 1908SOL     OW17356   2.980   3.535   3.915  0.1783  0.1859  0.1520
 1908SOL    HW117357   3.064   3.493   3.929 -0.4740 -0.8071  1.1305
 1908SOL    HW217358   2.970   3.585   3.996 -0.9409 -2.6404  1.7992
 1909SOL     OW17359   3.726   3.081   3.110  0.2584 -0.5540  0.0992
 1909SOL    HW117360   3.703   3.064   3.201 -0.4199 -0.5749 -0.0760
 1909SOL    HW217361   3.717   2.994   3.071  1.9175 -1.1571  1.0391
 1910SOL     OW17362   3.940   2.245   8.282 -0.4445  0.4061  0.4069
 1910SOL    HW117363   3.927   2.152   8.297  2.4596  0.2010  1.5142
 1910SOL    HW217364   3.902   2.248   8.194 -2.7892  0.2136  1.4044
 1911SOL     OW17365   3.873   0.869  10.569 -0.3137  0.2305  0.1635
 1911SOL    HW117366   3.939   0.857  10.501  0.1285 -1.7004  0.9358
 1911SOL    HW217367   3.848   0.780  10.592 -1.5647  0.6559  0.4200
 1912SOL     OW17368   1.658   1.916   6.554  0.0581  0.2109 -0.2165
 1912SOL    HW117369   1.577   1.876   6.523 -0.1530  1.9007 -1.8758
 1912SOL    HW217370   1.689   1.852   6.618 -0.5499  1.5073  1.3935
 1913SOL     OW17371   3.406   4.135   5.060 -0.3217  0.0122 -0.0931
 1913SOL    HW117372   3.425   4.176   5.144 -1.9165  0.0631  0.2302
 1913SOL    HW217373   3.355   4.056   5.078  0.4088  0.0283  2.0437
 1914SOL     OW17374   2.333   0.644   0.516  0.1900 -0.4330  0.4101
 1914SOL    HW117375   2.354   0.678   0.603  2.9869 -0.5131 -0.2405
 1914SOL    HW217376   2.305   0.729   0.480 -0.8059 -0.2875  1.5389
 1915SOL     OW17377   0.201   2.542   8.635  0.3340  0.4014 -0.1935
 1915SOL    HW117378   0.290   2.525   8.667 -0.7030 -0.7146  2.1204
 1915SOL    HW217379   0.160   2.563   8.719 -1.6780  1.3449 -1.4223
 1916SOL     OW17380   3.047   3.762   5.129 -0.4171  0.0814 -0.0084
 1916SOL    HW117381   3.104   3.838   5.133  0.1848 -0.2666 -2.0220
 1916SOL    HW217382   3.100   3.693   5.168 -0.9781 -0.1925  0.2826
 1917SOL     OW17383   3.654   2.362   9.715  0.0459  0.1561 -0.4976
 1917SOL    HW117384   3.670   2.399   9.803  3.7775 -2.4682 -0.0531
 1917SOL    HW217385   3.737   2.324   9.686 -0.0716 -1.0874  0.8119
 1918SOL     OW17386   3.690   0.145   2.871  0.1536 -0.0341 -0.0679
 1918SOL    HW117387   3.663   0.054   2.859  0.4727 -0.0321 -0.8370
 1918SOL    HW217388   3.785   0.140   2.873  0.0714 -1.4256  0.3837
 1919SOL     OW17389   3.804   1.726   1.630 -0.2390  0.0564  0.6171
 1919SOL    HW117390   3.744   1.722   1.555  1.4839 -2.0803 -0.6405
 1919SOL    HW217391   3.816   1.819   1.649  0.8849 -0.4132  2.2317
 1920SOL     OW17392   3.628   3.196   2.351 -0.1754  0.7195 -0.2944
 1920SOL    HW117393   3.611   3.252   2.427  0.5134  0.7476 -0.1655
 1920SOL    HW217394   3.647   3.256   2.279 -0.7639  0.9720 -0.2436
 1921SOL     OW17395   4.295   0.651   4.826 -0.2784 -0.0027 -0.1986
 1921SOL    HW117396   4.373   0.597   4.812 -0.1465  0.1876 -0.1883
 1921SOL    HW217397   4.337   0.734   4.805 -1.0122  0.6189  0.7817
 1922SOL     OW17398   2.570   0.240   8.878  0.2326  0.0785  0.0590
 1922SOL    HW117399   2.652   0.223   8.832  1.3334  1.1685  1.6126
 1922SOL    HW217400   2.517   0.162   8.862  1.1722 -0.6594  0.5307
 1923SOL     OW17401   0.043   0.902   8.529  0.2883  0.0132  0.5699
 1923SOL    HW117402   4.686   0.888   8.507 -0.0109  1.7307  0.6805
 1923SOL    HW217403   0.063   0.984   8.482 -1.6161  0.3366  0.3306
 1924SOL     OW17404   3.515   1.123   5.686  0.2360 -0.3005 -0.8893
 1924SOL    HW117405   3.609   1.113   5.698  0.5414  0.5619 -2.5625
 1924SOL    HW217406   3.473   1.094   5.767 -0.0699  2.1832 -0.1533
 1925SOL     OW17407   4.718   3.707  17.589 -0.1744  0.1069  0.0628
 1925SOL    HW117408   4.733   3.762  17.666 -1.9190 -0.0215  0.4901
 1925SOL    HW217409   0.060   3.650  17.595  0.5106  1.1877  1.5587
 1926SOL     OW17410   4.613   4.632  11.606  0.0470 -0.4342 -0.2022
 1926SOL    HW117411   4.551   4.693  11.567  0.7592  1.4892  1.6677
 1926SOL    HW217412   4.650   4.688  11.674  2.7843 -0.9713 -1.2620
 1927SOL     OW17413   2.492   0.918   5.699 -0.1804 -0.3860 -0.0582
 1927SOL    HW117414   2.498   0.995   5.642 -1.6014 -0.6742 -0.5804
 1927SOL    HW217415   2.571   0.916   5.753  1.3866 -1.6418 -2.3640
 1928SOL     OW17416   0.988   0.511   5.755  0.0862  0.3374 -0.2326
 1928SOL    HW117417   1.070   0.465   5.737  0.2109 -0.6549  3.0030
 1928SOL    HW217418   1.019   0.598   5.779  1.2728 -0.5296  1.3254
 1929SOL     OW17419   3.221   2.699   9.115 -0.0149  0.1761  0.4979
 1929SOL    HW117420   3.249   2.650   9.192 -0.3324  0.9837  1.1286
 1929SOL    HW217421   3.193   2.630   9.055 -0.0751  0.6919 -0.0661
 1930SOL     OW17422   3.196   4.701   3.568  1.0613 -0.2350  0.0868
 1930SOL    HW117423   3.220   4.675   3.480 -1.1628 -0.7327 -0.3676
 1930SOL    HW217424   3.281   4.688   3.610  0.8903 -0.0955  0.4834
 1931SOL     OW17425   3.200   4.047   2.423  0.3933  0.3335 -1.0194
 1931SOL    HW117426   3.202   3.969   2.478  2.4734  0.7008 -0.5639
 1931SOL    HW217427   3.253   4.021   2.347  1.9221  1.1071 -0.2158
 1932SOL     OW17428   3.976   4.034   6.621 -0.0059  0.2288  0.3100
 1932SOL    HW117429   3.891   4.035   6.665 -0.5994 -1.8694 -0.8232
 1932SOL    HW217430   3.951   4.044   6.529 -0.6302 -0.1738  0.4432
 1933SOL     OW17431   4.285   4.159   3.119 -0.0073  0.4553 -0.1870
 1933SOL    HW117432   4.299   4.253   3.109  2.0036  0.1768  0.1360
 1933SOL    HW217433   4.346   4.121   3.056  0.2402 -0.2132  0.4552
 1934SOL     OW17434   3.843   3.900   7.562  0.3740 -0.0600  0.0895
 1934SOL    HW117435   3.819   3.991   7.576 -4.1865 -1.4740  1.4349
 1934SOL    HW217436   3.927   3.896   7.516  0.8136  1.3237  0.7840
 1935SOL     OW17437   1.001   3.551   2.066 -0.0599 -0.0524  0.0564
 1935SOL    HW117438   1.054   3.573   1.990 -1.4737  0.8072 -0.6910
 1935SOL    HW217439   1.035   3.614   2.130 -0.2558  0.8111 -0.6975
 1936SOL     OW17440   0.726   1.059   3.883  0.6339 -0.0533 -0.3217
 1936SOL    HW117441   0.748   1.126   3.818 -0.9415  0.5793 -0.1912
 1936SOL    HW217442   0.719   0.976   3.834 -0.2354  0.8898 -1.7869
 1937SOL     OW17443   3.519   2.794   8.359  0.8569  0.1044 -0.4066
 1937SOL    HW117444   3.537   2.874   8.309  1.4949 -0.3565 -0.9173
 1937SOL    HW217445   3.528   2.829   8.447  1.0267  1.7901 -1.0968
 1938SOL     OW17446   0.143   2.152   9.778  0.8191 -0.0340  0.5541
 1938SOL    HW117447   0.140   2.139   9.872  0.9034  1.3378  0.7352
 1938SOL    HW217448   0.224   2.203   9.769 -0.0168  0.7993 -2.4379
 1939SOL     OW17449   0.617   0.986  11.633 -0.4086 -0.3845 -0.8007
 1939SOL    HW117450   0.560   1.062  11.644 -1.7601 -1.4883 -0.3363
 1939SOL    HW217451   0.630   0.985  11.538  1.3028  3.4061 -0.5983
 1940SOL     OW17452   1.551   0.710   1.940 -0.0130  0.2159  0.2402
 1940SOL    HW117453   1.469   0.726   1.987  0.8988 -0.4229  2.0804
 1940SOL    HW217454   1.553   0.618   1.916  1.2158  0.0191  1.0892
 1941SOL     OW17455   3.416   0.634   3.009 -0.3655 -0.3850 -0.2365
 1941SOL    HW117456   3.333   0.591   3.032 -1.4932  1.7473 -0.3014
 1941SOL    HW217457   3.447   0.582   2.936  2.7974 -1.6599  2.0421
 1942SOL     OW17458   0.099   3.478   6.033  0.0837  0.0322 -0.0734
 1942SOL    HW117459   0.016   3.440   6.064 -1.0150  2.0870 -0.4807
 1942SOL    HW217460   0.124   3.521   6.114  3.2738 -0.9809 -0.5273
 1943SOL     OW17461   4.035   2.264   7.421 -0.3728 -0.1890 -0.3742
 1943SOL    HW117462   4.052   2.347   7.464 -0.5701 -0.3248 -0.0304
 1943SOL    HW217463   4.012   2.214   7.500  0.5875  0.0882  0.0739
 1944SOL     OW17464   4.622   2.371   3.783  0.1579  0.1413 -0.2739
 1944SOL    HW117465   4.563   2.363   3.859 -0.3874 -1.1942 -0.8301
 1944SOL    HW217466   4.565   2.383   3.707  0.5514  0.5855 -0.4933
 1945SOL     OW17467   1.457   3.304   2.430  0.0485 -0.5546 -0.2065
 1945SOL    HW117468   1.403   3.381   2.452  1.5738  0.3587  0.3184
 1945SOL    HW217469   1.483   3.279   2.519  1.9409 -1.9928 -1.1768
 1946SOL     OW17470   0.777   3.865   5.576  0.2632  0.1479  0.3110
 1946SOL    HW117471   0.826   3.946   5.585  0.3361  0.1969 -0.5027
 1946SOL    HW217472   0.723   3.884   5.499 -2.9427 -0.0056  2.5282
 1947SOL     OW17473   4.482   1.710   4.200 -0.7643 -0.2971 -0.1706
 1947SOL    HW117474   4.510   1.618   4.202  0.3730  0.0501  0.2189
 1947SOL    HW217475   4.519   1.750   4.279  1.1269  2.0974 -2.2691
 1948SOL     OW17476   0.489   3.270   8.794  0.4058  0.7929  0.3240
 1948SOL    HW117477   0.523   3.182   8.809  0.1974  1.0717  2.4309
 1948SOL    HW217478   0.415   3.238   8.744  1.6426 -1.7971  0.1201
 1949SOL     OW17479   4.184   0.819  16.606 -0.1354 -0.0345  0.0922
 1949SOL    HW117480   4.275   0.844  16.623  0.1696 -0.0976 -1.4124
 1949SOL    HW217481   4.160   0.863  16.524  0.1863 -1.6640 -0.8786
 1950SOL     OW17482   2.905   3.613  10.037  0.4252 -0.0855 -0.2745
 1950SOL    HW117483   2.932   3.669  10.109 -2.6530 -0.0700  0.8696
 1950SOL    HW217484   2.970   3.542  10.043  0.1708 -0.2684  0.3629
 1951SOL     OW17485   3.803   1.855   5.592  0.5766  0.6778  0.0616
 1951SOL    HW117486   3.732   1.843   5.655  1.0274  0.0491  0.4422
 1951SOL    HW217487   3.767   1.810   5.516 -0.4012  0.4083  0.6912
 1952SOL     OW17488   3.848   4.215  13.916  0.2832  0.0915  0.0523
 1952SOL    HW117489   3.811   4.295  13.954 -0.7451 -0.0608 -0.6482
 1952SOL    HW217490   3.935   4.247  13.892  0.2395 -1.7060 -2.4323
 1953SOL     OW17491   3.695   3.011   5.660 -0.3261 -0.1064  0.2955
 1953SOL    HW117492   3.707   3.014   5.754 -0.3683  1.2509  0.2520
 1953SOL    HW217493   3.643   2.931   5.649 -2.2701  1.0145  1.3607
 1954SOL     OW17494   0.349   4.432   2.921  0.3348  0.0226  0.0972
 1954SOL    HW117495   0.277   4.485   2.953  0.6192 -0.2637  1.2002
 1954SOL    HW217496   0.367   4.466   2.833  0.9167 -0.1924  0.1276
 1955SOL     OW17497   0.537   3.647   6.495  0.4269 -0.4344  0.5791
 1955SOL    HW117498   0.540   3.553   6.478  0.0691  0.0765 -2.3255
 1955SOL    HW217499   0.625   3.679   6.478 -0.0874  0.1933 -0.8939
 1956SOL     OW17500   2.271   0.172  12.997 -0.0317 -0.1374  0.4813
 1956SOL    HW117501   2.222   0.093  12.976  0.8349  0.0321 -2.1233
 1956SOL    HW217502   2.364   0.152  12.995  0.2382  1.2617 -1.6146
 1957SOL     OW17503   3.914   1.277   1.821 -0.6220  0.0623  0.0677
 1957SOL    HW117504   3.978   1.217   1.782 -1.1194 -0.0099 -0.6302
 1957SOL    HW217505   3.949   1.359   1.785  0.4331 -0.5411 -0.3038
 1958SOL     OW17506   1.457   0.395   8.748  0.3359  0.7548 -0.2226
 1958SOL    HW117507   1.539   0.348   8.734  0.3772  0.9227 -0.5543
 1958SOL    HW217508   1.425   0.345   8.823 -0.2318 -0.8456 -1.5229
 1959SOL     OW17509   1.599   3.904   5.285 -0.2290  0.7381 -0.1797
 1959SOL    HW117510   1.556   3.980   5.325 -0.1748  0.5093  0.3103
 1959SOL    HW217511   1.541   3.832   5.308 -0.0287  0.5782 -0.1829
 1960SOL     OW17512   2.386   0.935   6.812 -0.0511  0.6661 -0.0721
 1960SOL    HW117513   2.454   0.878   6.850 -0.2328  0.4838 -0.0254
 1960SOL    HW217514   2.325   0.946   6.885  0.5381  0.8505  0.4046
 1961SOL     OW17515   0.223   3.525   5.192 -0.1393  0.0342 -0.6553
 1961SOL    HW117516   0.286   3.595   5.207 -0.5310 -0.2559  2.2146
 1961SOL    HW217517   0.251   3.453   5.248 -2.6719  1.5565  2.5498
 1962SOL     OW17518   3.996   2.810  17.237 -1.0780 -0.6317  0.4962
 1962SOL    HW117519   3.906   2.839  17.222 -1.3317 -1.8739 -0.3965
 1962SOL    HW217520   4.048   2.845  17.165 -0.4060 -2.5360  0.0642
 1963SOL     OW17521   0.924   0.827   7.359 -0.0304 -0.1329 -0.4185
 1963SOL    HW117522   0.969   0.815   7.443  0.3450 -0.1465 -0.6219
 1963SOL    HW217523   0.960   0.750   7.314  0.0914  0.0561 -0.6418
 1964SOL     OW17524   2.691   4.065   6.470 -0.4318 -0.4122 -0.1783
 1964SOL    HW117525   2.601   4.091   6.448  0.6011  2.1538 -1.3594
 1964SOL    HW217526   2.674   4.028   6.557  0.4937 -0.4270 -0.0070
 1965SOL     OW17527   1.136   1.081   4.970  0.0938  0.3129 -0.1653
 1965SOL    HW117528   1.156   0.990   4.993  0.1802  0.0254 -1.3676
 1965SOL    HW217529   1.181   1.078   4.885 -0.7303 -1.2401 -0.5510
 1966SOL     OW17530   1.667   4.630   8.264  0.6427 -0.0013 -0.0903
 1966SOL    HW117531   1.760   4.625   8.242  0.9910 -1.2164  1.6993
 1966SOL    HW217532   1.663   4.725   8.262 -0.7099 -0.0771 -1.2493
 1967SOL     OW17533   2.828   1.394   2.965  0.1378  0.2130  0.3200
 1967SOL    HW117534   2.855   1.485   2.975  0.7092  0.2803 -1.8466
 1967SOL    HW217535   2.757   1.382   3.028 -1.2265  0.2325 -1.1983
 1968SOL     OW17536   0.906   3.414   7.809 -0.1950  0.0632  0.1583
 1968SOL    HW117537   0.902   3.437   7.716 -0.1985 -0.1757  0.0984
 1968SOL    HW217538   0.838   3.351   7.786 -0.0672 -0.2428  0.6116
 1969SOL     OW17539   0.565   4.001   8.065  0.5236  0.1903 -0.2461
 1969SOL    HW117540   0.561   4.095   8.082  1.2044  0.5800 -2.2646
 1969SOL    HW217541   0.610   4.002   7.981 -0.9212 -0.3436 -1.0215
 1970SOL     OW17542   3.502   1.385   3.450 -0.2036  0.1190 -0.8202
 1970SOL    HW117543   3.440   1.354   3.384  0.4023 -0.3905 -1.1559
 1970SOL    HW217544   3.580   1.373   3.395  0.7835  0.3689  0.5197
 1971SOL     OW17545   1.166   1.296  15.285  0.0114 -0.0663 -0.1005
 1971SOL    HW117546   1.130   1.218  15.327 -0.3056 -0.4694 -1.1352
 1971SOL    HW217547   1.218   1.256  15.216  0.5021 -1.2456  0.9538
 1972SOL     OW17548   2.195   0.123   5.069 -0.4156 -0.4749  0.4271
 1972SOL    HW117549   2.156   0.179   5.136  0.8241  1.4126 -0.4252
 1972SOL    HW217550   2.154   0.039   5.091  0.1927 -1.0806 -0.7822
 1973SOL     OW17551   4.313   4.225   3.495 -0.1398 -0.0544  0.0107
 1973SOL    HW117552   4.407   4.205   3.489  0.3176  1.6656  1.3196
 1973SOL    HW217553   4.314   4.312   3.455 -1.7872  0.4218  1.0154
 1974SOL     OW17554   0.886   2.103  12.596 -0.0218 -0.1675 -0.1221
 1974SOL    HW117555   0.935   2.184  12.601  0.6993 -0.5444 -1.0884
 1974SOL    HW217556   0.833   2.111  12.675  0.7068 -2.4753  0.6113
 1975SOL     OW17557   0.162   2.162   3.417  0.4998 -0.4689  0.4278
 1975SOL    HW117558   0.164   2.171   3.322 -1.8677 -2.3246  0.1926
 1975SOL    HW217559   0.100   2.089   3.426 -0.7114  0.3773 -1.1340
 1976SOL     OW17560   4.174   2.919   8.648  0.0116 -0.4795  0.3781
 1976SOL    HW117561   4.219   2.869   8.580 -1.0322 -0.0627 -0.6144
 1976SOL    HW217562   4.097   2.953   8.602 -1.1403 -4.0568 -0.3577
 1977SOL     OW17563   1.637   1.176   3.233  0.6128 -0.0495  0.8717
 1977SOL    HW117564   1.549   1.188   3.197  1.1986 -0.4570 -0.7060
 1977SOL    HW217565   1.653   1.262   3.272 -2.1395  0.6590  0.4816
 1978SOL     OW17566   1.489   1.653   0.602 -0.0365  0.1607 -0.0047
 1978SOL    HW117567   1.466   1.560   0.607  0.7785 -0.0546 -0.2627
 1978SOL    HW217568   1.534   1.656   0.517  2.1578  3.9445  1.3196
 1979SOL     OW17569   2.934   2.200  11.726  0.1989 -0.2396 -0.0019
 1979SOL    HW117570   2.888   2.282  11.708  1.3721  0.7289  1.5193
 1979SOL    HW217571   3.021   2.229  11.753 -0.4879  1.9244 -0.1445
 1980SOL     OW17572   0.803   0.412   7.508  0.6237 -0.0883 -0.1827
 1980SOL    HW117573   0.868   0.411   7.577  0.0542  1.6347  0.3950
 1980SOL    HW217574   0.809   0.334   7.453 -0.6532 -0.2574 -0.0788
 1981SOL     OW17575   4.184   2.330   0.638 -0.1208 -0.0304 -0.4457
 1981SOL    HW117576   4.230   2.396   0.586  0.5728  0.7879  1.2249
 1981SOL    HW217577   4.247   2.258   0.635 -0.1432 -0.0054 -1.6049
 1982SOL     OW17578   1.499   1.844  14.616 -0.7896 -0.2493 -0.5128
 1982SOL    HW117579   1.431   1.911  14.617 -0.6085 -0.0706  1.4000
 1982SOL    HW217580   1.546   1.871  14.537 -3.1002 -2.2084 -2.5188
 1983SOL     OW17581   1.228   3.396  12.694  0.7381  0.0171  0.7123
 1983SOL    HW117582   1.249   3.303  12.689 -1.0841 -0.2775 -1.7706
 1983SOL    HW217583   1.288   3.425  12.762  0.2065  1.7704  0.4458
 1984SOL     OW17584   1.192   4.040  14.869 -0.1026 -0.3177  0.1368
 1984SOL    HW117585   1.120   3.980  14.888 -0.4691  0.5562  1.4730
 1984SOL    HW217586   1.164   4.121  14.911 -0.6122  0.8035 -2.3150
 1985SOL     OW17587   3.518   0.811   6.104  0.3860 -0.5892  0.3977
 1985SOL    HW117588   3.444   0.868   6.127 -0.3362 -0.9628 -0.9970
 1985SOL    HW217589   3.491   0.790   6.015 -0.5601 -0.3360  0.6246
 1986SOL     OW17590   2.105   1.490   2.078 -0.3868  0.7609 -0.0349
 1986SOL    HW117591   2.159   1.416   2.048  0.2553  1.0868  0.3274
 1986SOL    HW217592   2.179   1.548   2.092  1.3191 -1.6169  0.7906
 1987SOL     OW17593   4.133   4.020  11.438 -0.1561  0.5697  0.4103
 1987SOL    HW117594   4.220   4.059  11.447 -0.4734  1.3153  0.1826
 1987SOL    HW217595   4.125   3.962  11.514 -1.6707 -0.0267 -0.2104
 1988SOL     OW17596   1.793   4.553  11.925  0.0104 -0.2497  0.5229
 1988SOL    HW117597   1.868   4.551  11.985  0.2087  0.7654  0.3083
 1988SOL    HW217598   1.729   4.499  11.972  0.4577 -0.7762  0.5307
 1989SOL     OW17599   0.676   0.911   2.875 -0.0885  0.6105  0.7597
 1989SOL    HW117600   0.605   0.973   2.857 -0.4838 -0.3431 -0.9084
 1989SOL    HW217601   0.724   0.954   2.947  0.6151  2.5651 -0.8594
 1990SOL     OW17602   3.074   3.065   2.147 -0.2189 -0.0640 -0.8142
 1990SOL    HW117603   3.053   3.104   2.232 -0.5275  0.2768 -1.0430
 1990SOL    HW217604   3.169   3.061   2.146 -0.2753 -1.7325  1.0142
 1991SOL     OW17605   1.670   2.179   0.908 -0.5591 -0.3380  0.3712
 1991SOL    HW117606   1.582   2.146   0.887 -0.0802 -1.3820 -0.0029
 1991SOL    HW217607   1.722   2.107   0.873 -2.4320 -1.6893  0.3132
 1992SOL     OW17608   0.001   0.604   1.415  0.0920  0.2742  0.7868
 1992SOL    HW117609   4.724   0.699   1.413  0.7662  0.3323 -0.3213
 1992SOL    HW217610   0.094   0.595   1.396  0.0688  3.2478 -0.6124
 1993SOL     OW17611   0.543   4.567  15.843  0.5319 -0.2525 -0.8203
 1993SOL    HW117612   0.552   4.520  15.760 -0.9372 -0.5647 -0.8044
 1993SOL    HW217613   0.465   4.518  15.871 -0.4552  0.0258 -3.1501
 1994SOL     OW17614   3.140   1.206   7.730  0.0589 -1.0766 -0.1718
 1994SOL    HW117615   3.092   1.144   7.785 -0.6205 -0.7355 -0.3717
 1994SOL    HW217616   3.228   1.206   7.767 -0.5301 -0.5393  1.2273
 1995SOL     OW17617   0.305   0.020   8.030 -0.1797 -0.1799 -0.4005
 1995SOL    HW117618   0.265   0.062   8.106 -0.2681  0.9884 -1.0905
 1995SOL    HW217619   0.290   0.085   7.961 -1.3119  0.1006  0.1063
 1996SOL     OW17620   1.390   0.325  10.645  0.1226  0.5060 -0.4011
 1996SOL    HW117621   1.364   0.359  10.560  0.3677  0.8438 -0.3434
 1996SOL    HW217622   1.396   0.238  10.606  0.4479  0.3306  0.0367
 1997SOL     OW17623   2.887   1.695   2.637  0.5198 -0.0658 -0.0840
 1997SOL    HW117624   2.972   1.716   2.675  0.3424  1.7460 -0.6798
 1997SOL    HW217625   2.834   1.658   2.708 -0.9174  0.3661 -0.9282
 1998SOL     OW17626   2.888   4.137   9.378 -0.1266  0.0376  0.1100
 1998SOL    HW117627   2.847   4.093   9.453 -0.3418  1.6293  0.9255
 1998SOL    HW217628   2.818   4.146   9.314  0.2088 -0.3185 -0.3071
 1999SOL     OW17629   4.038   3.964   8.406 -0.0378  0.1010  0.1467
 1999SOL    HW117630   3.965   4.021   8.384 -0.3491  0.0471  1.0375
 1999SOL    HW217631   4.116   4.010   8.374  0.9513 -2.9756 -1.8315
 2000SOL     OW17632   2.156   2.620  12.808 -0.3146  0.7983  0.5301
 2000SOL    HW117633   2.065   2.590  12.808 -0.6192  1.7086  1.0623
 2000SOL    HW217634   2.149   2.714  12.828  0.9558  1.0266 -0.0860
 2001SOL     OW17635   0.051   4.167   9.540  0.2393  0.1375  0.3938
 2001SOL    HW117636   4.732   4.151   9.462  0.3705 -0.3539  0.4030
 2001SOL    HW217637   4.715   4.179   9.603 -1.5293 -0.9654 -1.3757
 2002SOL     OW17638   1.373   2.429   9.386 -0.0658 -0.2492  0.1536
 2002SOL    HW117639   1.361   2.524   9.396 -2.2004 -0.6127  1.0233
 2002SOL    HW217640   1.333   2.410   9.301 -0.1650  1.1998 -0.1387
 2003SOL     OW17641   0.199   3.431  16.685  0.3132 -0.1430  0.4118
 2003SOL    HW117642   0.288   3.410  16.716 -0.2481 -1.2726  1.2414
 2003SOL    HW217643   0.161   3.474  16.762  1.6602  0.2635  0.8556
 2004SOL     OW17644   4.152   3.293   4.672 -0.0244 -0.2017  0.2902
 2004SOL    HW117645   4.148   3.263   4.582  2.2354  0.8281 -0.1568
 2004SOL    HW217646   4.063   3.282   4.707 -0.1127  0.6176  0.3218
 2005SOL     OW17647   1.620   0.150   4.719  0.1620  0.0702 -0.1733
 2005SOL    HW117648   1.700   0.143   4.667 -0.7540 -0.0498 -1.5748
 2005SOL    HW217649   1.661   0.190   4.796  2.4891  1.1973 -1.9836
 2006SOL     OW17650   0.727   1.516  13.499  0.2620  0.3939  0.0826
 2006SOL    HW117651   0.675   1.554  13.429 -1.0642  0.9804  1.3720
 2006SOL    HW217652   0.773   1.438  13.468 -0.1417 -0.3814  1.4587
 2007SOL     OW17653   0.508   3.675   0.142  0.4836 -0.4715  0.2211
 2007SOL    HW117654   0.534   3.615   0.072 -2.8374 -1.5384 -0.0640
 2007SOL    HW217655   0.431   3.631   0.177  0.1102  0.9902  1.2443
 2008SOL     OW17656   3.522   0.479   5.666 -0.1884  0.8583 -0.2961
 2008SOL    HW117657   3.523   0.474   5.761  1.3468  2.4363 -0.2456
 2008SOL    HW217658   3.610   0.514   5.653  0.3584 -0.0027  1.1129
 2009SOL     OW17659   1.164   1.976  17.643 -0.2102  0.2399 -0.4470
 2009SOL    HW117660   1.153   1.990  17.549 -0.1344  2.2947 -0.1508
 2009SOL    HW217661   1.227   1.905  17.644 -3.0309 -2.1889  3.9772
 2010SOL     OW17662   2.811   4.225   1.024 -0.2028  0.5570 -0.0189
 2010SOL    HW117663   2.853   4.237   1.109  1.0267 -0.1581 -0.5173
 2010SOL    HW217664   2.851   4.297   0.976 -1.2123  0.0610 -1.6175
 2011SOL     OW17665   0.636   2.463  15.624  0.5105  0.0519  0.0336
 2011SOL    HW117666   0.547   2.495  15.607 -0.1797 -1.8697 -0.0193
 2011SOL    HW217667   0.646   2.487  15.716  2.1991  2.7155 -0.8373
 2012SOL     OW17668   3.800   3.793   2.733  0.1803 -0.6821  0.4082
 2012SOL    HW117669   3.708   3.779   2.755 -0.2625  1.8893  0.1397
 2012SOL    HW217670   3.824   3.831   2.818  1.5704 -3.0105  1.0585
 2013SOL     OW17671   0.704   0.658   2.840 -0.6075 -0.2038  0.2886
 2013SOL    HW117672   0.684   0.750   2.856  1.1635 -0.0278  1.4891
 2013SOL    HW217673   0.726   0.663   2.746  0.4939 -0.0255  0.5491
 2014SOL     OW17674   2.471   3.554  13.537  0.3980  0.0710 -0.2102
 2014SOL    HW117675   2.385   3.568  13.576  0.3712 -0.5706 -0.0470
 2014SOL    HW217676   2.526   3.588  13.608  0.4436  0.1222 -0.2694
 2015SOL     OW17677   4.079   4.311   2.866  0.9224 -0.3196  0.0800
 2015SOL    HW117678   4.108   4.378   2.804  0.9746  0.7517  1.2699
 2015SOL    HW217679   3.998   4.291   2.820  0.7057 -2.0389  1.2203
 2016SOL     OW17680   1.748   1.566  16.532  0.0580  0.3515  0.3471
 2016SOL    HW117681   1.699   1.645  16.507 -1.3030 -1.4208 -2.5786
 2016SOL    HW217682   1.826   1.604  16.574  0.0987 -0.4693  0.9894
 2017SOL     OW17683   0.042   3.983   1.539  0.9428 -0.2501 -1.0184
 2017SOL    HW117684   0.108   3.944   1.481  1.9431 -3.1378  2.0280
 2017SOL    HW217685   0.004   3.905   1.579  0.7357 -0.6953 -2.0767
 2018SOL     OW17686   1.357   2.282   5.253 -0.3591  0.0183 -0.0644
 2018SOL    HW117687   1.398   2.273   5.339 -0.3146 -2.5902 -0.3299
 2018SOL    HW217688   1.308   2.200   5.254  0.9910 -0.8223 -1.6782
 2019SOL     OW17689   1.013   4.219   3.908  0.1071  0.4934 -0.4708
 2019SOL    HW117690   0.932   4.233   3.860 -1.0286  1.0319  1.6381
 2019SOL    HW217691   1.046   4.308   3.898  2.1916 -0.1964  0.2085
 2020SOL     OW17692   1.012   1.510  13.253  0.0599 -0.2445 -0.3612
 2020SOL    HW117693   0.996   1.559  13.334  3.0330 -0.7464  0.5302
 2020SOL    HW217694   0.929   1.524  13.207 -0.2982  2.6204  1.1710
 2021SOL     OW17695   2.017   1.415   8.626 -0.0805  0.0137  0.2123
 2021SOL    HW117696   2.064   1.391   8.706 -0.4039 -1.4241 -0.0212
 2021SOL    HW217697   2.065   1.362   8.563 -0.9703 -0.1596 -0.3277
 2022SOL     OW17698   0.813   3.601   3.479  0.1529 -0.3937 -0.2062
 2022SOL    HW117699   0.830   3.517   3.521  0.6466 -0.5812 -0.7784
 2022SOL    HW217700   0.733   3.636   3.518  0.2370 -0.6723  0.2192
 2023SOL     OW17701   2.168   3.545   9.120  0.2602  0.6732 -0.0639
 2023SOL    HW117702   2.091   3.585   9.161 -0.1705 -0.0083 -0.1938
 2023SOL    HW217703   2.188   3.614   9.056 -2.8069  2.4135  0.8644
 2024SOL     OW17704   1.378   4.440  12.541  0.3567 -0.2935  0.9689
 2024SOL    HW117705   1.384   4.487  12.458  1.6412  0.8016  1.6845
 2024SOL    HW217706   1.458   4.465  12.586  1.8592  1.3032 -2.5444
 2025SOL     OW17707   0.957   3.048   3.268  0.1074  0.1853 -0.0580
 2025SOL    HW117708   0.899   3.097   3.209  0.7357 -1.6881 -2.2270
 2025SOL    HW217709   1.006   3.117   3.311  0.5709 -0.4170  0.3707
 2026SOL     OW17710   0.805   2.008  16.390  0.2502  0.0577 -0.1377
 2026SOL    HW117711   0.757   1.949  16.333  0.5072 -1.5126  1.2786
 2026SOL    HW217712   0.789   2.097  16.359  0.9267  0.0170 -0.6201
 2027SOL     OW17713   1.048   1.445   7.831 -0.1182  0.2733  0.1737
 2027SOL    HW117714   0.985   1.406   7.771  1.3057 -0.6901 -0.6666
 2027SOL    HW217715   1.125   1.389   7.825 -0.4085 -0.0960 -0.0453
 2028SOL     OW17716   3.972   1.045  17.402  0.0519  0.5603 -0.0879
 2028SOL    HW117717   4.021   1.119  17.369  0.9272  0.0207  0.0135
 2028SOL    HW217718   4.030   0.993  17.457 -0.0679 -0.4187 -0.8888
 2029SOL     OW17719   0.980   1.139   4.296  0.4263  0.1267  0.3001
 2029SOL    HW117720   0.996   1.066   4.356 -1.1643  1.1399  1.9587
 2029SOL    HW217721   0.966   1.098   4.211  0.8045  1.2854 -0.3180
 2030SOL     OW17722   0.544   2.919   5.749 -0.7599 -0.1246 -0.3169
 2030SOL    HW117723   0.581   2.917   5.661 -0.4139  1.3303 -0.1960
 2030SOL    HW217724   0.591   2.988   5.795  0.3211 -0.2118 -1.2940
 2031SOL     OW17725   1.860   4.667  13.009  0.0121 -0.4515 -0.0515
 2031SOL    HW117726   1.879   4.666  13.103 -0.1889  1.7096  0.0188
 2031SOL    HW217727   1.940   4.674  12.958 -0.1439 -0.6371 -0.3214
 2032SOL     OW17728   2.200   2.895   8.946 -0.3673  0.7208 -0.0987
 2032SOL    HW117729   2.228   2.807   8.970  1.2715  1.4994  0.8089
 2032SOL    HW217730   2.176   2.881   8.854 -2.5705 -1.9343  0.8966
 2033SOL     OW17731   3.868   1.712  12.585  0.3460  0.5619 -0.1954
 2033SOL    HW117732   3.930   1.663  12.530  0.6992  1.2213 -0.3896
 2033SOL    HW217733   3.822   1.754  12.512 -2.3834  1.3353  2.0102
 2034SOL     OW17734   0.501   0.378   7.476 -0.9000 -0.6188  0.0860
 2034SOL    HW117735   0.595   0.393   7.471 -0.9181 -0.3039  0.7096
 2034SOL    HW217736   0.476   0.451   7.533 -0.2537 -1.4143  1.4050
 2035SOL     OW17737   4.171   4.495   2.093 -0.3501  0.0106 -0.3682
 2035SOL    HW117738   4.216   4.580   2.101 -1.5779  0.6754 -0.5243
 2035SOL    HW217739   4.157   4.499   1.999 -2.7281  0.9315  0.0264
 2036SOL     OW17740   1.207   2.696  13.095  0.5256  0.0954 -0.0707
 2036SOL    HW117741   1.237   2.605  13.094  0.0558 -0.0522 -1.0023
 2036SOL    HW217742   1.226   2.716  13.003  0.2960 -1.0980 -0.3721
 2037SOL     OW17743   1.401   1.091   0.862  0.1610  0.0095 -0.9815
 2037SOL    HW117744   1.358   1.049   0.787 -2.2562  1.0807 -0.1827
 2037SOL    HW217745   1.374   1.031   0.931  0.0696 -1.7987 -2.5730
 2038SOL     OW17746   0.891   1.555   0.312  0.5164  0.8174  0.1258
 2038SOL    HW117747   0.888   1.503   0.232 -1.1867 -1.8777  1.9513
 2038SOL    HW217748   0.969   1.609   0.296  0.4047  1.6156  2.2566
 2039SOL     OW17749   1.039   1.598  14.348  0.0525 -0.2785 -0.8783
 2039SOL    HW117750   0.974   1.529  14.361  0.2697 -0.6431 -1.7401
 2039SOL    HW217751   0.981   1.644  14.288 -2.5063 -1.1132  0.9553
 2040SOL     OW17752   2.816   3.633   2.668  0.1627  0.2183  0.3523
 2040SOL    HW117753   2.817   3.546   2.707 -0.4794  0.6306  1.2778
 2040SOL    HW217754   2.722   3.651   2.656  0.0596 -1.3033 -1.0870
 2041SOL     OW17755   2.995   4.172   8.083 -0.4541 -0.0170 -0.1894
 2041SOL    HW117756   3.076   4.217   8.107  1.8784 -2.4278 -3.4226
 2041SOL    HW217757   2.961   4.125   8.159  1.0382  1.3075  1.2991
 2042SOL     OW17758   0.401   2.707   8.050 -0.0915 -0.1792 -0.0246
 2042SOL    HW117759   0.329   2.749   8.098  1.8767  1.0623  1.8626
 2042SOL    HW217760   0.359   2.632   8.007  1.9328 -2.0053  1.2192
 2043SOL     OW17761   0.873   0.550   9.135  0.3991  0.0331 -0.1386
 2043SOL    HW117762   0.825   0.485   9.186 -0.1325 -1.0754 -2.0144
 2043SOL    HW217763   0.814   0.560   9.060 -0.0301 -0.8870  0.0795
 2044SOL     OW17764   1.877   2.079   3.781  0.1449 -0.5454  0.4046
 2044SOL    HW117765   1.970   2.075   3.762  0.1056 -1.3945  0.3974
 2044SOL    HW217766   1.871   2.035   3.866 -0.3661 -2.4756 -0.6114
 2045SOL     OW17767   1.019   4.012   3.708  0.4708 -0.3467 -0.3012
 2045SOL    HW117768   1.062   4.065   3.775  1.0956 -0.3995 -0.6616
 2045SOL    HW217769   0.941   4.066   3.712 -0.2139 -1.2886 -0.8702
 2046SOL     OW17770   4.383   0.300   4.600 -0.4013 -0.6130  0.0401
 2046SOL    HW117771   4.291   0.329   4.601 -0.0250  0.5592  0.4675
 2046SOL    HW217772   4.412   0.371   4.658  0.8759 -0.8806 -0.2874
 2047SOL     OW17773   1.233   2.605  17.630  0.0699 -0.0812  0.1156
 2047SOL    HW117774   1.271   2.691  17.647  0.6433 -0.4177  0.5478
 2047SOL    HW217775   1.159   2.612  17.691  0.0096  3.2040 -0.3518
 2048SOL     OW17776   0.641   2.171   4.316 -1.2628 -0.2296  0.1184
 2048SOL    HW117777   0.708   2.192   4.250 -0.5964  2.8063  1.7637
 2048SOL    HW217778   0.567   2.222   4.283 -1.7314 -0.3367  1.0018
 2049SOL     OW17779   4.212   1.909   6.388  0.4008  0.7210  0.0622
 2049SOL    HW117780   4.125   1.869   6.381  1.1238 -1.0332  1.3275
 2049SOL    HW217781   4.184   2.000   6.393 -1.0144  0.5243 -4.2138
 2050SOL     OW17782   4.733   4.185   6.110  0.2913  0.0987 -0.3663
 2050SOL    HW117783   4.677   4.214   6.038  2.1283  1.6840 -1.1610
 2050SOL    HW217784   4.695   4.231   6.185  0.8779  1.3886 -0.8748
 2051SOL     OW17785   2.159   2.219   6.687 -0.1494 -0.2877  0.3925
 2051SOL    HW117786   2.192   2.217   6.597  0.2425 -0.9359  0.5525
 2051SOL    HW217787   2.066   2.199   6.674  0.0355 -0.9855  0.1470
 2052SOL     OW17788   3.809   1.931   3.906  0.3565 -0.0803 -0.3417
 2052SOL    HW117789   3.816   1.839   3.932  1.3049  0.4238  1.1686
 2052SOL    HW217790   3.795   1.913   3.813 -0.0976 -0.0263 -0.2832
 2053SOL     OW17791   4.139   3.187   5.894 -0.1196  0.3491  0.0516
 2053SOL    HW117792   4.142   3.107   5.947 -0.7789 -0.3606 -0.9951
 2053SOL    HW217793   4.049   3.217   5.908 -0.1599  0.7840 -1.1809
 2054SOL     OW17794   2.587   4.305   9.836  0.1077 -0.1914  0.2536
 2054SOL    HW117795   2.640   4.370   9.881 -2.1677  1.7643  0.1008
 2054SOL    HW217796   2.598   4.226   9.889  0.7242  0.3646  0.9555
 2055SOL     OW17797   4.184   1.590   4.403  0.1613 -0.6828  0.2479
 2055SOL    HW117798   4.261   1.647   4.393 -0.3189  0.1249  1.1687
 2055SOL    HW217799   4.224   1.525   4.460  1.5165  1.7267  2.0416
 2056SOL     OW17800   3.976   1.661   8.428 -0.4825 -0.3393 -0.0867
 2056SOL    HW117801   4.061   1.692   8.460 -1.1998  2.3370 -0.7972
 2056SOL    HW217802   3.950   1.607   8.503  0.6365 -0.5575  0.1533
 2057SOL     OW17803   3.294   4.019  12.701 -0.4831  0.2275 -0.1922
 2057SOL    HW117804   3.228   4.051  12.762  1.0359  0.0771  1.5430
 2057SOL    HW217805   3.329   3.935  12.732 -0.5539 -0.0438 -0.8513
 2058SOL     OW17806   4.193   0.502  17.058 -0.2668 -0.2249  0.3956
 2058SOL    HW117807   4.108   0.539  17.033 -0.1905  0.3657  1.0012
 2058SOL    HW217808   4.195   0.544  17.144 -0.0866  0.7376 -0.0759
 2059SOL     OW17809   2.123   3.989   4.797  0.0309 -0.1465  0.7315
 2059SOL    HW117810   2.163   4.063   4.842  1.3654 -1.2252  1.3522
 2059SOL    HW217811   2.160   4.005   4.711  1.3186  0.0166  1.3078
 2060SOL     OW17812   1.256   1.178   5.513 -0.2480  0.3607 -0.0783
 2060SOL    HW117813   1.245   1.130   5.431 -0.0406 -0.2438  0.2434
 2060SOL    HW217814   1.242   1.113   5.582  0.8553  1.0163  0.7690
 2061SOL     OW17815   1.532   3.288  12.923  0.4997 -0.1184  0.4190
 2061SOL    HW117816   1.621   3.321  12.938 -0.5087  1.6873  2.3048
 2061SOL    HW217817   1.482   3.367  12.903  1.3491  0.4831  0.6916
 2062SOL     OW17818   2.512   3.041   4.363 -0.0917  0.3092  0.0051
 2062SOL    HW117819   2.458   3.010   4.290  1.8571 -0.1585 -1.2199
 2062SOL    HW217820   2.440   3.060   4.423 -1.7361 -1.6877 -1.3189
 2063SOL     OW17821   3.279   0.664   3.877 -0.0704 -0.5728  0.2124
 2063SOL    HW117822   3.349   0.614   3.836  1.1438  0.4358  1.0665
 2063SOL    HW217823   3.222   0.593   3.906 -1.5627  0.5142 -0.0637
 2064SOL     OW17824   3.376   1.177   8.794 -0.6194 -0.2001 -0.8664
 2064SOL    HW117825   3.305   1.200   8.734 -3.9172 -2.2713  2.2104
 2064SOL    HW217826   3.410   1.265   8.810 -1.8601  0.0774  0.2941
 2065SOL     OW17827   2.682   3.539   9.569  0.2414 -0.4698 -0.1493
 2065SOL    HW117828   2.677   3.470   9.636 -0.4228  0.3487  0.6449
 2065SOL    HW217829   2.624   3.507   9.501 -0.2846 -2.5512  1.2844
 2066SOL     OW17830   4.122   1.836   2.675 -0.4634 -0.7804 -0.4762
 2066SOL    HW117831   4.148   1.923   2.647  0.6523 -1.5118 -1.6882
 2066SOL    HW217832   4.204   1.811   2.718  0.1345  1.2300 -0.4262
 2067SOL     OW17833   1.211   1.399   3.468 -0.6097 -0.2657  0.5126
 2067SOL    HW117834   1.125   1.408   3.507  0.0384  1.9413  1.4133
 2067SOL    HW217835   1.249   1.482   3.498 -0.7514 -0.4904  1.3073
 2068SOL     OW17836   4.316   0.189  14.312  0.4356 -0.3425 -0.2833
 2068SOL    HW117837   4.337   0.137  14.235  0.8245  1.0112 -1.0786
 2068SOL    HW217838   4.393   0.244  14.309  0.9774 -1.1261 -0.7167
 2069SOL     OW17839   3.735   3.041   3.923  0.1197 -1.1726  0.1620
 2069SOL    HW117840   3.655   2.999   3.954 -0.8287  2.5170  2.6199
 2069SOL    HW217841   3.794   3.016   3.995  0.6634  1.5601  0.6674
 2070SOL     OW17842   3.600   4.626  11.720  0.2112  0.3055 -0.9197
 2070SOL    HW117843   3.592   4.533  11.741  2.9574  0.1929 -0.4627
 2070SOL    HW217844   3.694   4.636  11.730  0.3588 -1.0012 -0.9612
 2071SOL     OW17845   1.366   2.356  13.385 -0.1984  0.0212  0.5965
 2071SOL    HW117846   1.429   2.294  13.423 -0.6306 -1.0450 -0.4405
 2071SOL    HW217847   1.342   2.415  13.457 -1.5321 -0.8472  0.8714
 2072SOL     OW17848   4.712   3.620   6.322  0.1528  1.0035 -0.1487
 2072SOL    HW117849   4.701   3.657   6.410  1.0428 -2.9642  1.6328
 2072SOL    HW217850   4.693   3.526   6.321  1.5463  0.7192  0.1412
 2073SOL     OW17851   1.727   1.234   1.151  0.5186  0.2881  0.1783
 2073SOL    HW117852   1.752   1.171   1.083 -1.2071 -0.1665 -0.0288
 2073SOL    HW217853   1.810   1.238   1.198  0.0877  1.0816  0.8706
 2074SOL     OW17854   1.221   2.678  15.952 -0.0533  0.1678 -0.2664
 2074SOL    HW117855   1.157   2.746  15.974  0.8349  1.0461 -0.3932
 2074SOL    HW217856   1.162   2.602  15.953  1.0239 -0.6857 -1.6838
 2075SOL     OW17857   1.295   0.612   6.359 -0.1901 -0.0159 -0.1966
 2075SOL    HW117858   1.313   0.658   6.441 -0.7803  1.0225 -0.6584
 2075SOL    HW217859   1.297   0.688   6.302  2.8936  0.2916  0.3091
 2076SOL     OW17860   0.529   1.422   1.074 -0.0892  0.2010 -0.4245
 2076SOL    HW117861   0.579   1.496   1.041  0.1555  0.0386 -0.4154
 2076SOL    HW217862   0.553   1.427   1.167  1.6295  0.5370 -0.8918
 2077SOL     OW17863   0.320   3.471   3.944 -0.1379 -0.0988  0.2049
 2077SOL    HW117864   0.307   3.547   4.001  0.8472 -0.8045  1.3745
 2077SOL    HW217865   0.411   3.450   3.965 -0.5121  1.7165  3.8245
 2078SOL     OW17866   1.681   2.461   6.053 -0.1598 -0.6537  0.6125
 2078SOL    HW117867   1.722   2.391   6.002  0.4667  0.9762 -1.1191
 2078SOL    HW217868   1.703   2.429   6.140  1.1438 -0.4316  0.3584
 2079SOL     OW17869   3.398   4.652   2.249  0.5137 -0.3434 -0.0225
 2079SOL    HW117870   3.481   4.699   2.245  0.5372 -0.3970 -0.1760
 2079SOL    HW217871   3.383   4.622   2.159  0.1998  2.9338 -1.0329
 2080SOL     OW17872   2.906   3.054   8.618 -0.3288  0.4013 -0.5162
 2080SOL    HW117873   2.827   3.002   8.606 -0.3304 -0.0058  1.3060
 2080SOL    HW217874   2.889   3.136   8.572 -0.7090 -0.0094 -1.1079
 2081SOL     OW17875   0.809   2.365   4.900  0.6111  0.3157 -0.2713
 2081SOL    HW117876   0.795   2.314   4.980  1.4361 -1.3582 -1.1922
 2081SOL    HW217877   0.817   2.301   4.829 -2.9363 -0.9204  0.4723
 2082SOL     OW17878   1.524   0.024   3.354  0.7055  0.1306 -0.2009
 2082SOL    HW117879   1.610   0.036   3.314  1.0630  1.2559  0.9349
 2082SOL    HW217880   1.477   0.107   3.349  0.3226 -0.2945 -4.0643
 2083SOL     OW17881   0.375   3.331   3.709 -0.9294  0.7503 -0.2239
 2083SOL    HW117882   0.337   3.244   3.694  1.2078 -0.1684 -0.3187
 2083SOL    HW217883   0.334   3.357   3.792 -2.5618  0.4318 -0.9357
 2084SOL     OW17884   3.566   3.744   8.349 -0.2415 -0.6091 -0.3436
 2084SOL    HW117885   3.509   3.763   8.424 -0.1339 -0.6363 -0.2547
 2084SOL    HW217886   3.511   3.779   8.279 -2.1898  1.9347  2.4330
 2085SOL     OW17887   0.436   0.616   7.625 -0.6202 -0.0908 -0.1407
 2085SOL    HW117888   0.417   0.702   7.663  1.2935 -0.0674  0.7542
 2085SOL    HW217889   0.513   0.641   7.574  0.0648 -0.5467  0.6648
 2086SOL     OW17890   0.936   0.731   3.325  0.1606  0.5051  0.0473
 2086SOL    HW117891   0.944   0.821   3.356 -0.8522  1.2843 -1.9584
 2086SOL    HW217892   0.936   0.740   3.230  0.1910  0.9894  0.0950
 2087SOL     OW17893   0.885   1.538   5.136 -0.2222  0.3797 -0.3168
 2087SOL    HW117894   0.933   1.620   5.134 -3.2163  2.1180 -0.4224
 2087SOL    HW217895   0.840   1.542   5.051 -0.8211 -0.7926 -0.0671
 2088SOL     OW17896   0.180   1.607   7.945 -0.5983 -1.1150 -0.3389
 2088SOL    HW117897   0.273   1.620   7.964 -0.6966  3.0911 -2.7761
 2088SOL    HW217898   0.150   1.688   7.987 -0.7409 -0.2887 -2.0595
 2089SOL     OW17899   0.974   1.780   6.829 -0.0824  0.1800 -0.5062
 2089SOL    HW117900   0.982   1.876   6.826  0.7050  0.1197 -0.5349
 2089SOL    HW217901   0.980   1.755   6.737 -0.2817  1.1773 -0.7905
 2090SOL     OW17902   3.281   1.842   6.342 -0.2283  0.1207  0.4636
 2090SOL    HW117903   3.333   1.801   6.411  0.5040  0.8317  0.3343
 2090SOL    HW217904   3.245   1.769   6.291 -0.2523  2.0909 -2.3829
 2091SOL     OW17905   2.380   4.327   8.231 -0.1908 -0.1193 -0.0992
 2091SOL    HW117906   2.439   4.254   8.215  1.2147  0.4625  2.4268
 2091SOL    HW217907   2.420   4.403   8.188 -0.8290  0.9041  1.1010
 2092SOL     OW17908   4.285   2.416  14.388  0.0844 -0.5164 -0.4692
 2092SOL    HW117909   4.345   2.464  14.445 -2.0712  1.9289 -0.2544
 2092SOL    HW217910   4.203   2.465  14.399  1.3865  1.8256 -1.1248
 2093SOL     OW17911   3.618   1.691  15.031 -0.6045 -0.4321 -0.0546
 2093SOL    HW117912   3.610   1.707  15.125  0.8002  1.8255 -0.3371
 2093SOL    HW217913   3.578   1.772  14.999  0.9861  1.6178  3.1977
 2094SOL     OW17914   4.540   2.701   6.057 -0.0667 -0.0058  0.0620
 2094SOL    HW117915   4.529   2.793   6.079  1.3775  0.6045 -1.8262
 2094SOL    HW217916   4.447   2.680   6.068  0.3578 -0.9724  1.7951
 2095SOL     OW17917   3.654   2.064   2.345  0.4589 -0.1829  0.4161
 2095SOL    HW117918   3.690   2.142   2.386  0.2283 -0.3236  0.8789
 2095SOL    HW217919   3.693   2.083   2.259 -0.5377  1.3145  0.2902
 2096SOL     OW17920   0.732   1.808   3.238 -0.2964  0.2938  0.1854
 2096SOL    HW117921   0.808   1.862   3.263 -0.6634  0.5294  0.7852
 2096SOL    HW217922   0.663   1.833   3.300 -0.6473  0.8685 -0.4336
 2097SOL     OW17923   0.809   1.159  14.700 -0.0342  0.0859  0.3546
 2097SOL    HW117924   0.782   1.198  14.783 -4.9078 -0.0130 -1.1534
 2097SOL    HW217925   0.756   1.210  14.638  1.0636 -2.5737 -2.8232
 2098SOL     OW17926   4.473   4.092   0.217 -0.4608  0.6418  0.1359
 2098SOL    HW117927   4.381   4.070   0.231 -0.4664  0.8216  0.3819
 2098SOL    HW217928   4.464   4.180   0.180 -0.0620  0.8755  0.5868
 2099SOL     OW17929   2.004   2.398   5.129 -0.1852 -0.3373  0.5555
 2099SOL    HW117930   1.959   2.351   5.059  0.0371 -1.4060  1.1398
 2099SOL    HW217931   2.075   2.429   5.073 -0.6809 -0.3189 -0.0604
 2100SOL     OW17932   2.005   0.604   1.753  1.5365 -1.0038  0.1694
 2100SOL    HW117933   1.970   0.681   1.797  1.1607  0.5955 -2.9614
 2100SOL    HW217934   1.954   0.528   1.779  0.0256 -0.1112 -0.2045
 2101SOL     OW17935   1.971   3.387   3.212 -0.0010 -0.4490  0.3145
 2101SOL    HW117936   2.009   3.334   3.142  0.9104 -2.0464  2.0213
 2101SOL    HW217937   1.913   3.438   3.154  0.8579  2.6488  2.1825
 2102SOL     OW17938   1.671   3.980   8.620 -0.3443 -0.2440 -0.3130
 2102SOL    HW117939   1.625   3.911   8.571  1.3275 -0.8069 -1.0780
 2102SOL    HW217940   1.741   4.008   8.561 -0.3085  1.2412  0.4380
 2103SOL     OW17941   1.471   3.966   7.629  0.5016  0.4454  0.0889
 2103SOL    HW117942   1.567   3.966   7.635  0.6393  0.3008 -2.1883
 2103SOL    HW217943   1.457   4.048   7.582  1.3000  0.5158 -0.0236
 2104SOL     OW17944   1.741   0.886   2.144  0.3423  0.2388  0.2258
 2104SOL    HW117945   1.828   0.849   2.161  0.5741  0.9444  0.5895
 2104SOL    HW217946   1.725   0.839   2.062  1.1536 -2.7866  1.8191
 2105SOL     OW17947   1.691   2.084   1.173 -0.5686  0.0768  0.1510
 2105SOL    HW117948   1.686   2.002   1.125  1.3336 -0.1912  0.4051
 2105SOL    HW217949   1.700   2.153   1.107 -4.0741  0.8092  0.4519
 2106SOL     OW17950   3.445   2.881   4.201  0.4997 -0.2465 -0.1819
 2106SOL    HW117951   3.458   2.790   4.228 -2.1991 -1.0097 -1.4780
 2106SOL    HW217952   3.428   2.877   4.107  0.2848 -0.5197 -0.1316
 2107SOL     OW17953   2.858   3.311   8.509 -0.1034 -0.0132  0.4692
 2107SOL    HW117954   2.840   3.405   8.507  0.0800  0.0585  1.9115
 2107SOL    HW217955   2.792   3.276   8.450  1.1228  1.1442 -1.5582
 2108SOL     OW17956   0.219   3.297   2.479  0.2458 -0.1298  0.4962
 2108SOL    HW117957   0.169   3.365   2.434  1.0266  1.0389  1.3948
 2108SOL    HW217958   0.167   3.218   2.463 -1.4242  1.1036 -0.1646
 2109SOL     OW17959   1.813   2.968   4.202  0.3954 -0.1818  0.3523
 2109SOL    HW117960   1.810   3.036   4.269  0.5992 -0.8420  1.0405
 2109SOL    HW217961   1.730   2.923   4.218  1.7546 -2.7169  0.3815
 2110SOL     OW17962   2.503   3.646  16.065 -0.2376  0.0315 -0.0936
 2110SOL    HW117963   2.484   3.676  16.154  1.3034 -0.3519  0.3630
 2110SOL    HW217964   2.591   3.683  16.051  0.0717  0.4294  2.8219
 2111SOL     OW17965   2.729   0.641   9.237  0.1062  0.0956  0.6453
 2111SOL    HW117966   2.772   0.602   9.314  0.0681  0.7282  0.9843
 2111SOL    HW217967   2.637   0.632   9.259  0.4006 -0.9961  1.4314
 2112SOL     OW17968   2.047   0.823   1.007  0.0365 -0.3617 -0.6555
 2112SOL    HW117969   2.122   0.826   0.949 -0.8406 -0.7257 -1.8075
 2112SOL    HW217970   2.075   0.752   1.065  0.7334  0.8631  0.5065
 2113SOL     OW17971   3.892   1.855   7.248  0.4797 -0.0432 -0.3868
 2113SOL    HW117972   3.895   1.941   7.288  0.9757 -0.6410  0.8789
 2113SOL    HW217973   3.832   1.807   7.305 -0.5018 -0.0621 -1.4427
 2114SOL     OW17974   0.054   0.454   6.095 -0.0769 -0.0573 -0.2857
 2114SOL    HW117975   4.717   0.447   6.033 -0.4612 -1.0134  0.2656
 2114SOL    HW217976   0.030   0.387   6.159 -1.7806  0.4638 -0.3941
 2115SOL     OW17977   0.601   2.911  14.589 -0.2882  0.3783  0.2374
 2115SOL    HW117978   0.517   2.864  14.597  0.8748 -1.7073  0.3575
 2115SOL    HW217979   0.597   2.936  14.497  1.4425 -0.0724  0.0474
 2116SOL     OW17980   1.277   4.413   8.732 -0.7007  0.6989 -0.3436
 2116SOL    HW117981   1.307   4.393   8.821  1.6958  0.3941 -1.2232
 2116SOL    HW217982   1.344   4.384   8.671  0.9982  0.9190  1.3953
 2117SOL     OW17983   3.818   3.420   5.732 -0.2550 -0.7757  0.2417
 2117SOL    HW117984   3.739   3.373   5.708 -2.2648  1.7537  1.8423
 2117SOL    HW217985   3.887   3.399   5.669 -0.0389 -0.3872  0.3457
 2118SOL     OW17986   4.610   1.296   3.232  0.4639  0.6296  0.2347
 2118SOL    HW117987   4.522   1.303   3.268  0.6685 -2.8882  1.3859
 2118SOL    HW217988   4.666   1.336   3.298 -0.0788 -1.2013  1.8063
 2119SOL     OW17989   0.831   4.523   6.274  1.2321  0.7652  0.3859
 2119SOL    HW117990   0.817   4.429   6.278 -0.4590  1.0322  0.7135
 2119SOL    HW217991   0.744   4.555   6.252 -0.4393 -2.8269  1.9269
 2120SOL     OW17992   1.883   4.069   4.912  0.1134 -0.0798 -0.1739
 2120SOL    HW117993   1.962   4.044   4.866  1.0928 -1.1930  2.0855
 2120SOL    HW217994   1.851   3.983   4.940  1.8511 -0.5100  0.4771
 2121SOL     OW17995   1.422   0.453   2.292  0.0945 -0.6582 -0.0182
 2121SOL    HW117996   1.411   0.375   2.347  0.1705 -2.1142 -2.0818
 2121SOL    HW217997   1.479   0.515   2.336 -2.4847  1.3237  0.5580
 2122SOL     OW17998   2.356   1.285  10.643  0.2914  0.1335 -0.1966
 2122SOL    HW117999   2.378   1.376  10.661 -0.6724  0.4695 -0.7060
 2122SOL    HW218000   2.406   1.252  10.717 -0.3707 -0.0943  0.1496
 2123SOL     OW18001   0.063   4.548   3.456 -0.0212  0.4162  0.1886
 2123SOL    HW118002   0.122   4.575   3.526  0.5615  2.4248 -1.0930
 2123SOL    HW218003   4.718   4.548   3.508 -0.6244 -0.0740 -0.7341
 2124SOL     OW18004   3.570   2.183   9.324  0.0666 -0.0072  0.6775
 2124SOL    HW118005   3.564   2.278   9.310 -2.9805 -0.3866 -0.5695
 2124SOL    HW218006   3.605   2.154   9.240  2.0279  0.1265  1.4414
 2125SOL     OW18007   1.503   4.700  17.350 -0.2952  0.0886 -0.8489
 2125SOL    HW118008   1.438   0.005  17.292  1.1524  0.1709 -2.4372
 2125SOL    HW218009   1.576   4.690  17.289 -0.2928 -0.9791 -0.6591
 2126SOL     OW18010   1.395   1.885   5.552 -0.1029  0.2814 -0.4195
 2126SOL    HW118011   1.304   1.880   5.581  0.1507  0.5458  0.4218
 2126SOL    HW218012   1.400   1.793   5.526 -0.4185  0.1968 -0.1837
 2127SOL     OW18013   1.544   3.998  17.735  0.4247  0.5557  0.6111
 2127SOL    HW118014   1.454   3.979  17.708  1.5480 -1.4755 -1.6200
 2127SOL    HW218015   1.553   3.917   0.046 -0.1947  0.1934  0.1327
 2128SOL     OW18016   0.694   0.814   3.224  0.2444  0.7745  0.2074
 2128SOL    HW118017   0.766   0.777   3.173  0.2145  0.0735  0.6619
 2128SOL    HW218018   0.737   0.787   3.305  0.9511  0.2403 -0.3445
 2129SOL     OW18019   0.511   0.476  11.901 -0.1877 -0.3511 -0.5278
 2129SOL    HW118020   0.564   0.505  11.975  2.0270 -2.0406 -1.4652
 2129SOL    HW218021   0.462   0.556  11.881 -0.0975  0.2160  1.4710
 2130SOL     OW18022   2.164   4.213   8.565 -0.4805  0.0316 -0.9345
 2130SOL    HW118023   2.174   4.130   8.611 -0.0950 -0.0314 -1.1343
 2130SOL    HW218024   2.075   4.231   8.597  0.1979  0.4391  0.7215
 2131SOL     OW18025   4.221   0.871  12.776  0.0692 -0.3257 -0.0323
 2131SOL    HW118026   4.232   0.790  12.826 -1.1413 -1.3788 -1.4905
 2131SOL    HW218027   4.171   0.836  12.703  1.3874 -2.2324 -0.0278
 2132SOL     OW18028   2.524   1.801   8.258  0.7451 -0.0081 -0.0269
 2132SOL    HW118029   2.548   1.824   8.348 -2.6974  0.4167  0.7898
 2132SOL    HW218030   2.496   1.710   8.267  0.2702  0.1416  0.0287
 2133SOL     OW18031   1.202   2.806   5.828  0.1062 -0.1004  0.3214
 2133SOL    HW118032   1.149   2.739   5.872 -0.4804  0.2882  0.2101
 2133SOL    HW218033   1.278   2.749   5.814  1.5628  1.6855  0.9293
 2134SOL     OW18034   0.207   4.139   5.277  0.5388 -0.1011 -0.4672
 2134SOL    HW118035   0.140   4.083   5.316 -1.3227  2.7567  0.5187
 2134SOL    HW218036   0.285   4.106   5.320  0.5428  1.2892  0.6205
 2135SOL     OW18037   2.007   3.462   8.732  0.2576 -0.2872  0.1821
 2135SOL    HW118038   1.949   3.526   8.690 -1.0254 -1.8326 -0.4094
 2135SOL    HW218039   1.990   3.382   8.682 -1.7281 -0.5128  1.1895
 2136SOL     OW18040   0.180   2.981   4.537 -0.1848  0.1469 -0.0307
 2136SOL    HW118041   0.114   2.918   4.565  0.2220 -0.1484  0.2537
 2136SOL    HW218042   0.150   3.068   4.565  0.4579  0.3448  0.0554
 2137SOL     OW18043   2.455   3.893  10.999  0.4014 -0.1350 -0.2223
 2137SOL    HW118044   2.518   3.849  11.055 -3.4280 -0.6869  3.6748
 2137SOL    HW218045   2.430   3.972  11.046 -0.3377 -0.7066  0.3400
 2138SOL     OW18046   1.294   1.899   6.331  0.4829 -0.4754 -0.3633
 2138SOL    HW118047   1.354   1.828   6.307  0.5113  0.0852 -1.9892
 2138SOL    HW218048   1.225   1.905   6.265  1.0280  0.4729 -0.8588
 2139SOL     OW18049   3.465   4.290  12.420  0.3879  0.0683  0.4447
 2139SOL    HW118050   3.445   4.353  12.351  1.9026  1.1366  0.9760
 2139SOL    HW218051   3.382   4.243  12.417  0.6659 -0.5757  2.6538
 2140SOL     OW18052   4.433   0.318   1.729  0.1111  0.0445 -0.3349
 2140SOL    HW118053   4.454   0.243   1.674 -1.5999 -0.7520  0.1056
 2140SOL    HW218054   4.505   0.380   1.719 -0.3289  0.6014 -0.0773
 2141SOL     OW18055   3.310   0.902   3.029  0.0676  0.5181  0.4076
 2141SOL    HW118056   3.233   0.896   2.973  0.5418  0.1899 -0.2134
 2141SOL    HW218057   3.346   0.813   3.028 -1.3565 -0.0518  0.8022
 2142SOL     OW18058   0.953   0.258   6.486  0.1293 -0.5597  0.4039
 2142SOL    HW118059   0.976   0.255   6.393 -2.2256 -0.3614 -0.2055
 2142SOL    HW218060   0.869   0.211   6.484 -0.3047  0.1413  2.2132
 2143SOL     OW18061   0.741   4.396   5.824 -0.0846  0.0186  0.3081
 2143SOL    HW118062   0.685   4.345   5.882 -2.2742  0.5549 -1.3418
 2143SOL    HW218063   0.676   4.442   5.771 -0.1406  0.1711  0.5075
 2144SOL     OW18064   4.469   0.083  10.631 -0.2721 -0.1662  0.1384
 2144SOL    HW118065   4.475   0.078  10.536 -0.0143 -0.9213  0.1974
 2144SOL    HW218066   4.505   4.733  10.656  0.6007 -0.1099 -0.9154
 2145SOL     OW18067   1.863   0.700   4.630  0.3806 -0.1286  0.3810
 2145SOL    HW118068   1.875   0.684   4.723  0.3365  0.6464  0.5133
 2145SOL    HW218069   1.877   0.793   4.617  1.3030 -0.3200 -0.0287
 2146SOL     OW18070   3.883   4.388   0.172 -0.3710 -0.0277  0.3269
 2146SOL    HW118071   3.800   4.343   0.156 -0.9697  0.2917  2.4523
 2146SOL    HW218072   3.945   4.316   0.165 -0.3996  0.0367 -0.6127
 2147SOL     OW18073   1.564   4.656  13.270 -0.3519  0.0201 -0.2969
 2147SOL    HW118074   1.628   4.707  13.319  0.9488 -0.6937 -1.2715
 2147SOL    HW218075   1.506   4.731  13.251  1.0085  1.2506  0.3962
 2148SOL     OW18076   2.557   1.905   2.818  0.4635  0.0129  0.2218
 2148SOL    HW118077   2.541   1.999   2.820 -1.3121 -0.2589 -1.3451
 2148SOL    HW218078   2.634   1.889   2.873  0.9872  2.2383  0.1375
 2149SOL     OW18079   1.386   0.723  10.762  0.1533 -0.0761 -0.1715
 2149SOL    HW118080   1.386   0.704  10.668  2.1739 -1.0077  0.0300
 2149SOL    HW218081   1.475   0.757  10.768 -0.1964  0.9226 -0.6478
 2150SOL     OW18082   4.517   0.894   7.836 -0.5969  0.1538  0.0737
 2150SOL    HW118083   4.476   0.809   7.852 -0.4992  0.3070  1.1427
 2150SOL    HW218084   4.578   0.872   7.766  0.7486 -0.1461  1.3508
 2151SOL     OW18085   3.751   0.657   9.512 -0.3841  0.5319 -0.1293
 2151SOL    HW118086   3.737   0.667   9.418 -1.1600 -3.0700 -0.3849
 2151SOL    HW218087   3.834   0.609   9.512 -1.7659 -1.8741 -1.2496
 2152SOL     OW18088   1.248   4.715   5.637 -0.3325  0.1976 -0.3802
 2152SOL    HW118089   1.226   4.734   5.728  3.7186 -1.3272  0.9218
 2152SOL    HW218090   1.190   0.043   5.594 -1.1712 -0.4264 -0.1562
 2153SOL     OW18091   2.928   2.923   3.362 -0.4866 -0.0289 -0.0974
 2153SOL    HW118092   2.928   2.843   3.309  1.3662  0.6583 -1.1231
 2153SOL    HW218093   2.834   2.932   3.381 -0.5953  0.2200 -0.7474
 2154SOL     OW18094   2.528   3.622   4.680  0.1717  0.4659 -0.4088
 2154SOL    HW118095   2.567   3.671   4.752  2.3690 -0.9037 -0.6841
 2154SOL    HW218096   2.441   3.661   4.669  0.5797  1.0296 -1.5865
 2155SOL     OW18097   2.674   2.237   7.405  0.1973 -0.2895 -0.5806
 2155SOL    HW118098   2.604   2.184   7.367  0.6326  0.3337 -2.2294
 2155SOL    HW218099   2.644   2.253   7.495  1.3364  1.2460 -0.4652
 2156SOL     OW18100   1.501   3.731   1.977  0.0270 -0.1814 -0.1060
 2156SOL    HW118101   1.513   3.821   2.005 -1.8614  0.1194 -0.2495
 2156SOL    HW218102   1.431   3.743   1.913 -1.1934  1.8119  1.6304
 2157SOL     OW18103   1.150   4.244   7.367 -0.0838  0.3380  0.1797
 2157SOL    HW118104   1.245   4.243   7.383 -0.2352 -0.0264  1.0836
 2157SOL    HW218105   1.144   4.155   7.332 -0.6052  0.1250  0.7915
 2158SOL     OW18106   0.380   1.995   1.309  0.5231  0.0377 -0.2131
 2158SOL    HW118107   0.397   2.077   1.262  0.8000  0.3380  0.4174
 2158SOL    HW218108   0.464   1.958   1.336  1.8261  2.0405 -1.5692
 2159SOL     OW18109   2.307   0.794   3.263  0.2557 -0.0683  0.3566
 2159SOL    HW118110   2.286   0.763   3.175  1.2818  3.2419 -1.0400
 2159SOL    HW218111   2.271   0.883   3.265  0.6422  0.1758 -3.7441
 2160SOL     OW18112   2.396   1.651   6.303  0.2143  0.1478 -0.0919
 2160SOL    HW118113   2.417   1.561   6.327 -2.3028 -1.0061 -2.2558
 2160SOL    HW218114   2.439   1.662   6.219  0.8898 -0.3138  0.1927
 2161SOL     OW18115   4.276   4.578  13.850  0.4441  0.0405  0.1788
 2161SOL    HW118116   4.195   4.619  13.877 -0.3643 -1.9908  0.8385
 2161SOL    HW218117   4.343   4.646  13.854 -0.8615  1.3500 -0.5491
 2162SOL     OW18118   4.722   1.703   3.468 -0.1039 -0.0571 -0.6049
 2162SOL    HW118119   4.684   1.788   3.491  0.0385 -0.5661  1.4697
 2162SOL    HW218120   0.047   1.696   3.541  0.8532 -2.6768 -1.6637
 2163SOL     OW18121   1.944   1.147   4.167  0.5692  0.8060 -0.1085
 2163SOL    HW118122   1.979   1.065   4.202 -3.3681 -0.2131  1.4216
 2163SOL    HW218123   1.871   1.113   4.116  1.1791 -0.4312 -0.1582
 2164SOL     OW18124   4.267   0.597   4.502 -0.2750 -0.0412  0.2794
 2164SOL    HW118125   4.189   0.579   4.555 -0.8789  0.1887 -0.5363
 2164SOL    HW218126   4.271   0.691   4.520 -0.0354  0.2283 -1.1996
 2165SOL     OW18127   0.625   2.937   9.106 -0.9059 -0.3536  0.0330
 2165SOL    HW118128   0.586   2.853   9.131  1.8028 -1.7606 -0.5430
 2165SOL    HW218129   0.628   2.988   9.187 -0.3193  0.5619 -0.5597
 2166SOL     OW18130   1.504   1.829  11.515 -0.3853  0.1787 -0.2950
 2166SOL    HW118131   1.550   1.892  11.571  1.5184 -0.6489 -0.9341
 2166SOL    HW218132   1.417   1.867  11.503  0.0972  1.4332  0.1250
 2167SOL     OW18133   1.522   3.166   3.222  0.2513  0.3422  0.3544
 2167SOL    HW118134   1.600   3.174   3.168 -0.9578 -1.8627 -1.7247
 2167SOL    HW218135   1.504   3.072   3.222 -0.3755  0.4648 -1.0883
 2168SOL     OW18136   3.558   1.969  16.617 -0.1772  0.1806  0.3110
 2168SOL    HW118137   3.584   1.896  16.673  1.2830 -0.1713 -0.8241
 2168SOL    HW218138   3.582   1.950  16.526 -0.6510  0.8596  0.0459
 2169SOL     OW18139   1.233   2.997   1.723 -0.4328  0.1848  0.1752
 2169SOL    HW118140   1.158   2.984   1.664 -1.5757  2.1481  1.2013
 2169SOL    HW218141   1.207   3.082   1.759  1.8028 -0.0771  2.3618
 2170SOL     OW18142   2.494   4.599   7.113  0.4296  0.2575  0.0409
 2170SOL    HW118143   2.437   4.596   7.036  1.3330  2.7148 -0.7302
 2170SOL    HW218144   2.424   4.574   7.174  1.4238 -1.2608  0.5542
 2171SOL     OW18145   1.946   1.796  17.010 -0.0282  0.3108 -0.1543
 2171SOL    HW118146   1.973   1.838  17.091 -0.6970 -0.1295  0.2974
 2171SOL    HW218147   1.956   1.706  17.043  1.5655  0.2062 -0.9085
 2172SOL     OW18148   0.769   2.113   4.822  0.5841 -0.5022  0.5467
 2172SOL    HW118149   0.741   2.063   4.899  0.4374 -0.5720  0.4486
 2172SOL    HW218150   0.683   2.139   4.788  0.4447 -1.3102  0.2715
 2173SOL     OW18151   0.305   1.046  11.831 -0.7063  0.5170 -0.3485
 2173SOL    HW118152   0.309   1.004  11.917  1.5690 -1.4746 -1.4481
 2173SOL    HW218153   0.220   1.090  11.839 -0.2538  1.3865 -0.2011
 2174SOL     OW18154   2.573   4.323   3.668  0.0645  0.6244  0.1964
 2174SOL    HW118155   2.658   4.315   3.712 -0.0985  1.5540  0.6802
 2174SOL    HW218156   2.523   4.339   3.748  2.5025  0.1945  1.8298
 2175SOL     OW18157   3.446   4.626   6.323 -0.0459  0.6472 -0.2714
 2175SOL    HW118158   3.389   4.618   6.246 -0.7861 -1.3410  0.4880
 2175SOL    HW218159   3.502   4.550   6.312 -0.6618  0.0423  0.6998
 2176SOL     OW18160   1.465   3.279  15.941  0.2027  0.0768 -0.1833
 2176SOL    HW118161   1.443   3.299  15.850  4.1863  0.3505 -1.1014
 2176SOL    HW218162   1.550   3.240  15.923  0.3345  0.3454 -0.1415
 2177SOL     OW18163   3.898   0.201   0.544 -0.0280 -1.1529 -1.1031
 2177SOL    HW118164   3.852   0.267   0.596  2.6575  0.5688 -0.9021
 2177SOL    HW218165   3.827   0.169   0.488 -2.5185 -1.2467  2.1069
 2178SOL     OW18166   2.630   0.215   4.496 -0.5367 -0.5339  0.1676
 2178SOL    HW118167   2.565   0.199   4.564 -0.1648 -2.7613  0.0040
 2178SOL    HW218168   2.690   0.271   4.545 -0.2550  0.8915 -1.7890
 2179SOL     OW18169   1.022   0.792   1.980 -0.2411  0.6033 -0.6695
 2179SOL    HW118170   0.942   0.808   1.931 -0.5619  2.8131  0.5938
 2179SOL    HW218171   1.060   0.875   2.007 -0.3682  0.6257 -0.5586
 2180SOL     OW18172   3.544   2.097   1.922 -0.7946  0.0810  0.0778
 2180SOL    HW118173   3.491   2.084   1.843 -0.4564  2.6877 -0.5586
 2180SOL    HW218174   3.528   2.014   1.968 -0.1088  0.1351  0.4164
 2181SOL     OW18175   3.403   4.526   4.126 -0.6581 -0.3941 -0.5286
 2181SOL    HW118176   3.454   4.500   4.202 -2.4668 -1.2860  0.3930
 2181SOL    HW218177   3.317   4.485   4.137  0.5708 -2.5765  0.9995
 2182SOL     OW18178   2.643   0.101   8.665 -0.2082 -0.1746  0.1143
 2182SOL    HW118179   2.685   0.167   8.609  0.1913  2.1765  3.1678
 2182SOL    HW218180   2.565   0.073   8.618 -1.0021  0.4092  1.1034
 2183SOL     OW18181   0.991   0.051   2.872 -0.4633  0.5092 -0.0731
 2183SOL    HW118182   1.054   4.715   2.882 -0.0625  1.1096  1.6952
 2183SOL    HW218183   0.975   0.070   2.964  0.1581  2.4048 -0.3584
 2184SOL     OW18184   0.937   0.906   8.097 -0.0336 -0.3268  0.0592
 2184SOL    HW118185   0.973   0.995   8.103 -1.5238  0.2705  0.2436
 2184SOL    HW218186   0.933   0.883   8.190 -0.8257  0.0180  0.1166
 2185SOL     OW18187   1.874   0.301   0.408  0.1597  0.1981  0.2351
 2185SOL    HW118188   1.901   0.237   0.474  1.2986 -0.0390 -0.4707
 2185SOL    HW218189   1.947   0.303   0.347 -0.2662 -0.0620 -0.2856
 2186SOL     OW18190   4.469   2.838   6.769 -0.3789  0.1341 -0.1292
 2186SOL    HW118191   4.479   2.791   6.852 -1.1639 -0.3580 -0.3065
 2186SOL    HW218192   4.554   2.879   6.758  1.2776 -3.2256  0.1620
 2187SOL     OW18193   4.189   4.689   7.662  0.2425  0.5001 -0.1240
 2187SOL    HW118194   4.228   4.653   7.742 -0.1440  0.8039  0.2032
 2187SOL    HW218195   4.253   4.662   7.596 -0.8165 -2.6844  0.1701
 2188SOL     OW18196   1.934   2.547   4.377 -0.5121 -0.0800 -0.0277
 2188SOL    HW118197   2.024   2.530   4.403  0.7006  3.3283 -1.9634
 2188SOL    HW218198   1.951   2.603   4.301  0.1929  0.0951  0.2560
 2189SOL     OW18199   4.030   2.376  11.319  0.4575  0.9164 -0.2036
 2189SOL    HW118200   4.023   2.437  11.246  0.3841  1.6745  0.4303
 2189SOL    HW218201   4.072   2.425  11.390 -1.5404  3.0092 -0.4599
 2190SOL     OW18202   4.179   2.767   6.802  1.1985  0.2389  0.4263
 2190SOL    HW118203   4.265   2.765   6.761  1.9192 -0.8055  1.9541
 2190SOL    HW218204   4.183   2.692   6.862 -0.3772  1.4594  2.0717
 2191SOL     OW18205   2.134   4.602   9.983  0.4587 -0.2228  0.0283
 2191SOL    HW118206   2.188   4.670   9.942  0.9812  0.1170  1.2718
 2191SOL    HW218207   2.198   4.530   9.983  1.6435  0.8262  1.1827
 2192SOL     OW18208   1.554   4.242   7.122 -0.7313  0.4660  0.1050
 2192SOL    HW118209   1.626   4.300   7.098 -0.8569  1.9312  3.2637
 2192SOL    HW218210   1.492   4.269   7.054 -2.0576 -2.4294  0.1664
 2193SOL     OW18211   4.398   2.532   7.159 -0.1199  0.7640  0.2535
 2193SOL    HW118212   4.416   2.564   7.247  0.3281 -1.8449  1.1190
 2193SOL    HW218213   4.423   2.439   7.166  2.4323  1.3271 -1.3064
 2194SOL     OW18214   3.799   0.353  14.983 -0.1094  0.4913 -0.1415
 2194SOL    HW118215   3.854   0.425  15.013 -1.0267  0.2433  2.1104
 2194SOL    HW218216   3.810   0.366  14.889 -1.2209  0.0024 -0.3306
 2195SOL     OW18217   4.041   0.633   6.832 -0.3000  0.0911  0.0275
 2195SOL    HW118218   3.954   0.655   6.801  0.3917  2.9560  0.1565
 2195SOL    HW218219   4.056   0.714   6.881 -1.3655 -0.1587  0.7603
 2196SOL     OW18220   1.327   3.371   1.301 -0.0125  0.3698 -0.1708
 2196SOL    HW118221   1.291   3.319   1.373  0.7704  1.8584  1.2780
 2196SOL    HW218222   1.365   3.439   1.357  0.0831  0.6295 -0.5529
 2197SOL     OW18223   2.610   0.203   1.207  0.1035 -0.0723 -0.1530
 2197SOL    HW118224   2.692   0.157   1.223 -0.1614 -1.2228 -2.1107
 2197SOL    HW218225   2.569   0.144   1.143  0.2742 -0.8625  0.4693
 2198SOL     OW18226   2.670   1.525   4.833  0.1878  0.6798  0.2663
 2198SOL    HW118227   2.723   1.557   4.761 -0.7962  1.0802 -0.2697
 2198SOL    HW218228   2.735   1.469   4.876 -0.1259 -0.0124 -0.1735
 2199SOL     OW18229   1.831   0.950   2.546  0.0234  0.3863  0.1014
 2199SOL    HW118230   1.863   0.935   2.635 -0.7445 -1.1180  0.1275
 2199SOL    HW218231   1.912   0.977   2.503  0.9806 -2.1991  0.2561
 2200SOL     OW18232   4.331   3.195   2.632 -0.6285  0.6209  1.1284
 2200SOL    HW118233   4.403   3.134   2.648 -1.1523  0.1087  1.5121
 2200SOL    HW218234   4.388   3.271   2.616  1.8150 -0.9587  2.2958
 2201SOL     OW18235   0.673   3.154   6.421  0.2334 -0.0968 -0.4290
 2201SOL    HW118236   0.747   3.107   6.382  1.7750  1.4171  0.6118
 2201SOL    HW218237   0.598   3.095   6.416 -0.0015  0.4267 -2.8531
 2202SOL     OW18238   0.309   0.603  12.770  0.2979 -0.0057 -0.2731
 2202SOL    HW118239   0.330   0.669  12.835 -1.7250 -1.4802  1.8859
 2202SOL    HW218240   0.380   0.539  12.772  0.5446  0.2403 -0.9647
 2203SOL     OW18241   3.044   3.270   5.571  0.5058  0.2588  0.3020
 2203SOL    HW118242   3.005   3.207   5.511  0.4469  1.9482 -1.4004
 2203SOL    HW218243   2.968   3.326   5.585 -0.2573 -0.2008 -2.1365
 2204SOL     OW18244   2.782   0.740   4.648 -0.3342  0.2462 -0.0874
 2204SOL    HW118245   2.871   0.737   4.681 -0.8336 -0.1554  1.2152
 2204SOL    HW218246   2.794   0.808   4.581  0.2889 -0.1493 -0.3696
 2205SOL     OW18247   0.854   1.147   3.433 -0.2136 -0.2691 -0.2659
 2205SOL    HW118248   0.919   1.089   3.395  0.1901  0.0489 -0.0666
 2205SOL    HW218249   0.771   1.125   3.391 -0.0134  0.7139 -1.1920
 2206SOL     OW18250   1.877   0.182   1.585  0.0190  0.4170 -0.2606
 2206SOL    HW118251   1.960   0.221   1.611  0.3961 -0.8046  0.3546
 2206SOL    HW218252   1.820   0.255   1.560 -0.1920  0.7894  1.2945
 2207SOL     OW18253   4.285   3.127  11.590  0.0809  0.5802 -0.3500
 2207SOL    HW118254   4.352   3.099  11.527 -0.7399  1.3662 -1.5746
 2207SOL    HW218255   4.288   3.061  11.659  2.0532 -1.3826 -2.2913
 2208SOL     OW18256   2.399   3.832   2.303  0.2516 -0.2466  0.2106
 2208SOL    HW118257   2.383   3.873   2.218  0.2862 -2.7976 -1.0435
 2208SOL    HW218258   2.457   3.887   2.355 -0.0890 -1.0346  1.4374
 2209SOL     OW18259   1.999   2.601   9.518  0.1726  0.0798 -0.0624
 2209SOL    HW118260   2.043   2.664   9.461  0.1143  0.6052  0.4737
 2209SOL    HW218261   2.068   2.534   9.512 -0.6327 -0.6440 -1.2964
 2210SOL     OW18262   1.967   2.515   0.100 -0.0780  0.0681  0.3325
 2210SOL    HW118263   1.983   2.429   0.137  0.8602 -0.3030 -0.9582
 2210SOL    HW218264   2.005   2.503   0.013 -1.3765  0.9768 -0.3629
 2211SOL     OW18265   0.056   2.572   3.897  0.5924 -0.4533  0.0641
 2211SOL    HW118266   4.721   2.516   3.865  0.4027  0.4591 -1.1022
 2211SOL    HW218267   0.039   2.654   3.851  1.6745 -0.8508 -1.0292
 2212SOL     OW18268   3.348   3.449   8.762  0.2343  0.3108  0.3550
 2212SOL    HW118269   3.299   3.530   8.747 -1.3780 -0.5301  1.1299
 2212SOL    HW218270   3.277   3.395   8.797  1.0002  1.1273  3.1345
 2213SOL     OW18271   0.982   2.763   8.119  0.0299  0.3133  0.5524
 2213SOL    HW118272   0.988   2.819   8.041 -1.0453 -1.5462 -0.8504
 2213SOL    HW218273   0.914   2.704   8.088  0.5507 -1.0519  2.0083
 2214SOL     OW18274   3.886   2.889   2.028 -0.3721  0.3491 -0.0433
 2214SOL    HW118275   3.807   2.943   2.032  0.7902  1.8933  1.9674
 2214SOL    HW218276   3.853   2.805   2.060 -1.7583  0.1326 -1.9900
 2215SOL     OW18277   0.977   2.717   2.619  0.1843 -0.6555 -0.4214
 2215SOL    HW118278   0.945   2.806   2.607  1.3699 -0.1086  0.4672
 2215SOL    HW218279   0.998   2.693   2.529  0.8831  0.6110 -0.5877
 2216SOL     OW18280   3.462   4.066   3.509  0.1746  0.4867  0.2977
 2216SOL    HW118281   3.431   4.021   3.588 -0.6238  0.8909  0.2156
 2216SOL    HW218282   3.555   4.045   3.509  0.2774  0.9141 -1.6836
 2217SOL     OW18283   2.326   1.136   3.070 -0.0750 -0.3855  0.1454
 2217SOL    HW118284   2.353   1.104   2.984 -1.2406  0.1957 -0.4402
 2217SOL    HW218285   2.258   1.195   3.038 -0.0442 -0.2713  0.2944
 2218SOL     OW18286   0.425   2.476   8.282  0.0607 -0.2808  0.6643
 2218SOL    HW118287   0.468   2.531   8.216 -3.5892 -0.7146 -2.0673
 2218SOL    HW218288   0.426   2.386   8.250  1.5069  1.0431 -3.0885
 2219SOL     OW18289   0.034   0.119  10.019  0.5471  0.1116  0.2370
 2219SOL    HW118290   0.002   0.114  10.109 -2.0046 -0.0833 -0.6938
 2219SOL    HW218291   4.690   0.143   9.971  0.0580 -2.2461 -0.1275
 2220SOL     OW18292   0.828   3.158   3.580 -0.2657 -0.1015  0.0863
 2220SOL    HW118293   0.867   3.115   3.656  0.4270 -1.2984 -0.9513
 2220SOL    HW218294   0.850   3.250   3.598 -0.1093 -0.5379  2.1754
 2221SOL     OW18295   4.038   1.428   6.128  0.3356  0.4439  0.0985
 2221SOL    HW118296   4.116   1.483   6.122  1.2506 -0.8570  0.1550
 2221SOL    HW218297   3.966   1.488   6.150 -2.9877 -2.8200 -1.8397
 2222SOL     OW18298   4.320   0.989  11.457  0.4321  0.1810  0.6004
 2222SOL    HW118299   4.286   1.072  11.491 -2.2279 -1.0840  1.0424
 2222SOL    HW218300   4.334   0.937  11.536  0.4526 -2.3119 -1.0414
 2223SOL     OW18301   4.522   3.713   3.394 -0.7479 -0.3328  0.0460
 2223SOL    HW118302   4.606   3.667   3.392 -0.2996  0.4773  0.0795
 2223SOL    HW218303   4.543   3.781   3.329 -0.9132 -0.2147  0.1167
 2224SOL     OW18304   4.325   3.628   9.143  0.0975 -0.0872 -0.1662
 2224SOL    HW118305   4.356   3.566   9.209 -2.5441  1.5509  2.6401
 2224SOL    HW218306   4.282   3.569   9.081  0.0672 -0.9807  0.7109
 2225SOL     OW18307   2.161   0.749   8.049  0.0496 -0.2048  0.1960
 2225SOL    HW118308   2.131   0.771   8.137 -4.2892 -2.6187 -0.6772
 2225SOL    HW218309   2.121   0.662   8.055 -0.5007  0.0811  0.5750
 2226SOL     OW18310   3.829   1.746  17.090 -0.6349 -0.1684  0.3124
 2226SOL    HW118311   3.754   1.763  17.146 -0.3068  0.4152  0.5714
 2226SOL    HW218312   3.899   1.789  17.139  1.0708 -0.4784 -1.8575
 2227SOL     OW18313   2.689   0.260  16.909  0.3518 -0.3437  0.6711
 2227SOL    HW118314   2.614   0.248  16.852 -0.5632  1.3618  1.5179
 2227SOL    HW218315   2.756   0.298  16.852  0.3519  0.1575  1.0020
 2228SOL     OW18316   0.466   2.622   3.623  0.2183 -0.1234 -0.3469
 2228SOL    HW118317   0.372   2.614   3.608  0.2240 -1.1858  0.1647
 2228SOL    HW218318   0.507   2.541   3.592  0.0906 -0.5550  0.6177
 2229SOL     OW18319   3.248   4.280   9.832 -0.5559  0.0915  0.0772
 2229SOL    HW118320   3.204   4.350   9.784 -1.7348 -0.9570 -0.3470
 2229SOL    HW218321   3.180   4.271   9.899 -1.1646  0.3145 -0.5166
 2230SOL     OW18322   0.520   4.667   8.523  0.1596  0.0601 -0.5034
 2230SOL    HW118323   0.542   4.705   8.608  1.0010 -3.3584  0.8128
 2230SOL    HW218324   0.580   4.593   8.532 -0.2781 -0.3598 -1.0511
 2231SOL     OW18325   4.108   4.292   8.083 -0.0605  0.5349 -0.1332
 2231SOL    HW118326   4.131   4.315   8.173 -0.9180 -0.8974  0.4524
 2231SOL    HW218327   4.184   4.237   8.064 -0.1950  0.8355 -1.5890
 2232SOL     OW18328   3.306   3.526  11.629  0.0151  0.4713  0.0382
 2232SOL    HW118329   3.388   3.516  11.678 -0.7364 -2.7474  0.6301
 2232SOL    HW218330   3.252   3.457  11.669  1.2058  0.6714  1.9748
 2233SOL     OW18331   2.698   2.368   2.077 -0.4956 -0.1602  0.3386
 2233SOL    HW118332   2.662   2.380   2.164 -1.6674 -0.9171 -0.0465
 2233SOL    HW218333   2.652   2.439   2.033  0.0372  0.8421  1.3876
 2234SOL     OW18334   0.544   1.775   9.246  0.2249  0.4433  0.1757
 2234SOL    HW118335   0.609   1.835   9.281  0.1751 -0.1786  1.3228
 2234SOL    HW218336   0.524   1.731   9.328  1.7392  2.0872  1.4302
 2235SOL     OW18337   2.820   0.564   2.882 -0.0388 -0.3020  0.6204
 2235SOL    HW118338   2.813   0.596   2.972  2.4024 -1.2729  1.1525
 2235SOL    HW218339   2.913   0.549   2.865  0.4825  1.8899  1.5892
 2236SOL     OW18340   1.803   0.146  17.567  0.0895 -0.1993  0.8500
 2236SOL    HW118341   1.840   0.156  17.479  1.6838 -1.4347  1.3666
 2236SOL    HW218342   1.848   0.221  17.606  3.2637 -1.8998  0.4830
 2237SOL     OW18343   4.155   2.807   9.137  0.0668 -0.0093  0.6687
 2237SOL    HW118344   4.162   2.816   9.042 -0.0318  1.2527  0.7850
 2237SOL    HW218345   4.164   2.899   9.162  0.0631 -0.3808  2.0869
 2238SOL     OW18346   0.342   4.611  10.552  0.3823  0.0162  0.4483
 2238SOL    HW118347   0.281   4.570  10.614 -0.3216 -0.1328 -0.3515
 2238SOL    HW218348   0.280   4.677  10.520  0.7738 -0.3280 -0.9866
 2239SOL     OW18349   3.430   3.771   5.388  0.2984 -0.4004  0.5605
 2239SOL    HW118350   3.420   3.773   5.483  2.1142 -1.2896  0.7740
 2239SOL    HW218351   3.523   3.754   5.379 -0.2689 -2.3658 -1.4717
 2240SOL     OW18352   2.954   1.323  14.009 -0.0620  0.4725  0.7578
 2240SOL    HW118353   2.874   1.320  13.957 -2.1868  0.1565  4.0467
 2240SOL    HW218354   2.919   1.294  14.093  0.6107 -0.1781  0.8184
 2241SOL     OW18355   2.794   2.054   5.350  0.1589 -0.4490 -0.4443
 2241SOL    HW118356   2.831   2.117   5.289 -1.1053  1.6361  0.9534
 2241SOL    HW218357   2.867   1.992   5.349 -1.1746 -2.0176 -0.1370
 2242SOL     OW18358   1.625   4.683   6.870 -0.8765  0.2162  0.2439
 2242SOL    HW118359   1.671   0.032   6.875 -0.9756  0.1233  2.8902
 2242SOL    HW218360   1.549   4.698   6.815  0.4176  1.0461 -1.3486
 2243SOL     OW18361   2.207   4.466   2.536  0.3315 -0.0505  0.3021
 2243SOL    HW118362   2.283   4.432   2.585 -0.3695 -3.1185 -0.7982
 2243SOL    HW218363   2.254   4.541   2.501  2.5774 -0.1535  3.0463
 2244SOL     OW18364   2.451   2.138   2.172  0.0008  0.3696 -0.0017
 2244SOL    HW118365   2.546   2.126   2.182 -0.1059  0.5683  1.3338
 2244SOL    HW218366   2.440   2.154   2.079 -1.0867  0.2032  0.1044
 2245SOL     OW18367   0.226   2.288   8.966  0.1695  0.0034  0.0734
 2245SOL    HW118368   0.165   2.224   8.928  1.3372 -0.7842 -0.4741
 2245SOL    HW218369   0.247   2.246   9.050  0.5173  1.3887  0.6816
 2246SOL     OW18370   0.529   0.114   0.707  0.0491 -0.1283  0.3317
 2246SOL    HW118371   0.538   0.162   0.790 -0.9971  1.3898 -0.4243
 2246SOL    HW218372   0.567   0.180   0.649 -0.9032 -0.2031 -0.3718
 2247SOL     OW18373   1.210   2.152   0.110  0.2507 -0.4507  0.5264
 2247SOL    HW118374   1.179   2.082   0.054  0.7676  0.6355 -1.1200
 2247SOL    HW218375   1.237   2.109   0.191  1.1798 -0.1114  0.3982
 2248SOL     OW18376   0.088   1.231   2.450  0.0787 -0.0603  0.1904
 2248SOL    HW118377   0.119   1.167   2.514  0.0262 -0.5101 -0.2352
 2248SOL    HW218378   0.170   1.276   2.431 -0.1508  0.9090  1.5312
 2249SOL     OW18379   0.345   4.549   6.472  0.0643 -0.1250  0.3786
 2249SOL    HW118380   0.261   4.558   6.518  0.3078  1.1353  0.5902
 2249SOL    HW218381   0.398   4.592   6.540 -0.4970  0.2331  0.5893
 2250SOL     OW18382   4.040   1.896  16.218 -0.0325  0.4426 -0.4391
 2250SOL    HW118383   4.054   1.893  16.313 -1.9278  0.9244 -0.1588
 2250SOL    HW218384   4.076   1.813  16.186 -0.8616 -0.2100  0.3127
 2251SOL     OW18385   1.079   0.474   6.561  0.5244  0.2569  0.4058
 2251SOL    HW118386   1.025   0.401   6.531 -1.8927  2.0852  0.3551
 2251SOL    HW218387   1.150   0.475   6.497  1.2910  3.0569  1.2894
 2252SOL     OW18388   0.830   2.394   9.305  0.0984  0.1868  0.4175
 2252SOL    HW118389   0.834   2.488   9.290 -0.1688  0.2554  0.7773
 2252SOL    HW218390   0.857   2.364   9.218  4.0035 -1.4627  2.2414
 2253SOL     OW18391   0.374   0.223   7.299  0.4381 -0.2281  0.1304
 2253SOL    HW118392   0.450   0.168   7.285  0.3038 -0.0150 -1.4351
 2253SOL    HW218393   0.415   0.277   7.367  1.1878  0.6384 -1.0103
 2254SOL     OW18394   0.008   0.109   2.606 -0.1883  0.8496  0.0729
 2254SOL    HW118395   0.099   0.138   2.619 -0.7166  2.7243 -0.4617
 2254SOL    HW218396   4.716   0.087   2.695  0.0973 -0.5077 -0.1888
 2255SOL     OW18397   1.754   2.434   5.666  0.1088  0.9128  0.0651
 2255SOL    HW118398   1.842   2.420   5.702  0.4115 -1.6357 -1.6483
 2255SOL    HW218399   1.763   2.376   5.591  1.0918 -0.6551  1.3746
 2256SOL     OW18400   4.293   3.733   0.070  0.0346 -0.1843  0.0502
 2256SOL    HW118401   4.354   3.671   0.109  2.4256  1.0351 -1.7653
 2256SOL    HW218402   4.249   3.681   0.002 -1.9417  1.8588 -0.2304
 2257SOL     OW18403   1.157   2.168   8.352  0.5931  0.9440 -0.8222
 2257SOL    HW118404   1.109   2.247   8.379 -0.0313  0.1928  0.2987
 2257SOL    HW218405   1.227   2.204   8.298 -2.5325  3.5830 -3.1554
 2258SOL     OW18406   3.180   0.209  17.527  0.3224 -0.1709 -0.0008
 2258SOL    HW118407   3.166   0.292  17.482  0.8619  0.0216  0.1858
 2258SOL    HW218408   3.212   0.231  17.614 -0.1108  0.5972 -0.0357
 2259SOL     OW18409   2.056   0.397   1.371 -0.1128  0.0964  0.2958
 2259SOL    HW118410   2.063   0.479   1.323 -0.4690 -0.4730 -0.7373
 2259SOL    HW218411   1.965   0.403   1.399 -0.4867 -1.4269 -0.5558
 2260SOL     OW18412   0.363   0.640  15.821 -0.0640  0.2111 -0.3691
 2260SOL    HW118413   0.418   0.683  15.755  1.9235 -1.2052  0.3761
 2260SOL    HW218414   0.303   0.712  15.842  0.7303  1.3957 -2.0952
 2261SOL     OW18415   1.078   2.144   2.963 -0.3844 -0.5870  0.4778
 2261SOL    HW118416   1.004   2.155   2.904 -0.9487  0.1947  1.3314
 2261SOL    HW218417   1.146   2.099   2.913 -0.6391 -0.4436  0.0012
 2262SOL     OW18418   1.320   0.885   7.609  0.4377 -0.5273 -0.7255
 2262SOL    HW118419   1.407   0.854   7.635  0.5176 -2.1264 -2.9350
 2262SOL    HW218420   1.275   0.803   7.626 -1.1555  0.9066  2.1216
 2263SOL     OW18421   2.214   0.036   1.845 -0.1797 -0.7725  0.2393
 2263SOL    HW118422   2.282   0.045   1.778 -0.3831 -0.1718  0.1141
 2263SOL    HW218423   2.148   0.094   1.808  0.0477  0.5744  1.9571
 2264SOL     OW18424   4.627   0.726   7.411  0.4621 -0.4216  0.2418
 2264SOL    HW118425   4.587   0.684   7.334 -1.1835  0.1493  0.7747
 2264SOL    HW218426   4.693   0.782   7.371  0.9796  0.7577  2.7616
 2265SOL     OW18427   4.440   2.151   8.707 -0.2338  0.3988  0.0495
 2265SOL    HW118428   4.493   2.222   8.742  0.2799  0.0847 -0.0900
 2265SOL    HW218429   4.470   2.148   8.616  0.3509  0.4975  0.2433
 2266SOL     OW18430   3.088   2.780   7.830  0.3971  0.0910  0.0781
 2266SOL    HW118431   3.148   2.738   7.769  0.1385  0.4116 -0.4010
 2266SOL    HW218432   3.002   2.787   7.789 -0.1728 -2.0891  0.9227
 2267SOL     OW18433   4.020   1.985   5.694 -0.0216 -0.2015 -0.0391
 2267SOL    HW118434   3.947   1.924   5.678  0.7265 -0.9014 -0.7794
 2267SOL    HW218435   4.091   1.930   5.662 -0.7548 -1.2629  0.1538
 2268SOL     OW18436   3.324   0.597   5.490  0.3340 -0.6832  0.4474
 2268SOL    HW118437   3.357   0.679   5.526 -1.3507  0.6804 -1.1041
 2268SOL    HW218438   3.370   0.528   5.537  1.6166 -0.3686 -0.3428
 2269SOL     OW18439   0.341   3.558   0.548  0.2323  0.1338 -0.6584
 2269SOL    HW118440   0.339   3.506   0.628 -2.0150  3.6253  1.5582
 2269SOL    HW218441   0.376   3.645   0.566  0.8956 -0.1514 -0.5677
 2270SOL     OW18442   4.196   0.820   6.121 -0.1511 -0.3826  0.0502
 2270SOL    HW118443   4.185   0.858   6.208 -2.7318 -0.2005 -0.3509
 2270SOL    HW218444   4.289   0.799   6.116  0.3077  1.7972 -0.9699
 2271SOL     OW18445   2.573   1.845   4.129  0.0121 -0.8749  0.3932
 2271SOL    HW118446   2.565   1.822   4.222 -0.0924  1.3174  0.9241
 2271SOL    HW218447   2.517   1.777   4.090 -0.1493 -0.7713  0.4459
 2272SOL     OW18448   0.801   3.361   2.699  0.1117  0.0998 -0.3797
 2272SOL    HW118449   0.808   3.277   2.655 -1.5583 -0.3775  0.2871
 2272SOL    HW218450   0.882   3.359   2.751  1.2453  1.3946 -2.0796
 2273SOL     OW18451   2.448   0.321   7.598  0.4046  0.2755  0.4842
 2273SOL    HW118452   2.470   0.275   7.517 -1.3257  0.7444 -0.2473
 2273SOL    HW218453   2.367   0.274   7.620  1.0287 -0.4884  1.1701
 2274SOL     OW18454   0.759   2.291  16.535 -0.0831 -0.5086  0.2336
 2274SOL    HW118455   0.700   2.357  16.498  2.7193  2.1904  0.5599
 2274SOL    HW218456   0.712   2.270  16.616 -0.9174 -2.3202 -0.7129
 2275SOL     OW18457   2.665   1.302  10.471 -0.2734  0.4243 -0.4727
 2275SOL    HW118458   2.623   1.315  10.556  1.4692  1.5899  0.2146
 2275SOL    HW218459   2.753   1.340  10.480 -0.2777  0.1608  0.7097
 2276SOL     OW18460   4.541   2.873   4.874 -0.1555  0.5753 -0.0481
 2276SOL    HW118461   4.454   2.857   4.910  0.8211 -3.5243  0.5290
 2276SOL    HW218462   4.515   2.929   4.801 -1.9225  0.7736  0.7392
 2277SOL     OW18463   0.574   1.520   7.462 -0.6602 -0.2530  0.0819
 2277SOL    HW118464   0.612   1.607   7.477 -1.1624  0.4761 -3.0026
 2277SOL    HW218465   0.507   1.543   7.398 -1.6006 -1.0446  0.7852
 2278SOL     OW18466   2.100   0.616   1.225  0.1248  0.5642 -0.4628
 2278SOL    HW118467   2.188   0.652   1.231 -0.1606  1.3369 -0.9684
 2278SOL    HW218468   2.064   0.654   1.304  1.4436  0.7423  0.0599
 2279SOL     OW18469   1.415   1.665   5.739  0.3810  1.2462  0.0408
 2279SOL    HW118470   1.329   1.703   5.719  1.3192  2.2086 -2.1732
 2279SOL    HW218471   1.420   1.584   5.689  1.0711  0.4979  1.3348
 2280SOL     OW18472   1.616   0.082   0.094 -0.3354 -0.1640 -0.0539
 2280SOL    HW118473   1.695   0.033   0.113  0.5554  0.7236 -1.4436
 2280SOL    HW218474   1.592   0.052   0.006  0.3710  0.1615 -0.3522
 2281SOL     OW18475   2.346   0.575   9.824  0.0977  0.5659 -0.1684
 2281SOL    HW118476   2.355   0.583   9.729 -1.5012 -1.9195 -0.5028
 2281SOL    HW218477   2.319   0.660   9.858 -0.7769 -0.2186  1.0479
 2282SOL     OW18478   3.763   2.342   8.807  0.2779  0.0906  0.1435
 2282SOL    HW118479   3.719   2.315   8.727 -1.7174 -1.5842  1.8129
 2282SOL    HW218480   3.802   2.427   8.785  0.0859  0.4134  1.0249
 2283SOL     OW18481   2.193   4.024  14.390  0.1996  0.0921  0.0088
 2283SOL    HW118482   2.251   3.988  14.323 -0.2178  0.1824 -0.3956
 2283SOL    HW218483   2.117   3.970  14.369 -1.0282  1.5434  0.7433
 2284SOL     OW18484   0.521   0.490   4.463 -0.3253 -0.0411  0.3343
 2284SOL    HW118485   0.481   0.505   4.377  0.8824 -0.0097 -0.2165
 2284SOL    HW218486   0.589   0.427   4.438 -0.2382  0.0579  0.3253
 2285SOL     OW18487   4.096   3.655   2.791  0.6903 -0.4926 -0.3062
 2285SOL    HW118488   4.180   3.627   2.827  1.1685 -0.6462 -1.5384
 2285SOL    HW218489   4.033   3.607   2.845  1.1272  0.7272  1.3059
 2286SOL     OW18490   1.737   3.648   9.036 -0.2848 -0.3279 -0.5657
 2286SOL    HW118491   1.707   3.713   8.972  0.1776 -0.3356 -0.7937
 2286SOL    HW218492   1.761   3.573   8.982  0.2183 -0.0280 -0.7569
 2287SOL     OW18493   0.891   2.860   9.037  0.5300  0.2361 -0.5204
 2287SOL    HW118494   0.813   2.915   9.040  0.3343 -0.0521 -0.3561
 2287SOL    HW218495   0.955   2.917   8.993 -0.7438  2.0366 -0.0012
 2288SOL     OW18496   2.987   1.028   6.653 -0.1890 -0.6579  0.2047
 2288SOL    HW118497   2.966   0.960   6.590  1.6653 -1.5063  0.5068
 2288SOL    HW218498   2.935   0.999   6.728 -1.8974  0.8689 -0.4009
 2289SOL     OW18499   4.384   4.213   3.942 -0.4058  0.4972 -0.1147
 2289SOL    HW118500   4.448   4.278   3.913  0.3298 -0.4527 -0.6211
 2289SOL    HW218501   4.438   4.184   4.016 -1.1618 -0.9007 -0.1000
 2290SOL     OW18502   4.454   3.410   5.620 -0.2222 -0.2716 -0.2895
 2290SOL    HW118503   4.452   3.505   5.624 -1.5035 -0.3474  0.9016
 2290SOL    HW218504   4.413   3.402   5.534 -0.9995 -1.9755  0.2333
 2291SOL     OW18505   1.593   1.153  10.841 -0.4214  0.2499 -0.1975
 2291SOL    HW118506   1.526   1.222  10.841 -0.4392  0.2173  1.1402
 2291SOL    HW218507   1.668   1.188  10.889 -1.7554  0.6848  1.5449
 2292SOL     OW18508   2.309   2.582   1.564  0.6014  0.4067  0.0250
 2292SOL    HW118509   2.231   2.527   1.575  0.2351  0.9615  0.2438
 2292SOL    HW218510   2.295   2.621   1.477  0.3361 -1.8752 -0.9505
 2293SOL     OW18511   1.142   3.810  15.260  0.6244 -0.2823 -0.7456
 2293SOL    HW118512   1.047   3.802  15.269  0.5759  0.9969 -0.1028
 2293SOL    HW218513   1.167   3.785  15.349  0.2877  0.9974 -0.2978
 2294SOL     OW18514   2.423   3.523   7.889 -0.0924  0.4077 -0.0186
 2294SOL    HW118515   2.512   3.487   7.890  0.3141  1.4366  1.8729
 2294SOL    HW218516   2.379   3.454   7.939  1.4809  0.4132  1.4041
 2295SOL     OW18517   1.313   4.488   6.640 -0.1629  0.3727 -0.5130
 2295SOL    HW118518   1.241   4.450   6.589 -1.2764  0.0277  1.2992
 2295SOL    HW218519   1.387   4.475   6.581 -1.3353  1.5996 -2.2695
 2296SOL     OW18520   2.349   4.420   9.133 -0.5039  0.0907  0.2044
 2296SOL    HW118521   2.350   4.324   9.141  0.2789  0.1205  0.4609
 2296SOL    HW218522   2.370   4.432   9.040  2.4317 -0.7541  0.7562
 2297SOL     OW18523   3.635   0.263   2.630  0.4717  0.5808 -0.2011
 2297SOL    HW118524   3.720   0.276   2.589  0.6191 -1.8794 -0.6513
 2297SOL    HW218525   3.650   0.264   2.724  1.2572  1.0069 -0.3319
 2298SOL     OW18526   3.648   2.384   2.030  0.3566 -0.0045 -0.5089
 2298SOL    HW118527   3.565   2.416   1.994 -0.0153 -0.4146 -0.0213
 2298SOL    HW218528   3.696   2.383   1.947  1.3182 -0.0136  0.0490
 2299SOL     OW18529   4.064   1.146   4.404 -0.0219 -0.3879 -0.1546
 2299SOL    HW118530   4.073   1.052   4.388  0.0150 -0.5059  0.5869
 2299SOL    HW218531   4.019   1.145   4.488  0.8845  0.8216  0.3344
 2300SOL     OW18532   2.049   1.714  14.789 -0.1324  0.5840  0.8492
 2300SOL    HW118533   2.105   1.671  14.853  1.0323 -0.0009 -0.5462
 2300SOL    HW218534   1.965   1.688  14.826 -0.4887  3.0492  1.8117
 2301SOL     OW18535   3.312   0.090   7.398  0.0182 -0.0476  0.6040
 2301SOL    HW118536   3.281   0.169   7.443  0.8351 -0.5194  2.0010
 2301SOL    HW218537   3.391   0.056   7.441 -0.1112  1.2336  1.8834
 2302SOL     OW18538   1.001   3.225   7.292 -0.5328 -0.1120  0.2504
 2302SOL    HW118539   0.999   3.129   7.303  0.0480 -0.2112 -0.5460
 2302SOL    HW218540   1.053   3.234   7.213 -0.8851  1.1511  0.1738
 2303SOL     OW18541   2.331   0.386  11.104 -0.2747  0.0596 -0.6433
 2303SOL    HW118542   2.342   0.356  11.194 -0.7596  1.9698  0.0595
 2303SOL    HW218543   2.307   0.312  11.048 -1.1124 -1.1723  1.3503
 2304SOL     OW18544   2.059   0.406   6.661 -0.0931  0.4510  0.0069
 2304SOL    HW118545   1.971   0.369   6.651  1.1539 -2.0831 -1.4682
 2304SOL    HW218546   2.108   0.366   6.589  0.3553 -2.4090  1.8950
 2305SOL     OW18547   3.181   3.646   2.276  0.2043  0.0132  0.1473
 2305SOL    HW118548   3.243   3.712   2.307  1.9708 -1.3923 -0.3865
 2305SOL    HW218549   3.129   3.645   2.357 -0.7063 -1.6813 -0.4612
 2306SOL     OW18550   2.841   2.341   8.925 -0.1555  0.4775  0.8808
 2306SOL    HW118551   2.797   2.394   8.993  0.7001 -0.3779  2.0869
 2306SOL    HW218552   2.887   2.273   8.973 -2.1422  0.5014  2.8395
 2307SOL     OW18553   0.881   0.518   2.092 -0.1586  0.1821 -0.1978
 2307SOL    HW118554   0.858   0.511   2.185  1.4691  0.0577  0.2114
 2307SOL    HW218555   0.922   0.604   2.091 -2.1853  1.1395  1.2547
 2308SOL     OW18556   3.514   1.340   7.002 -0.1685 -0.7568 -0.3140
 2308SOL    HW118557   3.499   1.341   7.097  0.2730 -0.6352 -0.2423
 2308SOL    HW218558   3.603   1.305   7.004  0.0190 -0.3561 -2.0487
 2309SOL     OW18559   1.304   2.647   6.148 -0.5268 -0.2973 -0.3455
 2309SOL    HW118560   1.324   2.568   6.198 -1.0653  0.3513  0.8882
 2309SOL    HW218561   1.268   2.608   6.069  0.2538  0.4810 -1.0816
 2310SOL     OW18562   0.535   4.422  14.756 -0.1153  0.3276  0.4649
 2310SOL    HW118563   0.481   4.495  14.786  0.6718  0.8482  0.6263
 2310SOL    HW218564   0.540   4.366  14.834 -1.6865  0.3476  0.5762
 2311SOL     OW18565   3.336   4.179   7.160  0.5685 -0.0184  0.7691
 2311SOL    HW118566   3.324   4.225   7.077 -2.7507 -3.8065 -0.8247
 2311SOL    HW218567   3.250   4.151   7.189  0.3224  2.9383  2.8725
 2312SOL     OW18568   4.657   4.330   2.533  0.0020 -0.1683  0.1283
 2312SOL    HW118569   4.645   4.334   2.438 -0.1041 -1.3196  0.0948
 2312SOL    HW218570   4.594   4.261   2.555  0.0829  0.9840  4.0573
 2313SOL     OW18571   4.158   2.884   5.149 -0.1002  0.1881  0.0295
 2313SOL    HW118572   4.193   2.867   5.061 -0.5787 -1.5342  0.1723
 2313SOL    HW218573   4.211   2.837   5.213 -1.7919 -0.8832  0.6486
 2314SOL     OW18574   2.910   2.778   2.946  0.2168 -0.1390 -0.0181
 2314SOL    HW118575   2.870   2.864   2.962 -2.6289 -0.9681 -2.5352
 2314SOL    HW218576   2.847   2.757   2.877  0.2708  0.9992 -0.4158
 2315SOL     OW18577   2.471   4.079   7.671  0.4881  0.5809  0.0437
 2315SOL    HW118578   2.565   4.062   7.681  0.6062  1.0525 -0.2445
 2315SOL    HW218579   2.453   4.040   7.585 -0.5368  0.1567  0.4562
 2316SOL     OW18580   4.462   1.336   5.636 -0.1715  0.1256 -0.3447
 2316SOL    HW118581   4.395   1.269   5.623  0.0250  0.2543 -1.9900
 2316SOL    HW218582   4.536   1.296   5.682  0.9576  0.2175 -2.0462
 2317SOL     OW18583   2.391   0.719  15.589 -0.1652 -0.2116  0.4425
 2317SOL    HW118584   2.480   0.727  15.554 -0.8656 -1.3749 -1.6018
 2317SOL    HW218585   2.382   0.809  15.622  0.5067  0.4319 -1.0884
 2318SOL     OW18586   3.753   2.319  10.521  0.0867  0.4673  0.1855
 2318SOL    HW118587   3.706   2.263  10.458 -2.0386  0.9072  1.4100
 2318SOL    HW218588   3.805   2.371  10.459  1.2706 -0.3517  0.4899
 2319SOL     OW18589   0.453   1.994  10.650 -0.3066  0.6262  0.2979
 2319SOL    HW118590   0.451   2.026  10.741 -2.0065 -0.1741  0.5350
 2319SOL    HW218591   0.546   2.008  10.631  0.5303 -0.9975  3.2402
 2320SOL     OW18592   2.473   4.701   4.575 -0.1190  0.6559  0.0256
 2320SOL    HW118593   2.519   4.617   4.566  0.6784  1.0680  0.2602
 2320SOL    HW218594   2.523   0.006   4.646  1.7642 -3.1204  0.8810
 2321SOL     OW18595   2.053   3.298   3.441 -0.9772  0.3205 -0.0814
 2321SOL    HW118596   2.028   3.358   3.511  0.9178  2.7385 -1.4672
 2321SOL    HW218597   2.013   3.338   3.363 -0.8175  2.9177  1.1864
 2322SOL     OW18598   1.603   1.969  13.577  0.4458  0.0904 -0.0113
 2322SOL    HW118599   1.567   2.047  13.620 -0.5122 -0.3969  0.0584
 2322SOL    HW218600   1.557   1.902  13.627  0.9677 -0.2199  0.0447
 2323SOL     OW18601   3.942   3.885   5.155  0.0406 -0.2181  0.1210
 2323SOL    HW118602   3.960   3.899   5.248  0.2535 -2.6172  0.4365
 2323SOL    HW218603   4.020   3.929   5.120  0.0504  0.0989  0.5381
 2324SOL     OW18604   0.017   3.462  10.080 -0.6351  0.3188  0.2189
 2324SOL    HW118605   4.679   3.401  10.071  2.0125 -2.8509  0.4444
 2324SOL    HW218606   0.088   3.399  10.067 -1.7516 -0.5095 -1.8181
 2325SOL     OW18607   3.687   1.912   4.161 -0.3885 -0.0727  0.3979
 2325SOL    HW118608   3.733   1.909   4.077 -1.2351  4.0173 -0.2207
 2325SOL    HW218609   3.618   1.846   4.156  2.0422 -2.1923 -4.8323
 2326SOL     OW18610   1.393   1.055   4.360  0.4105 -0.3296 -0.2535
 2326SOL    HW118611   1.363   1.120   4.297  1.2668 -1.1176 -1.4787
 2326SOL    HW218612   1.320   1.061   4.420  0.9108 -2.6509  0.5735
 2327SOL     OW18613   4.481   0.485   2.986  0.1679 -0.2217 -0.2707
 2327SOL    HW118614   4.547   0.553   2.967  1.3602 -1.3400 -0.1030
 2327SOL    HW218615   4.450   0.454   2.901 -1.2352 -1.2233  0.6281
 2328SOL     OW18616   1.085   3.927  15.984  0.5566 -0.5184  0.1784
 2328SOL    HW118617   0.996   3.962  15.980  0.4235 -0.7605  1.1635
 2328SOL    HW218618   1.122   3.942  15.896 -1.5833 -0.7842 -0.7583
 2329SOL     OW18619   0.621   0.628   6.641  0.0991 -0.3574 -0.0072
 2329SOL    HW118620   0.657   0.639   6.728  0.3400 -1.8693  0.0782
 2329SOL    HW218621   0.564   0.705   6.641  1.3296  0.5336  1.5705
 2330SOL     OW18622   4.085   2.827   1.887  0.1849  0.0960  0.3179
 2330SOL    HW118623   4.005   2.837   1.938 -0.3327 -0.8139 -0.3051
 2330SOL    HW218624   4.089   2.917   1.854  1.2077 -0.4978 -1.2273
 2331SOL     OW18625   1.276   2.956  10.897  0.1246  0.0139 -0.2246
 2331SOL    HW118626   1.263   3.038  10.849  2.1482  1.2302  1.3467
 2331SOL    HW218627   1.273   2.893  10.825 -0.6917  0.1573 -0.3187
 2332SOL     OW18628   4.507   1.374   5.374 -0.1565  0.3110  0.7380
 2332SOL    HW118629   4.478   1.358   5.464 -0.6256  1.2833  0.7619
 2332SOL    HW218630   4.600   1.381   5.394  0.0155  1.6319 -0.4847
 2333SOL     OW18631   1.767   0.585   3.681 -0.2692 -0.0969 -0.1169
 2333SOL    HW118632   1.756   0.611   3.773 -3.1248 -0.5388 -0.3329
 2333SOL    HW218633   1.677   0.563   3.656  0.0585 -1.5431  0.0051
 2334SOL     OW18634   2.138   1.328   6.849  0.8038 -0.0624  0.0382
 2334SOL    HW118635   2.231   1.347   6.863  1.1334 -1.0621 -0.7261
 2334SOL    HW218636   2.126   1.379   6.769  2.1489 -0.3085 -0.3143
 2335SOL     OW18637   0.404   4.486   4.064  0.3641 -0.0927 -0.5279
 2335SOL    HW118638   0.482   4.480   4.009  1.3628 -0.3425  0.9235
 2335SOL    HW218639   0.330   4.497   4.004  0.8067  1.8761 -0.7012
 2336SOL     OW18640   1.788   0.137   7.111 -0.1249  0.2894  0.4091
 2336SOL    HW118641   1.821   0.149   7.021  1.1166 -1.8141  0.5847
 2336SOL    HW218642   1.840   0.066   7.148 -2.0584  0.3195  3.1193
 2337SOL     OW18643   0.858   0.758  11.984  0.1178  0.2943  0.8101
 2337SOL    HW118644   0.802   0.682  11.998 -0.1793  0.2738 -0.4799
 2337SOL    HW218645   0.805   0.811  11.924 -1.6949 -2.5405 -0.0755
 2338SOL     OW18646   3.100   2.109   4.026 -0.2454  0.2033  0.7272
 2338SOL    HW118647   3.095   2.022   3.986 -1.0346  1.2436 -1.4763
 2338SOL    HW218648   3.135   2.075   4.108 -0.4403  0.3055  0.8535
 2339SOL     OW18649   0.559   2.203   7.458 -0.2697 -0.2836  0.2041
 2339SOL    HW118650   0.512   2.198   7.541 -1.3228  0.2735 -0.3488
 2339SOL    HW218651   0.539   2.292   7.426  0.9233 -0.0257  0.1917
 2340SOL     OW18652   4.507   3.315  15.526  0.0837 -0.0128  0.5281
 2340SOL    HW118653   4.448   3.388  15.506  1.1348 -0.0782 -2.8637
 2340SOL    HW218654   4.590   3.359  15.543 -0.5654  1.1303  0.7362
 2341SOL     OW18655   4.332   2.294   5.850  0.7571  0.2019  0.4163
 2341SOL    HW118656   4.250   2.244   5.855  0.7979  0.2785  1.7400
 2341SOL    HW218657   4.308   2.386   5.857 -0.6099 -0.2044  1.1520
 2342SOL     OW18658   1.341   2.102  15.695  0.0175 -0.4401  0.3666
 2342SOL    HW118659   1.292   2.177  15.730  1.7546  1.2614 -0.8669
 2342SOL    HW218660   1.428   2.113  15.733 -0.4077 -0.1773  1.2892
 2343SOL     OW18661   1.091   1.539  14.975 -0.3954  0.4579  0.4393
 2343SOL    HW118662   1.021   1.573  14.919 -0.5291  0.5610  0.6679
 2343SOL    HW218663   1.155   1.610  14.967 -2.3892  1.8770 -3.1237
 2344SOL     OW18664   1.092   3.785   1.915 -0.3481  0.0372  0.3585
 2344SOL    HW118665   1.104   3.706   1.862 -1.2201 -2.2169  3.4575
 2344SOL    HW218666   1.174   3.834   1.911 -0.2300 -0.1828  0.1030
 2345SOL     OW18667   3.662   2.462   7.509  0.2597 -0.0095 -0.3712
 2345SOL    HW118668   3.696   2.431   7.426 -0.0923 -1.7273  0.1188
 2345SOL    HW218669   3.586   2.515   7.483  0.4030 -0.4100 -1.5971
 2346SOL     OW18670   4.205   4.084   2.758  0.6688  0.1415  0.2402
 2346SOL    HW118671   4.211   4.024   2.832 -1.7886 -1.3926 -0.8002
 2346SOL    HW218672   4.172   4.163   2.801 -0.7717  0.2100 -0.9993
 2347SOL     OW18673   4.585   1.579   9.032  0.5031 -0.3419  0.1363
 2347SOL    HW118674   4.547   1.665   9.010 -1.5557 -1.2564  0.1778
 2347SOL    HW218675   4.656   1.563   8.970 -1.2817  0.3438 -2.1406
 2348SOL     OW18676   2.079   1.703   7.835  0.0609  0.2741 -0.1618
 2348SOL    HW118677   2.146   1.677   7.771 -0.3234  1.7918 -1.1735
 2348SOL    HW218678   2.067   1.797   7.826  1.9494  0.5426 -0.0105
 2349SOL     OW18679   1.363   1.966   4.290 -0.6078 -0.3956 -0.5202
 2349SOL    HW118680   1.396   1.899   4.348 -0.6087  0.6204  0.6523
 2349SOL    HW218681   1.267   1.961   4.299 -0.4284 -0.8879  1.0389
 2350SOL     OW18682   4.622   3.937   6.078  0.4811  0.0913 -0.0270
 2350SOL    HW118683   4.672   4.016   6.101 -1.4927  1.7332 -1.4248
 2350SOL    HW218684   4.683   3.869   6.107 -1.3658 -1.4072  0.3332
 2351SOL     OW18685   2.040   4.484   3.819  0.1652 -0.8792 -0.2955
 2351SOL    HW118686   2.036   4.560   3.878  0.8812 -2.8998  2.3874
 2351SOL    HW218687   1.961   4.489   3.765  0.0808 -1.2894 -0.2099
 2352SOL     OW18688   3.698   1.127   2.160 -0.2122  0.5924 -0.3051
 2352SOL    HW118689   3.718   1.209   2.114 -1.8253  1.4462  0.5097
 2352SOL    HW218690   3.766   1.071   2.123  0.8535  1.8253 -0.2130
 2353SOL     OW18691   2.010   0.834   7.337  0.5494 -0.7713  0.1399
 2353SOL    HW118692   1.986   0.917   7.295  0.9674 -0.2882  0.8407
 2353SOL    HW218693   2.105   0.832   7.326  0.6781 -2.2455  1.4847
 2354SOL     OW18694   2.596   3.000   9.548 -0.8063 -0.6400  0.5075
 2354SOL    HW118695   2.561   3.049   9.474 -0.0479 -0.8939 -0.0174
 2354SOL    HW218696   2.659   2.939   9.511 -1.7977 -2.2724  1.5293
 2355SOL     OW18697   0.941   0.387  14.522  0.3374  0.6391 -0.4337
 2355SOL    HW118698   0.971   0.446  14.453  2.0711  0.1917 -0.0510
 2355SOL    HW218699   0.987   0.311  14.486  0.9204  1.0876 -0.6444
 2356SOL     OW18700   2.647   0.071   8.254  0.0465  0.5667 -0.0592
 2356SOL    HW118701   2.599   0.065   8.171  0.6983  2.8773 -0.6171
 2356SOL    HW218702   2.581   0.082   8.323 -0.5016 -1.8466 -0.2115
 2357SOL     OW18703   2.501   4.058   8.142  0.6552 -0.3797 -0.5008
 2357SOL    HW118704   2.475   3.984   8.087  0.2542  1.2418 -2.5109
 2357SOL    HW218705   2.577   4.093   8.095  0.7737 -1.9561 -1.4709
 2358SOL     OW18706   3.408   0.548  17.171  0.2062 -0.6290  0.0900
 2358SOL    HW118707   3.438   0.511  17.088  1.3298 -0.9413  0.6445
 2358SOL    HW218708   3.428   0.640  17.154  0.7520 -0.7603  0.0192
 2359SOL     OW18709   0.848   1.424   6.533  0.5157  0.1779 -0.0863
 2359SOL    HW118710   0.760   1.450   6.560 -0.2611 -3.4244  0.8126
 2359SOL    HW218711   0.860   1.341   6.578 -3.1097 -1.7192 -2.6312
 2360SOL     OW18712   0.210   0.215   4.295 -0.1798  0.0900 -0.3521
 2360SOL    HW118713   0.301   0.187   4.290  0.0797  0.9474 -0.5188
 2360SOL    HW218714   0.213   0.309   4.316 -1.1042 -0.2615  1.3859
 2361SOL     OW18715   4.215   3.545   2.403 -0.0352 -0.6509 -0.1548
 2361SOL    HW118716   4.276   3.510   2.467  0.3637 -1.2922 -0.8869
 2361SOL    HW218717   4.252   3.505   2.324 -0.5341  0.0968 -0.7682
 2362SOL     OW18718   1.002   0.217  17.397  0.2015 -0.1637  0.5998
 2362SOL    HW118719   1.081   0.172  17.368  0.0168 -0.1592  0.0889
 2362SOL    HW218720   0.938   0.146  17.403  0.0751 -0.5279 -4.5593
 2363SOL     OW18721   2.934   0.607   4.036  0.5949 -0.2175 -0.5584
 2363SOL    HW118722   2.962   0.667   3.967 -0.5064 -0.2946 -1.0699
 2363SOL    HW218723   2.906   0.536   3.978  2.4501 -0.6686 -0.8994
 2364SOL     OW18724   3.739   0.531  16.830 -0.1900  0.0770 -0.2984
 2364SOL    HW118725   3.697   0.612  16.859 -1.1775 -0.7294  0.5115
 2364SOL    HW218726   3.667   0.468  16.825 -0.8997  0.7888  1.3262
 2365SOL     OW18727   4.162   0.214  14.535 -0.3103 -0.1434 -0.1317
 2365SOL    HW118728   4.207   0.199  14.452 -0.2807  2.7377 -0.6394
 2365SOL    HW218729   4.201   0.151  14.596  0.9912 -1.4962 -2.3396
 2366SOL     OW18730   1.594   0.793  11.343  0.6147 -0.0449  0.0739
 2366SOL    HW118731   1.586   0.736  11.419 -0.3697 -0.6730 -0.4961
 2366SOL    HW218732   1.584   0.724  11.277  0.1692  0.1811 -0.0918
 2367SOL     OW18733   1.296   4.060   8.903  0.1877  0.4982  0.0599
 2367SOL    HW118734   1.341   4.007   8.839 -0.0012  1.1059 -0.5771
 2367SOL    HW218735   1.226   4.000   8.930  0.7259 -0.0943  0.1326
 2368SOL     OW18736   2.049   2.911   6.502  0.0092  0.1792  0.2697
 2368SOL    HW118737   2.027   2.985   6.559 -0.6918  0.7973 -0.7907
 2368SOL    HW218738   2.002   2.837   6.541  1.5304 -1.5812 -1.2263
 2369SOL     OW18739   4.619   3.571   4.014 -0.4770  0.4196 -0.4491
 2369SOL    HW118740   4.590   3.662   4.010 -1.3400  0.1870  0.4595
 2369SOL    HW218741   4.684   3.572   3.944 -0.7239  2.5296 -0.6495
 2370SOL     OW18742   3.197   1.943   8.671 -0.0392  0.2608  0.3220
 2370SOL    HW118743   3.274   1.900   8.635  1.7028  2.2983  1.6087
 2370SOL    HW218744   3.138   1.950   8.596  0.8689 -1.9593 -0.5876
 2371SOL     OW18745   4.063   1.355   5.764  0.1068 -0.3649  0.0364
 2371SOL    HW118746   4.154   1.359   5.795 -0.2771  0.3790  1.0747
 2371SOL    HW218747   4.018   1.306   5.833  0.5465  0.2564  0.7590
 2372SOL     OW18748   3.202   3.340   4.952 -0.5989 -0.2549 -0.2387
 2372SOL    HW118749   3.150   3.322   5.030 -1.1896  0.4375 -0.4755
 2372SOL    HW218750   3.179   3.262   4.900 -1.4711 -0.3274  0.2606
 2373SOL     OW18751   1.402   1.410  14.087 -0.2227 -0.0550  0.8070
 2373SOL    HW118752   1.336   1.475  14.111 -0.3452 -0.6738  2.1482
 2373SOL    HW218753   1.466   1.428  14.156  0.4371 -2.2211  0.7664
 2374SOL     OW18754   3.873   0.852   5.417 -0.0419  0.3297  0.2355
 2374SOL    HW118755   3.906   0.906   5.488 -0.8292  0.5828  0.4083
 2374SOL    HW218756   3.859   0.925   5.356  1.6746  1.4385  1.1541
 2375SOL     OW18757   0.060   3.762   7.149  0.1541  0.3939 -0.2451
 2375SOL    HW118758   0.035   3.768   7.241 -0.0950  0.8223 -0.3392
 2375SOL    HW218759   4.712   3.780   7.105  0.5820  0.0593 -1.1893
 2376SOL     OW18760   1.076   2.901  15.993 -0.2621  0.6465  0.8115
 2376SOL    HW118761   1.128   2.971  16.033  2.1288 -0.5189 -0.2369
 2376SOL    HW218762   1.023   2.884  16.071  1.7511  0.1389  2.0833
 2377SOL     OW18763   4.383   3.975   3.296  0.2423  0.8100  0.6370
 2377SOL    HW118764   4.474   3.966   3.268  0.9936 -2.1719  4.0251
 2377SOL    HW218765   4.345   4.043   3.240 -0.3089  0.8744  1.0917
 2378SOL     OW18766   2.585   0.902   0.387 -0.9742  0.2267 -0.3180
 2378SOL    HW118767   2.549   0.872   0.303 -0.3274  0.3301 -0.6293
 2378SOL    HW218768   2.543   0.988   0.390 -1.0902  0.1239  0.7311
 2379SOL     OW18769   0.111   3.907   7.824 -0.2589  0.1595 -0.5607
 2379SOL    HW118770   0.150   3.963   7.758 -0.9440  0.5584 -0.6281
 2379SOL    HW218771   0.170   3.934   7.894 -0.9906  1.4888 -0.4676
 2380SOL     OW18772   0.185   0.377  13.499 -0.4981  0.0984  0.0037
 2380SOL    HW118773   0.184   0.419  13.586 -0.7015  0.8929 -0.3782
 2380SOL    HW218774   0.204   0.285  13.517  0.9283  0.4822  0.4176
 2381SOL     OW18775   1.465   3.031  13.046 -0.1299 -0.0537  0.4168
 2381SOL    HW118776   1.521   2.960  13.014  1.0672  0.2136  1.9367
 2381SOL    HW218777   1.511   3.111  13.020 -1.7093  0.3540 -1.1057
 2382SOL     OW18778   3.783   0.334   7.817 -0.2090 -0.3446  0.2265
 2382SOL    HW118779   3.823   0.327   7.904  1.2149  2.1374 -0.2242
 2382SOL    HW218780   3.715   0.267   7.826 -3.9832  3.2465 -1.5460
 2383SOL     OW18781   3.552   0.598   7.482 -0.1303  0.1509 -0.0545
 2383SOL    HW118782   3.578   0.686   7.454  1.3239  0.3409  1.9196
 2383SOL    HW218783   3.628   0.576   7.536  1.2611 -2.0656 -2.8709
 2384SOL     OW18784   4.196   4.260   1.376  0.0415 -0.2483 -0.9023
 2384SOL    HW118785   4.257   4.238   1.447  0.8157  1.1233 -1.1357
 2384SOL    HW218786   4.162   4.172   1.357 -0.2196 -0.2825 -0.2608
 2385SOL     OW18787   2.668   3.760  11.120  0.5408  0.3824 -0.0410
 2385SOL    HW118788   2.693   3.677  11.160  0.4834  0.0892 -0.6078
 2385SOL    HW218789   2.740   3.769  11.059 -1.0034 -0.1153 -1.9399
 2386SOL     OW18790   3.254   1.777  15.407 -0.0268  0.5762  0.2682
 2386SOL    HW118791   3.326   1.715  15.393 -0.8022  0.0884 -1.5571
 2386SOL    HW218792   3.287   1.834  15.476  0.0987  0.8430 -0.0116
 2387SOL     OW18793   1.417   4.315  13.012  0.0859  0.1916 -0.3648
 2387SOL    HW118794   1.484   4.382  13.002 -1.3657  1.6824 -0.1050
 2387SOL    HW218795   1.335   4.362  13.000 -0.0568  0.2159  0.7296
 2388SOL     OW18796   1.014   4.099   2.810 -0.5435 -0.3800  0.3076
 2388SOL    HW118797   1.075   4.083   2.737  0.1183  0.9916  0.5592
 2388SOL    HW218798   1.045   4.036   2.876  0.0882 -0.3959 -0.0001
 2389SOL     OW18799   1.168   4.425   1.760 -0.3661 -0.7367  0.1249
 2389SOL    HW118800   1.151   4.465   1.674 -0.1588  1.1466  0.9491
 2389SOL    HW218801   1.076   4.422   1.787 -0.5049 -0.2349 -0.2732
 2390SOL     OW18802   0.681   1.407  13.981  0.5791 -0.4318  0.2032
 2390SOL    HW118803   0.616   1.347  14.018 -1.6974  2.8608  1.4790
 2390SOL    HW218804   0.630   1.439  13.906 -1.1707  0.1338  1.6310
 2391SOL     OW18805   3.246   0.295   8.869  0.0013 -0.2746  0.2849
 2391SOL    HW118806   3.317   0.338   8.822 -1.0030  0.9127 -0.1510
 2391SOL    HW218807   3.204   0.374   8.902  0.7262  0.5709 -0.8258
 2392SOL     OW18808   0.224   4.367   4.821 -0.0042  0.4048 -0.3870
 2392SOL    HW118809   0.266   4.344   4.738  2.2730  1.1549  0.5452
 2392SOL    HW218810   0.214   4.284   4.867 -1.6092 -0.6392 -2.5848
 2393SOL     OW18811   3.797   0.122  14.296  0.3192  0.0536 -0.2030
 2393SOL    HW118812   3.728   0.133  14.231 -2.8338 -0.4621  3.0601
 2393SOL    HW218813   3.869   0.121  14.233 -1.6653 -0.7354 -2.4476
 2394SOL     OW18814   3.079   1.286  15.572 -0.0410  0.3190  0.1032
 2394SOL    HW118815   3.124   1.367  15.548  0.2610  0.4173  1.0208
 2394SOL    HW218816   3.124   1.223  15.516 -0.9214 -1.4845  1.4336
 2395SOL     OW18817   1.676   1.326   4.083 -0.2431 -0.9018 -0.3858
 2395SOL    HW118818   1.740   1.363   4.144  0.3585 -0.5794 -1.2143
 2395SOL    HW218819   1.640   1.250   4.129 -1.5460 -1.5386 -2.4821
 2396SOL     OW18820   0.815   3.089   5.193 -0.0960 -0.5706 -0.2546
 2396SOL    HW118821   0.861   3.097   5.277  1.5523 -0.6002 -1.1692
 2396SOL    HW218822   0.812   3.180   5.164  1.1021 -0.8019 -1.0960
 2397SOL     OW18823   0.480   4.718   5.411  0.3409 -0.2560  0.0499
 2397SOL    HW118824   0.445   0.067   5.383 -0.3595 -0.7786 -0.6301
 2397SOL    HW218825   0.464   4.677   5.326  1.5868  1.7712 -1.1587
 2398SOL     OW18826   3.103   1.263   1.743 -0.0806  0.1761 -0.2580
 2398SOL    HW118827   3.071   1.213   1.818 -2.2704  0.0014 -1.3033
 2398SOL    HW218828   3.197   1.248   1.737 -0.1442 -0.9520  1.5923
 2399SOL     OW18829   2.983   4.012   3.615 -0.4395  0.7390 -0.8120
 2399SOL    HW118830   2.994   4.100   3.580 -0.5912  0.8210 -0.6493
 2399SOL    HW218831   3.017   3.956   3.544 -2.7296 -0.3324 -1.0567
 2400SOL     OW18832   1.299   3.143   5.405 -0.0327  0.5629  0.1124
 2400SOL    HW118833   1.293   3.125   5.498  0.2006  1.3754  0.2834
 2400SOL    HW218834   1.291   3.053   5.372  0.7353  0.6852 -0.4093
 2401SOL     OW18835   2.996   3.982  10.127  0.5615 -0.1974 -0.2483
 2401SOL    HW118836   2.962   3.980  10.216  0.6516  1.8632 -0.1657
 2401SOL    HW218837   3.028   3.892  10.121 -0.1710 -0.2872 -3.1027
 2402SOL     OW18838   1.840   0.018   3.551  0.1357 -0.3842 -0.3632
 2402SOL    HW118839   1.816   0.044   3.462 -2.2480 -3.5426 -0.6659
 2402SOL    HW218840   1.882   0.096   3.585  0.2327 -0.7872  0.4523
 2403SOL     OW18841   2.420   2.308   3.894  0.2956  0.0826 -0.0149
 2403SOL    HW118842   2.382   2.384   3.852  0.5402 -0.0903 -0.5436
 2403SOL    HW218843   2.511   2.336   3.890  0.1760  0.4218 -0.3118
 2404SOL     OW18844   4.166   4.075   9.461 -0.0424 -0.0289  0.2827
 2404SOL    HW118845   4.137   4.053   9.549  1.3299  0.8600  0.9659
 2404SOL    HW218846   4.193   3.988   9.432  0.9929  0.5651 -0.5330
 2405SOL     OW18847   0.995   0.093   6.727 -0.3855  0.5397  0.1270
 2405SOL    HW118848   0.969   0.125   6.641 -0.0653  0.4569 -0.0015
 2405SOL    HW218849   1.021   0.001   6.719 -0.4554  0.6100 -0.9614
 2406SOL     OW18850   0.193   3.528   8.928  0.3741  0.1269  0.2843
 2406SOL    HW118851   0.149   3.511   8.845  1.9956  0.4285 -0.6271
 2406SOL    HW218852   0.179   3.444   8.970 -0.9701  1.3246  2.2308
 2407SOL     OW18853   4.735   3.183   8.711 -0.1030  0.0190  0.4006
 2407SOL    HW118854   4.672   3.247   8.744  1.6845  0.6582  2.5349
 2407SOL    HW218855   0.022   3.123   8.782  1.3344 -1.8103 -1.5828
 2408SOL     OW18856   0.579   1.147   8.186 -0.1500 -0.0741 -0.5212
 2408SOL    HW118857   0.603   1.207   8.116  1.8655  0.0399  0.2584
 2408SOL    HW218858   0.649   1.155   8.251  0.0584  0.2738 -0.7882
 2409SOL     OW18859   2.623   3.277   6.949 -0.8187  0.4069 -0.2175
 2409SOL    HW118860   2.678   3.222   7.005  0.8400  1.9736 -0.3107
 2409SOL    HW218861   2.566   3.330   7.005  0.0581 -0.0156  1.0790
 2410SOL     OW18862   0.155   3.714   9.664  0.0676 -0.3555  0.2405
 2410SOL    HW118863   0.066   3.681   9.667 -0.6110  1.5634  1.5761
 2410SOL    HW218864   0.200   3.630   9.675  1.4648  0.1869 -1.3789
 2411SOL     OW18865   1.622   0.862   8.711 -0.6750 -0.6416  0.2515
 2411SOL    HW118866   1.621   0.767   8.696  0.4976 -1.0371  2.5570
 2411SOL    HW218867   1.536   0.868   8.752 -1.0484  3.5751 -1.1877
 2412SOL     OW18868   1.377   1.024   3.255  0.5076 -0.0399  0.0234
 2412SOL    HW118869   1.349   1.060   3.339 -1.2687  1.6935 -1.3074
 2412SOL    HW218870   1.422   0.949   3.295  1.7844  1.0247  0.6097
 2413SOL     OW18871   1.877   4.675   7.498  0.1139  0.0172  0.1889
 2413SOL    HW118872   1.904   4.666   7.589  0.8281  2.7009  0.2283
 2413SOL    HW218873   1.927   4.601   7.463 -0.4092 -1.1092  1.8144
 2414SOL     OW18874   4.526   0.118   1.574 -0.1436 -0.2739 -0.2358
 2414SOL    HW118875   4.605   0.168   1.554  0.3574 -0.5026  1.0999
 2414SOL    HW218876   4.522   0.061   1.497  0.0517 -0.6296  0.0129
 2415SOL     OW18877   0.557   0.169  15.222 -0.2841 -0.4640  0.4713
 2415SOL    HW118878   0.617   0.135  15.288 -0.9453 -0.1654  1.2216
 2415SOL    HW218879   0.622   0.200  15.159 -1.5691 -2.1204 -1.6758
 2416SOL     OW18880   2.707   1.242   7.869 -1.0664 -0.6412 -0.5334
 2416SOL    HW118881   2.718   1.172   7.933  0.6397  0.5093  0.4143
 2416SOL    HW218882   2.762   1.315   7.896  0.6829 -1.5569 -1.6158
 2417SOL     OW18883   0.997   0.856   3.985 -0.2877  0.0519 -0.3403
 2417SOL    HW118884   0.922   0.828   4.037 -0.6402  0.5685 -0.5813
 2417SOL    HW218885   1.065   0.799   4.022  1.8630  0.7678 -3.2358
 2418SOL     OW18886   3.382   0.199   4.417  0.2253  0.2995 -0.0901
 2418SOL    HW118887   3.360   0.178   4.326  0.6109 -0.8436  0.0896
 2418SOL    HW218888   3.323   0.138   4.462  0.7442  0.0939  0.3020
 2419SOL     OW18889   2.975   1.228  17.376 -0.3804 -0.8232 -0.3088
 2419SOL    HW118890   2.971   1.268  17.289  2.4348  0.4156  0.1334
 2419SOL    HW218891   2.886   1.223  17.411  0.1729  1.2188  1.3647
 2420SOL     OW18892   3.135   0.477  12.595  0.1120  0.1780  0.1191
 2420SOL    HW118893   3.112   0.544  12.658 -1.1468  0.2228 -0.3902
 2420SOL    HW218894   3.209   0.433  12.635  0.6291  0.6138 -0.3511
 2421SOL     OW18895   4.116   0.437   3.405  0.2823 -0.1155  0.3434
 2421SOL    HW118896   4.027   0.434   3.371 -0.2775  1.1484  1.6922
 2421SOL    HW218897   4.132   0.529   3.426  0.3694 -0.1039  0.2226
 2422SOL     OW18898   3.768   0.913   6.032  0.2722 -0.1152  0.0498
 2422SOL    HW118899   3.751   0.942   5.942  2.1107  0.7093 -0.0408
 2422SOL    HW218900   3.689   0.866   6.059  1.0231 -1.9072 -0.8587
 2423SOL     OW18901   2.671   1.670  16.871  0.1376  0.3508 -0.0703
 2423SOL    HW118902   2.762   1.642  16.864  0.3431  0.9722  0.1394
 2423SOL    HW218903   2.683   1.745  16.930 -1.2532  1.6920 -1.5117
 2424SOL     OW18904   3.493   4.534   0.520  0.4734  0.1252 -0.3201
 2424SOL    HW118905   3.458   4.501   0.603 -1.9709 -1.6372 -2.0681
 2424SOL    HW218906   3.556   4.464   0.506 -0.0989 -0.5273  0.3455
 2425SOL     OW18907   4.424   0.069  15.342 -0.1196 -0.3580  0.2530
 2425SOL    HW118908   4.466   0.142  15.388 -1.1997 -1.5739  3.1741
 2425SOL    HW218909   4.470   0.064  15.258  0.2592 -2.2738  0.5654
 2426SOL     OW18910   3.598   4.723  10.295 -0.0214  0.5507 -0.4258
 2426SOL    HW118911   3.616   4.700  10.204 -3.2954  0.7337 -1.1425
 2426SOL    HW218912   3.503   4.712  10.294  0.1218 -0.6648  0.2253
 2427SOL     OW18913   4.624   2.028   5.899  0.4052 -0.7082  0.0153
 2427SOL    HW118914   4.701   2.008   5.845  0.1499  0.4166 -0.7512
 2427SOL    HW218915   4.571   2.062   5.827  1.3875  0.2576 -0.2492
 2428SOL     OW18916   4.016   0.543   1.767  0.0238  0.4558 -0.0046
 2428SOL    HW118917   3.948   0.600   1.802 -0.7051 -0.0133 -0.6753
 2428SOL    HW218918   4.088   0.566   1.826 -1.9300 -0.6506  2.8080
 2429SOL     OW18919   1.136   2.810  10.172  0.4845 -0.4203 -0.2335
 2429SOL    HW118920   1.093   2.884  10.214  1.5141  0.6969 -1.1368
 2429SOL    HW218921   1.062   2.756  10.142  1.3718 -1.2150 -1.0142
 2430SOL     OW18922   1.793   1.419   8.003  0.0272 -0.0939  0.3800
 2430SOL    HW118923   1.725   1.407   7.936  1.0667 -1.6564 -0.4044
 2430SOL    HW218924   1.838   1.336   7.986  1.2852  0.3156  1.6542
 2431SOL     OW18925   2.360   0.395   6.301 -0.4427  0.3953 -0.2564
 2431SOL    HW118926   2.388   0.392   6.392  2.5150  0.8967 -1.1318
 2431SOL    HW218927   2.440   0.416   6.252  0.3504 -0.6822  0.5961
 2432SOL     OW18928   1.034   0.693  16.286  0.1178  0.0904 -0.2035
 2432SOL    HW118929   1.041   0.745  16.206 -3.5564  1.3085  0.2712
 2432SOL    HW218930   1.048   0.763  16.350  0.8541 -0.2045 -0.0370
 2433SOL     OW18931   0.896   3.314   2.263 -0.2015  0.0750  0.0070
 2433SOL    HW118932   0.987   3.288   2.278  0.1361 -0.1147 -2.3192
 2433SOL    HW218933   0.889   3.383   2.328  0.7347 -0.4570  0.6822
 2434SOL     OW18934   0.717   3.010   4.291 -0.1385 -0.6924 -0.3978
 2434SOL    HW118935   0.705   3.043   4.380 -0.9944 -1.2442 -0.3104
 2434SOL    HW218936   0.813   3.005   4.287 -0.1867 -0.4611 -1.7333
 2435SOL     OW18937   0.599   3.622   9.953  0.3598  0.0399  0.0585
 2435SOL    HW118938   0.612   3.670  10.034 -0.6148  1.1080 -0.4132
 2435SOL    HW218939   0.613   3.692   9.890  0.1150  2.4494  2.7112
 2436SOL     OW18940   2.542   3.765   6.713 -0.7632  0.3005  0.2142
 2436SOL    HW118941   2.482   3.783   6.641 -0.9647  1.6130  0.7179
 2436SOL    HW218942   2.609   3.833   6.705  1.3223 -2.0472 -2.5579
 2437SOL     OW18943   1.141   1.625   4.831  0.2689 -0.3571  0.3647
 2437SOL    HW118944   1.185   1.698   4.787  2.4514 -0.0866  3.0621
 2437SOL    HW218945   1.115   1.568   4.758  0.6303  0.4262 -0.3793
 2438SOL     OW18946   0.462   3.512   6.053 -0.0030  0.7739  0.4831
 2438SOL    HW118947   0.445   3.583   5.992  1.2165  1.7492  1.2709
 2438SOL    HW218948   0.412   3.533   6.133  0.1061  1.3658  0.3972
 2439SOL     OW18949   4.033   4.517   3.391  0.1004  0.2646 -0.2654
 2439SOL    HW118950   4.009   4.592   3.336 -0.3450 -0.6916 -1.3610
 2439SOL    HW218951   3.968   4.452   3.366 -0.0326  0.0155  0.7006
 2440SOL     OW18952   2.698   3.211   4.665  0.0378  0.7179  0.3593
 2440SOL    HW118953   2.775   3.248   4.622  0.3366  1.1518  1.2689
 2440SOL    HW218954   2.633   3.272   4.630  1.0960  0.9455 -1.1973
 2441SOL     OW18955   3.429   3.758   6.699  0.1659 -0.7941 -0.3359
 2441SOL    HW118956   3.487   3.735   6.772 -1.1811 -0.9721  0.6813
 2441SOL    HW218957   3.345   3.781   6.739  0.5322 -2.5922  1.4497
 2442SOL     OW18958   2.312   1.238   2.762 -0.1100  0.3490  0.0586
 2442SOL    HW118959   2.323   1.186   2.682  2.0722  0.2207  0.4460
 2442SOL    HW218960   2.233   1.197   2.798  0.7807 -1.4553 -0.0532
 2443SOL     OW18961   1.087   3.106  16.265 -0.1325 -0.2443  0.2388
 2443SOL    HW118962   1.131   3.121  16.181 -1.8260  0.4147 -0.5273
 2443SOL    HW218963   1.144   3.164  16.316 -2.0505  1.9231 -0.0905
 2444SOL     OW18964   2.881   1.510   4.377  0.3735 -0.2574 -0.1558
 2444SOL    HW118965   2.945   1.470   4.436  1.0056 -0.3627 -0.9139
 2444SOL    HW218966   2.881   1.439   4.312 -1.4539 -0.1484 -0.2700
 2445SOL     OW18967   3.521   0.046   6.811  0.7341  0.2167  0.5828
 2445SOL    HW118968   3.493   4.701   6.853  0.4602  0.2005  0.3664
 2445SOL    HW218969   3.506   0.033   6.717 -2.1759 -0.5159  1.1481
 2446SOL     OW18970   3.920   3.422   7.740  0.0001 -0.1033 -0.2904
 2446SOL    HW118971   3.876   3.416   7.825 -0.9452  0.7134 -0.7235
 2446SOL    HW218972   3.921   3.515   7.720 -0.4600 -0.2824 -1.1592
 2447SOL     OW18973   3.581   1.121   0.297 -0.2391 -0.0215  0.4685
 2447SOL    HW118974   3.633   1.196   0.265 -0.9098 -0.1593 -0.9501
 2447SOL    HW218975   3.606   1.119   0.389 -1.9745 -1.0600  0.9153
 2448SOL     OW18976   0.626   1.995   6.759 -0.0358  0.1652 -0.4411
 2448SOL    HW118977   0.706   2.027   6.803 -0.7781  1.5416 -0.0755
 2448SOL    HW218978   0.569   2.062   6.797 -0.8627 -0.7396 -0.1136
 2449SOL     OW18979   1.163   2.860   6.139  0.1791  0.0883  0.3619
 2449SOL    HW118980   1.112   2.806   6.199 -0.1493 -2.5127 -2.2455
 2449SOL    HW218981   1.246   2.813   6.144 -0.5076 -1.1298  0.3316
 2450SOL     OW18982   1.800   4.266  12.257  0.1913  0.0717 -0.0267
 2450SOL    HW118983   1.753   4.241  12.336  0.8721 -0.1837  0.2949
 2450SOL    HW218984   1.807   4.181  12.212  4.1955  1.8923 -2.8608
 2451SOL     OW18985   4.157   2.890   7.113 -0.1402 -0.0203  0.4594
 2451SOL    HW118986   4.198   2.873   7.028  1.3606  1.0352  0.9849
 2451SOL    HW218987   4.119   2.804   7.128 -1.8503  0.3145 -1.9094
 2452SOL     OW18988   1.031   4.030  14.027 -0.5697 -0.4215 -0.8856
 2452SOL    HW118989   1.119   4.062  14.048 -0.7563  0.8616 -2.0452
 2452SOL    HW218990   1.043   3.938  14.001  2.3864 -0.5511  0.9665
 2453SOL     OW18991   2.993   2.265  14.629  0.1911 -0.4659  0.1679
 2453SOL    HW118992   2.907   2.224  14.627 -0.3830  0.8344 -3.0064
 2453SOL    HW218993   3.051   2.192  14.609  0.2990 -0.6155  1.0420
 2454SOL     OW18994   0.966   0.570   7.263  0.3184  0.1512 -0.3141
 2454SOL    HW118995   0.924   0.485   7.252 -0.5248  0.4880  0.3009
 2454SOL    HW218996   0.953   0.607   7.176 -1.0330  0.2043 -0.0896
 2455SOL     OW18997   3.049   0.096  15.343  0.6148  0.2072  0.1019
 2455SOL    HW118998   3.086   0.144  15.270  1.2889 -0.5650 -0.0660
 2455SOL    HW218999   2.980   0.053  15.292 -1.3489 -0.9307  3.7035
 2456SOL     OW19000   0.693   3.264   7.715  0.6164 -0.3002  0.3316
 2456SOL    HW119001   0.638   3.213   7.774 -0.4568  0.3613 -0.0831
 2456SOL    HW219002   0.633   3.314   7.659  0.8017  0.3579  0.7245
 2457SOL     OW19003   0.978   3.383   4.595  0.4304 -0.0749 -0.2719
 2457SOL    HW119004   1.024   3.321   4.539 -0.7991 -0.4976 -0.8200
 2457SOL    HW219005   0.935   3.327   4.660  0.1979 -0.9390 -1.1705
 2458SOL     OW19006   4.605   3.053  13.887  0.1525 -0.3888 -0.3923
 2458SOL    HW119007   4.523   3.019  13.851 -0.4316 -2.0615  2.4629
 2458SOL    HW219008   4.617   3.136  13.841  0.7281 -0.2110  0.0770
 2459SOL     OW19009   3.559   2.538   8.558  0.3508  0.4174 -0.0040
 2459SOL    HW119010   3.600   2.512   8.476 -2.3510 -4.2163  0.1067
 2459SOL    HW219011   3.641   2.538   8.608 -0.3523 -0.9262  1.1381
 2460SOL     OW19012   4.427   1.872  11.254 -0.0442 -0.1054 -0.1425
 2460SOL    HW119013   4.431   1.777  11.266 -1.4164 -0.0323  0.8592
 2460SOL    HW219014   4.457   1.891  11.165 -0.8411  0.1752 -0.3513
 2461SOL     OW19015   0.932   1.121   9.110  1.2509  0.2108 -0.1850
 2461SOL    HW119016   0.876   1.189   9.148  1.0434 -0.4457  0.6737
 2461SOL    HW219017   0.874   1.089   9.041 -0.3702  1.8618  0.3851
 2462SOL     OW19018   0.946   0.299  12.158 -0.6643 -0.4341  0.1559
 2462SOL    HW119019   0.988   0.367  12.105  1.0863 -1.4235  0.2609
 2462SOL    HW219020   0.972   0.325  12.246 -1.6063 -2.7644  1.1220
 2463SOL     OW19021   3.471   4.021  13.088 -0.2846  0.6913 -0.0602
 2463SOL    HW119022   3.483   3.969  13.167 -0.8808 -0.9942 -1.0716
 2463SOL    HW219023   3.377   4.038  13.094 -0.3781 -0.2961  1.2715
 2464SOL     OW19024   1.648   4.370   9.683  0.0046  0.0804  0.3296
 2464SOL    HW119025   1.592   4.430   9.633 -1.3458  0.5164  2.3541
 2464SOL    HW219026   1.730   4.384   9.637 -0.3063  2.1456  0.4016
 2465SOL     OW19027   2.149   1.401  14.664 -0.7650  0.3416 -0.2705
 2465SOL    HW119028   2.152   1.445  14.580 -1.0138  0.5029 -0.1923
 2465SOL    HW219029   2.092   1.462  14.711 -1.3750 -0.0139 -0.5535
 2466SOL     OW19030   1.067   1.445  14.617 -0.2913 -0.4539  0.2349
 2466SOL    HW119031   0.998   1.401  14.568  1.7071 -1.7090 -1.4609
 2466SOL    HW219032   1.018   1.519  14.651 -1.0324 -0.4404 -0.8727
 2467SOL     OW19033   1.248   4.535  15.189  0.3231  0.1049  0.0794
 2467SOL    HW119034   1.297   4.585  15.124 -0.7621  1.6774  0.4604
 2467SOL    HW219035   1.313   4.518  15.256  0.3445  0.0173  0.0362
 2468SOL     OW19036   4.470   0.545   5.661  0.0479 -0.9250  0.2355
 2468SOL    HW119037   4.493   0.629   5.702  0.0992 -0.1380 -1.3877
 2468SOL    HW219038   4.375   0.540   5.674 -0.1924 -0.8193 -1.3943
 2469SOL     OW19039   1.474   0.721   6.881 -0.2974 -0.3432 -0.2604
 2469SOL    HW119040   1.416   0.684   6.948  0.1722 -0.6733 -0.0315
 2469SOL    HW219041   1.513   0.639   6.851 -1.7067 -0.6640 -1.2463
 2470SOL     OW19042   4.371   1.792   7.204  0.0906 -0.1114  0.0681
 2470SOL    HW119043   4.409   1.811   7.290  0.5753  0.6315 -0.3106
 2470SOL    HW219044   4.315   1.869   7.197  1.6683  1.1373  1.1605
 2471SOL     OW19045   1.560   0.203   3.598 -0.3779  0.0921 -0.3829
 2471SOL    HW119046   1.487   0.220   3.538 -2.3398 -1.3243  1.6152
 2471SOL    HW219047   1.635   0.252   3.563  1.6521 -1.8842  1.1935
 2472SOL     OW19048   1.887   1.690   7.502  0.2734  0.0597 -0.3461
 2472SOL    HW119049   1.896   1.604   7.460  0.6737  0.3941 -0.9445
 2472SOL    HW219050   1.801   1.676   7.541  0.5260 -0.7874 -0.0731
 2473SOL     OW19051   3.945   4.492   9.374 -0.1126  0.1606  0.0579
 2473SOL    HW119052   3.872   4.444   9.415  0.3537 -0.0703  0.6222
 2473SOL    HW219053   4.021   4.448   9.413 -0.1857 -0.4272 -0.4738
 2474SOL     OW19054   4.583   1.680  15.267 -1.1720 -0.6635 -0.2910
 2474SOL    HW119055   4.524   1.692  15.192  0.9134 -1.9349 -2.1031
 2474SOL    HW219056   4.527   1.695  15.343  2.0930 -0.3621  2.0440
 2475SOL     OW19057   1.202   2.777  11.098 -0.0012  0.1266 -0.1201
 2475SOL    HW119058   1.150   2.719  11.043 -1.6970  0.5696  1.0083
 2475SOL    HW219059   1.237   2.828  11.025  0.8741  0.2177  0.3668
 2476SOL     OW19060   2.854   3.370   5.953 -0.5638 -0.2578  0.2338
 2476SOL    HW119061   2.919   3.325   6.007  0.4361  1.9994  0.9255
 2476SOL    HW219062   2.833   3.440   6.014  0.2916  1.2820 -1.2245
 2477SOL     OW19063   3.432   0.731  12.386 -0.1883  0.6887 -0.2859
 2477SOL    HW119064   3.369   0.695  12.325 -1.5729 -1.4303  2.3898
 2477SOL    HW219065   3.447   0.822  12.360  1.1319 -0.2265 -2.6250
 2478SOL     OW19066   0.252   4.706   5.239  0.1653  0.3848  0.3702
 2478SOL    HW119067   0.313   4.657   5.183  0.9533  0.9208  0.7588
 2478SOL    HW219068   0.176   4.654   5.213 -1.0237  1.9121  0.8210
 2479SOL     OW19069   4.232   3.268   2.281  0.1576 -0.1242 -0.2844
 2479SOL    HW119070   4.321   3.268   2.246  0.7422  3.3762  1.2295
 2479SOL    HW219071   4.182   3.220   2.215  0.5590  0.3578 -0.9314
 2480SOL     OW19072   1.795   0.778   7.479 -0.9516 -0.0890 -0.0681
 2480SOL    HW119073   1.880   0.813   7.453 -1.3507  0.4793 -0.5952
 2480SOL    HW219074   1.736   0.843   7.440  0.4051  0.5486 -1.0857
 2481SOL     OW19075   2.366   0.634  11.014 -0.2106 -0.1288  0.4450
 2481SOL    HW119076   2.306   0.688  11.067 -3.0907 -3.8264  0.9138
 2481SOL    HW219077   2.334   0.545  11.024 -0.6780 -0.0269 -0.1749
 2482SOL     OW19078   2.527   3.534  14.893  0.2107  0.2436 -0.3340
 2482SOL    HW119079   2.558   3.513  14.981  0.5564  2.3530  0.0518
 2482SOL    HW219080   2.604   3.555  14.839  0.3055 -2.3980 -1.2263
 2483SOL     OW19081   0.651   2.824   7.517 -0.0455  0.3862  0.2403
 2483SOL    HW119082   0.704   2.870   7.581  1.1631 -1.1549  0.3490
 2483SOL    HW219083   0.601   2.769   7.577  0.7807 -1.7140 -1.0006
 2484SOL     OW19084   4.408   1.967   4.269  0.0007  0.0376 -0.1153
 2484SOL    HW119085   4.480   1.969   4.332  1.6801  0.0742 -2.0482
 2484SOL    HW219086   4.435   1.896   4.211 -3.0293 -0.4590 -0.9409
 2485SOL     OW19087   3.018   4.415  11.249  0.1344  0.2555  0.5122
 2485SOL    HW119088   3.003   4.506  11.224 -0.8809 -0.2837 -0.8649
 2485SOL    HW219089   3.106   4.407  11.214  0.1031  0.7328  0.3334
 2486SOL     OW19090   4.525   3.566  16.336  0.5316 -0.5282 -0.5088
 2486SOL    HW119091   4.459   3.509  16.376  1.5717  0.4608  2.5968
 2486SOL    HW219092   4.606   3.560  16.386  0.0445 -3.7907 -0.1260
 2487SOL     OW19093   1.450   1.620   9.065 -0.0747  0.0669 -0.3129
 2487SOL    HW119094   1.411   1.569   8.994 -1.5991  0.5895  0.1438
 2487SOL    HW219095   1.386   1.684   9.097  0.0695 -0.6856  1.5153
 2488SOL     OW19096   2.752   4.389  13.326 -0.0808 -0.2826 -0.2991
 2488SOL    HW119097   2.842   4.409  13.297  0.2294 -2.1850 -0.6308
 2488SOL    HW219098   2.730   4.475  13.362 -0.8307  0.2599 -2.0469
 2489SOL     OW19099   4.526   0.324   8.603 -0.1816 -0.0460 -0.3775
 2489SOL    HW119100   4.464   0.331   8.530  0.7529  0.2119 -1.1508
 2489SOL    HW219101   4.596   0.378   8.568  1.3491 -2.1868 -0.5898
 2490SOL     OW19102   1.120   2.564   5.916 -0.2024 -0.3930  0.3546
 2490SOL    HW119103   1.035   2.551   5.957 -0.6732  0.7797 -0.2465
 2490SOL    HW219104   1.126   2.487   5.859 -0.4882 -1.5631  1.9097
 2491SOL     OW19105   0.691   4.720   4.624  0.3194 -0.4176  0.0639
 2491SOL    HW119106   0.761   4.723   4.559 -0.7972  1.6742 -1.0224
 2491SOL    HW219107   0.739   0.009   4.704  0.2134  0.1167 -0.0304
 2492SOL     OW19108   1.475   0.017   7.800 -0.3762 -0.5346  0.5327
 2492SOL    HW119109   1.505   0.055   7.718 -0.4308  0.4952  0.9876
 2492SOL    HW219110   1.396   4.706   7.771  0.3381  0.0199 -2.2807
 2493SOL     OW19111   2.514   3.306   7.621  0.0127 -0.2868 -0.3067
 2493SOL    HW119112   2.419   3.307   7.615  0.0978 -1.6530 -1.8401
 2493SOL    HW219113   2.535   3.333   7.711 -0.5310  1.1707 -0.6247
 2494SOL     OW19114   1.557   1.392   3.038 -0.1188 -0.3309  0.6059
 2494SOL    HW119115   1.485   1.410   3.098  0.2386 -0.1418  0.9816
 2494SOL    HW219116   1.559   1.471   2.984 -0.3036 -1.7017 -1.4153
 2495SOL     OW19117   1.505   0.994   5.440 -0.5174 -0.0892 -0.6521
 2495SOL    HW119118   1.573   0.944   5.395 -1.5707 -2.1010 -0.0075
 2495SOL    HW219119   1.430   0.944   5.407  0.0697  0.2965 -2.5353
 2496SOL     OW19120   2.565   1.054   4.683  0.5593  0.8653  0.2437
 2496SOL    HW119121   2.568   1.122   4.751  1.1188  1.5129 -0.4214
 2496SOL    HW219122   2.631   0.989   4.707 -0.3549  0.6225  2.1629
 2497SOL     OW19123   0.253   3.791   0.325 -0.1645 -0.3332 -0.2509
 2497SOL    HW119124   0.305   3.723   0.282  0.3143 -0.1680  0.0666
 2497SOL    HW219125   0.167   3.773   0.286 -0.4316  0.7889 -0.1906
 2498SOL     OW19126   3.407   0.466  17.646 -0.3274 -0.5277  0.0355
 2498SOL    HW119127   3.356   0.533  17.600  2.5860  3.3593  2.4597
 2498SOL    HW219128   3.425   0.412  17.570 -0.0537  0.9547 -0.9610
 2499SOL     OW19129   1.942   0.294   9.750  0.0152 -0.2337  0.6101
 2499SOL    HW119130   1.896   0.350   9.812  1.5370  1.2358  0.4325
 2499SOL    HW219131   2.001   0.358   9.709 -0.8154  0.3599  0.3613
 2500SOL     OW19132   4.445   4.557  15.445  0.6845 -0.3908  0.4163
 2500SOL    HW119133   4.421   4.641  15.407 -1.4724  0.3006  3.3217
 2500SOL    HW219134   4.417   4.566  15.536 -1.2936  1.5360 -0.3741
 2501SOL     OW19135   0.318   1.961   4.421  0.1362  0.0817 -0.0116
 2501SOL    HW119136   0.349   2.003   4.341  2.1189 -1.7546 -0.1967
 2501SOL    HW219137   0.229   1.996   4.430 -0.2586 -0.5480 -1.4597
 2502SOL     OW19138   2.727   1.558  17.657  0.8784  0.2959  0.3117
 2502SOL    HW119139   2.684   1.533  17.576  0.1614 -1.0016  1.0994
 2502SOL    HW219140   2.652   1.572  17.715 -0.0334  1.6344 -1.2108
 2503SOL     OW19141   1.552   4.116  11.961 -0.2748 -0.1160  0.3770
 2503SOL    HW119142   1.538   4.023  11.946  0.4566 -0.0035 -1.0123
 2503SOL    HW219143   1.647   4.116  11.973  0.1867 -1.6803 -3.2056
 2504SOL     OW19144   1.989   4.378  11.700  0.2658  0.0302 -0.7674
 2504SOL    HW119145   2.079   4.411  11.711 -0.7248  2.8738 -1.0642
 2504SOL    HW219146   1.938   4.411  11.774  0.6978 -2.1018  0.4795
 2505SOL     OW19147   2.903   0.452  11.523  0.0160 -0.2093  0.5433
 2505SOL    HW119148   2.970   0.507  11.483  0.2744 -1.2678 -0.5028
 2505SOL    HW219149   2.952   0.369  11.523 -0.9197 -0.7614 -3.3125
 2506SOL     OW19150   1.867   4.571   4.523  0.0612 -0.2983 -0.7574
 2506SOL    HW119151   1.927   4.501   4.499  2.6543  2.0445 -1.1606
 2506SOL    HW219152   1.840   4.553   4.613 -1.0229  0.1481 -0.9829
 2507SOL     OW19153   3.150   1.000   6.387  0.0180  0.1503  0.3944
 2507SOL    HW119154   3.188   0.925   6.431  0.6790  1.7853  2.5955
 2507SOL    HW219155   3.122   1.065   6.451 -1.8033 -1.5790  1.3590
 2508SOL     OW19156   1.970   2.848   2.394  0.8991  0.0469 -0.5932
 2508SOL    HW119157   2.022   2.807   2.464  1.3337  1.8304  0.1204
 2508SOL    HW219158   1.901   2.783   2.382  0.5232 -0.0671  2.0929
 2509SOL     OW19159   1.315   2.983   4.309 -0.1232  0.1335  0.8052
 2509SOL    HW119160   1.330   2.975   4.403  0.2706  2.2690  0.9231
 2509SOL    HW219161   1.389   2.933   4.274 -0.7771  0.5264 -1.1467
 2510SOL     OW19162   1.183   1.515   2.845  0.2441  0.2800  0.5199
 2510SOL    HW119163   1.211   1.576   2.913 -0.2774  2.1488 -0.9406
 2510SOL    HW219164   1.165   1.566   2.766 -0.1460 -0.0419  0.3998
 2511SOL     OW19165   2.655   3.092  11.356  0.4713 -0.1890  0.1577
 2511SOL    HW119166   2.658   3.154  11.428 -1.7978  0.6675 -0.5113
 2511SOL    HW219167   2.576   3.127  11.316  0.3259  1.1585  1.6220
 2512SOL     OW19168   1.827   0.258   4.902 -0.6198 -0.1383 -0.4869
 2512SOL    HW119169   1.901   0.302   4.860 -0.0016  0.7678  1.5489
 2512SOL    HW219170   1.829   0.300   4.988  0.6503 -0.9257 -0.1361
 2513SOL     OW19171   0.722   2.665   8.288  0.6215 -0.3811 -0.3260
 2513SOL    HW119172   0.754   2.580   8.259  3.3970  0.3331  0.6470
 2513SOL    HW219173   0.689   2.715   8.213 -0.2576 -0.5599 -0.0549
 2514SOL     OW19174   2.989   2.551   7.139 -0.1432  0.0444  0.0428
 2514SOL    HW119175   2.912   2.494   7.148  1.6115 -2.5563 -1.5103
 2514SOL    HW219176   3.029   2.502   7.067  2.7943  2.0382  0.3119
 2515SOL     OW19177   2.270   3.325   6.708 -0.6305  0.4488  0.1481
 2515SOL    HW119178   2.216   3.321   6.787 -1.9719 -2.6979 -0.9070
 2515SOL    HW219179   2.315   3.408   6.720 -1.6073  1.1186 -0.8342
 2516SOL     OW19180   1.472   3.532   1.459  0.2912 -0.1469  0.4850
 2516SOL    HW119181   1.486   3.627   1.455  0.9797 -0.2944 -0.8845
 2516SOL    HW219182   1.500   3.515   1.549  4.2133  2.7686 -0.1592
 2517SOL     OW19183   1.760   4.384   7.346 -0.6212 -0.5089 -0.2609
 2517SOL    HW119184   1.752   4.420   7.258 -3.1002 -1.8274 -0.5550
 2517SOL    HW219185   1.688   4.428   7.391  0.5225  0.1307  0.9595
 2518SOL     OW19186   1.766   2.083   3.218 -0.1409 -0.8487 -0.4287
 2518SOL    HW119187   1.747   2.127   3.135 -1.0916 -0.7908 -0.1754
 2518SOL    HW219188   1.851   2.124   3.234 -0.1208 -1.6203  1.4483
 2519SOL     OW19189   0.658   0.299   6.205  0.0311 -0.0584 -0.4174
 2519SOL    HW119190   0.630   0.349   6.282  1.1557 -0.8718  0.5173
 2519SOL    HW219191   0.699   0.365   6.149 -0.2488 -0.8806 -1.5849
 2520SOL     OW19192   0.019   0.227   6.938 -0.3815 -0.1199 -0.0302
 2520SOL    HW119193   4.729   0.268   7.021 -0.0690  0.1917 -0.0941
 2520SOL    HW219194   0.080   0.165   6.977  0.1555  1.4708  1.6326
 2521SOL     OW19195   0.225   3.557   9.377 -0.1595  0.6321  0.1749
 2521SOL    HW119196   0.166   3.527   9.445 -0.2791  2.4154  0.8654
 2521SOL    HW219197   0.261   3.636   9.417  1.9261  0.4661 -1.3721
 2522SOL     OW19198   4.676   1.327  14.358 -0.2164 -0.3627 -0.1080
 2522SOL    HW119199   4.657   1.392  14.426  1.9090  1.9735 -1.7557
 2522SOL    HW219200   4.711   1.387  14.292 -0.1377 -0.0203  0.2382
 2523SOL     OW19201   3.840   2.602   6.431  0.6369  0.9410 -0.3184
 2523SOL    HW119202   3.934   2.589   6.414  0.9079  2.7876 -0.2337
 2523SOL    HW219203   3.831   2.691   6.463  1.2781  1.1197 -0.6402
 2524SOL     OW19204   0.611   3.007  15.732 -0.3603  0.2196 -0.0197
 2524SOL    HW119205   0.625   3.097  15.701  0.1270  0.0208 -0.3764
 2524SOL    HW219206   0.521   3.008  15.764 -0.2774 -2.9425  0.2930
 2525SOL     OW19207   1.613   0.386   5.589 -0.6210  0.5914  0.4021
 2525SOL    HW119208   1.650   0.303   5.559 -0.9127  0.4452  0.4494
 2525SOL    HW219209   1.569   0.353   5.667  0.8163 -1.1513  0.4748
 2526SOL     OW19210   0.653   1.585   8.768  0.3922 -0.0702 -0.1904
 2526SOL    HW119211   0.731   1.549   8.809  0.2781 -0.0881  0.0150
 2526SOL    HW219212   0.614   1.607   8.853  0.8523 -1.0291  0.2651
 2527SOL     OW19213   4.165   2.466  11.868  0.5544  0.0477  0.0934
 2527SOL    HW119214   4.143   2.440  11.779  1.4286 -1.0737  0.2105
 2527SOL    HW219215   4.202   2.388  11.909  0.2371  0.6578  1.5520
 2528SOL     OW19216   1.067   2.624   9.458 -0.1051  0.1570 -0.3363
 2528SOL    HW119217   1.084   2.665   9.373  1.9796  2.3486  1.1183
 2528SOL    HW219218   0.972   2.635   9.465 -0.2176 -0.1830 -1.3831
 2529SOL     OW19219   0.013   0.790  11.744 -0.0138  0.4612 -0.1849
 2529SOL    HW119220   4.663   0.791  11.787 -0.1757  0.4855 -0.5005
 2529SOL    HW219221   0.003   0.857  11.676 -0.4199  0.1424 -0.4452
 2530SOL     OW19222   0.633   0.043   2.103  0.3978 -0.5482 -0.1094
 2530SOL    HW119223   0.677   0.025   2.187  0.3267  2.1328  0.5131
 2530SOL    HW219224   0.565   0.097   2.144 -1.0819 -1.4804 -1.3669
 2531SOL     OW19225   0.947   1.223   6.711 -0.2314  0.4590  0.3919
 2531SOL    HW119226   0.952   1.312   6.747 -2.8430  0.3485  0.9781
 2531SOL    HW219227   0.890   1.177   6.773 -1.1040  0.5956 -0.3173
 2532SOL     OW19228   0.142   0.442   8.399  0.2182 -0.2641 -0.1207
 2532SOL    HW119229   0.106   0.449   8.488 -0.2323 -0.2248 -0.3079
 2532SOL    HW219230   0.230   0.424   8.433  0.2198 -0.3669 -0.1786
 2533SOL     OW19231   4.397   3.108   3.669 -0.5161  0.1373 -0.1676
 2533SOL    HW119232   4.438   3.073   3.589  0.6800 -1.0175  0.9479
 2533SOL    HW219233   4.305   3.103   3.643 -0.7669  1.0054  0.5657
 2534SOL     OW19234   0.401   2.560  17.129  0.0416  0.6715 -0.1116
 2534SOL    HW119235   0.321   2.590  17.171  0.3232 -2.7934  2.8898
 2534SOL    HW219236   0.375   2.490  17.069 -1.5967  1.3455 -0.1802
 2535SOL     OW19237   3.726   0.699   4.243  0.1009  0.0536  0.3831
 2535SOL    HW119238   3.688   0.670   4.326  1.7796 -0.3319  1.0206
 2535SOL    HW219239   3.644   0.697   4.193  0.5320 -0.7259 -0.2834
 2536SOL     OW19240   2.904   1.387   6.010  0.2613  0.3738 -0.3410
 2536SOL    HW119241   2.830   1.419   5.958 -1.1802  1.6637  2.4735
 2536SOL    HW219242   2.905   1.292   5.999  1.4553  0.3632 -0.1009
 2537SOL     OW19243   3.073   0.348   4.317 -0.8195 -0.1904 -0.4663
 2537SOL    HW119244   3.025   0.368   4.237  0.5543 -1.6473 -1.6666
 2537SOL    HW219245   3.086   0.253   4.322 -0.8843 -0.1819 -0.1128
 2538SOL     OW19246   3.748   3.832   9.034 -0.0248 -0.0787 -0.1805
 2538SOL    HW119247   3.747   3.755   8.978 -1.0642  0.7868 -1.3415
 2538SOL    HW219248   3.659   3.867   9.031  0.6778  1.8451  1.1907
 2539SOL     OW19249   0.737   1.483   2.784 -0.6069 -0.1350 -0.2249
 2539SOL    HW119250   0.654   1.451   2.819 -0.3296 -1.0495 -0.4044
 2539SOL    HW219251   0.805   1.461   2.848  0.2007  2.3794 -0.2218
 2540SOL     OW19252   0.484   4.438  10.876  0.1173  0.5531 -0.0460
 2540SOL    HW119253   0.521   4.360  10.917 -0.8474 -0.4573 -1.1099
 2540SOL    HW219254   0.563   4.480  10.841 -0.0944  1.8187  0.9499
 2541SOL     OW19255   0.552   3.006   8.817  0.7629  0.0079 -0.2742
 2541SOL    HW119256   0.577   2.967   8.901  0.3113  1.6051  0.6040
 2541SOL    HW219257   0.591   2.954   8.746 -0.2454  1.6485 -2.0315
 2542SOL     OW19258   3.752   1.247  17.477 -0.2833 -0.2080  0.3000
 2542SOL    HW119259   3.818   1.198  17.428  0.2269  2.3860 -1.6768
 2542SOL    HW219260   3.776   1.338  17.458  0.3559 -0.9994 -2.6795
 2543SOL     OW19261   1.267   3.174  10.749 -0.1108 -0.0334  0.1969
 2543SOL    HW119262   1.334   3.240  10.767  0.1012  0.0234 -0.8008
 2543SOL    HW219263   1.259   3.199  10.657 -0.9428 -2.1033 -0.3056
 2544SOL     OW19264   4.557   1.381   4.710 -0.1291 -0.5395  0.6670
 2544SOL    HW119265   4.607   1.320   4.655  0.3148 -1.1680  1.7740
 2544SOL    HW219266   4.587   1.370   4.800 -0.3362  0.2361  0.8325
 2545SOL     OW19267   3.724   0.793   3.834 -0.2591 -0.1507 -0.8922
 2545SOL    HW119268   3.727   0.881   3.873  2.0769 -0.5343 -0.2085
 2545SOL    HW219269   3.816   0.769   3.829 -0.3570 -0.7952  0.4953
 2546SOL     OW19270   4.008   1.775   7.941 -0.0542 -0.3658  0.0685
 2546SOL    HW119271   4.019   1.685   7.909  1.9488 -1.0162  2.5605
 2546SOL    HW219272   3.990   1.818   7.858 -0.3362  0.1894  0.4233
 2547SOL     OW19273   3.778   1.777  12.316 -0.0005 -0.1756  0.1186
 2547SOL    HW119274   3.795   1.690  12.279 -1.5722 -1.0232  1.4012
 2547SOL    HW219275   3.720   1.816  12.251 -1.5807 -0.4800  1.3490
 2548SOL     OW19276   4.677   3.800   9.438  0.5218 -0.0209  0.2655
 2548SOL    HW119277   4.717   3.786   9.524  0.0995 -1.3323  0.2592
 2548SOL    HW219278   4.596   3.749   9.440  1.4938 -1.5918 -0.0669
 2549SOL     OW19279   0.542   3.961   8.511  0.6373 -0.0972  0.1966
 2549SOL    HW119280   0.506   4.002   8.433 -0.9123 -3.0030 -0.6067
 2549SOL    HW219281   0.604   4.026   8.544  0.8185  0.7019 -1.7219
 2550SOL     OW19282   3.647   3.635   8.610  0.3868 -0.1095 -0.4090
 2550SOL    HW119283   3.578   3.700   8.614 -1.3190 -2.0702  1.7274
 2550SOL    HW219284   3.660   3.625   8.516 -2.5329 -1.1248 -0.6918
 2551SOL     OW19285   0.076   4.572   7.355 -0.4959  0.1153 -0.0293
 2551SOL    HW119286   0.110   4.482   7.353  1.6930  0.9258  1.1200
 2551SOL    HW219287   0.145   4.608   7.411 -1.8685 -0.6908  2.1600
 2552SOL     OW19288   1.407   1.384   9.468 -0.1795 -0.4004 -0.0041
 2552SOL    HW119289   1.475   1.398   9.402 -1.4319 -1.4713 -1.5234
 2552SOL    HW219290   1.453   1.334   9.535  0.3566  0.2120  0.0921
 2553SOL     OW19291   1.795   2.247  15.385  0.0325  0.2144 -0.0436
 2553SOL    HW119292   1.783   2.193  15.463 -1.1822  0.4470 -0.0687
 2553SOL    HW219293   1.887   2.272  15.392 -0.1280  1.2327 -1.4617
 2554SOL     OW19294   0.687   3.714   5.964  0.1759  0.0668  0.8451
 2554SOL    HW119295   0.701   3.656   6.039 -0.0198 -0.6483  0.3257
 2554SOL    HW219296   0.700   3.795   6.014  2.1984  1.1215 -1.4175
 2555SOL     OW19297   1.795   3.792   4.613 -0.5802 -0.5601 -0.2199
 2555SOL    HW119298   1.831   3.790   4.701 -0.1174 -0.4487 -0.4030
 2555SOL    HW219299   1.759   3.704   4.610 -1.4847 -0.1542 -1.3175
 2556SOL     OW19300   3.618   3.254  11.811 -0.2061  0.3530  0.3255
 2556SOL    HW119301   3.710   3.239  11.833 -0.9638 -2.3771  1.6021
 2556SOL    HW219302   3.594   3.177  11.760  0.1026  0.9754 -0.7712
 2557SOL     OW19303   1.121   1.713   7.764 -0.1312 -0.0819  0.2596
 2557SOL    HW119304   1.101   1.621   7.780  3.9570 -0.8171  1.2485
 2557SOL    HW219305   1.117   1.745   7.854  0.0518  1.1719 -0.1810
 2558SOL     OW19306   2.773   0.863   7.123 -0.9375 -0.6685 -0.0864
 2558SOL    HW119307   2.816   0.913   7.053  3.4726 -0.8827  2.4681
 2558SOL    HW219308   2.762   0.932   7.189 -1.2956 -0.3734 -0.4570
 2559SOL     OW19309   2.032   3.252   4.666  0.3724  0.0930 -0.2723
 2559SOL    HW119310   2.037   3.347   4.655 -0.0320  0.3445  1.8132
 2559SOL    HW219311   2.082   3.238   4.746 -2.6409  1.1422  1.7703
 2560SOL     OW19312   2.820   2.130   1.983  0.4861  0.5092  0.5381
 2560SOL    HW119313   2.907   2.170   1.988  0.9903 -0.4555 -0.5362
 2560SOL    HW219314   2.766   2.208   1.969  0.0331 -0.4819 -3.1833
 2561SOL     OW19315   3.421   0.514  11.319  0.0948 -0.0408 -0.0970
 2561SOL    HW119316   3.400   0.559  11.238 -0.5676 -1.7784 -0.8797
 2561SOL    HW219317   3.492   0.573  11.347  0.3378 -1.1519  1.6627
 2562SOL     OW19318   4.131   4.118  11.776 -0.2170 -0.3342 -0.2463
 2562SOL    HW119319   4.145   4.035  11.729 -1.2376 -1.2021  0.9726
 2562SOL    HW219320   4.219   4.127  11.812  0.5547 -0.0399 -2.2211
 2563SOL     OW19321   0.116   4.460   2.653  0.0640 -0.7428 -0.5536
 2563SOL    HW119322   0.039   4.426   2.608 -0.9724 -0.7233  1.2270
 2563SOL    HW219323   0.198   4.436   2.608  1.0746 -2.7564  2.3504
 2564SOL     OW19324   3.337   3.917   5.793 -0.0345 -0.2910 -0.0411
 2564SOL    HW119325   3.344   3.832   5.750  0.4584  1.5206 -3.5529
 2564SOL    HW219326   3.354   3.975   5.719 -2.4692 -0.9874 -1.1470
 2565SOL     OW19327   2.628   4.001   5.052  0.1187  0.4764 -0.0482
 2565SOL    HW119328   2.664   3.913   5.059 -1.5758 -0.3758 -2.0284
 2565SOL    HW219329   2.698   4.051   5.010  0.7584 -0.2020  0.2181
 2566SOL     OW19330   2.981   0.339   3.129  0.2907 -0.2336  0.1503
 2566SOL    HW119331   2.991   0.256   3.175 -2.2017 -0.5135  0.1528
 2566SOL    HW219332   2.888   0.341   3.106  0.3089 -0.3233  0.0676
 2567SOL     OW19333   4.196   2.043  10.872 -0.6686  0.0933 -0.0534
 2567SOL    HW119334   4.194   2.131  10.911 -1.6452  0.5867 -1.2014
 2567SOL    HW219335   4.272   2.004  10.915 -0.4314  0.7163  0.0903
 2568SOL     OW19336   2.117   4.715   3.987  0.2760  0.2224 -0.3247
 2568SOL    HW119337   2.121   4.720   4.082 -2.4511 -0.2833 -0.1969
 2568SOL    HW219338   2.109   0.074   3.970 -1.6730 -0.0681 -0.9981
 2569SOL     OW19339   4.252   1.217   5.955 -0.3139  0.0727  0.5012
 2569SOL    HW119340   4.314   1.286   5.981 -0.6533 -0.2622  2.2491
 2569SOL    HW219341   4.208   1.199   6.038 -0.5692  0.9151  0.5532
 2570SOL     OW19342   2.431   0.934   8.659  0.1870 -0.1525 -0.1688
 2570SOL    HW119343   2.459   0.850   8.621  1.5465 -0.5286  1.6488
 2570SOL    HW219344   2.429   0.990   8.581 -1.9403 -1.1075 -0.7961
 2571SOL     OW19345   4.013   0.408   6.024 -0.0840  0.0140  0.1107
 2571SOL    HW119346   4.000   0.502   6.010  0.3815  0.0478 -0.0805
 2571SOL    HW219347   4.074   0.408   6.099 -1.0701  1.5574  0.9221
 2572SOL     OW19348   4.603   4.359   2.273  0.1646 -0.4857  0.0020
 2572SOL    HW119349   4.584   4.288   2.212  0.8885 -0.4872 -0.2259
 2572SOL    HW219350   4.625   4.424   2.206 -0.4744 -2.3754 -2.0614
 2573SOL     OW19351   2.263   0.856   7.144 -0.1989  0.7540 -0.6275
 2573SOL    HW119352   2.297   0.944   7.131  1.3315  0.0370 -1.4650
 2573SOL    HW219353   2.333   0.819   7.198 -0.0673  1.3985 -0.3684
 2574SOL     OW19354   1.899   0.858  10.089 -0.1233 -0.5196 -0.1159
 2574SOL    HW119355   1.804   0.845  10.094 -0.4359  2.2370  1.0493
 2574SOL    HW219356   1.889   0.951  10.107  1.2508 -0.1096 -1.4827
 2575SOL     OW19357   1.824   2.778   8.289 -0.0162  0.2211  0.0209
 2575SOL    HW119358   1.886   2.844   8.260 -0.1784 -0.9392 -2.9013
 2575SOL    HW219359   1.775   2.829   8.354 -0.1359 -1.3379  1.1829
 2576SOL     OW19360   1.116   3.902  10.519  0.2440 -0.1168 -0.0969
 2576SOL    HW119361   1.105   3.914  10.613 -1.6923  1.9264 -0.5781
 2576SOL    HW219362   1.210   3.886  10.515  0.1676 -0.4630 -0.5201
 2577SOL     OW19363   0.103   3.983   3.441 -0.0112  0.4538 -0.2583
 2577SOL    HW119364   0.070   3.953   3.356 -0.9287 -1.7673  0.8763
 2577SOL    HW219365   0.094   4.077   3.429  0.4147  0.8915  2.9513
 2578SOL     OW19366   2.841   0.543   3.375  0.2863  0.4299 -0.0127
 2578SOL    HW119367   2.860   0.459   3.333 -0.0767  0.6415 -0.5976
 2578SOL    HW219368   2.793   0.577   3.300  1.8490  2.0605 -0.2874
 2579SOL     OW19369   4.196   0.284  13.971 -0.3484 -0.2791 -0.6329
 2579SOL    HW119370   4.261   0.230  14.015 -0.0882  0.0838 -0.5670
 2579SOL    HW219371   4.251   0.354  13.935 -1.3368  0.6766 -0.2962
 2580SOL     OW19372   3.801   4.011   9.324  0.1549 -0.0442 -0.1169
 2580SOL    HW119373   3.777   3.920   9.340 -1.6484  0.5219  0.4042
 2580SOL    HW219374   3.714   4.045   9.302  0.9898  1.9270 -0.4236
 2581SOL     OW19375   3.065   4.624   8.636  0.2915  0.2609 -0.1278
 2581SOL    HW119376   3.082   4.714   8.663  0.6179 -0.2380  1.3102
 2581SOL    HW219377   2.982   4.639   8.590  0.2168  0.7554  0.1709
 2582SOL     OW19378   0.442   3.688   9.190 -0.6144  0.6763  0.0910
 2582SOL    HW119379   0.445   3.677   9.285 -0.2941 -0.7314 -0.0864
 2582SOL    HW219380   0.418   3.781   9.188 -0.1545  0.8280  1.7035
 2583SOL     OW19381   4.640   0.689   4.346  0.2936 -0.5742  0.4008
 2583SOL    HW119382   4.629   0.606   4.391  1.9432 -0.2369  1.4163
 2583SOL    HW219383   4.600   0.660   4.264  0.2366  1.0680 -0.1530
 2584SOL     OW19384   3.284   2.785   8.730  0.1675 -0.1949 -0.1479
 2584SOL    HW119385   3.189   2.790   8.714  0.0381  0.2822  0.7689
 2584SOL    HW219386   3.305   2.695   8.706 -0.0884  0.1639 -1.7264
 2585SOL     OW19387   4.485   3.017  10.255 -0.2367  0.4991 -0.4329
 2585SOL    HW119388   4.499   3.079  10.327 -0.7578  1.1618 -0.8956
 2585SOL    HW219389   4.429   2.962  10.309 -0.5912  1.0673 -0.2228
 2586SOL     OW19390   2.411   1.950  17.107 -0.8839  0.3427 -0.6449
 2586SOL    HW119391   2.388   2.038  17.135 -0.2235 -0.3291  2.0199
 2586SOL    HW219392   2.405   1.961  17.012 -2.3585  1.3832 -0.4225
 2587SOL     OW19393   4.081   3.090   2.122  0.3437 -0.9311  0.1962
 2587SOL    HW119394   4.023   3.022   2.088  1.4638 -2.0816  0.5630
 2587SOL    HW219395   4.052   3.167   2.073  0.4482 -0.5480  0.7416
 2588SOL     OW19396   1.830   0.468   0.132  0.0196 -0.1445  0.1615
 2588SOL    HW119397   1.893   0.527   0.173 -0.0038 -0.5622  0.7978
 2588SOL    HW219398   1.884   0.433   0.060 -0.4483 -1.1421  0.3007
 2589SOL     OW19399   1.453   0.624  10.180 -0.4080  0.1173  0.5328
 2589SOL    HW119400   1.384   0.598  10.119  1.3733 -1.1346 -0.9551
 2589SOL    HW219401   1.511   0.551  10.159  0.2036 -0.3801  3.9095
 2590SOL     OW19402   0.365   3.948   2.646  0.4164  0.5547  0.2908
 2590SOL    HW119403   0.286   4.002   2.650 -1.3250 -1.9945  0.2647
 2590SOL    HW219404   0.345   3.892   2.722 -1.0553  2.6404  1.4350
 2591SOL     OW19405   0.766   1.848   6.539  0.1714  0.4260 -0.1527
 2591SOL    HW119406   0.757   1.882   6.627  2.6128 -1.6756  0.9293
 2591SOL    HW219407   0.862   1.852   6.533  0.1473  0.9802 -0.1741
 2592SOL     OW19408   3.130   0.851   4.558  0.4825  0.4684 -0.2102
 2592SOL    HW119409   3.069   0.839   4.485  0.2397 -1.0461  0.2269
 2592SOL    HW219410   3.147   0.944   4.570 -0.3743  0.3951  1.6307
 2593SOL     OW19411   4.160   2.257  14.127  0.4144  0.2487 -0.3387
 2593SOL    HW119412   4.238   2.310  14.107  0.1378 -0.1227 -2.3489
 2593SOL    HW219413   4.108   2.309  14.189 -2.5450  0.1407 -2.7192
 2594SOL     OW19414   1.456   0.828   0.662  0.8727 -0.3490  0.2804
 2594SOL    HW119415   1.543   0.849   0.630 -0.1898  1.9608 -1.0660
 2594SOL    HW219416   1.417   0.913   0.644  0.7393 -0.7349 -1.2815
 2595SOL     OW19417   3.680   1.738   3.752 -0.1647 -0.4541 -0.2651
 2595SOL    HW119418   3.729   1.661   3.722  0.7249  0.2759 -0.7084
 2595SOL    HW219419   3.614   1.739   3.683 -1.8695  2.5622  1.4251
 2596SOL     OW19420   2.312   0.138  11.857  0.3203  0.1629 -0.7534
 2596SOL    HW119421   2.354   0.068  11.907 -1.0698  0.5434  0.9467
 2596SOL    HW219422   2.339   0.218  11.901  0.4068  0.9906 -2.2861
 2597SOL     OW19423   3.821   4.065   1.567 -0.0897 -0.1140 -0.4003
 2597SOL    HW119424   3.911   4.057   1.534  0.0659  0.2167 -0.0618
 2597SOL    HW219425   3.844   4.069   1.660 -1.1440  1.6808 -0.2061
 2598SOL     OW19426   0.538   2.599   9.469 -0.0686  0.1985 -0.4725
 2598SOL    HW119427   0.575   2.515   9.442  1.2916  0.3859  0.8387
 2598SOL    HW219428   0.464   2.581   9.526  1.6454  2.5460  2.4538
 2599SOL     OW19429   3.415   1.075  13.329 -0.3471  0.3066  0.0351
 2599SOL    HW119430   3.462   1.147  13.369 -1.0021 -0.2050  1.7345
 2599SOL    HW219431   3.430   1.091  13.236  1.5026  2.2474  0.6770
 2600SOL     OW19432   4.487   2.955   6.251 -0.1364 -0.1310 -0.1745
 2600SOL    HW119433   4.394   2.929   6.252  0.5450 -2.4362  1.9737
 2600SOL    HW219434   4.497   3.012   6.327  1.5739 -1.7286  0.7723
 2601SOL     OW19435   2.396   3.991   2.074  0.8193 -0.2609  0.2712
 2601SOL    HW119436   2.321   4.041   2.041  0.9980  0.8099  1.4868
 2601SOL    HW219437   2.454   4.009   2.000  2.2873 -3.0745  0.7173
 2602SOL     OW19438   0.750   3.368  11.191 -0.1002  0.3093  0.3354
 2602SOL    HW119439   0.755   3.365  11.286  1.5621  1.1054  0.2664
 2602SOL    HW219440   0.811   3.439  11.172 -0.7954  0.0957 -2.7513
 2603SOL     OW19441   1.083   3.195   6.463 -0.0123 -0.2682  0.4109
 2603SOL    HW119442   0.994   3.206   6.498 -0.3297 -2.8190  0.4171
 2603SOL    HW219443   1.120   3.135   6.529  2.0258  1.0535  0.4365
 2604SOL     OW19444   1.965   4.531   3.394 -0.1607 -0.2085  0.0467
 2604SOL    HW119445   2.052   4.539   3.432 -0.6941  0.9173  1.0277
 2604SOL    HW219446   1.924   4.601   3.445 -0.7055  1.2729 -2.4341
 2605SOL     OW19447   3.035   3.310   5.181  0.4217  0.7872 -0.3350
 2605SOL    HW119448   3.096   3.341   5.248 -2.9922 -0.0201  3.1695
 2605SOL    HW219449   2.964   3.370   5.204 -0.0131  0.0067  0.3842
 2606SOL     OW19450   2.632   2.188  10.120  0.5003 -0.6096 -0.6652
 2606SOL    HW119451   2.595   2.235  10.045 -0.8548 -0.5178  0.0842
 2606SOL    HW219452   2.648   2.253  10.188 -3.5333  0.8594 -1.1590
 2607SOL     OW19453   3.687   0.667   0.010 -0.1136  0.3550 -0.2112
 2607SOL    HW119454   3.616   0.719   0.048  0.0559 -0.5479  1.3437
 2607SOL    HW219455   3.753   0.678   0.079  0.0677 -0.0799 -0.3173
 2608SOL     OW19456   4.612   2.175   5.315 -0.5734 -0.2300 -0.4531
 2608SOL    HW119457   4.628   2.095   5.264  0.7319  0.5282 -1.2390
 2608SOL    HW219458   4.588   2.234   5.244  0.5275  0.9517  0.1700
 2609SOL     OW19459   2.102   3.022   1.435 -0.6668 -0.1901 -0.5883
 2609SOL    HW119460   2.118   2.936   1.473 -0.8014  0.3505  0.7066
 2609SOL    HW219461   2.132   3.075   1.508 -1.0451 -1.5026  0.5120
 2610SOL     OW19462   4.477   2.392   4.003 -0.3080  0.8024 -0.2587
 2610SOL    HW119463   4.502   2.440   4.082 -0.0331  0.7710 -0.3272
 2610SOL    HW219464   4.382   2.397   4.008 -0.3475  0.3535 -0.6655
 2611SOL     OW19465   2.291   2.874   4.534  0.2514 -0.2765 -0.4731
 2611SOL    HW119466   2.255   2.941   4.475  0.1932  2.1452  2.3107
 2611SOL    HW219467   2.274   2.904   4.623 -0.8254 -2.5269  0.0794
 2612SOL     OW19468   2.803   1.124  13.742 -0.6297  0.2338  0.2120
 2612SOL    HW119469   2.715   1.161  13.735 -0.7433  0.0296  0.5600
 2612SOL    HW219470   2.793   1.060  13.672 -1.3810 -0.5530  1.0520
 2613SOL     OW19471   0.694   0.245  13.977 -0.5636  0.2675  0.5351
 2613SOL    HW119472   0.697   0.311  13.908  1.4067  0.3577  0.7247
 2613SOL    HW219473   0.769   0.269  14.030 -0.9718  0.0185  1.2293
 2614SOL     OW19474   0.630   2.694   7.264  0.3853 -0.3283 -0.3024
 2614SOL    HW119475   0.657   2.752   7.334 -0.9689 -1.0680  0.8298
 2614SOL    HW219476   0.700   2.700   7.199  0.4651  1.4216 -0.0461
 2615SOL     OW19477   4.693   3.482   4.676 -0.1801  0.0629 -0.4676
 2615SOL    HW119478   0.023   3.475   4.746 -0.2194  1.6113 -0.2730
 2615SOL    HW219479   4.616   3.445   4.717  1.1797 -0.7134  1.3836
 2616SOL     OW19480   0.259   2.883   6.581 -0.1452 -0.0046 -0.2038
 2616SOL    HW119481   0.197   2.839   6.638  0.7739  0.4296  1.1369
 2616SOL    HW219482   0.313   2.814   6.544  2.1701  0.1596  2.8437
 2617SOL     OW19483   0.465   1.455   5.187 -0.4930 -0.5100  0.0803
 2617SOL    HW119484   0.554   1.425   5.209  0.1096  1.1790 -0.0688
 2617SOL    HW219485   0.483   1.543   5.156  2.2648 -1.0841  0.0543
 2618SOL     OW19486   0.662   3.046   8.118 -0.0412  0.1889 -0.0765
 2618SOL    HW119487   0.741   3.100   8.116  0.8734 -1.2494 -1.9212
 2618SOL    HW219488   0.691   2.974   8.062 -2.8302 -0.9447 -0.0756
 2619SOL     OW19489   4.348   3.355   5.894  0.4313 -0.3281 -0.3377
 2619SOL    HW119490   4.285   3.284   5.891 -0.3300  0.3745 -0.9325
 2619SOL    HW219491   4.363   3.366   5.800  1.4534 -1.3880 -0.2925
 2620SOL     OW19492   1.095   2.461  17.030 -0.5168 -0.1094  0.3748
 2620SOL    HW119493   1.121   2.446  17.121  0.9114  2.0561  0.3203
 2620SOL    HW219494   1.036   2.387  17.012 -0.3982 -0.1733  0.2525
 2621SOL     OW19495   3.728   0.614  11.371 -0.0238  0.0103 -0.0554
 2621SOL    HW119496   3.782   0.560  11.313 -0.3209  0.8305 -1.0907
 2621SOL    HW219497   3.758   0.605  11.462 -0.6361  0.4948  0.1944
 2622SOL     OW19498   3.760   2.030  10.895  0.5715 -0.7132 -0.3280
 2622SOL    HW119499   3.778   2.041  10.801  1.9658  0.9987  0.1448
 2622SOL    HW219500   3.799   2.115  10.915  0.1958 -0.8274  0.8551
 2623SOL     OW19501   3.156   3.538   7.780  0.2973 -0.9736  0.0720
 2623SOL    HW119502   3.078   3.572   7.823  1.7986  1.6227  0.7096
 2623SOL    HW219503   3.190   3.615   7.735 -0.0397 -1.6331 -1.2882
 2624SOL     OW19504   3.432   2.490   3.714 -0.0726 -0.2290 -0.0309
 2624SOL    HW119505   3.348   2.458   3.748  0.3409 -2.0323 -0.7375
 2624SOL    HW219506   3.477   2.406   3.708 -2.7533 -1.7645  1.4490
 2625SOL     OW19507   0.035   4.622   6.009 -0.4122 -0.1366 -0.0705
 2625SOL    HW119508   0.117   4.670   5.999  0.5875 -1.4320  1.8240
 2625SOL    HW219509   0.012   4.625   6.101  0.9528  0.7771  0.2470
 2626SOL     OW19510   2.141   0.617   8.788  0.7309 -0.2951 -0.4051
 2626SOL    HW119511   2.225   0.570   8.786  1.8640  1.6554  1.3207
 2626SOL    HW219512   2.120   0.627   8.881  1.9067  0.7351 -0.2471
 2627SOL     OW19513   4.653   1.352   9.695 -0.1222  0.5010  0.7427
 2627SOL    HW119514   4.628   1.276   9.641 -0.9022  1.3254 -0.0679
 2627SOL    HW219515   4.718   1.317   9.755 -0.4950  2.5036  2.3072
 2628SOL     OW19516   2.782   0.718   3.588  0.2970  0.4060 -0.3226
 2628SOL    HW119517   2.787   0.642   3.530 -1.4400  1.2865 -1.6490
 2628SOL    HW219518   2.689   0.713   3.613  0.8097 -0.7345  1.3443
 2629SOL     OW19519   2.212   1.947   5.050  0.2066 -0.1826 -0.3877
 2629SOL    HW119520   2.307   1.942   5.036  0.1020 -3.3015  0.1320
 2629SOL    HW219521   2.211   2.037   5.083  1.2624 -0.3964  0.2341
 2630SOL     OW19522   1.343   3.170  14.832  0.4018  0.3818  0.3926
 2630SOL    HW119523   1.282   3.118  14.884  0.8860 -0.1756  0.4029
 2630SOL    HW219524   1.324   3.254  14.873  1.4648  0.9157 -0.2289
 2631SOL     OW19525   3.211   1.096   0.553 -0.0326 -0.4952  0.1603
 2631SOL    HW119526   3.256   1.013   0.571 -0.1827 -0.0957  2.3632
 2631SOL    HW219527   3.208   1.138   0.639  0.0925  1.1831 -0.6472
 2632SOL     OW19528   2.857   1.500  16.065 -0.5792 -0.1559 -0.4313
 2632SOL    HW119529   2.763   1.485  16.060 -0.0235 -4.1150  1.3404
 2632SOL    HW219530   2.887   1.511  15.975 -0.6730 -1.4483 -0.6096
 2633SOL     OW19531   4.682   1.092   2.067 -0.1958  0.1128  0.3057
 2633SOL    HW119532   0.005   1.078   1.993 -1.0711 -0.6855 -0.2322
 2633SOL    HW219533   4.652   1.182   2.055  1.6006  0.7753  0.8803
 2634SOL     OW19534   1.423   0.004   4.833 -0.0426  0.1920 -0.0937
 2634SOL    HW119535   1.440   4.696   4.917  2.3395  2.1483  0.4344
 2634SOL    HW219536   1.504   0.046   4.804  0.6894  0.0753  1.7643
 2635SOL     OW19537   1.515   1.638   0.048  0.4911 -0.3203  0.0670
 2635SOL    HW119538   1.483   1.574  17.724  1.3152  0.0282 -0.7107
 2635SOL    HW219539   1.610   1.631   0.053  0.5404 -0.3255 -1.0130
 2636SOL     OW19540   1.724   3.863   3.200 -0.7199 -0.3240 -0.1464
 2636SOL    HW119541   1.675   3.861   3.118  0.0865 -1.7511 -0.5949
 2636SOL    HW219542   1.733   3.770   3.220  0.5882 -0.3989 -1.0779
 2637SOL     OW19543   0.381   3.392   9.156  0.3632 -0.2882  0.1064
 2637SOL    HW119544   0.357   3.369   9.245 -2.4034  1.9543 -0.0450
 2637SOL    HW219545   0.370   3.487   9.160  0.6246 -0.3657  2.2564
 2638SOL     OW19546   1.161   3.539  12.162  0.1069  0.1814 -0.4000
 2638SOL    HW119547   1.097   3.603  12.195  2.1986  1.4813  1.1053
 2638SOL    HW219548   1.146   3.466  12.222 -0.3108 -0.2900 -1.0796
 2639SOL     OW19549   3.730   3.667   7.930  0.4955  0.2160  0.9164
 2639SOL    HW119550   3.723   3.742   7.989  1.5332  1.8695 -1.1127
 2639SOL    HW219551   3.661   3.611   7.966  0.6769  1.0879  2.5944
 2640SOL     OW19552   4.646   0.530   1.697 -0.0050  0.0889  0.1053
 2640SOL    HW119553   4.693   0.567   1.623  1.3935 -3.5746 -0.8199
 2640SOL    HW219554   4.575   0.595   1.704  0.8653  1.1229 -0.7654
 2641SOL     OW19555   2.725   4.142   2.491  0.5226  0.2765  0.2757
 2641SOL    HW119556   2.673   4.078   2.539 -0.1791  0.4466 -0.2541
 2641SOL    HW219557   2.735   4.202   2.565 -1.2328  1.6259 -0.5728
 2642SOL     OW19558   0.157   3.024   1.718 -0.2047 -0.0658  0.5099
 2642SOL    HW119559   0.149   3.047   1.810  1.7954  3.2833 -0.1552
 2642SOL    HW219560   0.175   2.930   1.725 -0.7339 -0.0134  2.5939
 2643SOL     OW19561   3.753   3.732   5.385 -0.1183 -0.1821  0.2294
 2643SOL    HW119562   3.696   3.791   5.435  1.9739  0.5161  1.7769
 2643SOL    HW219563   3.832   3.755   5.434 -1.3186  3.2762  0.5232
 2644SOL     OW19564   4.354   2.478   6.500  0.7425  0.4346 -0.0546
 2644SOL    HW119565   4.388   2.456   6.587 -1.3264  0.4505  0.7565
 2644SOL    HW219566   4.408   2.556   6.489 -2.0361  2.3959  0.2100
 2645SOL     OW19567   0.910   4.575   1.614 -0.0608  0.3949  0.2071
 2645SOL    HW119568   0.862   4.523   1.551  0.3888  0.4774 -0.2031
 2645SOL    HW219569   0.880   4.664   1.597 -0.1047  0.4693  0.6762
 2646SOL     OW19570   1.041   4.544   9.099 -0.1733 -0.3266  0.1874
 2646SOL    HW119571   1.055   4.576   9.188 -2.8453  0.1859  0.4035
 2646SOL    HW219572   1.053   4.450   9.112 -1.2749 -0.6447 -1.0706
 2647SOL     OW19573   1.436   0.175  13.757 -0.2147  0.1229  0.4666
 2647SOL    HW119574   1.423   0.205  13.847  0.7449 -0.4164  0.7824
 2647SOL    HW219575   1.443   0.254  13.704  1.9388  0.5086  1.3366
 2648SOL     OW19576   1.271   4.562   3.914 -0.4233 -0.6335 -0.0236
 2648SOL    HW119577   1.275   4.483   3.967  2.6450  0.9574  2.0727
 2648SOL    HW219578   1.337   4.535   3.850  0.0904  1.4466 -0.3867
 2649SOL     OW19579   1.957   2.882   3.982  0.1507 -0.0629 -0.3951
 2649SOL    HW119580   1.946   2.966   3.939  0.3128  0.6299  0.8940
 2649SOL    HW219581   1.892   2.894   4.051 -0.0737  2.5637 -1.0620
 2650SOL     OW19582   2.502   3.236   8.754 -0.4686 -0.4096 -0.0621
 2650SOL    HW119583   2.491   3.147   8.789 -1.6464  0.6113  2.1529
 2650SOL    HW219584   2.519   3.215   8.662 -3.7310 -0.4288 -0.6532
 2651SOL     OW19585   2.194   1.699   3.761 -0.9322 -0.2675  0.0760
 2651SOL    HW119586   2.231   1.663   3.842 -1.5047  0.1452  0.5173
 2651SOL    HW219587   2.108   1.657   3.760 -1.2557  0.3795  0.9686
 2652SOL     OW19588   4.063   4.612  13.011 -0.2158 -0.0416  0.3769
 2652SOL    HW119589   4.053   4.553  12.936  2.0505  1.6347 -1.2466
 2652SOL    HW219590   4.020   4.558  13.078 -0.7801  0.7464  0.6466
 2653SOL     OW19591   0.832   4.353   0.310  0.4549  0.3839 -0.1421
 2653SOL    HW119592   0.822   4.315   0.397  1.3899 -1.1337 -0.7127
 2653SOL    HW219593   0.888   4.429   0.327 -0.1420  0.6745  0.5491
 2654SOL     OW19594   0.658   0.704  11.226 -0.1118  0.2583  0.7314
 2654SOL    HW119595   0.753   0.703  11.234 -0.1031  1.0372  0.7576
 2654SOL    HW219596   0.631   0.613  11.214  1.9599 -0.4242  1.3087
 2655SOL     OW19597   4.560   0.679  10.802  0.1385  0.8384 -0.5116
 2655SOL    HW119598   4.631   0.708  10.860 -0.2418 -0.1364  0.4341
 2655SOL    HW219599   4.617   0.646  10.732  0.0326 -1.7229  0.6055
 2656SOL     OW19600   2.710   1.532   1.286  0.2193  0.0819  0.4732
 2656SOL    HW119601   2.712   1.472   1.211 -1.5272  2.3467 -1.3644
 2656SOL    HW219602   2.804   1.544   1.293 -0.2222  1.0563  4.7285
 2657SOL     OW19603   1.314   1.796   3.331 -0.0440  0.3238 -0.4019
 2657SOL    HW119604   1.348   1.878   3.294  0.6058 -0.0148 -0.5517
 2657SOL    HW219605   1.299   1.828   3.420  2.3474  2.5371 -0.7987
 2658SOL     OW19606   2.538   2.521   8.286  0.2114  0.3643 -0.2698
 2658SOL    HW119607   2.469   2.568   8.333 -0.3739  1.9076 -2.6552
 2658SOL    HW219608   2.573   2.461   8.351 -3.0395 -0.6838  0.5015
 2659SOL     OW19609   2.438   0.171  11.607 -0.0423 -0.0409 -0.4665
 2659SOL    HW119610   2.389   0.172  11.689  0.7731 -1.8959  0.0389
 2659SOL    HW219611   2.501   0.243  11.616 -2.0581  1.6723 -0.0261
 2660SOL     OW19612   0.940   2.658   8.867  0.1671  0.2584  0.2043
 2660SOL    HW119613   0.905   2.723   8.928  1.6900 -0.0578  1.4049
 2660SOL    HW219614   0.857   2.623   8.836 -0.8713  2.2442  0.7426
 2661SOL     OW19615   4.472   4.380   4.316  0.0819  0.1023 -0.0296
 2661SOL    HW119616   4.541   4.316   4.299  0.6183  0.4895  0.6739
 2661SOL    HW219617   4.418   4.322   4.370 -0.7299  2.0899  1.3034
 2662SOL     OW19618   1.792   4.662   5.959  0.0362 -0.4433 -0.3480
 2662SOL    HW119619   1.710   4.653   6.007  1.1879  0.0268  1.6659
 2662SOL    HW219620   1.857   4.657   6.029  1.0889  0.8003 -1.2185
 2663SOL     OW19621   4.058   4.053   0.806 -0.5597  0.2714 -0.0579
 2663SOL    HW119622   4.052   4.148   0.808  0.8823  0.3722 -0.6936
 2663SOL    HW219623   4.140   4.043   0.758  0.8344 -2.6892  2.9280
 2664SOL     OW19624   1.734   2.042  11.099  0.3752  0.3055 -0.5380
 2664SOL    HW119625   1.640   2.057  11.108  0.7995  1.2726  2.3179
 2664SOL    HW219626   1.756   2.047  11.192  0.9658 -3.3688 -0.4452
 2665SOL     OW19627   4.270   2.511   3.065 -0.1070  0.1785  0.6653
 2665SOL    HW119628   4.294   2.427   3.027  0.4767  0.7451 -0.2111
 2665SOL    HW219629   4.359   2.545   3.076  0.6730 -1.4502 -0.5885
 2666SOL     OW19630   2.161   1.650  15.051  0.2533 -0.1859  0.3346
 2666SOL    HW119631   2.197   1.736  15.030 -0.6879  0.5953  1.9058
 2666SOL    HW219632   2.177   1.658  15.145 -1.2722 -0.0952  0.5919
 2667SOL     OW19633   0.791   0.391   8.712 -0.1750  0.4687 -1.0958
 2667SOL    HW119634   0.810   0.304   8.676  1.6691  0.4797 -0.1612
 2667SOL    HW219635   0.851   0.390   8.786 -0.2512 -2.2272 -1.0724
 2668SOL     OW19636   1.054   0.706  10.401 -0.7369 -0.1559 -0.5429
 2668SOL    HW119637   1.041   0.617  10.370  0.7156 -0.1254 -1.2527
 2668SOL    HW219638   1.123   0.729  10.338 -0.5477  2.6551  0.6618
 2669SOL     OW19639   3.173   3.058   8.407 -0.0067  0.2246 -0.3671
 2669SOL    HW119640   3.105   2.991   8.400  0.4123 -0.2075 -0.2707
 2669SOL    HW219641   3.137   3.123   8.468  1.7782 -1.3662  2.4019
 2670SOL     OW19642   0.713   0.300   2.995  0.1230  0.3127  0.8642
 2670SOL    HW119643   0.638   0.343   2.954 -0.3092 -0.9494  0.3288
 2670SOL    HW219644   0.676   0.213   3.008  0.7466 -0.0095  0.5152
 2671SOL     OW19645   0.523   2.185  13.518  0.5373 -0.2398  0.7952
 2671SOL    HW119646   0.511   2.094  13.490  1.5287 -0.6056  1.5638
 2671SOL    HW219647   0.559   2.171  13.605 -2.5196 -1.3389  1.8901
 2672SOL     OW19648   0.012   3.929   5.435 -0.0903 -1.3112 -0.1899
 2672SOL    HW119649   4.683   3.918   5.366 -0.3411 -0.7434 -0.0470
 2672SOL    HW219650   0.057   3.845   5.445  1.8181 -0.0908  1.6896
 2673SOL     OW19651   0.795   4.065   6.751 -0.5097  0.3826 -0.3854
 2673SOL    HW119652   0.756   4.145   6.715 -0.2700  0.7770  0.2422
 2673SOL    HW219653   0.727   4.015   6.795 -0.0253 -0.3925 -0.5206
 2674SOL     OW19654   0.491   2.543   6.085  0.5741 -0.2371 -0.7054
 2674SOL    HW119655   0.401   2.567   6.061 -0.1545 -1.4942  0.7504
 2674SOL    HW219656   0.540   2.611   6.039 -1.6699  1.7801 -0.1195
 2675SOL     OW19657   1.856   1.199   8.649 -0.5554  0.7954 -0.5308
 2675SOL    HW119658   1.896   1.286   8.638 -0.5607  0.8872  0.1775
 2675SOL    HW219659   1.891   1.182   8.736  0.3800 -2.0749 -1.4577
 2676SOL     OW19660   2.774   4.017   9.933 -0.1848  0.0851 -0.5092
 2676SOL    HW119661   2.762   3.930   9.971  2.5141 -0.2700 -0.4527
 2676SOL    HW219662   2.866   4.031   9.956 -0.3238 -1.5592  0.9773
 2677SOL     OW19663   3.160   3.691   8.730  0.2866  0.0349  0.2080
 2677SOL    HW119664   3.135   3.647   8.811 -0.5082  0.1467  0.0232
 2677SOL    HW219665   3.082   3.745   8.718 -0.8557 -1.0847  2.7480
 2678SOL     OW19666   1.708   3.228   8.372 -0.2884  0.2038 -0.2680
 2678SOL    HW119667   1.629   3.273   8.342  0.4956  3.8524  3.1612
 2678SOL    HW219668   1.762   3.232   8.292  0.0214 -0.5270 -0.0945
 2679SOL     OW19669   0.998   0.914   6.605  0.1620  0.2824 -0.0396
 2679SOL    HW119670   0.932   0.938   6.670  0.3507 -0.9903  0.6165
 2679SOL    HW219671   0.964   0.956   6.526  2.0283 -1.7689 -1.9189
 2680SOL     OW19672   1.937   1.571   8.903  0.3052  0.2683  0.6858
 2680SOL    HW119673   1.880   1.644   8.928 -0.3642 -0.1952  0.5184
 2680SOL    HW219674   1.872   1.507   8.875  0.3488 -0.2838  1.8250
 2681SOL     OW19675   4.448   0.270   8.077  0.4528 -0.1723  0.4123
 2681SOL    HW119676   4.529   0.283   8.126 -0.1724  2.5835  0.7289
 2681SOL    HW219677   4.430   0.178   8.094 -1.1596  0.0775  0.0248
 2682SOL     OW19678   0.875   2.306   5.747 -0.3359 -0.3897 -0.4020
 2682SOL    HW119679   0.841   2.276   5.831  1.0143  0.9465  0.6407
 2682SOL    HW219680   0.970   2.297   5.757 -0.2760  0.5671 -0.0517
 2683SOL     OW19681   1.474   2.110  11.100 -0.5060 -0.1194  0.3776
 2683SOL    HW119682   1.488   2.171  11.028  1.1344 -1.8470 -0.7713
 2683SOL    HW219683   1.449   2.170  11.171 -0.6293 -1.2331  1.2816
 2684SOL     OW19684   0.702   0.168   5.109 -0.2947  0.0010 -0.0202
 2684SOL    HW119685   0.639   0.181   5.038  0.6009  1.4161 -0.5671
 2684SOL    HW219686   0.695   0.075   5.127 -0.8934  0.3814  1.7132
 2685SOL     OW19687   2.294   3.435   4.470  0.0810 -0.5035 -0.1013
 2685SOL    HW119688   2.307   3.514   4.416 -0.5854 -1.7214 -2.0413
 2685SOL    HW219689   2.270   3.380   4.395  0.6971  1.2361 -1.5791
 2686SOL     OW19690   0.245   1.608   5.077  0.4208  0.3855  0.3499
 2686SOL    HW119691   0.313   1.569   5.131  0.3066 -0.0226  0.1986
 2686SOL    HW219692   0.273   1.698   5.062  0.3495  0.2724 -0.4775
 2687SOL     OW19693   1.323   1.648  15.688 -0.1847  1.3285 -0.6061
 2687SOL    HW119694   1.262   1.721  15.679 -0.3460  0.8597 -3.1735
 2687SOL    HW219695   1.257   1.591  15.649 -1.7558  0.4001  3.3281
 2688SOL     OW19696   1.119   1.888   8.298 -0.1807  0.3181  0.3820
 2688SOL    HW119697   1.133   1.983   8.299  1.5160  0.0792  0.1098
 2688SOL    HW219698   1.195   1.867   8.352  1.5901  2.1531 -1.3847
 2689SOL     OW19699   3.317   3.043   9.002 -0.0248  0.3315  0.1730
 2689SOL    HW119700   3.339   3.118   8.946 -1.3897 -0.2778 -1.1849
 2689SOL    HW219701   3.238   3.013   8.956  0.3626  0.2050 -0.4123
 2690SOL     OW19702   3.486   4.503  11.361 -0.6452  0.1056 -0.0089
 2690SOL    HW119703   3.522   4.589  11.381 -1.4477  0.7057 -1.1805
 2690SOL    HW219704   3.567   4.452  11.349 -2.3599 -3.0233  1.5451
 2691SOL     OW19705   1.934   0.890   2.791 -0.4583  0.3561  0.2651
 2691SOL    HW119706   1.888   0.946   2.854  1.3272  1.9330  0.1673
 2691SOL    HW219707   2.022   0.929   2.793 -0.3477  0.3206 -2.9421
 2692SOL     OW19708   4.452   4.173   2.605  0.0891  0.3277  0.1274
 2692SOL    HW119709   4.473   4.176   2.698  1.4744 -0.6733 -0.1458
 2692SOL    HW219710   4.358   4.189   2.610  0.2669  1.2150  0.5922
 2693SOL     OW19711   0.104   0.667   6.284 -0.6322  0.1012 -0.1878
 2693SOL    HW119712   0.131   0.675   6.193 -0.2815  0.9834 -0.0080
 2693SOL    HW219713   0.057   0.585   6.272  1.7876 -1.3914  0.4086
 2694SOL     OW19714   1.253   0.075   3.585 -0.0496 -0.7067 -0.2324
 2694SOL    HW119715   1.175   0.106   3.541 -0.0541  0.5876  0.6605
 2694SOL    HW219716   1.324   0.127   3.547  0.3187 -0.8255  0.2854
 2695SOL     OW19717   1.960   3.402  11.893  0.4355  0.5291  0.2016
 2695SOL    HW119718   1.893   3.360  11.838  1.3831 -1.9191  0.9584
 2695SOL    HW219719   1.912   3.435  11.968 -0.0310 -3.4066  1.6096
 2696SOL     OW19720   4.662   1.196   9.451  0.3818 -1.0616  0.4841
 2696SOL    HW119721   4.673   1.105   9.425  0.5628 -1.2102  1.0990
 2696SOL    HW219722   4.652   1.231   9.362 -0.8901  0.2348  1.1312
 2697SOL     OW19723   4.460   1.684   8.361 -0.3718  0.6263 -0.1042
 2697SOL    HW119724   4.446   1.767   8.406 -1.5692  0.5131 -0.2711
 2697SOL    HW219725   4.429   1.609   8.412  2.8789 -0.6007  0.0720
 2698SOL     OW19726   3.923   3.612   4.298 -0.6127 -0.2759  0.5121
 2698SOL    HW119727   3.915   3.665   4.219 -3.2279 -0.5159  0.6137
 2698SOL    HW219728   4.018   3.606   4.304 -0.7202 -2.2425  0.0639
 2699SOL     OW19729   3.803   3.618   7.431 -0.6407 -0.2092 -0.1107
 2699SOL    HW119730   3.826   3.637   7.340 -0.6251  0.3778  0.0116
 2699SOL    HW219731   3.807   3.708   7.464 -0.4045  0.1094 -1.0277
 2700SOL     OW19732   1.036   4.144   4.875 -0.8614 -0.1674 -0.3222
 2700SOL    HW119733   0.949   4.138   4.836 -0.0287 -0.2289 -2.1533
 2700SOL    HW219734   1.080   4.061   4.857  0.9502  0.3323  1.6476
 2701SOL     OW19735   1.264   0.298  13.422 -0.3460 -0.2799 -0.4179
 2701SOL    HW119736   1.345   0.306  13.473 -0.2912 -0.8602 -0.4125
 2701SOL    HW219737   1.280   0.220  13.369 -0.1031 -0.5990  0.1248
 2702SOL     OW19738   1.196   2.616   7.545 -0.3407 -0.0003  0.5985
 2702SOL    HW119739   1.207   2.647   7.455  0.0830  1.5842  1.1959
 2702SOL    HW219740   1.287   2.590   7.563 -0.4337 -1.8141 -1.5371
 2703SOL     OW19741   3.894   3.809   4.022  0.0163 -0.2919 -0.6170
 2703SOL    HW119742   3.910   3.729   3.971  3.1810 -0.6201  0.8597
 2703SOL    HW219743   3.817   3.837   3.972 -0.6742  0.7987  1.0706
 2704SOL     OW19744   1.812   3.935   7.618 -0.8236 -0.4727 -0.2242
 2704SOL    HW119745   1.765   3.890   7.688 -0.9675  0.7389  0.4734
 2704SOL    HW219746   1.828   4.024   7.650  1.0691 -1.1192  0.6675
 2705SOL     OW19747   2.544   0.030   8.004 -0.2936  0.5677  0.1758
 2705SOL    HW119748   2.607   0.019   7.932  0.4848 -2.0253  1.2414
 2705SOL    HW219749   2.488   0.100   7.972 -1.0235 -1.1139 -2.2293
 2706SOL     OW19750   1.269   3.810   7.427 -0.4214  0.2606  0.1621
 2706SOL    HW119751   1.364   3.823   7.431 -0.2660 -1.1078  0.8207
 2706SOL    HW219752   1.249   3.837   7.516 -2.6346  1.6594 -0.7525
 2707SOL     OW19753   1.395   1.867   0.062 -0.0462  0.5283 -0.0894
 2707SOL    HW119754   1.338   1.848   0.137  2.7582 -1.2776  1.6132
 2707SOL    HW219755   1.435   1.782   0.043 -1.2384 -0.8008  3.3416
 2708SOL     OW19756   4.538   0.764  14.037  0.2758 -0.4272  0.4130
 2708SOL    HW119757   4.542   0.676  14.073  2.0314 -0.4901  0.0617
 2708SOL    HW219758   4.632   0.780  14.034  0.1484  0.6601  2.1432
 2709SOL     OW19759   0.564   1.204   2.404  0.1466  0.2120  0.2021
 2709SOL    HW119760   0.584   1.111   2.398 -1.6882 -0.1766 -0.1198
 2709SOL    HW219761   0.646   1.249   2.423  0.2984  0.7166 -1.7263
 2710SOL     OW19762   1.125   2.887  16.914  0.5813 -0.2537  0.0996
 2710SOL    HW119763   1.086   2.941  16.845  1.2378  1.3378  0.9718
 2710SOL    HW219764   1.112   2.797  16.885  2.0344 -0.4077 -0.0872
 2711SOL     OW19765   4.488   4.181   2.094 -0.2417  0.1718 -0.4954
 2711SOL    HW119766   4.461   4.122   2.164  0.1325 -0.6497 -1.0368
 2711SOL    HW219767   4.493   4.122   2.018  1.0733 -0.4189  0.0360
 2712SOL     OW19768   3.426   2.532   7.964 -0.0183  0.3036 -0.2895
 2712SOL    HW119769   3.429   2.561   7.873  2.8732 -1.2162 -0.6567
 2712SOL    HW219770   3.334   2.504   7.966  0.7780 -2.1753  1.1696
 2713SOL     OW19771   4.442   1.804   8.994 -0.4060 -0.3663 -0.2296
 2713SOL    HW119772   4.353   1.803   9.031 -0.8670 -2.9882 -1.4058
 2713SOL    HW219773   4.418   1.843   8.910  1.7458 -0.0780 -0.6945
 2714SOL     OW19774   2.800   1.664   6.689 -0.2682  0.0498 -0.3423
 2714SOL    HW119775   2.707   1.640   6.693 -0.5338  0.9983 -0.5912
 2714SOL    HW219776   2.793   1.737   6.626  0.1651  0.4693  0.1026
 2715SOL     OW19777   0.794   3.981   7.361  0.2664 -0.1521 -0.0660
 2715SOL    HW119778   0.814   3.895   7.397  1.9410  0.4181  0.3847
 2715SOL    HW219779   0.785   3.968   7.267 -1.2566  2.7390 -0.3156
 2716SOL     OW19780   0.431   1.108   1.895 -0.4575 -0.5404  0.1655
 2716SOL    HW119781   0.491   1.169   1.938  0.0819 -0.4636 -0.6942
 2716SOL    HW219782   0.385   1.158   1.827  1.0844  0.9307  0.2122
 2717SOL     OW19783   0.953   2.140   1.900 -0.1733 -0.2115  0.5181
 2717SOL    HW119784   1.048   2.134   1.910 -0.1943 -0.2523  0.7035
 2717SOL    HW219785   0.932   2.049   1.921  0.0140 -0.5541 -0.8105
 2718SOL     OW19786   1.274   3.660  14.118 -0.8544  0.0811 -0.3541
 2718SOL    HW119787   1.281   3.579  14.067 -0.8574  0.6264 -1.2297
 2718SOL    HW219788   1.348   3.652  14.178  0.9120 -1.1475 -2.6721
 2719SOL     OW19789   1.274   3.882   3.762  0.3179 -0.2967  0.0638
 2719SOL    HW119790   1.298   3.973   3.777 -1.6545  0.6501 -2.4608
 2719SOL    HW219791   1.184   3.891   3.731  0.5227 -1.0748 -0.7515
 2720SOL     OW19792   3.138   3.293   9.819 -0.3449 -0.0051  0.2165
 2720SOL    HW119793   3.088   3.281   9.738  1.7312  2.4061 -1.4146
 2720SOL    HW219794   3.224   3.318   9.786 -0.6749 -0.4977 -1.0297
 2721SOL     OW19795   2.047   4.712  12.063 -0.0260 -0.8318 -0.2740
 2721SOL    HW119796   2.009   4.630  12.094 -3.3501  0.1753 -1.6800
 2721SOL    HW219797   2.098   4.678  11.990  1.8921  2.0328 -0.2880
 2722SOL     OW19798   1.054   2.180   2.654  0.1161  0.0422  0.1576
 2722SOL    HW119799   1.055   2.253   2.717 -1.6432  2.1061 -2.2103
 2722SOL    HW219800   1.131   2.210   2.607  0.3993  0.1891  0.7070
 2723SOL     OW19801   0.330   1.937   3.748  0.3937 -0.1078 -0.4240
 2723SOL    HW119802   0.292   1.893   3.824  0.5446  1.1490  0.3930
 2723SOL    HW219803   0.341   1.863   3.688  2.1075 -1.6593  1.8205
 2724SOL     OW19804   3.821   3.692   7.182  0.7099  0.2558 -0.7112
 2724SOL    HW119805   3.916   3.693   7.179  0.6508  2.3232 -1.5786
 2724SOL    HW219806   3.791   3.773   7.140  0.6307  0.2360 -0.6939
 2725SOL     OW19807   0.782   3.372  12.038 -0.5023  0.1287  0.0141
 2725SOL    HW119808   0.828   3.380  12.122  2.1732  0.6574 -1.5136
 2725SOL    HW219809   0.847   3.340  11.976 -0.3586 -2.0279  1.2934
 2726SOL     OW19810   2.145   1.228   9.111  1.1222 -0.3497 -0.2946
 2726SOL    HW119811   2.066   1.180   9.137  2.0265 -1.1788  0.9341
 2726SOL    HW219812   2.196   1.204   9.188 -1.7934 -2.0870  1.1008
 2727SOL     OW19813   0.565   0.634  10.866 -0.0106 -0.5615  0.0397
 2727SOL    HW119814   0.588   0.543  10.882  2.2176  0.4828  2.9134
 2727SOL    HW219815   0.534   0.667  10.951  1.1336 -2.1032  1.0488
 2728SOL     OW19816   2.076   3.075   8.597  0.3176  0.3062 -0.0233
 2728SOL    HW119817   2.011   3.143   8.579 -0.9934 -1.1459 -0.7059
 2728SOL    HW219818   2.156   3.117   8.566  0.4181  0.9314  1.0752
 2729SOL     OW19819   1.098   0.588  14.819  0.5326 -0.1288  0.6947
 2729SOL    HW119820   1.068   0.586  14.728 -1.8969  0.4209  1.5046
 2729SOL    HW219821   1.138   0.674  14.829  1.9424 -0.9019  1.8148
 2730SOL     OW19822   3.104   0.999   7.907  0.2495  0.2518  0.2010
 2730SOL    HW119823   3.070   0.929   7.962 -2.4915  2.3710  1.1694
 2730SOL    HW219824   3.079   0.962   7.823  0.0047 -1.7220  1.1463
 2731SOL     OW19825   3.637   4.431   6.280  0.0767  0.2107 -0.6175
 2731SOL    HW119826   3.694   4.400   6.209  0.5310  1.2981 -0.7241
 2731SOL    HW219827   3.708   4.451   6.339  0.8447 -1.8075 -0.8441
 2732SOL     OW19828   4.017   0.378  15.401  0.0937  0.6465 -0.7099
 2732SOL    HW119829   4.083   0.374  15.470 -1.3349 -1.8905  0.5351
 2732SOL    HW219830   4.055   0.309  15.347 -0.3064 -0.1195 -0.0174
 2733SOL     OW19831   2.629   0.730   6.143 -0.3860  0.5144 -0.1795
 2733SOL    HW119832   2.606   0.756   6.232 -2.2596 -1.6211 -0.0317
 2733SOL    HW219833   2.542   0.705   6.112 -0.5049  0.4826  0.1776
 2734SOL     OW19834   3.310   3.248   0.951  0.2427 -0.0712  0.1478
 2734SOL    HW119835   3.345   3.272   1.037 -0.1366  0.6621  0.1006
 2734SOL    HW219836   3.219   3.279   0.952 -0.5047 -2.3126  0.7519
 2735SOL     OW19837   1.267   0.395   2.084  0.1574  0.2262  0.0864
 2735SOL    HW119838   1.334   0.410   2.151 -0.2840 -1.7289  0.9637
 2735SOL    HW219839   1.271   0.469   2.024 -0.9825 -1.9405 -2.6439
 2736SOL     OW19840   2.321   1.143   5.321  0.3330  0.3056 -0.2337
 2736SOL    HW119841   2.386   1.195   5.369 -0.8667  0.8807  0.7611
 2736SOL    HW219842   2.250   1.206   5.313 -1.3096 -1.1534  2.9493
 2737SOL     OW19843   1.285   4.281  14.694 -0.1370  0.1254 -0.1154
 2737SOL    HW119844   1.325   4.348  14.749 -0.3416  0.2440 -0.1096
 2737SOL    HW219845   1.195   4.313  14.684 -0.3910 -0.5363  0.0449
 2738SOL     OW19846   3.078   1.911  15.050  0.2026  0.2763  0.2897
 2738SOL    HW119847   3.030   1.952  14.979 -2.2252  0.0499  1.7800
 2738SOL    HW219848   3.166   1.905  15.013 -0.1269  0.0157 -0.4492
 2739SOL     OW19849   4.389   1.572   2.145 -0.4168 -0.2112 -0.2432
 2739SOL    HW119850   4.422   1.662   2.147 -1.2795  0.0746  1.5258
 2739SOL    HW219851   4.334   1.566   2.224  0.2952 -1.1413  0.1816
 2740SOL     OW19852   2.505   1.991  13.132 -0.2254 -0.3928 -0.4888
 2740SOL    HW119853   2.495   2.044  13.053 -3.1200 -1.4192 -0.7951
 2740SOL    HW219854   2.544   2.049  13.197 -0.6104 -1.2107  0.4630
 2741SOL     OW19855   0.838   4.413   5.016  0.1373  0.2707 -0.0505
 2741SOL    HW119856   0.890   4.401   4.937 -0.9153 -0.4259 -0.6468
 2741SOL    HW219857   0.856   4.336   5.070  1.8666 -0.1398 -1.2594
 2742SOL     OW19858   2.652   1.948   2.090 -0.1375  0.0745 -0.2608
 2742SOL    HW119859   2.610   1.937   2.005 -0.2194 -2.0415  0.0586
 2742SOL    HW219860   2.739   1.978   2.062  0.3346 -0.5690  0.5135
 2743SOL     OW19861   3.317   2.198   2.591  0.4242  0.2418  0.4596
 2743SOL    HW119862   3.370   2.138   2.539  0.6865  1.8266 -1.1266
 2743SOL    HW219863   3.381   2.228   2.656  2.2349 -1.3798 -0.5780
 2744SOL     OW19864   3.409   3.437   7.003  0.1666 -0.0568 -0.2052
 2744SOL    HW119865   3.383   3.354   7.043 -1.4207 -0.3111 -1.7505
 2744SOL    HW219866   3.320   3.457   6.975 -0.5619 -2.7369  0.1417
 2745SOL     OW19867   3.863   2.754   7.292  0.1030 -0.3933 -0.1744
 2745SOL    HW119868   3.834   2.669   7.259 -0.3294 -0.7202  1.0571
 2745SOL    HW219869   3.842   2.735   7.383  0.9583  1.5622  0.4438
 2746SOL     OW19870   3.701   2.996   7.640  0.2404 -0.2953 -0.7904
 2746SOL    HW119871   3.655   3.076   7.616  0.1436 -0.4538 -1.1214
 2746SOL    HW219872   3.781   3.026   7.596  1.8425 -0.9632  1.6373
 2747SOL     OW19873   4.573   3.964   4.600  0.3888  0.0134  0.4587
 2747SOL    HW119874   4.567   3.887   4.657 -4.2297 -0.8417 -1.1978
 2747SOL    HW219875   4.668   3.970   4.590 -0.0359 -0.1247 -3.7312
 2748SOL     OW19876   3.217   2.676  17.020 -0.0996 -0.3331 -0.1027
 2748SOL    HW119877   3.176   2.744  17.073  1.6011  0.1567  0.5662
 2748SOL    HW219878   3.223   2.723  16.937 -0.9053  2.2264  1.3027
 2749SOL     OW19879   0.630   3.347   4.003  0.6934  0.6343 -0.2328
 2749SOL    HW119880   0.609   3.428   3.955 -1.0047 -0.3240 -1.0900
 2749SOL    HW219881   0.676   3.374   4.083 -0.4843  1.2509  0.2369
 2750SOL     OW19882   1.359   3.154   3.952 -0.3714 -1.0725  0.3056
 2750SOL    HW119883   1.369   3.232   4.007  2.8192  1.5273 -3.9454
 2750SOL    HW219884   1.445   3.113   3.947 -0.2676 -0.7377 -0.8864
 2751SOL     OW19885   2.699   2.582  15.769 -0.5597  0.4805 -0.4651
 2751SOL    HW119886   2.621   2.631  15.746  0.0562  1.4534 -0.4892
 2751SOL    HW219887   2.769   2.617  15.714  1.3123  0.5249  1.9544
 2752SOL     OW19888   2.577   2.824   2.573 -0.1922  0.7769  0.5092
 2752SOL    HW119889   2.643   2.770   2.530 -1.6998 -0.7773  0.1402
 2752SOL    HW219890   2.627   2.877   2.635  2.1796 -0.3366 -0.4583
 2753SOL     OW19891   3.452   0.666   1.681 -0.0152 -0.3652  0.3090
 2753SOL    HW119892   3.540   0.669   1.645 -0.4096  0.8989 -0.5600
 2753SOL    HW219893   3.413   0.748   1.652  0.5571  0.1859  1.0860
 2754SOL     OW19894   0.715   4.633   5.150 -0.2348  0.1270  0.2311
 2754SOL    HW119895   0.744   4.600   5.235 -2.0572 -0.7537  0.5133
 2754SOL    HW219896   0.779   4.586   5.098  0.9079  1.7057  0.2114
 2755SOL     OW19897   2.767   2.929  12.841 -0.6283 -0.1835  0.6251
 2755SOL    HW119898   2.802   2.936  12.930 -0.7034  4.4286  0.3068
 2755SOL    HW219899   2.804   3.003  12.793  0.3140 -0.8525  0.3228
 2756SOL     OW19900   2.314   2.684   6.440  0.2246  0.4556  0.2532
 2756SOL    HW119901   2.246   2.667   6.506  0.8956  0.7139  1.0093
 2756SOL    HW219902   2.263   2.741   6.382  0.2511  0.4367  0.2113
 2757SOL     OW19903   1.910   4.466   2.849 -0.3847 -0.3644  1.0887
 2757SOL    HW119904   1.933   4.503   2.934  0.3428  0.4347  0.5298
 2757SOL    HW219905   1.830   4.516   2.833 -1.6439 -2.8215 -0.3962
 2758SOL     OW19906   0.650   3.163   1.786 -0.0707 -0.0415  0.7675
 2758SOL    HW119907   0.712   3.139   1.855  1.9111 -1.2228 -1.4131
 2758SOL    HW219908   0.574   3.195   1.834  1.3937  1.4536  2.0788
 2759SOL     OW19909   2.621   0.128   9.305 -0.6426 -0.1986 -0.7011
 2759SOL    HW119910   2.706   0.111   9.347  0.1466 -0.7094 -2.5223
 2759SOL    HW219911   2.588   0.038   9.299  0.5852 -0.6805 -0.1170
 2760SOL     OW19912   1.862   0.849   3.200  0.0327  0.3823  0.2297
 2760SOL    HW119913   1.817   0.843   3.116 -2.5133 -0.3724  1.6668
 2760SOL    HW219914   1.946   0.892   3.181  0.5339 -2.7195 -4.7778
 2761SOL     OW19915   4.363   3.041   9.904  0.2412  0.0671 -0.0582
 2761SOL    HW119916   4.364   2.950   9.876 -1.1529 -0.1373  0.5618
 2761SOL    HW219917   4.299   3.045   9.975  0.9367 -0.6368  0.6089
 2762SOL     OW19918   1.286   0.283  11.638 -0.7521 -0.2892 -0.3126
 2762SOL    HW119919   1.249   0.227  11.569 -2.0476 -1.0883  1.0163
 2762SOL    HW219920   1.254   0.367  11.605  2.5798  0.9029 -0.4392
 2763SOL     OW19921   0.654   0.372  11.328 -0.0797  0.1755  0.0527
 2763SOL    HW119922   0.563   0.378  11.298 -0.2754 -0.4970  0.5129
 2763SOL    HW219923   0.641   0.375  11.423  0.3565 -1.1483  0.1475
 2764SOL     OW19924   3.419   4.707   2.826 -0.3927 -0.5847 -0.2784
 2764SOL    HW119925   3.415   4.720   2.920 -1.3270  0.9519 -0.5391
 2764SOL    HW219926   3.380   0.055   2.800  1.2522  0.0338 -0.7910
 2765SOL     OW19927   4.135   4.403   3.645 -0.3975  0.2723 -0.2226
 2765SOL    HW119928   4.175   4.322   3.613  1.3808  1.4259 -0.9045
 2765SOL    HW219929   4.094   4.440   3.567  2.4743  2.9190 -0.4545
 2766SOL     OW19930   2.527   1.826   2.308  0.1752 -0.8685  0.0255
 2766SOL    HW119931   2.607   1.776   2.326  0.9806  0.1521 -0.7600
 2766SOL    HW219932   2.554   1.873   2.229  1.0175 -1.2506  0.0787
 2767SOL     OW19933   2.086   3.688   0.948 -0.2121  0.3325 -0.4472
 2767SOL    HW119934   2.118   3.736   0.871 -0.0653  3.5973  1.6418
 2767SOL    HW219935   2.026   3.627   0.905 -1.6608  1.8989 -0.6273
 2768SOL     OW19936   1.899   1.421   2.733 -0.0724 -0.2996 -0.6269
 2768SOL    HW119937   1.869   1.422   2.824 -1.1889 -1.8355 -0.9857
 2768SOL    HW219938   1.841   1.353   2.699 -0.2506  0.2328 -1.4054
 2769SOL     OW19939   0.367   2.604   9.908  0.5228 -0.3752 -0.2798
 2769SOL    HW119940   0.405   2.692   9.901  0.3817 -0.2320  0.8493
 2769SOL    HW219941   0.417   2.582   9.987  0.4510  2.8769  0.6849
 2770SOL     OW19942   2.190   1.061   9.403  0.5040  0.3811 -0.3382
 2770SOL    HW119943   2.107   1.032   9.440 -0.7316  2.3451 -1.5530
 2770SOL    HW219944   2.226   1.117   9.471  1.4822 -1.4160  0.6303
 2771SOL     OW19945   0.681   3.332   5.977  0.1576  0.5416 -0.0007
 2771SOL    HW119946   0.754   3.333   6.039 -0.6683  0.0785  0.9711
 2771SOL    HW219947   0.621   3.398   6.009 -0.7641 -0.8493  1.1512
 2772SOL     OW19948   4.542   0.663   8.107 -0.2059 -0.7183 -0.1627
 2772SOL    HW119949   4.610   0.689   8.045  2.3008  1.0612  3.3319
 2772SOL    HW219950   4.585   0.636   8.188 -0.8959 -0.3908  0.3088
 2773SOL     OW19951   4.148   2.852   5.452 -0.3574  0.2494 -0.6647
 2773SOL    HW119952   4.145   2.772   5.400 -0.8366 -1.2139  1.5815
 2773SOL    HW219953   4.067   2.903   5.442  0.3001  1.2968 -0.5876
 2774SOL     OW19954   0.191   1.599   1.013  0.2690 -0.2593 -0.0606
 2774SOL    HW119955   0.187   1.579   1.106  1.2799 -2.5823 -0.5161
 2774SOL    HW219956   0.263   1.542   0.986 -1.4519 -1.6503 -1.7170
 2775SOL     OW19957   3.903   0.258   3.281  0.0750  0.0158  0.0822
 2775SOL    HW119958   3.819   0.299   3.303  0.8718  1.2434  0.8286
 2775SOL    HW219959   3.943   0.316   3.216  0.6959 -1.2379 -0.6546
 2776SOL     OW19960   2.565   0.967  10.634  0.0742 -0.5521 -0.1428
 2776SOL    HW119961   2.523   1.050  10.658 -0.2974 -0.2854 -1.7492
 2776SOL    HW219962   2.586   0.998  10.546  1.4410  0.6287  0.5929
 2777SOL     OW19963   0.326   3.860  13.376  0.2851 -0.2660 -0.0606
 2777SOL    HW119964   0.380   3.792  13.417 -0.6243 -0.1675  1.2945
 2777SOL    HW219965   0.383   3.936  13.363 -2.1421  1.8240  1.5851
 2778SOL     OW19966   3.872   1.713   2.613 -0.2058  0.3319  0.3856
 2778SOL    HW119967   3.963   1.739   2.626 -0.4138  0.1318  2.1502
 2778SOL    HW219968   3.875   1.621   2.639 -2.6232  0.0890 -0.2125
 2779SOL     OW19969   3.751   3.530  17.635  0.6448 -0.0420  0.6769
 2779SOL    HW119970   3.705   3.453  17.669 -0.5179  1.0017  1.4843
 2779SOL    HW219971   3.810   3.565  17.701 -0.8999  0.4658  1.8132
 2780SOL     OW19972   0.646   0.437   9.298  0.0117  0.5132 -0.4423
 2780SOL    HW119973   0.652   0.454   9.392 -1.3221 -3.2534  0.3080
 2780SOL    HW219974   0.659   0.343   9.296 -0.2516  0.4314  1.9686
 2781SOL     OW19975   4.371   3.317  15.275  0.4567 -0.4696  0.6793
 2781SOL    HW119976   4.286   3.306  15.317 -0.2473  0.3038 -0.5540
 2781SOL    HW219977   4.422   3.329  15.356  0.9080 -0.8769  0.4557
 2782SOL     OW19978   4.044   0.400   7.013 -0.0731  0.4609  0.1264
 2782SOL    HW119979   4.050   0.479   6.960 -2.1079  0.2201 -0.4643
 2782SOL    HW219980   4.012   0.430   7.098 -2.1444 -1.3255 -0.0031
 2783SOL     OW19981   0.187   0.412  11.970  0.1393 -0.1462  0.2933
 2783SOL    HW119982   0.162   0.320  11.969  1.1787 -0.3981 -1.4128
 2783SOL    HW219983   0.280   0.405  11.995  0.6059 -0.9079 -1.6782
 2784SOL     OW19984   0.535   0.292   5.735  0.8217  0.5108  0.6749
 2784SOL    HW119985   0.528   0.380   5.771 -0.1794  1.4056 -1.7260
 2784SOL    HW219986   0.541   0.304   5.640 -0.7946  0.0162  0.5070
 2785SOL     OW19987   2.854   2.810  14.319  0.5152  0.2244  0.7237
 2785SOL    HW119988   2.771   2.859  14.324  0.6129  0.5275 -0.4563
 2785SOL    HW219989   2.887   2.818  14.408  1.8161  0.1349  0.2478
 2786SOL     OW19990   2.896   0.711   7.511  0.2526  0.3091  0.4154
 2786SOL    HW119991   2.887   0.621   7.544 -0.3192 -0.1211 -0.8906
 2786SOL    HW219992   2.895   0.689   7.417  0.5279 -3.1605  1.2074
 2787SOL     OW19993   0.331   4.044   6.523  0.8367 -0.4945  0.3640
 2787SOL    HW119994   0.307   4.125   6.479 -0.3030 -0.6032  0.8018
 2787SOL    HW219995   0.388   4.089   6.586 -0.7542 -0.5999  1.8665
 2788SOL     OW19996   2.665   4.011   5.450 -0.2285  0.5661  0.3519
 2788SOL    HW119997   2.747   3.964   5.432  0.1347  1.9633 -1.6716
 2788SOL    HW219998   2.604   3.952   5.406 -0.3549  1.0008 -0.0646
 2789SOL     OW19999   0.500   0.100  10.879 -0.3636 -0.7108  0.4423
 2789SOL    HW120000   0.596   0.098  10.881 -0.3388 -0.1402 -0.1272
 2789SOL    HW220001   0.475   0.077  10.969  1.7196  0.6048  1.3599
 2790SOL     OW20002   2.098   0.396   7.839  0.2983  0.1150  0.3153
 2790SOL    HW120003   2.022   0.449   7.866  0.3626  0.2945  0.1438
 2790SOL    HW220004   2.148   0.453   7.781 -0.1398 -1.7236 -1.8707
 2791SOL     OW20005   0.682   1.449   9.798  0.5706 -0.0163 -0.4548
 2791SOL    HW120006   0.655   1.407   9.879  1.5597  1.1181  0.4727
 2791SOL    HW220007   0.725   1.531   9.823 -0.8249  0.9078 -1.1415
 2792SOL     OW20008   3.652   1.475   8.657  0.4364 -0.0475 -0.3426
 2792SOL    HW120009   3.745   1.452   8.651  0.4612 -0.6714  2.6352
 2792SOL    HW220010   3.634   1.439   8.743  0.0528 -0.7602 -0.7191
 2793SOL     OW20011   1.878   0.848   9.636 -0.0628 -0.8192 -0.3024
 2793SOL    HW120012   1.846   0.759   9.649 -0.3821 -0.4777  1.2981
 2793SOL    HW220013   1.926   0.848   9.719  1.7331  0.7396 -1.3262
 2794SOL     OW20014   2.979   2.751   8.769  0.2471 -0.2707  0.3651
 2794SOL    HW120015   2.905   2.743   8.709 -1.1263 -2.0577  2.2519
 2794SOL    HW220016   2.991   2.656   8.768  0.9797 -0.1803  0.8289
 2795SOL     OW20017   1.198   1.719  15.997 -0.3331 -0.7973  0.0521
 2795SOL    HW120018   1.268   1.772  15.959 -1.9261  1.4626  0.2423
 2795SOL    HW220019   1.209   1.745  16.088 -0.8062  2.2249 -0.7535
 2796SOL     OW20020   1.509   0.366  11.781  0.3437 -0.1523  0.1767
 2796SOL    HW120021   1.532   0.283  11.825 -2.5652 -1.0768 -0.1010
 2796SOL    HW220022   1.444   0.338  11.717  1.5527 -1.1881 -0.5891
 2797SOL     OW20023   2.286   2.128   7.212 -0.4568 -0.1733  0.2015
 2797SOL    HW120024   2.223   2.062   7.183  1.7347 -1.3376 -1.9293
 2797SOL    HW220025   2.268   2.204   7.156 -2.6813 -1.1187 -0.3583
 2798SOL     OW20026   4.269   1.632  14.813  0.3305 -0.2599  0.5081
 2798SOL    HW120027   4.178   1.652  14.837 -0.1263 -0.1573 -1.2835
 2798SOL    HW220028   4.255   1.658  14.722 -1.3940 -1.4073  0.4381
 2799SOL     OW20029   0.449   3.371   3.343  0.7680 -0.0791  0.4974
 2799SOL    HW120030   0.479   3.284   3.368  2.3263 -0.2713 -2.0563
 2799SOL    HW220031   0.457   3.416   3.427  1.9220 -0.0267  0.3644
 2800SOL     OW20032   3.581   4.119  14.859  0.4121 -0.2590  0.4655
 2800SOL    HW120033   3.510   4.057  14.877  0.1620 -0.2446 -0.4530
 2800SOL    HW220034   3.641   4.096  14.929  1.5302 -1.8092 -0.9889
 2801SOL     OW20035   4.476   2.211   2.752 -0.5103 -0.7043 -0.1922
 2801SOL    HW120036   4.562   2.182   2.784 -0.3613 -1.6382 -1.4375
 2801SOL    HW220037   4.499   2.254   2.669 -1.4974 -0.7442 -0.4884
 2802SOL     OW20038   1.838   2.432   4.758 -0.4146 -0.2166  0.6620
 2802SOL    HW120039   1.820   2.388   4.841 -2.5161 -2.4454 -0.9746
 2802SOL    HW220040   1.922   2.473   4.779  0.0965 -0.3644 -1.1397
 2803SOL     OW20041   4.560   1.071   8.568 -0.0794 -0.3325  0.1605
 2803SOL    HW120042   4.581   1.135   8.500  0.5103 -1.3005 -0.5726
 2803SOL    HW220043   4.535   0.993   8.518 -0.1578  0.1451 -0.5438
 2804SOL     OW20044   2.356   1.502   3.145 -0.1015  0.4388  0.1700
 2804SOL    HW120045   2.412   1.463   3.078 -2.9753 -1.5766 -1.0633
 2804SOL    HW220046   2.324   1.577   3.094 -1.4350 -0.0307  0.3204
 2805SOL     OW20047   3.641   0.209   8.291 -0.0321 -0.0108 -0.0853
 2805SOL    HW120048   3.641   0.129   8.239 -0.1921 -0.4587  0.6108
 2805SOL    HW220049   3.575   0.183   8.355  0.1128 -1.3209 -0.4624
 2806SOL     OW20050   3.689   4.701  17.014  0.1213 -0.2856  0.2094
 2806SOL    HW120051   3.598   4.717  17.040  1.2737  2.0824  2.7340
 2806SOL    HW220052   3.738   4.724  17.092 -1.4687  0.3745  1.0295
 2807SOL     OW20053   3.850   4.532  13.315 -0.4424 -0.4036 -0.5499
 2807SOL    HW120054   3.781   4.588  13.278 -1.6612 -1.6101 -0.0934
 2807SOL    HW220055   3.844   4.554  13.408 -0.0990  0.8913 -0.8344
 2808SOL     OW20056   2.007   2.710  13.130  0.4051 -0.4798 -0.3989
 2808SOL    HW120057   2.049   2.683  13.211 -0.0189  0.4234  0.1206
 2808SOL    HW220058   1.931   2.762  13.154 -0.8671 -2.5108  0.0055
 2809SOL     OW20059   2.852   2.375   3.289 -0.3050 -0.1519  0.1123
 2809SOL    HW120060   2.912   2.416   3.351 -1.0697  1.1308 -0.0008
 2809SOL    HW220061   2.909   2.304   3.258 -0.8035 -0.3063 -0.4531
 2810SOL     OW20062   1.922   2.930   7.279  0.7792 -0.1899  0.4140
 2810SOL    HW120063   2.015   2.913   7.271  1.0080 -0.6533  4.2283
 2810SOL    HW220064   1.887   2.842   7.293 -1.0647  0.5595  0.5459
 2811SOL     OW20065   1.679   1.687   6.271  0.8167  0.4129 -0.1994
 2811SOL    HW120066   1.731   1.623   6.320 -1.1027 -1.0660 -0.0845
 2811SOL    HW220067   1.589   1.675   6.301  0.7178 -1.7136 -1.3180
 2812SOL     OW20068   3.450   1.858   1.247  0.1206 -0.3809 -0.0095
 2812SOL    HW120069   3.494   1.886   1.167 -2.9203  0.3152 -1.4232
 2812SOL    HW220070   3.375   1.917   1.245  1.3412  1.1578 -0.0390
 2813SOL     OW20071   4.733   0.131   3.185 -0.0792  0.4075 -0.2130
 2813SOL    HW120072   0.063   0.173   3.243 -0.7610 -0.7978  1.4165
 2813SOL    HW220073   0.014   0.179   3.104 -3.6803 -1.0609 -1.7640
 2814SOL     OW20074   4.512   3.562   1.784  0.3604  0.0315 -0.2469
 2814SOL    HW120075   4.503   3.540   1.691  0.4300 -3.5060  0.5726
 2814SOL    HW220076   4.537   3.476   1.818 -0.6672 -2.1321 -4.9368
 2815SOL     OW20077   0.920   4.510   2.637 -0.2123 -0.7262  0.2537
 2815SOL    HW120078   0.912   4.458   2.717  0.8123  0.3357  1.0616
 2815SOL    HW220079   0.995   4.568   2.654 -0.4722 -0.8112  1.7294
 2816SOL     OW20080   2.003   4.460  11.445  0.4781  0.0897 -0.4441
 2816SOL    HW120081   2.078   4.402  11.430  0.0225 -0.0624 -2.1989
 2816SOL    HW220082   1.985   4.445  11.537  1.3597  0.1448 -0.2586
 2817SOL     OW20083   3.981   4.724   8.600  0.4723  0.1346 -0.9097
 2817SOL    HW120084   4.058   0.007   8.546  0.1816  0.3998 -1.2380
 2817SOL    HW220085   3.922   4.697   8.530 -0.5953  1.8333 -0.6558
 2818SOL     OW20086   0.589   0.203   2.706  0.1357 -0.3561 -0.5286
 2818SOL    HW120087   0.563   0.290   2.736  1.7408  0.2668 -0.9593
 2818SOL    HW220088   0.604   0.223   2.613  0.3740  0.0485 -0.4041
 2819SOL     OW20089   3.750   0.543   7.020  0.5470  0.4202 -0.0568
 2819SOL    HW120090   3.714   0.487   6.952 -1.2838 -1.2090  2.2575
 2819SOL    HW220091   3.723   0.498   7.100  2.6160  0.6852  0.8090
 2820SOL     OW20092   1.496   4.645   1.798 -0.2907  0.7202 -0.4888
 2820SOL    HW120093   1.442   4.721   1.775 -3.6558 -1.4227  0.2309
 2820SOL    HW220094   1.477   4.628   1.891  0.7757 -4.7959 -1.2551
 2821SOL     OW20095   1.587   2.137   8.372  0.2800  0.2559  0.3878
 2821SOL    HW120096   1.598   2.132   8.277  1.0583 -1.3101  0.5453
 2821SOL    HW220097   1.643   2.210   8.398  2.3003  0.5668 -4.6964
 2822SOL     OW20098   2.828   4.007   7.145  0.1854  0.1646  0.5813
 2822SOL    HW120099   2.850   3.955   7.222  0.8201  0.7616  0.8079
 2822SOL    HW220100   2.819   3.938   7.079 -0.1268  1.1894 -0.4520
 2823SOL     OW20101   4.298   1.000   4.016  0.3724 -0.2027 -0.1791
 2823SOL    HW120102   4.367   1.012   4.081  0.6706 -1.5012 -0.2512
 2823SOL    HW220103   4.241   0.925   4.031  0.1774  0.2290  1.2405
 2824SOL     OW20104   2.772   3.788   2.258  0.2635 -0.1138 -0.0001
 2824SOL    HW120105   2.832   3.759   2.326  1.4622  1.1699 -0.5266
 2824SOL    HW220106   2.827   3.859   2.225 -0.6212  0.4867 -0.1915
 2825SOL     OW20107   0.979   0.292   8.874  0.1020  0.0374 -0.3764
 2825SOL    HW120108   0.996   0.309   8.967  0.0525 -0.1761 -0.3287
 2825SOL    HW220109   0.933   0.208   8.884  1.6654 -1.0395 -2.3012
 2826SOL     OW20110   4.670   0.589  14.216 -0.1083 -0.1455 -0.3169
 2826SOL    HW120111   4.699   0.672  14.255 -0.4946  0.0755 -0.5016
 2826SOL    HW220112   0.022   0.553  14.196  0.0540 -0.5856  1.1849
 2827SOL     OW20113   1.696   3.022  16.169  0.2593 -0.7167 -0.2745
 2827SOL    HW120114   1.758   2.954  16.142  1.3192  0.2095 -0.1864
 2827SOL    HW220115   1.760   3.090  16.192  0.0062 -0.7839  0.5980
 2828SOL     OW20116   0.692   4.467   8.593  0.5313 -0.1369 -0.0544
 2828SOL    HW120117   0.674   4.410   8.668  0.3201  1.1947  0.9074
 2828SOL    HW220118   0.784   4.447   8.575  0.4973  1.8410 -2.3119
 2829SOL     OW20119   1.339   1.073   4.758  0.4838 -0.3076 -0.2250
 2829SOL    HW120120   1.298   1.096   4.675 -2.8142  0.1288  1.5144
 2829SOL    HW220121   1.369   1.161   4.783  1.3962 -0.3098 -1.2922
 2830SOL     OW20122   0.542   4.734   1.154 -0.0774 -0.3279  0.2969
 2830SOL    HW120123   0.468   4.716   1.212 -0.2671 -0.0592  0.1397
 2830SOL    HW220124   0.595   4.654   1.154  0.3909 -0.0235 -0.6849
 2831SOL     OW20125   0.805   1.715   0.031 -0.0666 -0.1707  0.1838
 2831SOL    HW120126   0.851   1.646   0.079  1.3679  0.0193 -0.9243
 2831SOL    HW220127   0.738   1.742   0.094 -0.4707 -0.0480 -0.3019
 2832SOL     OW20128   0.093   1.814  15.154 -0.1999  0.2482  0.0570
 2832SOL    HW120129   0.087   1.843  15.063 -2.3004 -0.4007  0.0028
 2832SOL    HW220130   0.004   1.796  15.182 -0.9792  1.0778 -1.8471
 2833SOL     OW20131   3.180   0.775   7.305 -0.5065 -0.0347  0.0216
 2833SOL    HW120132   3.212   0.813   7.387 -0.0884 -2.4781  0.9931
 2833SOL    HW220133   3.158   0.688   7.338  1.0939 -1.4833 -2.8304
 2834SOL     OW20134   3.607   0.824   7.727  0.4495  0.0941 -0.0771
 2834SOL    HW120135   3.666   0.776   7.669 -0.8833 -2.3429  0.5933
 2834SOL    HW220136   3.568   0.756   7.782 -0.4088 -1.5728 -2.7401
 2835SOL     OW20137   2.232   3.443   7.239  0.5751  0.3157  0.1478
 2835SOL    HW120138   2.198   3.399   7.316 -0.3888  3.5667  1.5717
 2835SOL    HW220139   2.152   3.467   7.193  1.3975  0.9683 -0.9525
 2836SOL     OW20140   3.737   0.818  17.479 -0.4679  0.0232 -0.3943
 2836SOL    HW120141   3.832   0.811  17.488 -0.9384 -2.4610  2.4183
 2836SOL    HW220142   3.703   0.729  17.469  0.5689 -0.4877  0.6957
 2837SOL     OW20143   4.147   0.691   9.314  0.8174  0.0484 -0.4294
 2837SOL    HW120144   4.129   0.605   9.276 -0.5670  1.2363 -2.4548
 2837SOL    HW220145   4.239   0.686   9.337  0.6371 -0.9806  0.0718
 2838SOL     OW20146   2.061   1.506  15.328  0.6320  0.5745 -0.1546
 2838SOL    HW120147   2.150   1.540  15.317  1.1538 -0.4648  0.9518
 2838SOL    HW220148   2.083   1.413  15.326 -1.3277  0.0872  1.3652
 2839SOL     OW20149   3.074   1.029   7.250  0.1239  0.3513  0.2924
 2839SOL    HW120150   3.030   1.022   7.165  0.5730  0.0727  0.0875
 2839SOL    HW220151   3.122   0.947   7.257  0.9604  1.0417  2.7547
 2840SOL     OW20152   0.920   1.948   3.393  0.5605  0.3735  0.4219
 2840SOL    HW120153   0.901   2.013   3.461 -1.8733  1.5479 -1.3678
 2840SOL    HW220154   0.994   1.982   3.343  0.8202  0.5404  0.9177
 2841SOL     OW20155   0.894   3.396   3.142  0.8023 -0.5932  0.4017
 2841SOL    HW120156   0.855   3.481   3.160  2.3865  0.4007 -0.7860
 2841SOL    HW220157   0.985   3.425   3.149  0.7434  0.2037 -2.0078
 2842SOL     OW20158   1.492   2.939  15.940 -0.7726  0.2655 -0.3978
 2842SOL    HW120159   1.486   2.924  16.034 -0.0050 -1.8205 -0.6869
 2842SOL    HW220160   1.555   3.011  15.934  0.4709 -0.7272  0.6757
 2843SOL     OW20161   3.233   3.526   6.202  0.1771  0.2517 -0.0098
 2843SOL    HW120162   3.269   3.614   6.190  0.4685  0.3725  1.7599
 2843SOL    HW220163   3.185   3.527   6.285 -0.6842  0.2342 -0.5099
 2844SOL     OW20164   4.159   4.560   8.374  0.5680 -0.3677 -0.1581
 2844SOL    HW120165   4.220   4.512   8.430 -0.1880  1.3458  2.1215
 2844SOL    HW220166   4.083   4.511   8.403  1.8414 -0.5303  2.9549
 2845SOL     OW20167   1.799   3.504   2.998 -0.0831 -0.6053  0.3854
 2845SOL    HW120168   1.789   3.439   2.928  2.0220  1.7396 -2.1181
 2845SOL    HW220169   1.865   3.561   2.958  1.1042 -0.4602  2.5905
 2846SOL     OW20170   1.095   2.042  13.818 -0.1800  0.4351  0.1679
 2846SOL    HW120171   1.009   2.080  13.833  0.0393  1.1122 -0.2862
 2846SOL    HW220172   1.082   2.008  13.729  1.0231 -2.2457  1.0144
 2847SOL     OW20173   2.380   0.633   6.022  0.6079 -0.0503 -0.0626
 2847SOL    HW120174   2.346   0.661   6.107  0.0920 -1.5039  0.2163
 2847SOL    HW220175   2.328   0.699   5.976 -1.0491 -0.2765  1.4690
 2848SOL     OW20176   2.488   2.961   9.828  0.4995 -0.4011  0.8210
 2848SOL    HW120177   2.512   2.977   9.737  0.2524  0.0920  0.8435
 2848SOL    HW220178   2.394   2.939   9.825  0.5290 -0.8069  2.6934
 2849SOL     OW20179   3.572   0.165   1.494 -0.2608 -0.0554  0.2291
 2849SOL    HW120180   3.628   0.126   1.428 -0.0493 -0.4874  0.6614
 2849SOL    HW220181   3.632   0.225   1.538  1.8904 -2.0872  0.0622
 2850SOL     OW20182   2.438   4.526   8.476  0.2261  0.0346 -0.5736
 2850SOL    HW120183   2.406   4.488   8.394  1.0260 -0.0971 -0.8299
 2850SOL    HW220184   2.445   4.450   8.534  0.7389  1.0323  0.6786
 2851SOL     OW20185   0.927   1.444  15.167 -0.4618 -0.1026 -0.3904
 2851SOL    HW120186   0.996   1.433  15.233  1.0286  2.5849 -1.4744
 2851SOL    HW220187   0.979   1.493  15.103  2.2383 -0.3666  1.5966
 2852SOL     OW20188   1.223   3.269   1.567 -0.2130  0.1411 -0.2618
 2852SOL    HW120189   1.302   3.269   1.622  0.5104  1.1534 -1.2887
 2852SOL    HW220190   1.157   3.267   1.636  0.2503  1.3176  0.2249
 2853SOL     OW20191   3.722   3.134  13.557  0.1065 -0.1612 -0.1336
 2853SOL    HW120192   3.793   3.129  13.621 -0.2108 -1.5353  0.1174
 2853SOL    HW220193   3.702   3.044  13.531  0.9208  0.0739 -1.6026
 2854SOL     OW20194   0.197   1.177   6.080  0.4130  0.8090  0.0369
 2854SOL    HW120195   0.108   1.147   6.060  0.8922  1.1124 -2.5932
 2854SOL    HW220196   0.222   1.119   6.151 -0.9423  2.5571  1.9147
 2855SOL     OW20197   3.195   4.054   7.767  0.0649  0.2168  0.2689
 2855SOL    HW120198   3.259   4.057   7.697  1.5646 -0.8549  1.6104
 2855SOL    HW220199   3.245   4.012   7.836  1.6912  3.9027  1.3572
 2856SOL     OW20200   1.419   4.305  16.199  0.1087 -0.6429  0.4723
 2856SOL    HW120201   1.352   4.242  16.170  1.7198 -2.1094 -0.0585
 2856SOL    HW220202   1.489   4.264  16.250 -0.2640 -0.7307  0.9086
 2857SOL     OW20203   3.942   0.684   6.023 -0.2288 -0.6114 -0.3039
 2857SOL    HW120204   4.012   0.718   6.078  0.5464 -0.1843 -1.5454
 2857SOL    HW220205   3.896   0.761   5.989 -3.2314 -1.4488  1.8861
 2858SOL     OW20206   2.329   1.802   5.422  0.3125 -0.0117  0.0240
 2858SOL    HW120207   2.314   1.896   5.418  1.6367  0.2074  0.1446
 2858SOL    HW220208   2.249   1.779   5.469  1.0902  0.1111  1.4035
 2859SOL     OW20209   1.890   2.462   7.638  0.4096  0.1345  0.2918
 2859SOL    HW120210   1.930   2.508   7.712  0.4337 -0.9437  0.9439
 2859SOL    HW220211   1.962   2.412   7.599  1.8349  0.7615  2.1009
 2860SOL     OW20212   0.003   3.399   5.411 -0.1043  0.0524 -0.3607
 2860SOL    HW120213   0.012   3.312   5.373 -2.3582 -1.0740  1.6788
 2860SOL    HW220214   4.665   3.439   5.364 -0.7697 -2.0473 -1.0798
 2861SOL     OW20215   0.063   0.887   4.262 -0.3339  0.6725  0.4698
 2861SOL    HW120216   0.003   0.813   4.270  0.1920  0.0473 -1.3093
 2861SOL    HW220217   0.100   0.878   4.349 -2.1389 -0.2731  1.1343
 2862SOL     OW20218   0.649   0.958   7.702  0.1149 -0.8821  0.2498
 2862SOL    HW120219   0.692   0.893   7.647  1.5534 -0.8694  1.3586
 2862SOL    HW220220   0.570   0.975   7.650  0.7493 -3.1124 -1.4400
 2863SOL     OW20221   0.357   0.798   9.236  0.4083  0.0731 -0.6631
 2863SOL    HW120222   0.424   0.791   9.304  0.1748  1.0730 -0.3347
 2863SOL    HW220223   0.368   0.711   9.199  1.1433 -0.1611  0.1185
 2864SOL     OW20224   2.976   2.628   4.765 -0.2964 -0.8868  0.6310
 2864SOL    HW120225   2.950   2.544   4.802 -0.2233 -1.1624  0.0431
 2864SOL    HW220226   3.070   2.617   4.753 -0.3009  0.6020 -0.7310
 2865SOL     OW20227   2.833   1.947   4.205 -0.4927  0.9668  0.4048
 2865SOL    HW120228   2.750   1.917   4.168  0.7559 -1.4720 -0.3466
 2865SOL    HW220229   2.881   1.865   4.201 -1.5781  0.3486  0.0336
 2866SOL     OW20230   1.452   3.997   0.739  0.2407 -0.3861  0.4382
 2866SOL    HW120231   1.363   4.018   0.769  0.4304  2.3759 -0.9318
 2866SOL    HW220232   1.485   4.075   0.693 -1.5635 -0.6135 -1.2704
 2867SOL     OW20233   4.357   0.265   1.985 -0.5165 -0.0310  0.2817
 2867SOL    HW120234   4.406   0.285   1.904 -1.3408  2.2949  0.3589
 2867SOL    HW220235   4.366   0.354   2.018  0.8593 -0.3399  0.7235
 2868SOL     OW20236   1.738   0.685   3.945 -0.0560  0.5162  0.6181
 2868SOL    HW120237   1.651   0.723   3.933 -0.6215 -0.8754  0.3194
 2868SOL    HW220238   1.777   0.724   4.024 -1.8326  4.1643 -0.3280
 2869SOL     OW20239   4.622   1.947   2.846 -0.2561  0.3545 -0.4272
 2869SOL    HW120240   4.698   1.990   2.805 -0.3728  0.0263 -0.9909
 2869SOL    HW220241   4.632   1.857   2.816 -0.1866  0.9029 -2.0809
 2870SOL     OW20242   2.362   2.940  12.662 -0.3273 -0.0340  0.0289
 2870SOL    HW120243   2.290   2.940  12.726 -0.2388 -0.3756  0.1274
 2870SOL    HW220244   2.409   3.022  12.672 -0.4062 -0.0109  0.2129
 2871SOL     OW20245   2.949   4.260  11.471  0.4110 -0.5711  0.1789
 2871SOL    HW120246   3.008   4.292  11.403  0.2445 -1.4995 -0.3930
 2871SOL    HW220247   2.927   4.347  11.504  3.2692  0.8190 -1.6185
 2872SOL     OW20248   1.760   3.288   2.814  0.5167 -0.3613  0.2600
 2872SOL    HW120249   1.838   3.234   2.800 -0.2587 -1.0040 -1.5969
 2872SOL    HW220250   1.746   3.310   2.722  1.2539 -0.3306  0.1518
 2873SOL     OW20251   2.904   2.979  15.702  0.0365 -0.3356 -0.2488
 2873SOL    HW120252   2.904   2.887  15.675 -1.4587 -0.5266  0.4150
 2873SOL    HW220253   2.980   2.981  15.761  0.2095 -2.7386 -0.4137
 2874SOL     OW20254   4.097   2.272   2.147 -0.3004  0.1718  0.3591
 2874SOL    HW120255   4.008   2.238   2.139  0.0491 -0.5604 -0.3937
 2874SOL    HW220256   4.109   2.336   2.217  0.6922 -0.6641  0.9637
 2875SOL     OW20257   0.624   1.130   9.061  0.0663 -0.6463 -0.5567
 2875SOL    HW120258   0.659   1.041   9.064  0.4295 -0.4516  1.3947
 2875SOL    HW220259   0.529   1.118   9.060 -0.3274  2.3612  0.4493
 2876SOL     OW20260   4.692   1.328  13.077  0.5359  0.4449  0.5057
 2876SOL    HW120261   0.052   1.337  13.074  0.6693 -0.5036  1.6182
 2876SOL    HW220262   4.656   1.373  13.001 -0.8743 -0.8762  0.3743
 2877SOL     OW20263   3.425   1.342   7.247 -0.1276 -0.3359  0.2435
 2877SOL    HW120264   3.400   1.434   7.257  0.5348 -0.1191 -0.0884
 2877SOL    HW220265   3.373   1.306   7.319 -0.5769  2.4644  1.3338
 2878SOL     OW20266   4.465   2.965   3.902 -0.1684  0.4300  0.2449
 2878SOL    HW120267   4.483   3.027   3.973 -0.6953 -0.4124  1.1206
 2878SOL    HW220268   4.420   3.014   3.834 -0.3202  0.4063  0.3284
 2879SOL     OW20269   0.905   4.499  11.302  0.1321 -0.6711 -0.3423
 2879SOL    HW120270   0.999   4.514  11.298  0.1715 -0.6061  0.8174
 2879SOL    HW220271   0.874   4.551  11.228  2.5201 -1.0846 -1.6251
 2880SOL     OW20272   0.156   4.608   3.704 -0.0482  0.1291  0.1190
 2880SOL    HW120273   0.121   4.570   3.784 -0.9048  0.8907  0.1024
 2880SOL    HW220274   0.249   4.587   3.717 -0.3773 -0.7350  1.0602
 2881SOL     OW20275   0.093   4.477   4.218 -0.4814  0.5704  0.3076
 2881SOL    HW120276   0.066   4.519   4.300  1.3951 -0.9744  1.7045
 2881SOL    HW220277   0.181   4.456   4.247 -0.3320 -0.7817 -1.1058
 2882SOL     OW20278   0.197   1.557   1.276 -0.2093 -0.2656  0.1464
 2882SOL    HW120279   0.193   1.602   1.360  1.5868 -0.9373  0.6040
 2882SOL    HW220280   0.282   1.511   1.280  0.4818  1.0078  0.0702
 2883SOL     OW20281   3.293   1.244   7.480 -0.2613  0.4611 -0.4612
 2883SOL    HW120282   3.212   1.200   7.504  0.1884 -1.5437 -2.6375
 2883SOL    HW220283   3.307   1.306   7.552  2.2864 -1.2422  0.5416
 2884SOL     OW20284   3.870   1.026  16.340 -0.0340  0.3956 -0.4083
 2884SOL    HW120285   3.783   0.988  16.335  0.6671 -1.2020 -0.3879
 2884SOL    HW220286   3.922   0.963  16.389  1.7171  2.6903  0.7394
 2885SOL     OW20287   2.038   1.566  13.013 -0.0437 -0.3481 -0.2327
 2885SOL    HW120288   2.037   1.508  13.089 -0.9818 -0.2958 -0.1973
 2885SOL    HW220289   2.035   1.506  12.938  0.8289  2.1621 -2.2901
 2886SOL     OW20290   1.175   4.235  15.078  0.2070  0.2850  0.0657
 2886SOL    HW120291   1.161   4.313  15.132 -0.4120 -0.8106  1.4825
 2886SOL    HW220292   1.265   4.236  15.046  1.4174  0.4953  3.4299
 2887SOL     OW20293   1.884   1.478   3.507 -0.3520  0.0211  0.1854
 2887SOL    HW120294   1.970   1.469   3.466 -1.0491  0.6507 -1.4055
 2887SOL    HW220295   1.916   1.509   3.592 -1.0405  0.7291  0.1880
 2888SOL     OW20296   0.918   1.620   9.119  0.0388 -0.0145 -0.3729
 2888SOL    HW120297   0.945   1.541   9.166  2.4614  0.2819 -1.3059
 2888SOL    HW220298   0.958   1.690   9.170 -0.1194 -0.4173  0.3065
 2889SOL     OW20299   3.207   3.654   1.786 -0.4572  0.1312  0.8378
 2889SOL    HW120300   3.233   3.729   1.732  1.4727 -0.6145  0.7450
 2889SOL    HW220301   3.137   3.683   1.845 -1.5413 -0.9760  0.0882
 2890SOL     OW20302   2.540   0.586  13.586  0.1883  0.6254  0.7952
 2890SOL    HW120303   2.488   0.512  13.616 -0.5291  0.7338 -0.1736
 2890SOL    HW220304   2.474   0.645  13.622 -1.5748 -1.4610  1.0025
 2891SOL     OW20305   0.102   3.283   9.034 -0.5324  0.0933 -0.7368
 2891SOL    HW120306   0.017   3.303   8.995 -0.1169 -0.5795 -1.9644
 2891SOL    HW220307   0.090   3.251   9.124 -0.0983 -1.3329 -1.1934
 2892SOL     OW20308   3.835   3.551   2.595 -0.2858 -0.2997 -0.0512
 2892SOL    HW120309   3.855   3.635   2.637 -1.7649  0.1578 -0.2325
 2892SOL    HW220310   3.794   3.586   2.516  0.1653  0.8984  0.2496
 2893SOL     OW20311   1.911   1.906   3.516 -0.2547 -0.6034 -0.4561
 2893SOL    HW120312   1.854   1.918   3.592 -0.8096  0.0283 -0.9654
 2893SOL    HW220313   2.000   1.926   3.545  0.2629 -2.4124 -0.8085
 2894SOL     OW20314   0.541   0.449  11.604  0.3739 -0.1576  0.2063
 2894SOL    HW120315   0.450   0.429  11.581 -0.3427  1.6487  1.4684
 2894SOL    HW220316   0.550   0.429  11.698 -1.7066 -0.2213  0.4020
 2895SOL     OW20317   0.624   1.871  13.346  0.2176 -0.3853  0.3728
 2895SOL    HW120318   0.674   1.939  13.301 -0.4058  0.2166  0.5839
 2895SOL    HW220319   0.544   1.922  13.352  0.1571 -0.3804 -0.4728
 2896SOL     OW20320   3.207   1.156   4.538 -0.4569 -0.0485 -0.0598
 2896SOL    HW120321   3.260   1.157   4.617 -2.2861 -1.6462  1.1638
 2896SOL    HW220322   3.170   1.245   4.540 -2.2698 -0.8980  3.7131
 2897SOL     OW20323   0.750   1.348   9.170 -0.5659 -0.6866 -0.5788
 2897SOL    HW120324   0.682   1.286   9.145 -1.3694 -0.2561  0.5589
 2897SOL    HW220325   0.741   1.417   9.105  1.1308  0.6394  0.6061
 2898SOL     OW20326   2.625   2.555   4.729 -0.5481 -0.1826 -0.1480
 2898SOL    HW120327   2.631   2.512   4.644 -0.6478  0.3007 -0.4041
 2898SOL    HW220328   2.605   2.646   4.704 -1.2833 -0.6518 -1.2751
 2899SOL     OW20329   0.566   4.232  15.125 -0.3198 -0.2600 -0.0060
 2899SOL    HW120330   0.500   4.243  15.056  0.0780  0.6837 -0.2337
 2899SOL    HW220331   0.630   4.294  15.091 -0.8774 -0.9605 -2.3277
 2900SOL     OW20332   0.007   2.799   4.661 -0.0082  0.4618  0.3127
 2900SOL    HW120333   4.659   2.823   4.703 -0.3992 -1.5193  0.6435
 2900SOL    HW220334   4.703   2.727   4.613  2.3295  0.6033 -1.7870
 2901SOL     OW20335   4.629   1.151   5.151 -0.1812 -0.0176 -0.1918
 2901SOL    HW120336   4.542   1.158   5.188 -1.4319 -2.3654 -2.6416
 2901SOL    HW220337   4.617   1.204   5.072  1.4584 -1.7748 -1.6277
 2902SOL     OW20338   1.768   4.164   6.508 -0.3354  0.4886 -0.0797
 2902SOL    HW120339   1.846   4.115   6.481 -0.7414 -0.4653  0.4766
 2902SOL    HW220340   1.710   4.114   6.452 -2.7252  1.6175  1.4184
 2903SOL     OW20341   0.021   0.834   7.688  0.8194  0.4280 -0.2489
 2903SOL    HW120342   0.006   0.906   7.627  1.1944  2.5433  2.1515
 2903SOL    HW220343   0.071   0.774   7.633 -0.2324 -2.4528  1.9204
 2904SOL     OW20344   2.580   4.397   4.513  0.1793 -0.0438 -0.6486
 2904SOL    HW120345   2.611   4.325   4.457  0.3653  0.4422 -1.1803
 2904SOL    HW220346   2.503   4.429   4.466 -0.4224  1.3214  1.3000
 2905SOL     OW20347   0.931   4.691   4.773 -0.3889 -0.4556  0.2391
 2905SOL    HW120348   0.958   4.600   4.785 -1.0320 -0.6315  0.3751
 2905SOL    HW220349   0.964   4.729   4.855 -1.2371  1.0749 -0.1322
 2906SOL     OW20350   1.856   4.566   0.552  0.0803  0.4991 -0.1825
 2906SOL    HW120351   1.879   4.597   0.640 -1.6729 -1.0632  0.8361
 2906SOL    HW220352   1.760   4.567   0.546  0.0197 -1.3279  0.3832
 2907SOL     OW20353   1.759   0.335   7.837 -0.3196 -0.7433 -0.1389
 2907SOL    HW120354   1.792   0.404   7.779 -2.5029 -1.2377 -1.9661
 2907SOL    HW220355   1.666   0.353   7.824 -0.4926 -1.5650 -0.0439
 2908SOL     OW20356   1.102   3.543  12.485 -0.3382 -0.2613 -0.2327
 2908SOL    HW120357   1.144   3.502  12.561  0.6599 -0.0096 -0.6575
 2908SOL    HW220358   1.071   3.624  12.525  1.3351 -0.4360  1.4040
 2909SOL     OW20359   1.961   0.868   8.223 -0.1152  0.6649  0.2118
 2909SOL    HW120360   1.899   0.812   8.269 -1.1962 -1.5115 -3.9060
 2909SOL    HW220361   1.904   0.942   8.200 -1.3492 -0.6314 -0.8210
 2910SOL     OW20362   3.992   3.029   8.996  0.6691 -0.3023 -0.6001
 2910SOL    HW120363   3.921   2.966   8.983 -0.4903  0.8239  0.3014
 2910SOL    HW220364   3.974   3.106   8.941  0.2434 -0.5917 -0.8765
 2911SOL     OW20365   1.093   1.818   6.174  0.0321  0.0370 -0.5085
 2911SOL    HW120366   1.092   1.736   6.124 -0.2336 -0.6837  0.6951
 2911SOL    HW220367   1.018   1.797   6.229  0.6847 -0.0981  0.3289
 2912SOL     OW20368   0.432   3.155   7.792 -0.8077  0.5268 -0.6000
 2912SOL    HW120369   0.348   3.194   7.816 -0.9157 -0.7399  1.1492
 2912SOL    HW220370   0.391   3.079   7.750  0.9269 -0.2630 -0.8731
 2913SOL     OW20371   2.296   2.398   7.376 -1.0292  0.1395  0.9429
 2913SOL    HW120372   2.351   2.348   7.316 -0.6760  0.8421  0.6733
 2913SOL    HW220373   2.364   2.447   7.422  0.8992 -0.8994 -0.7964
 2914SOL     OW20374   3.462   0.048   3.102 -0.2451 -0.5815  0.1171
 2914SOL    HW120375   3.414   0.128   3.123  0.7955 -0.1877  1.0192
 2914SOL    HW220376   3.545   0.080   3.067  0.1098 -0.3699  1.1525
 2915SOL     OW20377   3.098   1.038  16.103  0.4124  0.2053 -0.4244
 2915SOL    HW120378   3.137   1.052  16.017  0.9729  0.0094 -0.1987
 2915SOL    HW220379   3.037   1.112  16.102  0.7104  0.4523 -0.1696
 2916SOL     OW20380   1.054   2.390   8.451 -0.0470  0.0353 -0.5892
 2916SOL    HW120381   1.105   2.449   8.505 -0.5160  0.0185 -0.1301
 2916SOL    HW220382   1.053   2.441   8.370  0.7000  0.8044 -0.1043
 2917SOL     OW20383   3.625   2.791   0.584 -0.1225 -0.2312  0.3216
 2917SOL    HW120384   3.665   2.705   0.596  0.6058  0.3466  2.0347
 2917SOL    HW220385   3.572   2.800   0.664 -3.2688  1.5345 -1.9556
 2918SOL     OW20386   1.665   1.334   4.532  0.4766  0.1803  0.2690
 2918SOL    HW120387   1.720   1.334   4.453 -0.4562 -2.1342 -0.3895
 2918SOL    HW220388   1.703   1.264   4.585  0.4708  1.0733  1.4462
 2919SOL     OW20389   0.013   2.912  13.680 -0.2989  0.4176  0.1941
 2919SOL    HW120390   4.703   2.907  13.764  0.7375 -1.3887  0.6499
 2919SOL    HW220391   0.101   2.922  13.717  0.3597  0.6849 -1.4502
 2920SOL     OW20392   2.497   0.917   8.118  0.4358 -0.0864 -0.1778
 2920SOL    HW120393   2.540   0.838   8.085 -0.2523 -1.1559  1.4893
 2920SOL    HW220394   2.415   0.916   8.068 -0.9261 -3.8763  2.1857
 2921SOL     OW20395   1.976   2.288   3.585 -0.7925  0.6263  0.1543
 2921SOL    HW120396   1.905   2.233   3.618  0.2666  0.2205  1.7605
 2921SOL    HW220397   2.055   2.238   3.567  0.0934  1.8014  0.7890
 2922SOL     OW20398   1.172   0.002   1.105  0.3506 -0.2899  0.3226
 2922SOL    HW120399   1.253   4.691   1.083 -0.0236  0.0920 -1.8611
 2922SOL    HW220400   1.120   4.703   1.032 -1.0678 -0.9454  1.6171
 2923SOL     OW20401   3.401   0.505   7.151  0.2671 -0.5923 -0.0397
 2923SOL    HW120402   3.419   0.464   7.066  0.9033  0.0197 -0.1946
 2923SOL    HW220403   3.463   0.466   7.213  2.1480  1.5242 -0.5841
 2924SOL     OW20404   4.003   0.700   0.087  0.4109 -0.0127  0.5884
 2924SOL    HW120405   3.955   0.782   0.075 -0.0588 -0.0570  2.1310
 2924SOL    HW220406   3.975   0.658   0.006 -0.7164  1.0431  0.4216
 2925SOL     OW20407   3.418   1.059   2.192 -0.1713 -0.2937  0.3968
 2925SOL    HW120408   3.401   1.143   2.235 -2.5208 -1.1708  1.1726
 2925SOL    HW220409   3.510   1.077   2.171 -0.4762  0.9355  0.1061
 2926SOL     OW20410   3.727   3.375   1.613 -0.5397 -0.1892  0.3471
 2926SOL    HW120411   3.678   3.322   1.550  0.8973 -1.9975  0.7645
 2926SOL    HW220412   3.690   3.460   1.590  1.3348  0.2392 -1.1299
 2927SOL     OW20413   1.026   2.209   6.206 -0.1023  0.1989  0.2166
 2927SOL    HW120414   1.088   2.174   6.142 -1.0355  1.8045 -1.5608
 2927SOL    HW220415   1.006   2.299   6.181 -0.2049 -0.3424 -1.6192
 2928SOL     OW20416   4.407   1.600   6.537  0.5214  0.3175 -0.4061
 2928SOL    HW120417   4.350   1.603   6.460 -1.2486 -0.1217  0.8817
 2928SOL    HW220418   4.466   1.676   6.532  1.3312 -0.3805 -1.4568
 2929SOL     OW20419   1.284   0.838   5.893  0.6382 -0.4453 -0.0613
 2929SOL    HW120420   1.331   0.889   5.827 -0.2664  0.0264 -0.3414
 2929SOL    HW220421   1.294   0.907   5.960  1.6565  0.2778 -0.9568
 2930SOL     OW20422   1.505   0.555   3.591 -0.2485  0.3755  0.0434
 2930SOL    HW120423   1.474   0.638   3.626  0.4931  1.0119 -0.7942
 2930SOL    HW220424   1.441   0.493   3.628  0.6836  0.4768  1.8299
 2931SOL     OW20425   1.199   1.688   4.185  0.0015  0.1494  0.1459
 2931SOL    HW120426   1.178   1.746   4.113  0.2057 -0.2643 -0.2438
 2931SOL    HW220427   1.216   1.603   4.144 -0.6966  0.5696 -1.0021
 2932SOL     OW20428   3.482   0.970  12.257  0.2323 -0.3609 -0.0256
 2932SOL    HW120429   3.504   0.953  12.166 -1.1576  0.5016 -0.5210
 2932SOL    HW220430   3.433   1.052  12.249 -0.1636 -0.2965  2.9455
 2933SOL     OW20431   2.653   2.203  14.948 -0.1852 -0.2568  0.2343
 2933SOL    HW120432   2.644   2.237  14.859  2.3612 -0.3305 -0.0339
 2933SOL    HW220433   2.681   2.280  14.998 -0.9716 -1.0865  1.9580
 2934SOL     OW20434   1.473   0.037   6.666 -0.1590  0.1460  0.3663
 2934SOL    HW120435   1.431   0.121   6.678  2.0055  1.4635 -1.2096
 2934SOL    HW220436   1.405   4.730   6.613 -0.3263  0.5420  0.2735
 2935SOL     OW20437   1.615   3.843   7.350 -0.6740 -0.3135 -0.2338
 2935SOL    HW120438   1.637   3.801   7.434  1.2976 -1.0461 -1.1124
 2935SOL    HW220439   1.661   3.927   7.352 -0.9179 -0.1963  0.9258
 2936SOL     OW20440   1.513   2.473   4.857 -0.1587 -0.0128 -0.4447
 2936SOL    HW120441   1.514   2.447   4.765 -0.8604  0.9148 -0.7145
 2936SOL    HW220442   1.494   2.389   4.899 -0.8937 -1.6099 -3.9673
 2937SOL     OW20443   2.890   3.073   7.646  0.4836 -0.0366 -0.3282
 2937SOL    HW120444   2.832   3.071   7.570 -0.5653  2.2815  0.4323
 2937SOL    HW220445   2.888   2.979   7.666 -1.0345 -0.0031 -0.2837
 2938SOL     OW20446   2.526   0.572  10.114  0.3022 -0.3917  0.3374
 2938SOL    HW120447   2.441   0.572  10.159  0.7296  0.8640  1.1499
 2938SOL    HW220448   2.505   0.587  10.022 -0.3654  2.6328  0.9599
 2939SOL     OW20449   3.022   0.380   1.165 -0.9759 -0.4618 -0.7894
 2939SOL    HW120450   2.980   0.370   1.251  0.1056  0.1126 -0.1870
 2939SOL    HW220451   3.103   0.426   1.189 -0.8293 -0.8481 -0.5429
 2940SOL     OW20452   3.753   0.392   4.328  0.2663 -0.1701 -0.4324
 2940SOL    HW120453   3.748   0.440   4.410  1.6995  1.0456 -1.0584
 2940SOL    HW220454   3.833   0.434   4.295  0.4077  0.8417  1.1783
 2941SOL     OW20455   3.119   1.691  17.011 -0.4825 -0.9526 -0.9092
 2941SOL    HW120456   3.143   1.780  17.038 -3.4168 -0.5972  0.5466
 2941SOL    HW220457   3.131   1.658  17.100 -0.0881 -1.4816 -1.1576
 2942SOL     OW20458   4.269   0.195  10.834 -0.0851  0.2500  0.1744
 2942SOL    HW120459   4.351   0.157  10.802  1.3235  1.4853  2.2959
 2942SOL    HW220460   4.290   0.271  10.888  0.7527  0.9950 -1.2020
 2943SOL     OW20461   3.445   3.112   6.232 -0.0735  0.6959  0.4578
 2943SOL    HW120462   3.540   3.101   6.237 -0.5405 -2.1190  2.9516
 2943SOL    HW220463   3.428   3.075   6.145  0.7752 -0.2157  0.6741
 2944SOL     OW20464   0.025   3.629  16.822  0.0401  0.3538 -0.2705
 2944SOL    HW120465   4.733   3.553  16.770  0.4381  0.6935 -0.9735
 2944SOL    HW220466   4.683   3.655  16.872  1.7590 -1.2241  3.1306
 2945SOL     OW20467   1.144   0.875   4.708  1.0099 -0.5686  0.1777
 2945SOL    HW120468   1.143   0.781   4.690 -0.1945 -0.7494  1.2240
 2945SOL    HW220469   1.052   0.890   4.726  0.6523 -1.8896 -0.5473
 2946SOL     OW20470   1.015   2.387   3.717 -0.4629 -0.1020 -0.0897
 2946SOL    HW120471   1.052   2.454   3.659 -0.3049 -0.0332  0.0894
 2946SOL    HW220472   0.928   2.364   3.685 -0.7785  0.8407  0.1043
 2947SOL     OW20473   4.483   0.038  13.814  0.3751  0.4728 -0.5111
 2947SOL    HW120474   4.479   0.095  13.737 -2.0648 -1.6425 -1.9472
 2947SOL    HW220475   4.563   4.722  13.806 -1.0971 -1.8690 -0.2361
 2948SOL     OW20476   1.276   0.694  11.323  0.3418  0.4651 -0.0415
 2948SOL    HW120477   1.267   0.712  11.229 -0.3527  1.0291  0.1392
 2948SOL    HW220478   1.354   0.639  11.320 -0.3018 -0.4800  0.5636
 2949SOL     OW20479   3.684   1.485   5.586 -0.1782  0.1528  0.2641
 2949SOL    HW120480   3.724   1.554   5.532 -0.2749  0.8802  1.1229
 2949SOL    HW220481   3.622   1.445   5.525 -0.0083 -1.4200  1.1368
 2950SOL     OW20482   4.077   0.122  17.020  0.0877  0.8336 -0.2306
 2950SOL    HW120483   4.028   0.194  16.981 -0.7117  1.0321  1.1268
 2950SOL    HW220484   4.015   0.095  17.088  0.0855 -0.5900 -0.7971
 2951SOL     OW20485   2.109   2.456   4.841  0.1601 -0.4487 -0.3736
 2951SOL    HW120486   2.173   2.404   4.793  0.2649 -1.0608  0.4225
 2951SOL    HW220487   2.169   2.500   4.902  0.1578  0.7141 -1.2230
 2952SOL     OW20488   4.306   4.141   1.006  0.6827  0.0223  0.1681
 2952SOL    HW120489   4.332   4.232   1.020  1.2148 -0.0410 -0.4457
 2952SOL    HW220490   4.389   4.120   0.964  0.8581  1.2025 -0.0551
 2953SOL     OW20491   4.619   4.663   7.691  0.1446  0.0901  0.4629
 2953SOL    HW120492   4.636   0.017   7.662 -0.4742  0.7640  2.1811
 2953SOL    HW220493   4.617   4.673   7.786 -2.0481  0.3360  0.3936
 2954SOL     OW20494   0.488   4.361   7.414 -0.2082  1.0076  0.3054
 2954SOL    HW120495   0.464   4.344   7.505 -1.1756 -0.5649 -0.2386
 2954SOL    HW220496   0.468   4.275   7.375  0.8928  1.4008 -1.1246
 2955SOL     OW20497   3.553   2.874   7.218  0.0863 -0.6527 -0.2609
 2955SOL    HW120498   3.649   2.882   7.213 -0.0028  0.0951 -0.6695
 2955SOL    HW220499   3.530   2.903   7.130  3.5360  2.5406 -0.1414
 2956SOL     OW20500   1.533   3.912   0.986 -0.0814  0.4419 -0.3034
 2956SOL    HW120501   1.504   3.914   0.894  0.1801  1.1048 -0.3714
 2956SOL    HW220502   1.553   4.006   0.990 -0.8878  0.4605  2.7261
 2957SOL     OW20503   1.914   1.779  15.273 -0.2477  0.3345 -0.1280
 2957SOL    HW120504   1.947   1.705  15.325  0.0779 -0.0165 -0.8354
 2957SOL    HW220505   1.877   1.734  15.197 -4.6636  0.3479  2.0492
 2958SOL     OW20506   0.327   3.875   2.925  0.0778  0.0626 -0.4892
 2958SOL    HW120507   0.406   3.827   2.948  0.7104  0.8847 -0.9200
 2958SOL    HW220508   0.336   3.950   2.985  0.7281 -2.6633  2.8114
 2959SOL     OW20509   0.245   1.182   8.633  0.3784 -0.1634 -0.4008
 2959SOL    HW120510   0.173   1.163   8.693  0.1551  0.0166 -0.6127
 2959SOL    HW220511   0.211   1.183   8.544 -1.6676  0.8246  0.4094
 2960SOL     OW20512   0.276   3.660  10.613 -0.1952 -0.5054 -0.0551
 2960SOL    HW120513   0.211   3.709  10.664  1.7050  1.0445  0.8728
 2960SOL    HW220514   0.259   3.703  10.530  0.1892  2.7885  1.5517
 2961SOL     OW20515   2.129   1.224   7.162 -0.2009 -0.2836  0.0582
 2961SOL    HW120516   2.113   1.193   7.073 -1.7727 -2.5779  1.1554
 2961SOL    HW220517   2.222   1.207   7.174  0.1306  0.6567 -1.1435
 2962SOL     OW20518   0.146   2.197   6.179  0.1183 -0.5252 -0.6582
 2962SOL    HW120519   0.057   2.166   6.169 -0.6296  1.4903 -0.3517
 2962SOL    HW220520   0.152   2.243   6.095 -0.2147  0.9418  0.1211
 2963SOL     OW20521   0.026   3.589   6.954 -0.6232  0.5815  0.0908
 2963SOL    HW120522   0.063   3.589   7.042  0.5534  1.9124 -0.4045
 2963SOL    HW220523   4.703   3.664   6.966  0.3945  1.2841  0.6385
 2964SOL     OW20524   2.462   4.329  16.275 -0.1086 -0.1438  0.2049
 2964SOL    HW120525   2.398   4.297  16.212 -0.7417  1.8342 -0.1596
 2964SOL    HW220526   2.404   4.396  16.311 -0.5112 -2.0937  3.2060
 2965SOL     OW20527   1.599   0.350   0.087  0.1341 -0.3573  0.0697
 2965SOL    HW120528   1.685   0.390   0.096 -0.5654  1.3142 -0.7964
 2965SOL    HW220529   1.618   0.256   0.097 -0.1501 -0.5443 -1.1492
 2966SOL     OW20530   4.617   1.434   8.695  0.1849  0.0533  0.0327
 2966SOL    HW120531   4.677   1.416   8.768 -1.3380 -0.6447  1.1191
 2966SOL    HW220532   4.637   1.527   8.685 -1.0934  0.4054  0.7880
 2967SOL     OW20533   2.063   0.880   7.698 -0.4845  0.3599  0.1797
 2967SOL    HW120534   2.022   0.956   7.656 -0.9501 -0.1617 -0.3115
 2967SOL    HW220535   2.011   0.885   7.778  1.2712  0.3907  1.3227
 2968SOL     OW20536   3.296   1.496  15.998 -0.2343  0.1710 -0.0387
 2968SOL    HW120537   3.329   1.578  15.962 -0.2760 -0.4633 -1.5226
 2968SOL    HW220538   3.284   1.510  16.092  1.5121 -2.1963  0.5155
 2969SOL     OW20539   1.503   4.581  16.653  0.2109  0.3099 -0.0850
 2969SOL    HW120540   1.557   4.502  16.652  0.5522  0.5268  1.0826
 2969SOL    HW220541   1.427   4.561  16.707 -1.1411 -0.4575 -2.2920
 2970SOL     OW20542   3.347   1.761   4.897 -0.0905 -0.2247 -0.3043
 2970SOL    HW120543   3.399   1.817   4.839 -0.1393 -1.7560 -1.8097
 2970SOL    HW220544   3.258   1.794   4.884 -0.4889 -0.6892  1.2557
 2971SOL     OW20545   1.242   2.071  12.606  0.1076  0.0076 -0.0404
 2971SOL    HW120546   1.325   2.058  12.654  1.8639  3.4764 -2.1430
 2971SOL    HW220547   1.263   1.998  12.548  1.8976  0.9143 -0.5519
 2972SOL     OW20548   1.087   0.055   9.322 -0.5830  0.0840  1.0594
 2972SOL    HW120549   1.081   0.149   9.333  1.1074  0.2206  0.7840
 2972SOL    HW220550   1.178   0.060   9.293 -0.1486 -0.5357  2.2803
 2973SOL     OW20551   2.726   0.547   4.375  0.0362 -0.0709 -0.2027
 2973SOL    HW120552   2.645   0.519   4.418 -0.8872  2.4442 -0.2884
 2973SOL    HW220553   2.697   0.621   4.323  2.1397 -0.8594 -2.4853
 2974SOL     OW20554   2.676   0.812   6.646 -0.7213 -0.4095  0.4351
 2974SOL    HW120555   2.615   0.810   6.719 -0.7174 -1.6616  0.4183
 2974SOL    HW220556   2.753   0.764   6.677  0.6565  1.3753 -0.2087
 2975SOL     OW20557   3.177   3.300   4.557  0.5184  0.3653  0.3732
 2975SOL    HW120558   3.144   3.268   4.473  1.5071  0.8273 -0.1820
 2975SOL    HW220559   3.247   3.353   4.519 -0.2080  0.6586 -0.5553
 2976SOL     OW20560   2.948   4.396   7.873  0.3362  0.0924  0.0763
 2976SOL    HW120561   2.944   4.304   7.849 -1.8163  0.5696 -1.4881
 2976SOL    HW220562   2.909   4.391   7.960 -1.2467 -1.3398 -0.7174
 2977SOL     OW20563   2.914   4.276   8.444  0.2502 -0.6311 -0.1031
 2977SOL    HW120564   2.881   4.213   8.379  2.0180 -3.1493  1.4474
 2977SOL    HW220565   2.834   4.303   8.489  0.7116 -0.1955  0.4445
 2978SOL     OW20566   1.952   4.271  11.130 -0.3622  0.2425  0.1571
 2978SOL    HW120567   1.866   4.269  11.173 -0.6119 -1.7359 -0.4242
 2978SOL    HW220568   1.926   4.248  11.041  2.2151  0.9636 -0.7672
 2979SOL     OW20569   3.243   2.627   5.717  0.3514  0.4905  0.4323
 2979SOL    HW120570   3.283   2.598   5.635 -0.3386 -0.6634  0.4993
 2979SOL    HW220571   3.238   2.721   5.703  1.1086  0.2596 -1.3315
 2980SOL     OW20572   1.058   1.935   8.980  0.4613 -0.0440 -0.1885
 2980SOL    HW120573   1.107   1.967   9.055 -0.9937  0.3791  0.5857
 2980SOL    HW220574   1.117   1.974   8.916  0.5972  1.8810  1.0991
 2981SOL     OW20575   0.762   1.769  13.615  0.2795 -0.5879 -0.5089
 2981SOL    HW120576   0.740   1.686  13.573  0.2536 -1.4251  1.1683
 2981SOL    HW220577   0.745   1.817  13.534  1.1746  0.5038 -0.0443
 2982SOL     OW20578   3.479   3.558  15.119 -0.2242 -0.3497 -0.4243
 2982SOL    HW120579   3.570   3.553  15.090 -0.2264 -0.8466 -0.3384
 2982SOL    HW220580   3.439   3.563  15.032 -1.6855  2.5663  0.3995
 2983SOL     OW20581   3.465   0.310   4.081 -0.5525  0.2612 -0.8015
 2983SOL    HW120582   3.446   0.228   4.127  1.0878 -0.1997 -0.9540
 2983SOL    HW220583   3.553   0.284   4.053  0.8455  2.3360  1.6853
 2984SOL     OW20584   3.356   0.751   5.885  0.1227  0.3024  0.2001
 2984SOL    HW120585   3.304   0.671   5.895 -1.5899  1.5159  0.8720
 2984SOL    HW220586   3.392   0.732   5.798 -0.7373  2.8001 -0.7026
 2985SOL     OW20587   4.086   0.030  13.879  0.0996 -0.0589  0.2201
 2985SOL    HW120588   4.106   0.121  13.903 -0.0484  0.0675 -0.1299
 2985SOL    HW220589   4.016   0.050  13.816 -1.5568  3.1390  3.0616
 2986SOL     OW20590   2.466   2.448   6.488 -0.4892  0.8850  0.1689
 2986SOL    HW120591   2.444   2.523   6.433 -1.5965 -0.7581 -1.6377
 2986SOL    HW220592   2.379   2.407   6.492 -0.3307  0.5528  0.2169
 2987SOL     OW20593   3.479   3.660   1.485  0.1362  0.1898  0.5956
 2987SOL    HW120594   3.440   3.727   1.541  1.1136  1.8069 -0.6498
 2987SOL    HW220595   3.572   3.681   1.491  0.2799  0.4926 -3.1220
 2988SOL     OW20596   4.311   1.335  16.840  0.5319 -0.3503 -0.1600
 2988SOL    HW120597   4.392   1.296  16.808 -0.5112 -2.9331  0.3608
 2988SOL    HW220598   4.297   1.394  16.765  1.1051 -0.5987 -0.4605
 2989SOL     OW20599   1.133   2.569   5.582  0.1961  0.0248 -0.2521
 2989SOL    HW120600   1.225   2.595   5.580 -0.1088  1.0809 -0.7464
 2989SOL    HW220601   1.122   2.547   5.490  2.5459  2.7846 -1.1957
 2990SOL     OW20602   2.513   1.306  16.617  0.7292 -0.7154 -0.0882
 2990SOL    HW120603   2.564   1.255  16.554  1.5166 -1.6924  1.3389
 2990SOL    HW220604   2.461   1.239  16.661  0.4302 -0.9925 -0.8578
 2991SOL     OW20605   2.772   0.854  11.755  0.6669  0.0629  0.1151
 2991SOL    HW120606   2.784   0.880  11.664  1.8909 -1.1856 -0.0785
 2991SOL    HW220607   2.780   0.759  11.743 -1.9720  0.0116 -1.1017
 2992SOL     OW20608   1.114   3.317   8.143 -0.7605  0.7579  0.7419
 2992SOL    HW120609   1.193   3.368   8.126 -0.4350  0.3361  1.0007
 2992SOL    HW220610   1.116   3.312   8.239 -1.8772  1.1344  0.7836
 2993SOL     OW20611   4.290   4.026  17.311  0.4491  0.0982 -0.6897
 2993SOL    HW120612   4.300   3.963  17.383  0.1837  2.3129  1.2895
 2993SOL    HW220613   4.196   4.045  17.315  0.5582  0.6540 -0.9115
 2994SOL     OW20614   3.392   0.113  15.916  0.3007 -0.3036 -0.1209
 2994SOL    HW120615   3.380   0.021  15.941  1.1450 -0.2503  0.4697
 2994SOL    HW220616   3.478   0.125  15.958  0.1131 -0.2416  0.2504
 2995SOL     OW20617   0.032   0.469   4.651  0.2867  0.2122 -0.1010
 2995SOL    HW120618   0.091   0.544   4.655 -1.9145  1.7621  3.4766
 2995SOL    HW220619   0.075   0.410   4.713  1.8903  1.8897  0.3872
 2996SOL     OW20620   2.432   4.132   6.393  0.1756  0.1208 -0.1098
 2996SOL    HW120621   2.396   4.185   6.322 -1.6188 -1.7605 -0.5901
 2996SOL    HW220622   2.395   4.047   6.368 -0.2543 -0.0931  1.2492
 2997SOL     OW20623   2.865   4.383  10.121 -0.1986 -0.0853  0.5788
 2997SOL    HW120624   2.801   4.354  10.187 -1.9203  0.6235 -0.7819
 2997SOL    HW220625   2.807   4.417  10.053 -0.1590  1.0374  1.1126
 2998SOL     OW20626   0.930   3.168  12.545 -0.8024 -0.2431 -0.0608
 2998SOL    HW120627   0.952   3.090  12.494  2.4253  1.0663 -0.6635
 2998SOL    HW220628   0.945   3.143  12.637 -1.1531  2.2097  0.6524
 2999SOL     OW20629   1.802   1.320  16.397 -0.1198  0.2079  0.2895
 2999SOL    HW120630   1.717   1.301  16.435 -0.5881  2.9087  0.6176
 2999SOL    HW220631   1.814   1.411  16.426  2.1415  0.3874 -1.1964
 3000SOL     OW20632   2.501   0.306   0.837  0.1030 -0.3036 -0.4527
 3000SOL    HW120633   2.539   0.266   0.759 -0.8901  0.7998 -1.5108
 3000SOL    HW220634   2.433   0.360   0.795 -0.2726  0.7319  1.4812
 3001SOL     OW20635   3.633   3.903   3.982 -0.1392  0.1154  0.1029
 3001SOL    HW120636   3.582   3.829   3.949  0.9989  0.1491 -1.7995
 3001SOL    HW220637   3.588   3.927   4.062 -0.3473 -0.9097  0.2944
 3002SOL     OW20638   2.998   3.308   1.929 -0.0349 -0.6477  0.3887
 3002SOL    HW120639   3.012   3.387   1.980  0.0700 -0.0701 -0.5363
 3002SOL    HW220640   2.987   3.242   1.998  0.4877  0.1721  1.2557
 3003SOL     OW20641   4.108   1.751   4.802  0.2283  0.5822 -0.1178
 3003SOL    HW120642   4.049   1.748   4.878 -0.0406 -1.5400 -0.4331
 3003SOL    HW220643   4.047   1.782   4.735  0.2135 -0.2474 -0.4848
 3004SOL     OW20644   3.890   2.763   4.117  0.1471 -0.1770 -0.0308
 3004SOL    HW120645   3.982   2.738   4.120 -0.2035 -1.1482  2.0445
 3004SOL    HW220646   3.858   2.691   4.062  1.7765 -0.4494 -0.6357
 3005SOL     OW20647   2.306   4.506   6.923  0.4877 -0.1818 -0.0745
 3005SOL    HW120648   2.358   4.426   6.922 -0.2966 -0.7223  2.5817
 3005SOL    HW220649   2.318   4.534   6.832 -2.5130  0.3144 -0.3206
 3006SOL     OW20650   4.589   1.383   4.968 -0.5050  0.6694  0.4847
 3006SOL    HW120651   4.495   1.402   4.978 -0.4366  0.2683  1.8595
 3006SOL    HW220652   4.624   1.436   5.039  0.9660 -0.2373  0.4379
 3007SOL     OW20653   0.702   1.941   8.672  0.1518 -0.5880  0.5136
 3007SOL    HW120654   0.730   1.930   8.763 -0.1937 -0.6121  0.6171
 3007SOL    HW220655   0.773   1.896   8.625  0.2351 -1.2066  1.2375
 3008SOL     OW20656   0.700   3.517  13.007  0.1310  0.6715  0.1585
 3008SOL    HW120657   0.778   3.558  13.044  2.2815 -1.7459 -1.7076
 3008SOL    HW220658   0.639   3.548  13.074  0.2833  1.0256  0.1356
 3009SOL     OW20659   2.947   1.488   7.327 -0.4709 -0.0408  0.3854
 3009SOL    HW120660   2.997   1.539   7.391 -0.2419 -1.0600  1.0219
 3009SOL    HW220661   2.959   1.399   7.359  0.3224  0.5116  1.6320
 3010SOL     OW20662   1.820   1.097   0.263  0.5365  0.2055  0.4398
 3010SOL    HW120663   1.809   1.005   0.286 -1.6041 -0.1644 -2.0908
 3010SOL    HW220664   1.732   1.133   0.259  1.5310  2.3587 -1.7845
 3011SOL     OW20665   4.061   1.284   2.853  0.0761  0.5869 -0.4139
 3011SOL    HW120666   4.139   1.321   2.813  1.0556 -1.3322 -0.2973
 3011SOL    HW220667   4.063   1.189   2.838 -2.8420  0.4283  0.1974
 3012SOL     OW20668   1.572   0.115   4.130 -0.1491  0.7958  0.2040
 3012SOL    HW120669   1.586   0.126   4.036  1.4581 -0.1579  0.3356
 3012SOL    HW220670   1.657   0.082   4.160 -1.4221 -2.0642  0.6855
 3013SOL     OW20671   4.667   2.124   5.565 -0.0623  0.1804  0.4119
 3013SOL    HW120672   4.691   2.206   5.609  2.0107 -1.3773  2.2176
 3013SOL    HW220673   4.624   2.151   5.484 -0.9013 -1.3231  0.3451
 3014SOL     OW20674   4.208   2.261  12.378 -0.1035  0.2561 -0.2402
 3014SOL    HW120675   4.245   2.173  12.387 -0.2504  0.2754  0.5992
 3014SOL    HW220676   4.200   2.291  12.469 -0.5196  1.4453 -0.6739
 3015SOL     OW20677   0.172   2.609   0.925 -0.0089  0.9009  0.0744
 3015SOL    HW120678   0.133   2.599   1.011  0.2242  2.6524  0.3864
 3015SOL    HW220679   0.259   2.603   0.964  0.0560  1.4491  0.0200
 3016SOL     OW20680   0.314   2.750  15.383  0.5744  0.2165  0.3436
 3016SOL    HW120681   0.380   2.744  15.314 -2.0254 -0.7312 -2.0807
 3016SOL    HW220682   0.332   2.838  15.413 -0.1965  0.0957  1.1561
 3017SOL     OW20683   1.189   4.287  13.639 -0.1811 -0.1390 -0.0759
 3017SOL    HW120684   1.208   4.295  13.733  1.0561 -1.1395 -0.2336
 3017SOL    HW220685   1.235   4.207  13.613  1.0748 -0.0272  1.7975
 3018SOL     OW20686   3.984   4.559   7.168  0.2397 -0.4211  0.4008
 3018SOL    HW120687   4.049   4.579   7.101 -1.7731 -0.5031 -1.5675
 3018SOL    HW220688   3.952   4.477   7.131  1.6754 -0.1953 -1.3299
 3019SOL     OW20689   4.332   2.223  11.851 -0.1186 -0.0951 -0.6512
 3019SOL    HW120690   4.402   2.164  11.823 -0.4609 -0.7787 -0.0972
 3019SOL    HW220691   4.308   2.173  11.930 -0.7438  1.6794  0.2894
 3020SOL     OW20692   0.797   0.362  17.046 -0.1534  0.0020  0.3078
 3020SOL    HW120693   0.706   0.378  17.019  0.1807 -0.4882 -1.1327
 3020SOL    HW220694   0.784   0.353  17.140 -0.0703 -0.1065  0.3082
 3021SOL     OW20695   4.379   0.780  16.218 -0.1150  0.1579  0.1234
 3021SOL    HW120696   4.300   0.810  16.173 -0.0219  0.7915  0.3774
 3021SOL    HW220697   4.439   0.848  16.186  0.5055 -0.4420  0.0160
 3022SOL     OW20698   2.919   2.061   3.526 -0.7320 -0.1496  0.3136
 3022SOL    HW120699   2.879   2.043   3.442  2.2875  3.2207 -1.8261
 3022SOL    HW220700   2.996   2.003   3.525 -0.8556 -0.3054 -0.1994
 3023SOL     OW20701   3.864   0.973   6.288 -1.2016 -0.5513  0.1100
 3023SOL    HW120702   3.845   0.959   6.195  0.2317 -1.8022  0.0052
 3023SOL    HW220703   3.872   0.881   6.314 -2.5310  0.0151  2.4825
 3024SOL     OW20704   3.310   0.822  10.925 -0.4230  0.0363 -1.2804
 3024SOL    HW120705   3.235   0.863  10.883 -1.6305  0.2424  1.0424
 3024SOL    HW220706   3.303   0.731  10.897 -1.6727 -0.9519  2.2942
 3025SOL     OW20707   0.473   3.466   2.886  0.1882 -0.4921  0.0355
 3025SOL    HW120708   0.400   3.425   2.838 -0.1320 -1.1207  1.0536
 3025SOL    HW220709   0.509   3.522   2.818  1.7327 -2.4845 -0.8032
 3026SOL     OW20710   2.425   2.927   5.688 -0.1750  0.0002  0.0492
 3026SOL    HW120711   2.498   2.938   5.750  0.6025  1.4026 -1.1144
 3026SOL    HW220712   2.464   2.970   5.612  1.7186 -1.2453  0.3059
 3027SOL     OW20713   2.082   4.295  16.383  0.3193 -0.2395  0.6081
 3027SOL    HW120714   1.997   4.300  16.426  1.1904  1.1480  2.1917
 3027SOL    HW220715   2.111   4.207  16.408 -4.0766 -1.5237  1.1266
 3028SOL     OW20716   0.443   1.303   6.471 -0.0519  0.0375  0.0107
 3028SOL    HW120717   0.447   1.324   6.564  1.8282  0.7653 -0.2392
 3028SOL    HW220718   0.369   1.244   6.459 -0.0281  0.0992 -0.4492
 3029SOL     OW20719   2.588   0.513  16.673 -0.2100  0.0537 -0.1728
 3029SOL    HW120720   2.595   0.431  16.623  1.3744  0.7396 -1.1069
 3029SOL    HW220721   2.681   0.528  16.692 -0.1039  2.0985 -2.2381
 3030SOL     OW20722   4.371   2.779   5.576 -0.4758  0.0707  0.4473
 3030SOL    HW120723   4.285   2.780   5.534  1.3229 -0.8270 -3.2950
 3030SOL    HW220724   4.391   2.872   5.572  2.2229 -0.6581 -2.7019
 3031SOL     OW20725   3.877   3.782   0.701  0.2643  0.0875  0.3732
 3031SOL    HW120726   3.808   3.812   0.760  0.9418  0.1824  1.1225
 3031SOL    HW220727   3.953   3.837   0.719  0.4267  0.7993 -2.4325
 3032SOL     OW20728   4.104   3.822  10.314 -0.2453  0.1079  0.3220
 3032SOL    HW120729   4.189   3.855  10.283 -0.5664  0.5168 -0.1201
 3032SOL    HW220730   4.059   3.902  10.339 -0.5699  0.3190 -0.9276
 3033SOL     OW20731   0.781   1.222   3.682 -0.0690 -0.2529  0.0945
 3033SOL    HW120732   0.821   1.184   3.604 -0.7813  0.6566 -0.7089
 3033SOL    HW220733   0.730   1.293   3.643  2.3386  0.4244 -1.7803
 3034SOL     OW20734   2.669   4.101  14.964  0.1523 -0.1973 -0.2021
 3034SOL    HW120735   2.717   4.157  15.024 -2.2993  0.7635  0.8865
 3034SOL    HW220736   2.714   4.123  14.883 -0.0912 -1.4706 -0.6835
 3035SOL     OW20737   1.665   1.209   5.527 -0.1217  0.0713 -0.0390
 3035SOL    HW120738   1.584   1.166   5.498  0.6489 -0.6141 -1.1477
 3035SOL    HW220739   1.725   1.202   5.453 -0.5125  0.0400 -0.3595
 3036SOL     OW20740   4.214   3.443   5.125 -0.0227 -0.1818  0.5577
 3036SOL    HW120741   4.146   3.505   5.097  1.6224  1.6474  0.6456
 3036SOL    HW220742   4.176   3.355   5.114 -0.2393  0.1053 -0.9679
 3037SOL     OW20743   0.712   2.459  17.490  0.3640  0.0582 -0.4057
 3037SOL    HW120744   0.617   2.465  17.500  0.5195  2.2994 -0.3286
 3037SOL    HW220745   0.741   2.535  17.541  1.2512 -0.7582  0.3219
 3038SOL     OW20746   1.345   0.471  10.406  0.0247 -0.4400  0.2022
 3038SOL    HW120747   1.415   0.458  10.343  0.0248  1.2634 -0.1529
 3038SOL    HW220748   1.376   0.551  10.449 -1.1287  1.0721 -1.7850
 3039SOL     OW20749   2.667   4.156   4.392  0.0104  0.4096 -0.3548
 3039SOL    HW120750   2.704   4.106   4.464 -0.9450  2.2618  1.3967
 3039SOL    HW220751   2.668   4.088   4.325 -1.5091  0.1864 -0.1508
 3040SOL     OW20752   4.311   1.269   2.493 -0.4764 -0.2135  0.1145
 3040SOL    HW120753   4.273   1.339   2.441 -0.3813  0.5274  1.0317
 3040SOL    HW220754   4.303   1.305   2.582  1.0863  0.3400  0.0248
 3041SOL     OW20755   4.165   2.157   5.541 -0.3481  0.4204 -0.0926
 3041SOL    HW120756   4.254   2.127   5.559 -0.9532 -0.0908  1.9742
 3041SOL    HW220757   4.112   2.099   5.596 -0.0151 -0.7029 -0.9455
 3042SOL     OW20758   1.271   3.296  16.382 -0.1031 -0.2090 -0.0246
 3042SOL    HW120759   1.348   3.312  16.327 -0.6947 -0.4803 -0.9299
 3042SOL    HW220760   1.234   3.383  16.397 -0.1764  0.0897 -1.8975
 3043SOL     OW20761   1.184   0.782   5.493 -0.2044 -0.5320 -0.4177
 3043SOL    HW120762   1.204   0.762   5.402 -0.3008 -1.2913 -0.2739
 3043SOL    HW220763   1.256   0.736   5.536  1.4411  0.2494 -2.3515
 3044SOL     OW20764   1.735   2.269  17.511 -0.1151  0.2326  0.6160
 3044SOL    HW120765   1.662   2.321  17.544 -0.3669 -1.6015  2.9599
 3044SOL    HW220766   1.723   2.187  17.559 -0.7579  1.0290  1.8161
 3045SOL     OW20767   4.550   4.525  16.977  0.0830  0.7963 -0.5176
 3045SOL    HW120768   4.535   4.601  17.034  1.5596  1.1602 -0.6262
 3045SOL    HW220769   4.460   4.517  16.944 -0.1397 -3.9179  1.3497
 3046SOL     OW20770   1.048   0.339   9.141 -0.1982 -0.1281 -0.6182
 3046SOL    HW120771   1.127   0.381   9.177 -0.4813  0.1344 -0.3039
 3046SOL    HW220772   0.987   0.412   9.139 -0.5178 -0.3892 -0.1853
 3047SOL     OW20773   1.456   4.496   4.279  0.3486  0.2411 -0.1427
 3047SOL    HW120774   1.391   4.563   4.258 -0.4029 -0.6692 -0.7641
 3047SOL    HW220775   1.478   4.513   4.371  1.7489 -0.9658 -0.2576
 3048SOL     OW20776   3.797   2.660  11.338  0.1212 -0.0025  0.2990
 3048SOL    HW120777   3.856   2.614  11.279 -0.9803  0.1165 -0.8975
 3048SOL    HW220778   3.788   2.591  11.403 -0.8668  1.1809  1.4244
 3049SOL     OW20779   2.510   4.441   6.448 -0.2233 -0.3810 -0.2595
 3049SOL    HW120780   2.422   4.459   6.482  0.7503  0.8116  1.6489
 3049SOL    HW220781   2.498   4.412   6.358 -1.2487  0.6427 -0.4503
 3050SOL     OW20782   0.278   2.607   4.426 -0.0509  0.1117  0.2515
 3050SOL    HW120783   0.359   2.558   4.439  0.6035  0.3289 -2.8303
 3050SOL    HW220784   0.275   2.610   4.330 -1.6404  0.0252  0.2997
 3051SOL     OW20785   0.590   0.093   3.109  0.1379 -0.5492 -0.1421
 3051SOL    HW120786   0.508   0.060   3.073  0.1686 -0.1141 -0.6185
 3051SOL    HW220787   0.630   0.020   3.156  0.9009  0.3109  0.5572
 3052SOL     OW20788   2.017   4.617  14.534 -0.1793  0.0471  0.3639
 3052SOL    HW120789   2.085   4.674  14.498 -0.8977  1.0638  0.6174
 3052SOL    HW220790   1.968   4.679  14.589  0.8823  0.9082  0.3421
 3053SOL     OW20791   4.690   2.760   7.748 -0.1961 -0.3378  0.5467
 3053SOL    HW120792   4.727   2.753   7.660 -1.8973 -0.2454 -0.1718
 3053SOL    HW220793   4.608   2.713   7.737 -1.2551  0.9607  2.8600
 3054SOL     OW20794   4.052   4.451   6.515  0.4717 -0.0502 -0.1100
 3054SOL    HW120795   4.117   4.423   6.450  2.1145  0.5240  1.3148
 3054SOL    HW220796   4.114   4.466   6.586  1.4335 -3.3273 -0.2510
 3055SOL     OW20797   1.110   0.911   2.348  0.4070  0.5548 -0.2773
 3055SOL    HW120798   1.138   0.820   2.342  0.4328  0.5296  0.2204
 3055SOL    HW220799   1.183   0.961   2.312  0.6126 -0.2980 -1.0497
 3056SOL     OW20800   1.963   0.539   5.532 -0.4812  0.7627 -0.3942
 3056SOL    HW120801   1.941   0.454   5.569  2.4052  1.1647  2.2901
 3056SOL    HW220802   1.968   0.597   5.609 -2.0159  1.3943 -0.7548
 3057SOL     OW20803   0.182   0.286   3.321 -0.2519 -0.0911 -0.1560
 3057SOL    HW120804   0.156   0.374   3.296 -1.4410 -1.1486 -2.6157
 3057SOL    HW220805   0.258   0.308   3.376 -0.3346 -2.4500  0.9197
 3058SOL     OW20806   2.360   1.925   6.948 -0.7985 -0.2458  0.2986
 3058SOL    HW120807   2.314   2.008   6.956 -0.4217 -0.1344  1.3020
 3058SOL    HW220808   2.448   1.945   6.981 -1.7215  1.3279  1.7752
 3059SOL     OW20809   3.391   4.705   3.825 -0.5563 -0.8873  0.3291
 3059SOL    HW120810   3.446   4.661   3.889 -1.3172 -0.4312  1.3022
 3059SOL    HW220811   3.348   0.036   3.881  0.7407 -0.2775  0.6005
 3060SOL     OW20812   0.152   1.436   6.273  0.2537  0.4097  0.5394
 3060SOL    HW120813   0.190   1.450   6.186 -1.7564  1.2896 -0.1818
 3060SOL    HW220814   0.171   1.343   6.290 -2.3316 -0.0614  0.8960
 3061SOL     OW20815   0.650   3.373   5.703 -0.1509  0.0101  0.3097
 3061SOL    HW120816   0.670   3.369   5.796  4.8254 -1.5308 -0.8624
 3061SOL    HW220817   0.554   3.376   5.704 -0.1069  1.2193  0.7612
 3062SOL     OW20818   1.199   4.598   8.079 -0.3690 -0.1417 -0.1694
 3062SOL    HW120819   1.291   4.619   8.092 -0.6525  0.3677  1.0576
 3062SOL    HW220820   1.167   4.673   8.030  1.6982  0.3239 -0.8109
 3063SOL     OW20821   0.576   0.301   3.920 -0.0585  0.2362  0.7386
 3063SOL    HW120822   0.589   0.338   3.832 -0.6547 -1.8106 -0.1981
 3063SOL    HW220823   0.517   0.230   3.896 -0.8684  0.9122  0.7352
 3064SOL     OW20824   2.830   3.159   3.635 -0.5304 -0.2907  0.2186
 3064SOL    HW120825   2.869   3.146   3.722  0.0957  1.3178  0.1753
 3064SOL    HW220826   2.802   3.070   3.614 -0.2237 -0.5270  0.8033
 3065SOL     OW20827   4.203   1.476   4.751  0.3308  0.3762  0.3159
 3065SOL    HW120828   4.143   1.550   4.757  0.4651  0.5594 -0.6307
 3065SOL    HW220829   4.196   1.453   4.658  0.7580 -0.2195  0.4289
 3066SOL     OW20830   2.901   0.350  12.732  0.4180 -0.3307  0.4557
 3066SOL    HW120831   2.981   0.347  12.680 -0.0318 -2.7796 -0.0984
 3066SOL    HW220832   2.921   0.420  12.795 -2.0910  0.3814  0.4796
 3067SOL     OW20833   0.585   2.974  13.791 -0.4909 -0.2467 -0.1579
 3067SOL    HW120834   0.657   2.927  13.749  0.9923  0.8715  1.1486
 3067SOL    HW220835   0.622   3.061  13.777 -3.8108  1.0377 -0.9911
 3068SOL     OW20836   1.926   2.118   5.975 -0.5078  0.3782  0.0981
 3068SOL    HW120837   1.952   2.057   6.045 -0.0436 -1.7777 -1.9407
 3068SOL    HW220838   1.839   2.086   5.952  0.4833 -1.0426 -1.7045
 3069SOL     OW20839   3.888   1.448   2.691  0.1753  0.0812 -0.7510
 3069SOL    HW120840   3.941   1.430   2.769 -0.4054 -1.7400 -0.7768
 3069SOL    HW220841   3.828   1.375   2.707  1.0790 -0.7084 -0.9818
 3070SOL     OW20842   2.424   3.496   0.304 -0.5062 -0.1935  0.8086
 3070SOL    HW120843   2.497   3.550   0.275  0.1178 -0.3784  2.0556
 3070SOL    HW220844   2.365   3.498   0.229  0.0812  3.1127  0.4582
 3071SOL     OW20845   0.911   2.651  10.106 -0.6608  0.0538  0.6519
 3071SOL    HW120846   0.839   2.596  10.137 -0.3207 -0.6850  0.1431
 3071SOL    HW220847   0.957   2.584  10.055 -0.5680 -0.0611  0.8857
 3072SOL     OW20848   3.065   2.068   7.112 -0.3582 -0.1305 -0.4421
 3072SOL    HW120849   2.974   2.078   7.142  0.6256  3.6733  1.1932
 3072SOL    HW220850   3.086   1.983   7.151  0.5762 -0.1079 -0.9183
 3073SOL     OW20851   3.224   1.503  15.478 -0.3175  0.3782 -0.3540
 3073SOL    HW120852   3.314   1.525  15.454 -0.4257  1.6303  0.3686
 3073SOL    HW220853   3.174   1.583  15.459 -1.8679 -0.4271  0.3333
 3074SOL     OW20854   0.191   4.114   4.988  0.0845  0.0812  0.6077
 3074SOL    HW120855   0.193   4.136   5.081  0.3723  1.3677  0.2922
 3074SOL    HW220856   0.190   4.019   4.997  0.2173  0.0986  0.7951
 3075SOL     OW20857   4.728   3.478   7.368 -0.0764 -0.3553 -0.6480
 3075SOL    HW120858   0.068   3.443   7.320  0.7487 -0.4212  0.6998
 3075SOL    HW220859   0.006   3.451   7.459 -0.1549  2.2141  0.1298
 3076SOL     OW20860   4.003   4.082   7.216 -0.6235  0.2980 -0.0469
 3076SOL    HW120861   3.970   4.029   7.143  0.9488 -0.8709  0.0962
 3076SOL    HW220862   3.925   4.128   7.249  0.1929  0.6370  1.4151
 3077SOL     OW20863   0.248   1.523  11.266 -0.1530  0.7147 -0.5366
 3077SOL    HW120864   0.193   1.513  11.343 -0.7444  0.6978 -0.9566
 3077SOL    HW220865   0.274   1.432  11.251 -1.9932  0.1579 -0.3789
 3078SOL     OW20866   2.178   4.557   5.152  0.0237  0.3100 -0.0712
 3078SOL    HW120867   2.109   4.496   5.178  2.0817 -1.4723  1.2636
 3078SOL    HW220868   2.245   4.531   5.216 -1.5930 -0.5704  1.2763
 3079SOL     OW20869   3.568   1.889   6.689 -0.1417  0.4461  0.2634
 3079SOL    HW120870   3.479   1.922   6.692 -0.5170 -0.4484 -1.1150
 3079SOL    HW220871   3.585   1.913   6.780 -0.9130  0.2121  0.4673
 3080SOL     OW20872   3.276   1.410   9.070 -0.4902  0.1913  0.0908
 3080SOL    HW120873   3.227   1.336   9.034 -0.9914  1.1377 -1.1506
 3080SOL    HW220874   3.236   1.418   9.157 -1.4185  0.5207 -0.3613
 3081SOL     OW20875   0.514   0.291   3.281 -0.1218  0.3721  0.5110
 3081SOL    HW120876   0.530   0.229   3.210  0.7281  0.3693  0.7037
 3081SOL    HW220877   0.532   0.222   3.345  1.0370  0.1848 -0.0202
 3082SOL     OW20878   1.272   4.620  13.646 -0.5146  0.1098 -0.5877
 3082SOL    HW120879   1.330   4.693  13.668  0.3951 -0.8207  0.1430
 3082SOL    HW220880   1.282   4.622  13.551  1.1290 -2.6039 -0.5009
 3083SOL     OW20881   0.466   0.536   9.115 -0.3818 -0.4852  0.3711
 3083SOL    HW120882   0.526   0.533   9.190 -0.1268 -0.3377  0.1727
 3083SOL    HW220883   0.392   0.485   9.148 -0.1051 -1.3408 -0.3389
 3084SOL     OW20884   4.097   3.727   7.003 -0.0603 -0.1667 -0.1356
 3084SOL    HW120885   4.177   3.777   6.989  0.5188 -1.6426 -2.0490
 3084SOL    HW220886   4.122   3.637   6.983 -3.5884 -1.5418  1.5948
 3085SOL     OW20887   0.131   4.624   2.892 -0.1909  0.6488 -0.2700
 3085SOL    HW120888   0.112   4.569   2.816 -0.8942  1.7697 -0.8953
 3085SOL    HW220889   0.043   4.659   2.908 -0.4535 -0.1794  0.0919
 3086SOL     OW20890   4.656   1.933   9.160  0.1738  0.1796 -0.3391
 3086SOL    HW120891   4.584   1.884   9.120  0.9700 -1.1766 -0.1211
 3086SOL    HW220892   4.727   1.926   9.096 -0.1684 -0.5844 -0.6333
 3087SOL     OW20893   0.002   3.220   4.621  0.2686  0.1313 -0.4496
 3087SOL    HW120894   4.696   3.202   4.706  0.8107 -0.0351 -0.2217
 3087SOL    HW220895   0.000   3.316   4.620  1.7882  0.1430 -1.5235
 3088SOL     OW20896   3.254   1.884  15.656 -0.0782  0.2152 -0.2291
 3088SOL    HW120897   3.283   1.958  15.709 -1.1306  0.2427  0.3160
 3088SOL    HW220898   3.193   1.846  15.720 -0.3660  0.5141 -0.3290
 3089SOL     OW20899   0.165   4.582  10.232  0.3985 -0.0479 -1.0180
 3089SOL    HW120900   0.231   4.637  10.191  0.7090 -0.9509 -1.7071
 3089SOL    HW220901   0.147   4.643  10.304  1.2953 -0.4158 -0.4788
 3090SOL     OW20902   3.343   2.405  16.993  0.3266  0.6609 -0.0691
 3090SOL    HW120903   3.336   2.332  16.931  2.0839 -0.8899  1.5507
 3090SOL    HW220904   3.271   2.460  16.964 -1.7172 -0.3391  3.0707
 3091SOL     OW20905   4.724   3.658   5.821 -0.0763  0.2313  0.0452
 3091SOL    HW120906   0.035   3.580   5.851  0.7418  0.3416 -0.9187
 3091SOL    HW220907   4.638   3.636   5.858  0.2191 -0.1564  0.4990
 3092SOL     OW20908   3.789   4.634   7.643 -0.8612 -0.1195 -0.3282
 3092SOL    HW120909   3.815   4.593   7.560 -0.3988  2.5308 -1.4903
 3092SOL    HW220910   3.797   4.567   7.711 -1.8715 -0.1851 -0.2776
 3093SOL     OW20911   3.877   0.703   6.314 -0.2027 -0.1403 -0.5226
 3093SOL    HW120912   3.958   0.651   6.312 -0.6682 -0.9304  0.4489
 3093SOL    HW220913   3.810   0.637   6.296 -2.0928  1.5050  0.4978
 3094SOL     OW20914   2.439   0.618   1.525 -0.1524 -0.4673 -0.3357
 3094SOL    HW120915   2.460   0.530   1.494 -0.8791  0.3047 -3.0217
 3094SOL    HW220916   2.410   0.651   1.440 -2.4352 -2.5847 -0.3716
 3095SOL     OW20917   2.471   4.071   3.950 -0.5776  0.1176  0.1387
 3095SOL    HW120918   2.533   4.038   3.885 -1.8440  1.5615 -1.7621
 3095SOL    HW220919   2.388   4.033   3.925 -0.0281  1.3656 -3.5237
 3096SOL     OW20920   0.969   1.295  10.779 -0.2999  1.4177  0.1589
 3096SOL    HW120921   0.962   1.389  10.794  1.3051  1.6118 -0.2327
 3096SOL    HW220922   0.964   1.249  10.863  0.8867  0.4415 -0.3053
 3097SOL     OW20923   1.574   1.160   2.916 -0.4153  0.5095  0.0955
 3097SOL    HW120924   1.485   1.141   2.889  0.2696  0.8915 -2.4903
 3097SOL    HW220925   1.569   1.239   2.970 -1.9726  1.0497 -0.8377
 3098SOL     OW20926   3.251   1.621  14.918 -0.3676 -0.3502 -0.0329
 3098SOL    HW120927   3.206   1.570  14.851 -0.9939  1.2827 -0.8331
 3098SOL    HW220928   3.248   1.711  14.887 -0.4416 -0.6249 -0.8322
 3099SOL     OW20929   1.299   2.760  13.966  0.2787 -0.1187  0.4615
 3099SOL    HW120930   1.302   2.829  14.033  1.7309 -1.1101  1.4220
 3099SOL    HW220931   1.326   2.815  13.893 -2.8153 -0.1184 -0.6872
 3100SOL     OW20932   4.198   1.979   9.573 -0.4867 -0.0385 -0.1610
 3100SOL    HW120933   4.147   2.059   9.559 -1.7995 -0.5797  1.5387
 3100SOL    HW220934   4.162   1.951   9.657  0.8737 -0.2900  0.3455
 3101SOL     OW20935   1.156   3.653   8.912  0.1643  0.1980  0.2422
 3101SOL    HW120936   1.062   3.638   8.903  0.4735 -1.4805 -0.2541
 3101SOL    HW220937   1.174   3.588   8.981 -0.1312  1.1588  1.2308
 3102SOL     OW20938   3.548   0.410   9.455 -0.4045  0.1783  0.5480
 3102SOL    HW120939   3.617   0.366   9.504  0.0630  3.2708  2.6499
 3102SOL    HW220940   3.568   0.379   9.367 -0.4487 -1.1687  1.0103
 3103SOL     OW20941   1.240   4.297   4.952 -0.0073 -0.0090  0.0154
 3103SOL    HW120942   1.169   4.241   4.921 -0.1982 -0.1287  0.6636
 3103SOL    HW220943   1.268   4.250   5.030  0.5596 -0.8305 -0.6846
 3104SOL     OW20944   0.271   0.328   8.687 -0.2798  0.2379 -0.0228
 3104SOL    HW120945   0.345   0.273   8.712 -0.1447  1.0136  1.2340
 3104SOL    HW220946   0.211   0.333   8.761  0.1057 -0.5429  0.3367
 3105SOL     OW20947   0.459   1.203  11.690  0.4684  0.1227  0.3280
 3105SOL    HW120948   0.403   1.277  11.708 -1.9482 -1.6450  0.0717
 3105SOL    HW220949   0.407   1.148  11.749 -0.2274 -0.6640 -0.9992
 3106SOL     OW20950   0.368   1.175   4.016  0.0556 -0.1941 -0.1194
 3106SOL    HW120951   0.444   1.232   4.013  0.0160 -0.1451 -0.2084
 3106SOL    HW220952   0.301   1.240   4.037 -0.4390 -0.8149  0.2629
 3107SOL     OW20953   1.604   3.233   4.605 -0.1136  0.5215  0.5231
 3107SOL    HW120954   1.603   3.309   4.548 -1.1480  0.6372  0.7038
 3107SOL    HW220955   1.518   3.242   4.644  0.6018  0.8247  2.0371
 3108SOL     OW20956   4.374   0.018   7.439 -0.5253 -0.4770 -0.4175
 3108SOL    HW120957   4.396   0.093   7.495 -2.8952 -1.0494  1.2843
 3108SOL    HW220958   4.375   0.053   7.350 -0.8259  0.8220  0.0971
 3109SOL     OW20959   3.231   2.565   6.708 -0.4515  0.3004  0.2264
 3109SOL    HW120960   3.269   2.652   6.724  0.9554 -0.6240  1.9206
 3109SOL    HW220961   3.141   2.596   6.705 -0.0962  1.3675  0.4322
 3110SOL     OW20962   0.992   1.237   5.118  0.0907  0.0593 -0.0343
 3110SOL    HW120963   1.031   1.221   5.032 -1.9517  1.6761 -1.2825
 3110SOL    HW220964   1.058   1.300   5.146  0.6219 -1.2917  1.7495
 3111SOL     OW20965   4.164   2.241  11.115 -0.3872  0.6547  0.0477
 3111SOL    HW120966   4.163   2.292  11.196 -0.8969  0.1995  0.3269
 3111SOL    HW220967   4.109   2.164  11.130  0.9425 -0.1346  0.8345
 3112SOL     OW20968   0.774   0.078   3.559  0.7051 -0.0026 -0.5987
 3112SOL    HW120969   0.682   0.104   3.571  1.4690  1.9495  1.1004
 3112SOL    HW220970   0.767   0.050   3.468 -2.4275  1.4121 -0.8226
 3113SOL     OW20971   1.060   3.783   4.422 -0.1542 -0.0682  0.3848
 3113SOL    HW120972   1.106   3.861   4.391 -1.4048  0.9390  1.0559
 3113SOL    HW220973   1.103   3.716   4.369 -1.1949 -2.6117  2.8120
 3114SOL     OW20974   1.575   1.716   7.339  0.6103  0.2885  0.1270
 3114SOL    HW120975   1.591   1.725   7.433  0.1438 -1.7768  0.4000
 3114SOL    HW220976   1.527   1.633   7.333  3.4786 -1.3886  0.2304
 3115SOL     OW20977   1.649   1.722   7.625 -0.3290  0.5186  0.6521
 3115SOL    HW120978   1.686   1.692   7.708 -0.1102  0.0458  0.3789
 3115SOL    HW220979   1.562   1.758   7.644 -1.0172 -0.5401 -0.5468
 3116SOL     OW20980   1.055   3.325  11.824 -0.2149  0.2813 -0.9225
 3116SOL    HW120981   0.990   3.265  11.787 -3.0057  2.4856  0.4144
 3116SOL    HW220982   1.071   3.375  11.744  0.8458 -2.0247 -2.1356
 3117SOL     OW20983   4.032   0.171   2.599  0.0662  0.0393 -0.3574
 3117SOL    HW120984   4.115   0.220   2.592  0.0961  0.1687  0.9909
 3117SOL    HW220985   3.967   0.228   2.557  0.5503  0.9454  0.1050
 3118SOL     OW20986   1.342   0.657   5.702 -0.2178 -0.1322  0.0804
 3118SOL    HW120987   1.320   0.686   5.791  0.4066  2.4676 -0.6059
 3118SOL    HW220988   1.434   0.683   5.695 -0.6649  1.1327 -1.2263
 3119SOL     OW20989   3.591   3.232   7.346  0.1621  0.1199  0.0901
 3119SOL    HW120990   3.564   3.323   7.353 -2.2526 -0.6715  1.1206
 3119SOL    HW220991   3.669   3.243   7.292  0.8250  1.4653  1.3227
 3120SOL     OW20992   1.376   0.454   1.150  1.2572 -0.6725  0.1338
 3120SOL    HW120993   1.399   0.453   1.057 -1.1534 -4.0924 -0.4376
 3120SOL    HW220994   1.307   0.387   1.149 -1.7904  2.4852  1.0396
 3121SOL     OW20995   1.372   2.043   3.232  0.3824 -0.0222 -0.0291
 3121SOL    HW120996   1.384   2.099   3.154 -1.0741 -0.6630 -0.7123
 3121SOL    HW220997   1.446   2.078   3.282  1.2117 -0.6115 -0.8306
 3122SOL     OW20998   4.667   0.113   1.872 -0.5372 -0.7699 -0.1573
 3122SOL    HW120999   4.713   0.072   1.799 -1.3215 -0.1151 -1.0119
 3122SOL    HW221000   4.592   0.054   1.869 -0.8202 -0.4743  1.3780
 3123SOL     OW21001   0.360   0.394  16.276  0.2448  0.1217  0.8727
 3123SOL    HW121002   0.374   0.300  16.283 -0.4356  0.1933  3.1134
 3123SOL    HW221003   0.343   0.411  16.183 -1.1110 -3.2130  0.4939
 3124SOL     OW21004   1.893   3.981   9.835 -0.7128  0.4237  0.1243
 3124SOL    HW121005   1.948   4.054   9.806  1.2501 -1.2075 -0.2763
 3124SOL    HW221006   1.852   4.021   9.912  1.6996  0.4649  1.3788
 3125SOL     OW21007   2.416   1.456   4.703  0.0039  0.4186  0.0826
 3125SOL    HW121008   2.495   1.449   4.757 -1.3405  1.2874  2.1358
 3125SOL    HW221009   2.404   1.548   4.727  0.9710  0.5069  0.2568
 3126SOL     OW21010   4.660   0.088   2.860  0.6804  0.1107  0.6363
 3126SOL    HW121011   4.567   0.093   2.884  0.1674 -0.6517 -1.1881
 3126SOL    HW221012   4.697   0.172   2.889 -0.3309 -0.0026  2.2797
 3127SOL     OW21013   2.855   4.734   3.422 -0.0065 -0.0529 -0.1231
 3127SOL    HW121014   2.941   4.724   3.462  0.4212  1.8673 -0.5362
 3127SOL    HW221015   2.858   4.668   3.353  1.1036  0.2805 -0.3801
 3128SOL     OW21016   1.843   1.067  11.107 -0.9229  0.4064 -0.0148
 3128SOL    HW121017   1.758   1.053  11.146 -0.1741  1.9628  2.1685
 3128SOL    HW221018   1.830   1.153  11.066  2.4431  1.3076  0.7581
 3129SOL     OW21019   1.875   1.778  13.085 -0.5457  0.5330  0.1841
 3129SOL    HW121020   1.915   1.695  13.058  0.4655  1.5892 -1.5748
 3129SOL    HW221021   1.955   1.824  13.110  0.3760 -1.2209  0.4235
 3130SOL     OW21022   4.590   4.063   5.179 -0.2490  0.1318 -0.2214
 3130SOL    HW121023   4.548   3.988   5.137  0.9101  0.4214 -1.8823
 3130SOL    HW221024   4.615   4.116   5.104 -0.2568  1.4646  0.7075
 3131SOL     OW21025   1.974   2.720   5.434  0.4256  0.0694  0.9073
 3131SOL    HW121026   2.042   2.774   5.473 -0.0468  0.7130  0.8555
 3131SOL    HW221027   2.008   2.634   5.457 -0.1827 -0.6554 -0.9460
 3132SOL     OW21028   3.444   0.890   5.587 -0.4686 -0.4823  0.3638
 3132SOL    HW121029   3.462   0.923   5.499 -0.6000 -0.4629  0.3442
 3132SOL    HW221030   3.435   0.972   5.635  0.2117  0.2906 -0.8229
 3133SOL     OW21031   1.255   3.909   8.213 -0.3155  0.1874  0.4006
 3133SOL    HW121032   1.174   3.874   8.249  0.2583 -2.0409 -0.4879
 3133SOL    HW221033   1.231   3.999   8.192 -0.7553 -0.3430 -1.3291
 3134SOL     OW21034   0.369   3.348  11.468  0.1759  0.4869 -0.1659
 3134SOL    HW121035   0.353   3.291  11.543 -1.2096 -0.2212 -0.9944
 3134SOL    HW221036   0.418   3.423  11.501 -1.2674  0.8613  1.1496
 3135SOL     OW21037   1.387   1.719   6.870  0.2472 -0.5976  0.0935
 3135SOL    HW121038   1.355   1.682   6.952 -0.7112 -2.2549 -1.0379
 3135SOL    HW221039   1.338   1.662   6.811  2.3804 -2.2579 -0.1209
 3136SOL     OW21040   3.120   1.173   3.492 -0.2715  0.7257  0.1450
 3136SOL    HW121041   3.146   1.131   3.410 -2.5927 -0.3652 -0.0394
 3136SOL    HW221042   3.087   1.098   3.542  1.0398  0.6778  0.9192
 3137SOL     OW21043   4.424   4.079   1.279  0.5783 -0.0748  0.2432
 3137SOL    HW121044   4.382   4.105   1.197 -1.4657  2.3282  2.0425
 3137SOL    HW221045   4.429   4.167   1.316 -0.2117  1.1643 -2.5724
 3138SOL     OW21046   0.964   3.363   6.021  0.0337 -0.2162  0.0250
 3138SOL    HW121047   1.007   3.401   5.944 -0.8347  0.2997 -0.2171
 3138SOL    HW221048   0.990   3.271   6.018 -2.5437 -0.9217 -0.5091
 3139SOL     OW21049   0.781   2.259  10.821  0.0927 -0.4873  0.0557
 3139SOL    HW121050   0.715   2.229  10.758  0.5040 -0.2920 -0.4666
 3139SOL    HW221051   0.731   2.335  10.850 -0.2879 -0.6885 -0.0706
 3140SOL     OW21052   4.327   3.894   7.023  0.2770 -0.0956  0.1469
 3140SOL    HW121053   4.316   3.973   7.076  0.7143 -0.4772  0.8028
 3140SOL    HW221054   4.338   3.922   6.932  1.9774 -0.7025  0.1736
 3141SOL     OW21055   4.380   0.444   2.367  1.4840 -0.9158  0.3964
 3141SOL    HW121056   4.367   0.538   2.373  0.7255 -0.9824 -0.2840
 3141SOL    HW221057   4.329   0.412   2.441 -1.7109  1.0731 -0.9742
 3142SOL     OW21058   3.629   3.433  12.723 -0.2303 -0.2537 -0.3336
 3142SOL    HW121059   3.582   3.442  12.640  0.5992  0.2281 -0.7528
 3142SOL    HW221060   3.638   3.338  12.717  2.5089 -0.0883  0.9728
 3143SOL     OW21061   3.818   4.380   1.071 -0.3976  0.1094  0.3699
 3143SOL    HW121062   3.790   4.314   1.134 -0.8219  1.0884  1.2009
 3143SOL    HW221063   3.875   4.432   1.127  1.4563 -0.9921 -0.4853
 3144SOL     OW21064   0.135   3.001  15.680  0.0034  0.1905  0.3742
 3144SOL    HW121065   0.137   3.080  15.733 -1.0977  0.0883  0.5616
 3144SOL    HW221066   0.069   3.014  15.612  0.9076  1.4089 -0.2711
 3145SOL     OW21067   4.300   2.505  14.909 -0.9210 -0.2385  0.1585
 3145SOL    HW121068   4.252   2.545  14.982  0.7422 -1.0534  1.6829
 3145SOL    HW221069   4.352   2.444  14.961 -0.1000 -0.3501 -0.7791
 3146SOL     OW21070   2.380   0.343   2.496  0.6476 -0.7271  0.2743
 3146SOL    HW121071   2.409   0.275   2.557  2.1472  0.7616  1.2353
 3146SOL    HW221072   2.457   0.335   2.440  0.2661  0.3741 -0.4127
 3147SOL     OW21073   2.366   4.589  17.179  0.5798  0.4571  0.0706
 3147SOL    HW121074   2.388   4.627  17.094  1.1886  1.0392  0.4896
 3147SOL    HW221075   2.403   4.644  17.248  1.8062 -0.8580  0.4568
 3148SOL     OW21076   3.441   2.162   6.507 -0.0527  0.3018 -0.2213
 3148SOL    HW121077   3.454   2.186   6.415  1.0337  1.9248  0.3572
 3148SOL    HW221078   3.354   2.122   6.498 -0.3567  0.7329  0.7542
 3149SOL     OW21079   2.112   3.977  10.776 -0.0306  0.1277  0.1871
 3149SOL    HW121080   2.206   3.996  10.776 -0.4312  2.1030  0.8108
 3149SOL    HW221081   2.114   3.895  10.726  0.6617  0.4420 -0.3032
 3150SOL     OW21082   1.706   3.894  12.466 -0.3839 -0.1988 -0.2123
 3150SOL    HW121083   1.648   3.931  12.533 -0.5792 -0.0175 -0.4827
 3150SOL    HW221084   1.793   3.921  12.496  0.4204 -2.0666 -0.9027
 3151SOL     OW21085   0.270   1.834   3.406 -0.2414  0.3590 -0.3355
 3151SOL    HW121086   0.189   1.796   3.371 -0.2751  1.0803 -1.0535
 3151SOL    HW221087   0.260   1.919   3.362 -0.7753 -0.2831 -1.4399
 3152SOL     OW21088   2.010   4.103   1.147  0.1079  0.0730  0.2753
 3152SOL    HW121089   2.092   4.110   1.196  0.2859  0.9339 -0.1431
 3152SOL    HW221090   1.985   4.180   1.096  1.6729  0.4643  0.0856
 3153SOL     OW21091   3.486   0.930   8.008 -0.0247 -0.0867 -0.0771
 3153SOL    HW121092   3.416   0.876   7.973  1.1002 -1.5955  0.0094
 3153SOL    HW221093   3.507   0.885   8.089 -1.6819 -0.3002  0.2235
 3154SOL     OW21094   0.072   2.506   5.225 -0.0501 -0.0495 -0.1208
 3154SOL    HW121095   0.078   2.601   5.220 -2.4059  0.2147  2.3752
 3154SOL    HW221096   0.014   2.504   5.150 -2.2334 -0.0466  1.5760
 3155SOL     OW21097   3.345   1.386   5.136 -0.0281 -0.0854 -0.3420
 3155SOL    HW121098   3.355   1.411   5.044 -0.0549 -0.4803 -0.4507
 3155SOL    HW221099   3.263   1.429   5.158  0.3803  1.2171 -1.3732
 3156SOL     OW21100   1.263   4.281  16.509  0.1183 -0.0281  0.0297
 3156SOL    HW121101   1.229   4.312  16.593 -0.4525  0.1991 -0.2860
 3156SOL    HW221102   1.276   4.369  16.474 -0.7616  0.0828 -0.0052
 3157SOL     OW21103   2.726   3.307   2.354  0.0219 -0.6686 -0.7800
 3157SOL    HW121104   2.735   3.356   2.272 -1.2465  0.4155 -0.2742
 3157SOL    HW221105   2.721   3.218   2.319 -0.9063 -1.3074  0.9667
 3158SOL     OW21106   4.162   2.868   4.686 -0.9502 -0.4331  0.3250
 3158SOL    HW121107   4.141   2.830   4.600  0.8301  2.1874 -1.2731
 3158SOL    HW221108   4.228   2.929   4.653  0.5313 -1.6028  1.1312
 3159SOL     OW21109   3.930   2.680   9.201 -0.6102 -0.4637 -0.5091
 3159SOL    HW121110   3.954   2.594   9.167 -1.9149 -1.2446  0.5509
 3159SOL    HW221111   4.014   2.725   9.186  0.2635 -2.8646 -2.8743
 3160SOL     OW21112   1.491   2.457   4.274  0.3376 -0.1311  0.5351
 3160SOL    HW121113   1.479   2.392   4.343  0.4171 -0.2616  0.4277
 3160SOL    HW221114   1.424   2.419   4.216  0.6440  0.3433 -0.1277
 3161SOL     OW21115   0.668   2.030   5.338 -0.1218  0.4444  0.2339
 3161SOL    HW121116   0.713   2.090   5.397  1.8560 -1.7650  0.9621
 3161SOL    HW221117   0.717   1.952   5.363  1.5724  1.5593  0.4065
 3162SOL     OW21118   0.693   2.955   3.809 -0.2374  0.1526 -0.3413
 3162SOL    HW121119   0.620   2.972   3.749 -0.7916  0.9759  0.5654
 3162SOL    HW221120   0.662   3.008   3.883  0.8041 -0.2327  0.3773
 3163SOL     OW21121   4.002   2.050  11.213  0.2393  0.4376 -0.3715
 3163SOL    HW121122   3.916   2.014  11.235  0.8709 -1.3457 -0.8340
 3163SOL    HW221123   4.056   1.977  11.242 -0.1993  0.3333  0.1924
 3164SOL     OW21124   2.847   4.680  16.289 -0.6923  0.0606 -0.7905
 3164SOL    HW121125   2.851   4.696  16.384 -3.1213 -2.5387 -0.2686
 3164SOL    HW221126   2.937   4.649  16.275 -0.9609  0.1362 -2.6758
 3165SOL     OW21127   0.780   0.043   7.043  0.1059 -0.3190  0.0555
 3165SOL    HW121128   0.793   4.724   6.965 -1.0250  0.9330 -0.9842
 3165SOL    HW221129   0.850   0.014   7.103  1.4499  2.1686 -0.2984
 3166SOL     OW21130   1.254   0.650   1.951  0.1573 -0.0162 -0.4372
 3166SOL    HW121131   1.212   0.609   1.876  1.3258  1.1640 -1.7408
 3166SOL    HW221132   1.184   0.707   1.982 -0.8216 -0.6682 -1.4844
 3167SOL     OW21133   1.310   0.115   0.516 -0.4970  0.2121  0.1033
 3167SOL    HW121134   1.318   0.208   0.541  0.8407 -0.3543  1.8286
 3167SOL    HW221135   1.279   0.118   0.425 -1.4704 -0.7782  0.4064
 3168SOL     OW21136   1.056   2.442   9.090  0.1667  0.1012  0.7650
 3168SOL    HW121137   1.011   2.511   9.140 -0.1884 -0.3241  1.0251
 3168SOL    HW221138   0.982   2.393   9.054  2.0840 -1.9548 -0.3658
 3169SOL     OW21139   2.190   2.860  14.231 -0.0763  0.8357  0.2580
 3169SOL    HW121140   2.117   2.829  14.177 -0.3423  0.1691  0.9842
 3169SOL    HW221141   2.251   2.816  14.172 -0.6429  0.3118  0.0546
 3170SOL     OW21142   4.706   0.864   5.087  0.2613 -0.7012  0.1710
 3170SOL    HW121143   4.674   0.950   5.113  0.2494 -0.6049 -0.1608
 3170SOL    HW221144   0.065   0.879   5.083  0.2296  0.2230  2.9281
 3171SOL     OW21145   1.927   3.156   5.314 -0.0580 -0.0399  0.0281
 3171SOL    HW121146   1.871   3.080   5.295  0.0042 -0.1672  0.3519
 3171SOL    HW221147   1.875   3.192   5.386  2.6449  1.7441  1.0584
 3172SOL     OW21148   3.701   3.258  14.907 -0.0153 -0.2266 -0.1731
 3172SOL    HW121149   3.681   3.236  14.998  0.5563 -0.4570 -0.1053
 3172SOL    HW221150   3.727   3.348  14.926 -0.8542  0.3120 -1.5568
 3173SOL     OW21151   0.133   2.624   8.912 -0.5314  0.2627 -0.0168
 3173SOL    HW121152   0.055   2.602   8.964  0.3218  2.2408  2.0874
 3173SOL    HW221153   0.183   2.672   8.978  0.1113  0.2606 -0.5084
 3174SOL     OW21154   0.677   2.238   2.211 -0.0611 -0.5219  0.6649
 3174SOL    HW121155   0.720   2.153   2.206  0.6271 -0.1501  0.1711
 3174SOL    HW221156   0.723   2.290   2.145 -0.3216 -1.4163 -0.2244
 3175SOL     OW21157   0.161   3.635   8.494  0.0066 -0.9216  0.0769
 3175SOL    HW121158   0.256   3.622   8.499  0.2479  0.0470 -2.3531
 3175SOL    HW221159   0.141   3.552   8.537  0.1505 -1.6668 -1.3194
 3176SOL     OW21160   1.125   1.357   5.862  0.1312 -0.3357 -0.3442
 3176SOL    HW121161   1.132   1.453   5.868 -0.7226 -0.2752 -0.3488
 3176SOL    HW221162   1.179   1.328   5.936  0.4960 -3.4265 -1.8509
 3177SOL     OW21163   0.235   0.233   2.703 -0.1598 -0.5478  0.6015
 3177SOL    HW121164   0.319   0.192   2.683  0.1067  0.3644 -0.1453
 3177SOL    HW221165   0.262   0.323   2.686  2.0192 -1.3343 -0.0812
 3178SOL     OW21166   3.423   1.399   0.023  0.0901  0.6801  0.1849
 3178SOL    HW121167   3.457   1.441  17.683  1.3080 -0.3202  0.1987
 3178SOL    HW221168   3.388   1.315  17.731  1.4456 -0.1489  0.9341
 3179SOL     OW21169   1.785   2.885  12.009 -0.1356 -0.2115  0.0491
 3179SOL    HW121170   1.768   2.978  11.998  0.5505 -0.1379 -0.4120
 3179SOL    HW221171   1.702   2.844  12.032 -0.3745  1.4645  2.2050
 3180SOL     OW21172   0.214   1.315   7.037 -0.0756 -0.0055 -0.0585
 3180SOL    HW121173   0.119   1.308   7.050 -0.3910  1.8800 -1.4291
 3180SOL    HW221174   0.241   1.229   7.071  0.8749 -0.0693 -0.9802
 3181SOL     OW21175   2.302   0.995   4.994 -0.0193  0.2691 -0.1487
 3181SOL    HW121176   2.262   1.035   4.918 -2.0657 -0.6532  0.4581
 3181SOL    HW221177   2.370   1.058   5.020  0.2961 -0.0462 -0.2105
 3182SOL     OW21178   4.682   0.208   7.685 -0.0228 -0.4259  0.2028
 3182SOL    HW121179   0.030   0.209   7.637  0.2472  0.3439  0.6906
 3182SOL    HW221180   4.707   0.244   7.770 -0.8646  0.5382  0.0471
 3183SOL     OW21181   2.749   2.573  11.427  0.1161 -0.1693  0.1324
 3183SOL    HW121182   2.792   2.585  11.342  0.9807 -2.0717  0.2974
 3183SOL    HW221183   2.727   2.662  11.453 -0.3967 -0.3190  0.2160
 3184SOL     OW21184   3.966   2.321   2.919  0.0133  0.9003 -0.1151
 3184SOL    HW121185   4.021   2.302   2.995 -2.1799 -0.5871  1.0771
 3184SOL    HW221186   3.889   2.288   2.964  0.5285  0.9975  0.8415
 3185SOL     OW21187   1.866   3.820   6.270  0.0802 -0.6875 -0.5762
 3185SOL    HW121188   1.849   3.770   6.190  0.5305 -1.7558 -0.0080
 3185SOL    HW221189   1.776   3.849   6.282  0.4975 -0.3828  1.7277
 3186SOL     OW21190   0.581   4.266   8.120  0.0627 -0.1304  0.2529
 3186SOL    HW121191   0.585   4.302   8.208  0.4196 -3.1068  1.4406
 3186SOL    HW221192   0.594   4.346   8.068  2.3836 -1.0875 -0.6334
 3187SOL     OW21193   4.158   0.863   4.338  0.2830  0.3771  0.2406
 3187SOL    HW121194   4.082   0.815   4.371  1.5226 -0.5166  1.7961
 3187SOL    HW221195   4.166   0.828   4.249  0.1965 -1.1816  0.8464
 3188SOL     OW21196   1.642   2.843  10.883  0.0054 -0.0804  0.6470
 3188SOL    HW121197   1.729   2.881  10.894 -0.7517  1.3837  1.5062
 3188SOL    HW221198   1.586   2.893  10.942  1.0229 -0.7733  2.1757
 3189SOL     OW21199   1.034   1.258   3.805  0.0291  0.0111 -0.7750
 3189SOL    HW121200   0.946   1.244   3.770 -0.3031  2.0759 -0.7855
 3189SOL    HW221201   1.051   1.351   3.787  0.2802  0.3450  1.0833
 3190SOL     OW21202   4.144   0.351   6.253 -0.2862 -0.6313  0.1682
 3190SOL    HW121203   4.225   0.307   6.281  0.9479  2.3268  1.2863
 3190SOL    HW221204   4.157   0.436   6.296  2.6477 -0.1064 -1.7748
 3191SOL     OW21205   2.808   0.236   4.231 -0.2438 -0.1135  0.0653
 3191SOL    HW121206   2.767   0.297   4.292 -1.4630 -1.0078  0.1261
 3191SOL    HW221207   2.823   0.159   4.287 -1.8194  0.8315  1.7897
 3192SOL     OW21208   0.772   1.820   9.835  0.3403  0.7949 -0.3511
 3192SOL    HW121209   0.720   1.756   9.884  1.2033  0.3172 -0.0544
 3192SOL    HW221210   0.714   1.858   9.769  0.5537 -2.1883 -2.2554
 3193SOL     OW21211   1.162   0.634   7.800  0.6895 -0.2397 -0.0270
 3193SOL    HW121212   1.203   0.667   7.880  1.5862  0.4169 -0.7598
 3193SOL    HW221213   1.121   0.556   7.837  1.7055 -2.0272 -2.6755
 3194SOL     OW21214   0.795   3.172   3.089 -0.3408  0.0444  0.0757
 3194SOL    HW121215   0.838   3.257   3.082  0.7246 -0.5062 -0.1956
 3194SOL    HW221216   0.702   3.193   3.089 -0.4874 -0.5919 -0.8796
 3195SOL     OW21217   2.635   1.874   8.015  0.3865 -0.5654 -0.1424
 3195SOL    HW121218   2.588   1.939   7.964  2.6127  2.0936  1.1673
 3195SOL    HW221219   2.577   1.876   8.091 -1.3678  1.5878 -1.5769
 3196SOL     OW21220   0.457   3.218   8.186 -0.0488 -0.3616  0.3797
 3196SOL    HW121221   0.546   3.193   8.162  0.2398  1.4906 -0.5058
 3196SOL    HW221222   0.411   3.139   8.157 -0.3501 -0.5264  1.3223
 3197SOL     OW21223   2.966   1.580   6.210 -0.2520 -0.0309 -0.4167
 3197SOL    HW121224   3.000   1.541   6.290 -0.5744 -1.4253 -0.9645
 3197SOL    HW221225   2.955   1.505   6.151 -0.8763  0.4892 -0.9609
 3198SOL     OW21226   3.188   2.326   2.352 -0.7619 -0.0771 -0.2599
 3198SOL    HW121227   3.238   2.284   2.422 -1.6914 -1.0070 -0.1585
 3198SOL    HW221228   3.260   2.367   2.303 -0.8369  1.5754  1.0458
 3199SOL     OW21229   4.028   0.210   8.027 -0.2036 -0.3144  0.0073
 3199SOL    HW121230   4.089   0.283   8.025  0.1537 -0.5807  1.4913
 3199SOL    HW221231   4.021   0.192   7.933  1.2315  0.0687 -0.1633
 3200SOL     OW21232   3.092   0.290   7.736  0.7097 -0.5116 -0.0392
 3200SOL    HW121233   3.090   0.217   7.674 -2.1805 -0.6097  0.1975
 3200SOL    HW221234   3.157   0.260   7.801 -2.4068 -0.1961  3.2048
 3201SOL     OW21235   0.830   2.667  13.070  0.1774  0.3971 -0.4173
 3201SOL    HW121236   0.899   2.705  13.125  0.8120 -2.0857  0.5118
 3201SOL    HW221237   0.870   2.646  12.985  2.2592  2.9164 -0.0490
 3202SOL     OW21238   1.564   3.376   7.835  0.0147 -0.1052 -0.3700
 3202SOL    HW121239   1.516   3.458   7.841 -1.7192 -1.0210 -1.6624
 3202SOL    HW221240   1.653   3.410   7.837  0.4788 -1.4186  0.8328
 3203SOL     OW21241   0.054   3.195   6.542 -0.2233  0.1407  0.1215
 3203SOL    HW121242   0.089   3.157   6.461  0.7864  1.4694 -0.0619
 3203SOL    HW221243   4.713   3.245   6.513 -0.8747 -0.7481  0.2835
 3204SOL     OW21244   1.478   0.393   0.811  0.8019 -0.6532 -0.2599
 3204SOL    HW121245   1.403   0.364   0.759  0.6998 -3.1251  1.2687
 3204SOL    HW221246   1.458   0.484   0.834 -0.9302 -0.9264 -0.7194
 3205SOL     OW21247   3.378   1.488   5.701  0.0661  0.2835 -0.4180
 3205SOL    HW121248   3.352   1.479   5.792  2.6323 -0.1305  0.2705
 3205SOL    HW221249   3.464   1.447   5.694  0.5819  1.8378 -3.1165
 3206SOL     OW21250   2.542   2.618   8.777  0.4336 -0.4877  0.4170
 3206SOL    HW121251   2.600   2.673   8.829 -0.5988  1.5205 -0.5089
 3206SOL    HW221252   2.494   2.560   8.836 -1.7498 -0.4871 -1.3548
 3207SOL     OW21253   4.671   3.516  10.367 -0.1624  0.0232 -0.0672
 3207SOL    HW121254   4.704   3.499  10.279 -2.9424 -3.8282 -0.3618
 3207SOL    HW221255   4.581   3.543  10.348  0.3580  1.1643 -0.9674
 3208SOL     OW21256   0.461   1.239   3.557  0.8187  0.3368  0.0841
 3208SOL    HW121257   0.546   1.282   3.555  0.4602  0.8226 -3.5074
 3208SOL    HW221258   0.430   1.290   3.632  1.3648  1.6264 -0.5689
 3209SOL     OW21259   4.587   1.865   5.617  0.3088  0.1055 -0.3082
 3209SOL    HW121260   4.640   1.942   5.594  0.8695 -0.6321 -1.5117
 3209SOL    HW221261   4.516   1.915   5.657  0.8342  0.7927 -0.2211
 3210SOL     OW21262   3.383   3.433   8.247  0.3676 -0.0491  0.3504
 3210SOL    HW121263   3.289   3.445   8.238  0.2451 -0.2271  1.3850
 3210SOL    HW221264   3.375   3.392   8.333  2.7620 -1.8945 -0.3094
 3211SOL     OW21265   2.068   0.463  10.544 -0.1303 -0.2304 -0.2843
 3211SOL    HW121266   1.994   0.483  10.486  0.3562  1.3298 -0.3637
 3211SOL    HW221267   2.139   0.504  10.495  0.5745 -0.2181  0.7568
 3212SOL     OW21268   2.744   4.435   0.598 -0.3343  0.0415  0.1377
 3212SOL    HW121269   2.752   4.353   0.647 -0.8274  1.0471  1.9221
 3212SOL    HW221270   2.797   4.408   0.524 -1.9704  1.3555 -1.5184
 3213SOL     OW21271   4.441   0.868   2.769  0.6004  0.4309  0.4416
 3213SOL    HW121272   4.461   0.863   2.863 -0.1229 -1.2047  0.5163
 3213SOL    HW221273   4.514   0.817   2.732 -0.1686  2.4423 -3.7665
 3214SOL     OW21274   1.915   0.503   0.787 -0.4153 -0.4498  0.4903
 3214SOL    HW121275   1.841   0.446   0.768 -0.4949 -0.3408  0.4700
 3214SOL    HW221276   1.955   0.464   0.865 -3.1207  2.0784  3.1326
 3215SOL     OW21277   1.613   1.163   6.017  0.1585 -0.5061 -0.1573
 3215SOL    HW121278   1.692   1.109   6.016  1.6410  1.6249 -0.2744
 3215SOL    HW221279   1.622   1.215   5.936  2.0813  0.1041  0.4366
 3216SOL     OW21280   4.091   4.252   6.080 -0.0425  0.0492 -0.3067
 3216SOL    HW121281   4.084   4.216   6.169 -0.8844 -0.5956 -0.6308
 3216SOL    HW221282   4.076   4.169   6.035 -0.1447 -1.0417  1.7489
 3217SOL     OW21283   3.270   3.922   5.168 -0.1693 -0.1603  0.4843
 3217SOL    HW121284   3.330   3.858   5.207  0.0636  0.7329  1.5959
 3217SOL    HW221285   3.236   3.953   5.252 -0.5069  0.0767  0.2595
 3218SOL     OW21286   0.648   3.950   6.387 -0.0362  0.7809 -0.2390
 3218SOL    HW121287   0.630   4.018   6.452  0.8109  0.3225  0.4862
 3218SOL    HW221288   0.581   3.886   6.410  0.1972  0.7012  0.2143
 3219SOL     OW21289   1.747   4.538  16.835  0.3837  0.2273  0.6146
 3219SOL    HW121290   1.681   4.595  16.873 -0.3142 -0.8580  1.0259
 3219SOL    HW221291   1.699   4.474  16.783 -0.0483  0.6272  0.5265
 3220SOL     OW21292   3.091   1.639   5.010 -0.4877  0.3010  0.5469
 3220SOL    HW121293   3.045   1.710   5.054  3.0831  2.9376 -0.0381
 3220SOL    HW221294   3.098   1.575   5.080 -0.5472  0.3553  0.6021
 3221SOL     OW21295   3.839   1.403  16.946  0.0494  0.9539  0.4266
 3221SOL    HW121296   3.875   1.484  16.909  2.3810  0.4270  1.5488
 3221SOL    HW221297   3.910   1.340  16.952 -0.0931  0.8017  0.5061
 3222SOL     OW21298   1.109   3.026   8.480  0.3724 -0.2472 -0.5052
 3222SOL    HW121299   1.017   3.025   8.509  0.0482 -1.1310 -1.5774
 3222SOL    HW221300   1.146   2.981   8.556 -0.8963  2.2671  1.6294
 3223SOL     OW21301   0.130   2.331   2.261 -0.4346  0.0148  0.4348
 3223SOL    HW121302   0.100   2.391   2.192  1.0968  0.0648 -0.1959
 3223SOL    HW221303   0.218   2.305   2.233 -0.8185 -2.5116  1.6264
 3224SOL     OW21304   1.576   2.685   3.424 -0.3454  0.0325  0.6121
 3224SOL    HW121305   1.604   2.659   3.511  2.0753  0.0604 -0.1400
 3224SOL    HW221306   1.482   2.673   3.420 -0.1730 -0.5085 -2.3251
 3225SOL     OW21307   1.243   0.836  10.273  0.1205  0.3503 -0.7939
 3225SOL    HW121308   1.204   0.890  10.204 -2.3587  1.3846  1.4268
 3225SOL    HW221309   1.299   0.891  10.327  2.2042 -3.7418  1.2033
 3226SOL     OW21310   3.095   0.208   3.490 -0.6387 -0.4406 -0.1042
 3226SOL    HW121311   3.184   0.225   3.459 -0.9209  2.9652  0.9374
 3226SOL    HW221312   3.106   0.147   3.563 -1.4798  0.6402  0.9369
 3227SOL     OW21313   1.476   2.967   4.833 -0.1991  0.4963 -0.2593
 3227SOL    HW121314   1.483   2.939   4.742  1.1119  1.0291 -0.3261
 3227SOL    HW221315   1.383   2.949   4.843  0.0426 -0.8134 -0.3095
 3228SOL     OW21316   4.051   0.533   5.217 -0.4173  0.2469 -0.2353
 3228SOL    HW121317   4.119   0.581   5.169 -2.0834  1.0270 -1.7667
 3228SOL    HW221318   4.080   0.534   5.309  0.6595 -1.9100 -0.5434
 3229SOL     OW21319   3.721   1.548  17.683  0.3816  0.8606 -0.0039
 3229SOL    HW121320   3.798   1.564  17.628  0.4617  3.5449  0.9295
 3229SOL    HW221321   3.658   1.511  17.621 -1.0331 -1.5125  2.8481
 3230SOL     OW21322   3.458   1.428   8.464  0.1716 -0.7042  0.3176
 3230SOL    HW121323   3.527   1.452   8.526  0.1366 -1.2553  0.5665
 3230SOL    HW221324   3.402   1.382   8.526  0.0373 -0.8067  0.1164
 3231SOL     OW21325   0.551   4.586   6.253 -0.0729  0.7524  0.4637
 3231SOL    HW121326   0.470   4.597   6.302 -1.3951 -0.5778 -1.4203
 3231SOL    HW221327   0.518   4.529   6.184 -0.3086 -0.8656  1.9434
 3232SOL     OW21328   4.716   3.347  14.167 -0.1086  0.4102 -0.0648
 3232SOL    HW121329   4.701   3.312  14.255 -2.2138 -0.3145 -0.7134
 3232SOL    HW221330   0.012   3.437  14.172  3.5478 -0.9662  2.3030
 3233SOL     OW21331   2.619   3.458   3.747 -0.2528  0.0892  0.0496
 3233SOL    HW121332   2.618   3.540   3.698  0.5059 -0.1334 -0.3528
 3233SOL    HW221333   2.640   3.397   3.676 -0.2382  0.9827 -0.7129
 3234SOL     OW21334   3.479   3.440   2.867  0.3312 -0.0420 -0.0787
 3234SOL    HW121335   3.432   3.388   2.933  0.3814  1.9895  1.5440
 3234SOL    HW221336   3.571   3.438   2.892  0.4634  1.0468 -0.4993
 3235SOL     OW21337   3.773   3.641   3.726  0.4214 -0.3903  0.3337
 3235SOL    HW121338   3.699   3.693   3.758  2.1576  2.8675 -0.9556
 3235SOL    HW221339   3.728   3.562   3.697  0.6229 -0.0587 -0.8920
 3236SOL     OW21340   3.444   1.805   8.599 -0.3120  0.1444  0.2020
 3236SOL    HW121341   3.495   1.769   8.527  0.4721  0.2330  0.7161
 3236SOL    HW221342   3.482   1.764   8.677 -0.3658 -0.1201  0.0896
 3237SOL     OW21343   0.942   2.713   8.451  0.1462 -0.5056  0.1611
 3237SOL    HW121344   0.856   2.706   8.411  0.4515  0.0169 -0.5852
 3237SOL    HW221345   0.918   2.643   8.511 -1.6139  1.1384  1.3376
 3238SOL     OW21346   0.450   1.925  12.938 -0.2384 -0.0492  0.1730
 3238SOL    HW121347   0.423   2.015  12.952 -1.3445 -0.1075 -1.5738
 3238SOL    HW221348   0.381   1.895  12.878  1.1530 -2.1260 -0.4250
 3239SOL     OW21349   2.074   2.597   1.108  0.3065 -0.1050  0.2229
 3239SOL    HW121350   1.985   2.582   1.138 -0.4519  2.3264 -0.8137
 3239SOL    HW221351   2.063   2.568   1.017 -0.2859 -2.3212  1.0156
 3240SOL     OW21352   0.304   3.543   3.118 -0.4758 -0.0054 -0.3850
 3240SOL    HW121353   0.329   3.465   3.167 -1.5762  1.0582  1.8658
 3240SOL    HW221354   0.365   3.540   3.044 -1.2161 -0.8432 -0.9666
 3241SOL     OW21355   2.733   3.490  12.314  0.4791  0.2269 -0.0632
 3241SOL    HW121356   2.699   3.535  12.237 -1.4130 -0.2894  0.4636
 3241SOL    HW221357   2.654   3.443  12.340  1.3294 -0.6102  1.0624
 3242SOL     OW21358   4.579   0.116   0.404  0.1192  0.1082 -0.5954
 3242SOL    HW121359   4.491   0.093   0.432  0.5909 -0.9959 -0.0266
 3242SOL    HW221360   4.576   0.097   0.311 -2.0412  0.3274 -0.5726
 3243SOL     OW21361   4.187   0.129  16.597 -0.0787 -0.2357  0.3422
 3243SOL    HW121362   4.157   0.215  16.626  2.2353  0.9751 -0.8987
 3243SOL    HW221363   4.224   0.150  16.512 -2.1388 -0.5278 -0.6402
 3244SOL     OW21364   0.374   4.038   3.622 -0.1193 -0.0431  0.2506
 3244SOL    HW121365   0.345   4.111   3.567 -1.0110 -1.4308 -1.1148
 3244SOL    HW221366   0.304   4.046   3.687 -0.1707  0.3497  0.1507
 3245SOL     OW21367   2.764   4.100   9.648 -0.0174  0.3020  0.2228
 3245SOL    HW121368   2.715   4.018   9.642  2.7063 -1.1618 -2.2298
 3245SOL    HW221369   2.806   4.081   9.732 -0.6229  0.0496  0.4673
 3246SOL     OW21370   2.827   2.162   2.688 -0.1523  0.4093 -0.2192
 3246SOL    HW121371   2.823   2.076   2.646  2.1757  1.7426 -3.1355
 3246SOL    HW221372   2.855   2.222   2.619  3.0355 -0.9857 -0.1254
 3247SOL     OW21373   1.086   2.009   4.293 -0.1877  0.5375 -0.5751
 3247SOL    HW121374   1.031   2.017   4.216 -1.6281 -1.9459  0.2093
 3247SOL    HW221375   1.081   2.099   4.326  1.2242  0.3620  0.1422
 3248SOL     OW21376   1.511   3.634   5.420  0.0894  0.5697 -0.0511
 3248SOL    HW121377   1.487   3.550   5.457 -1.5195  0.7241 -0.7178
 3248SOL    HW221378   1.572   3.595   5.358 -0.5809 -1.1716  0.4010
 3249SOL     OW21379   0.598   0.163   9.291  0.1604 -0.2708 -0.3784
 3249SOL    HW121380   0.671   0.106   9.314  1.4498  1.8685  0.8638
 3249SOL    HW221381   0.615   0.183   9.199  0.4750 -0.0081 -0.2608
 3250SOL     OW21382   1.467   1.879   8.873 -0.1383 -0.1773  0.2441
 3250SOL    HW121383   1.436   1.855   8.961 -0.5579 -0.3764  0.0406
 3250SOL    HW221384   1.483   1.794   8.832  0.4951 -0.5450  1.2446
 3251SOL     OW21385   2.361   0.599   9.551 -0.0058  0.3340 -0.2518
 3251SOL    HW121386   2.423   0.536   9.513  1.0225  1.0833  0.1773
 3251SOL    HW221387   2.402   0.682   9.525 -1.0533  1.2763  1.0606
 3252SOL     OW21388   4.195   2.854  11.929 -0.2807 -0.0928  0.4195
 3252SOL    HW121389   4.229   2.774  11.970 -0.6365  0.2895  1.4567
 3252SOL    HW221390   4.259   2.870  11.859 -0.8755  1.4476  0.2188
 3253SOL     OW21391   3.778   2.146  12.867  0.2466 -0.4454  0.1485
 3253SOL    HW121392   3.749   2.055  12.865  1.5880 -0.8685 -0.3094
 3253SOL    HW221393   3.783   2.169  12.960  1.8240 -1.4095  0.3073
 3254SOL     OW21394   4.119   3.029   9.477 -0.2738  0.3166  0.2514
 3254SOL    HW121395   4.146   3.064   9.392 -0.1552 -1.1937 -0.3282
 3254SOL    HW221396   4.044   2.973   9.456  0.4731 -0.4191 -0.4398
 3255SOL     OW21397   3.333   0.074  11.333 -0.1496 -0.5259  0.4112
 3255SOL    HW121398   3.409   0.079  11.390  1.1640 -2.4274 -1.1628
 3255SOL    HW221399   3.290   0.159  11.339 -1.8450 -1.2667 -1.0473
 3256SOL     OW21400   2.681   0.280  11.483 -0.5354 -0.0732 -0.5032
 3256SOL    HW121401   2.753   0.338  11.508 -0.1893 -0.7113  0.0080
 3256SOL    HW221402   2.738   0.216  11.439 -0.6866 -1.3128  1.0727
 3257SOL     OW21403   1.147   3.420   7.412  0.2075 -1.1853  0.7062
 3257SOL    HW121404   1.094   3.355   7.367  0.9669 -2.1687  1.2281
 3257SOL    HW221405   1.152   3.374   7.496  1.1467 -3.3101 -0.5048
 3258SOL     OW21406   1.111   0.627   6.797  0.3349  0.0869 -0.1111
 3258SOL    HW121407   1.084   0.580   6.719 -0.2341  0.6387 -0.2422
 3258SOL    HW221408   1.160   0.700   6.758  0.4487  0.0791  0.0133
 3259SOL     OW21409   3.540   4.656   0.276  0.3967  0.0277 -0.2548
 3259SOL    HW121410   3.539   4.612   0.361 -2.2177  1.7223  0.5635
 3259SOL    HW221411   3.459   4.620   0.240  1.2397 -1.0396 -1.1141
 3260SOL     OW21412   4.439   1.659   7.789  0.3193  0.5353  0.3375
 3260SOL    HW121413   4.524   1.637   7.750  1.1273 -0.2707  2.5628
 3260SOL    HW221414   4.427   1.582   7.845 -1.4974  0.1861 -0.5284
 3261SOL     OW21415   2.515   3.277  15.313 -0.5010  0.4869 -0.0232
 3261SOL    HW121416   2.575   3.346  15.284  0.1200 -0.8509 -1.9005
 3261SOL    HW221417   2.494   3.246  15.225  0.6446  0.5322 -0.3133
 3262SOL     OW21418   3.607   3.241  15.172 -0.6882 -0.1650 -0.5061
 3262SOL    HW121419   3.539   3.301  15.204  0.8325  0.8029  0.9466
 3262SOL    HW221420   3.633   3.188  15.248  0.0770  0.6056 -0.2281
 3263SOL     OW21421   3.308   0.863  16.865 -0.3109  0.3347  0.4107
 3263SOL    HW121422   3.273   0.951  16.876 -1.0202 -0.1446  2.0751
 3263SOL    HW221423   3.336   0.873  16.775 -0.1601 -2.1265  0.1802
 3264SOL     OW21424   2.664   4.159   2.226  0.1651  0.3909 -0.3472
 3264SOL    HW121425   2.685   4.128   2.314 -0.8617  0.1605 -0.1779
 3264SOL    HW221426   2.584   4.111   2.204  0.2659  0.1438 -0.1724
 3265SOL     OW21427   0.060   4.518   6.896 -0.0894 -0.0936  0.6912
 3265SOL    HW121428   0.067   4.427   6.923  0.5215 -0.4494 -0.6414
 3265SOL    HW221429   0.090   4.515   6.805 -2.0499 -2.0632  0.1181
 3266SOL     OW21430   1.240   1.873  11.423 -0.0870  0.1419  0.1551
 3266SOL    HW121431   1.184   1.949  11.413  0.3425  0.2649 -1.4602
 3266SOL    HW221432   1.170   1.823  11.465  1.3344 -2.2313 -0.2817
 3267SOL     OW21433   1.459   3.967  15.488  0.2453  0.0488  0.5036
 3267SOL    HW121434   1.461   3.873  15.475  1.9374  0.2299 -0.6289
 3267SOL    HW221435   1.400   3.996  15.419 -0.3765  0.6313  1.2825
 3268SOL     OW21436   1.460   2.613  14.348  0.3321 -0.1062  0.0235
 3268SOL    HW121437   1.447   2.554  14.274 -1.3163  0.3683 -0.0546
 3268SOL    HW221438   1.555   2.626  14.356  0.2746  0.0186  0.5464
 3269SOL     OW21439   0.764   0.051   1.525  0.5335 -0.4287  0.7100
 3269SOL    HW121440   0.728   4.700   1.503 -0.3357  0.8137 -2.6785
 3269SOL    HW221441   0.774   0.100   1.444  0.1356  2.1004  2.1753
 3270SOL     OW21442   0.316   0.438   0.964  1.0290  0.2008 -0.3766
 3270SOL    HW121443   0.260   0.504   1.007 -0.8735 -1.2289 -0.6478
 3270SOL    HW221444   0.281   0.354   0.992 -0.3504  1.0124  0.3632
 3271SOL     OW21445   4.366   2.969   0.284 -0.1624 -0.5058 -0.4427
 3271SOL    HW121446   4.366   3.011   0.198 -0.7934 -0.3084 -0.3452
 3271SOL    HW221447   4.404   3.040   0.337 -1.1050  0.4205 -1.0013
 3272SOL     OW21448   0.983   2.850   5.637 -0.1232 -0.0085  0.4189
 3272SOL    HW121449   0.991   2.813   5.549 -1.1125 -2.5051  1.3437
 3272SOL    HW221450   1.068   2.836   5.678  0.9297  2.6929 -0.8567
 3273SOL     OW21451   0.514   0.939   2.324  0.1981  0.2019  0.0293
 3273SOL    HW121452   0.471   0.960   2.241 -0.3319  2.1986  0.7991
 3273SOL    HW221453   0.604   0.941   2.291 -0.4934 -0.8013 -1.9555
 3274SOL     OW21454   2.471   4.256   6.840  0.5808  0.0781  0.1750
 3274SOL    HW121455   2.440   4.186   6.898  0.7514  0.1209  0.3167
 3274SOL    HW221456   2.401   4.247   6.775  0.3015  1.4067  0.2789
 3275SOL     OW21457   1.503   1.757   0.844 -0.5978  0.5498  0.0058
 3275SOL    HW121458   1.409   1.759   0.862 -0.4166  3.5515  0.5062
 3275SOL    HW221459   1.493   1.749   0.749  1.6250 -4.1574  0.1615
 3276SOL     OW21460   2.246   3.666   2.668 -0.3594  0.0512 -0.1114
 3276SOL    HW121461   2.196   3.745   2.649  0.8858  1.2140  1.5193
 3276SOL    HW221462   2.248   3.663   2.763 -0.6402 -0.0240 -0.1076
 3277SOL     OW21463   3.475   2.881   3.930 -0.0264 -0.1544  0.9897
 3277SOL    HW121464   3.521   2.801   3.904 -0.3556 -0.6056  1.7856
 3277SOL    HW221465   3.394   2.861   3.883  0.2876 -0.3710  0.5402
 3278SOL     OW21466   3.437   4.162   2.844  0.1684  0.7356 -0.1691
 3278SOL    HW121467   3.411   4.199   2.760 -1.1168  2.5863  1.0484
 3278SOL    HW221468   3.528   4.191   2.853  0.1040  0.4884  1.2317
 3279SOL     OW21469   1.794   3.178   3.869  0.1791  0.2210  0.3445
 3279SOL    HW121470   1.781   3.246   3.935  1.5623 -1.0119  1.9065
 3279SOL    HW221471   1.713   3.128   3.876  1.1236 -1.6053 -1.6406
 3280SOL     OW21472   1.404   3.390   7.139  0.3746 -0.5047 -0.3153
 3280SOL    HW121473   1.429   3.480   7.160  1.0588 -1.3958  2.6761
 3280SOL    HW221474   1.450   3.349   7.213 -1.2397  0.8922  1.4479
 3281SOL     OW21475   2.807   4.027   2.833 -0.2385  0.5599 -0.4754
 3281SOL    HW121476   2.859   3.947   2.834  1.1591  1.4782  1.2382
 3281SOL    HW221477   2.736   4.011   2.771 -0.3752 -0.8097  0.0553
 3282SOL     OW21478   1.435   4.003   7.070 -0.2180 -0.0942  0.0922
 3282SOL    HW121479   1.493   4.075   7.093  0.5369 -1.2162  1.7266
 3282SOL    HW221480   1.390   4.003   7.155  0.7932  0.3251  0.6130
 3283SOL     OW21481   4.575   3.492  11.910  0.4664  0.1959 -0.3856
 3283SOL    HW121482   4.634   3.490  11.985  0.0298  0.5348 -0.0337
 3283SOL    HW221483   4.535   3.406  11.921 -0.5099  0.8760  1.3576
 3284SOL     OW21484   2.979   2.435   7.475 -0.0285  0.0158  0.2584
 3284SOL    HW121485   2.980   2.341   7.456 -0.1758  0.1673 -0.5126
 3284SOL    HW221486   3.070   2.447   7.503  1.0455 -0.5396 -2.9447
 3285SOL     OW21487   1.063   4.349  10.966  0.6966 -0.5970  0.3443
 3285SOL    HW121488   1.143   4.297  10.975  0.8625 -0.2627  0.8148
 3285SOL    HW221489   0.996   4.291  11.003  0.0767  0.2164  0.4846
 3286SOL     OW21490   3.622   3.381   6.085  0.4997 -0.1212 -0.2695
 3286SOL    HW121491   3.597   3.332   6.163  2.6773  1.4645  1.4384
 3286SOL    HW221492   3.548   3.437   6.061 -0.0895 -0.3058  1.1279
 3287SOL     OW21493   3.187   1.950   4.233  1.1848  0.0007  0.2889
 3287SOL    HW121494   3.136   1.870   4.221  1.5713 -0.3524  0.9872
 3287SOL    HW221495   3.273   1.925   4.201  1.0590  0.0781 -0.1099
 3288SOL     OW21496   0.714   4.241   4.054  0.0392 -0.3654  0.5332
 3288SOL    HW121497   0.708   4.152   4.021  0.1003 -0.5963  1.1461
 3288SOL    HW221498   0.674   4.237   4.141 -0.9634  0.0006  0.0935
 3289SOL     OW21499   2.775   4.048   8.928 -0.0371  0.7449  0.1908
 3289SOL    HW121500   2.775   3.982   8.998  2.7196  1.6340  1.0233
 3289SOL    HW221501   2.696   4.024   8.879  1.7685  0.5138 -2.5769
 3290SOL     OW21502   0.495   4.715   8.798  0.4778 -0.0597  0.0293
 3290SOL    HW121503   0.477   4.621   8.793  1.7808 -0.3113  0.1684
 3290SOL    HW221504   0.411   0.010   8.831  0.5831  0.3948 -0.1182
 3291SOL     OW21505   1.603   3.377   3.405  0.1282 -0.2601  0.8365
 3291SOL    HW121506   1.662   3.307   3.434  0.3074  0.0866  1.3143
 3291SOL    HW221507   1.558   3.332   3.334  0.6769 -0.7524  0.8049
 3292SOL     OW21508   1.158   2.334   7.307 -0.3229  0.3522  0.7085
 3292SOL    HW121509   1.160   2.238   7.302 -0.1413  0.5157 -2.4100
 3292SOL    HW221510   1.067   2.355   7.328 -1.1503 -1.3094 -1.1553
 3293SOL     OW21511   1.519   2.604   2.852 -0.4220 -0.2824 -0.2655
 3293SOL    HW121512   1.463   2.557   2.791  0.0465 -1.5041  0.2356
 3293SOL    HW221513   1.468   2.621   2.932 -0.5175 -3.0533  0.2534
 3294SOL     OW21514   4.125   4.229   2.224 -0.0486 -0.7259  0.3854
 3294SOL    HW121515   4.065   4.155   2.209 -0.9896  0.1132 -0.0251
 3294SOL    HW221516   4.086   4.297   2.170  2.0916 -1.0056 -1.4753
 3295SOL     OW21517   2.368   3.965   8.441  0.2171 -0.3252  0.1663
 3295SOL    HW121518   2.453   3.970   8.398  0.1839 -0.1313  0.1224
 3295SOL    HW221519   2.307   3.961   8.368  2.0671 -0.3994 -1.3618
 3296SOL     OW21520   4.344   1.410   4.524  0.2539  0.7766 -0.3728
 3296SOL    HW121521   4.359   1.362   4.443 -1.3676  2.7928 -1.8312
 3296SOL    HW221522   4.411   1.375   4.584  0.1359  3.1142  1.1275
 3297SOL     OW21523   3.550   0.255   3.701 -0.0902  0.2552 -0.2091
 3297SOL    HW121524   3.598   0.259   3.784 -0.3990  3.2029 -0.2064
 3297SOL    HW221525   3.624   0.256   3.641  1.0708  3.1668  1.2882
 3298SOL     OW21526   1.457   3.620   7.862  0.2818 -0.5147 -0.3314
 3298SOL    HW121527   1.384   3.644   7.805  0.2044  1.9477  0.8186
 3298SOL    HW221528   1.435   3.627   7.955 -2.0514 -1.7357 -0.8024
 3299SOL     OW21529   4.521   1.023  16.153 -0.0872  0.2268  0.2373
 3299SOL    HW121530   4.557   1.104  16.190  0.0315  0.6920 -0.9202
 3299SOL    HW221531   4.582   0.997  16.085  0.9401 -0.7626  1.5326
 3300SOL     OW21532   1.583   0.446   7.437  0.1230  0.3497 -0.6712
 3300SOL    HW121533   1.508   0.458   7.496  1.1127  1.5564  0.3539
 3300SOL    HW221534   1.591   0.531   7.394 -0.6427  0.0616 -1.3891
 3301SOL     OW21535   3.669   0.253  16.855 -0.1335  0.3832  0.2111
 3301SOL    HW121536   3.610   0.258  16.930  0.5977  1.1871  0.7368
 3301SOL    HW221537   3.675   0.160  16.830 -2.1297  0.2382  0.3342
 3302SOL     OW21538   0.328   2.157  12.966 -0.0369 -0.0664 -0.3256
 3302SOL    HW121539   0.395   2.214  13.005  0.1504 -0.5481  0.0650
 3302SOL    HW221540   0.243   2.192  12.992 -0.6930 -0.5915 -1.7940
 3303SOL     OW21541   4.411   4.677   7.091 -0.2360  0.2865 -0.3081
 3303SOL    HW121542   4.466   4.631   7.155  0.2910 -0.7825 -1.5406
 3303SOL    HW221543   4.408   0.034   7.116  0.3613  0.4144 -0.7143
 3304SOL     OW21544   4.176   1.947   3.009  0.5997  0.2098  0.3333
 3304SOL    HW121545   4.167   2.042   3.013 -1.8253 -0.0041 -0.3153
 3304SOL    HW221546   4.270   1.931   2.994  0.5663 -1.4844  1.9789
 3305SOL     OW21547   1.096   4.647  12.560  0.4398 -0.4604 -0.1057
 3305SOL    HW121548   1.152   4.581  12.519 -1.5155 -2.4873  0.5633
 3305SOL    HW221549   1.042   4.676  12.486  0.6359  0.2962  0.0396
 3306SOL     OW21550   0.335   4.199   7.631 -0.3351  0.1852  0.2013
 3306SOL    HW121551   0.355   4.285   7.669 -2.2613  0.6464  0.1741
 3306SOL    HW221552   0.415   4.150   7.648 -1.0413 -0.6447  1.1787
 3307SOL     OW21553   3.786   4.410   7.813  0.3841  0.0165  0.0856
 3307SOL    HW121554   3.867   4.361   7.826 -0.0110 -0.8073 -0.5951
 3307SOL    HW221555   3.720   4.366   7.866 -1.3935 -1.8001 -3.6919
 3308SOL     OW21556   3.247   0.917   4.838  0.8369  0.1567  0.1191
 3308SOL    HW121557   3.197   0.874   4.908 -0.2772  3.1362  1.1590
 3308SOL    HW221558   3.302   0.847   4.805 -1.0970 -1.3407  0.1081
 3309SOL     OW21559   0.345   0.111  15.073  0.1296 -0.1812  0.2564
 3309SOL    HW121560   0.272   0.144  15.126 -1.0166 -0.1021 -1.3879
 3309SOL    HW221561   0.423   0.141  15.120 -0.5163 -0.0873  1.2787
 3310SOL     OW21562   0.585   4.286   6.909  0.4154  0.5094 -0.1355
 3310SOL    HW121563   0.653   4.253   6.967  1.3935 -0.6072 -1.9072
 3310SOL    HW221564   0.515   4.228   6.941 -1.0443  1.5512 -1.4521
 3311SOL     OW21565   3.503   2.325   4.946 -0.6031  0.2499 -0.2365
 3311SOL    HW121566   3.530   2.290   5.031 -3.6249 -1.8834 -0.1740
 3311SOL    HW221567   3.526   2.242   4.902  0.5339  1.1443 -1.3260
 3312SOL     OW21568   3.850   3.552   9.276  0.0917  0.0849 -0.3565
 3312SOL    HW121569   3.815   3.628   9.230 -1.3808 -0.5560 -0.3065
 3312SOL    HW221570   3.929   3.537   9.225  0.8480  1.6480  0.3539
 3313SOL     OW21571   4.699   4.328   1.862 -0.3677 -0.0475 -0.2186
 3313SOL    HW121572   0.025   4.335   1.935 -1.0801 -0.3514  0.4052
 3313SOL    HW221573   4.625   4.374   1.903  1.0610  1.7605  0.3269
 3314SOL     OW21574   1.143   1.576  10.018 -0.3264  0.1656 -0.4824
 3314SOL    HW121575   1.138   1.607  10.108  0.2240  0.6219 -0.6135
 3314SOL    HW221576   1.062   1.616   9.987 -0.7049 -3.5889 -4.4341
 3315SOL     OW21577   1.286   3.864   1.526 -0.3713  0.1696  0.4420
 3315SOL    HW121578   1.235   3.783   1.528  2.2435 -1.4652  1.0330
 3315SOL    HW221579   1.375   3.841   1.497 -0.6605 -0.0645 -0.2438
 3316SOL     OW21580   2.965   1.225   7.414  0.7600  0.0100 -0.0942
 3316SOL    HW121581   2.903   1.179   7.470  1.2426  1.4309  1.6063
 3316SOL    HW221582   3.001   1.152   7.364  0.4886 -1.6403  2.0862
 3317SOL     OW21583   1.116   3.286  12.395  0.6931 -0.1498  0.4514
 3317SOL    HW121584   1.085   3.374  12.415 -0.7080  0.2601 -3.4940
 3317SOL    HW221585   1.048   3.234  12.439 -0.0750 -0.5667 -1.2128
 3318SOL     OW21586   0.775   0.258   9.511  0.0639 -0.1474  0.1984
 3318SOL    HW121587   0.843   0.237   9.575 -1.6375  1.1387  2.4476
 3318SOL    HW221588   0.762   0.170   9.475 -2.7588 -0.7960  2.7407
 3319SOL     OW21589   3.413   1.124   5.425 -0.1210  0.4814 -0.1414
 3319SOL    HW121590   3.454   1.130   5.512  0.7901  1.1428 -0.6189
 3319SOL    HW221591   3.321   1.134   5.453 -0.1260  1.7064 -0.5929
 3320SOL     OW21592   4.424   1.455   2.928 -0.3649  0.1385 -0.1845
 3320SOL    HW121593   4.414   1.375   2.981 -1.2544 -0.8964 -1.8968
 3320SOL    HW221594   4.485   1.497   2.988 -0.1200 -1.0898  0.4273
 3321SOL     OW21595   0.150   1.666  15.547 -0.0584  0.6494 -0.2601
 3321SOL    HW121596   0.174   1.607  15.619  0.0742  0.2420 -0.6355
 3321SOL    HW221597   0.193   1.622  15.473 -0.6882 -0.6643  0.1396
 3322SOL     OW21598   0.165   0.436  13.205 -0.3294 -0.6893 -0.0845
 3322SOL    HW121599   0.188   0.529  13.202 -3.6743  0.1598  0.7296
 3322SOL    HW221600   0.178   0.407  13.295 -3.1344 -2.1841 -0.1777
 3323SOL     OW21601   0.060   0.169  10.873 -0.0642  0.6106 -0.0821
 3323SOL    HW121602   0.120   0.212  10.934 -1.9633  0.3644  1.9503
 3323SOL    HW221603   0.119   0.110  10.825  0.1471  1.7501 -1.2250
 3324SOL     OW21604   1.945   4.250   9.813 -0.0015 -0.6490  0.4430
 3324SOL    HW121605   1.961   4.318   9.879 -1.5936  0.6888 -0.5321
 3324SOL    HW221606   1.896   4.307   9.753 -0.9317 -0.1480  1.6644
 3325SOL     OW21607   0.841   2.221   8.462 -0.1129 -0.0439  0.1244
 3325SOL    HW121608   0.911   2.286   8.471  0.1347 -0.5129  1.4992
 3325SOL    HW221609   0.884   2.148   8.505  1.0595 -0.8105 -2.3553
 3326SOL     OW21610   4.252   1.883  17.542 -0.0461  0.2248 -0.4534
 3326SOL    HW121611   4.198   1.840  17.608  1.5686 -0.0506  0.6907
 3326SOL    HW221612   4.208   1.967  17.545  1.8072  1.1986 -0.2742
 3327SOL     OW21613   1.291   2.944  15.754 -0.3594 -0.3473  0.0901
 3327SOL    HW121614   1.351   2.928  15.826  0.1945  2.2707  0.1943
 3327SOL    HW221615   1.220   2.996  15.793 -0.7531 -1.9383  1.4707
 3328SOL     OW21616   1.956   2.066  10.095 -0.2152 -0.3924 -0.2077
 3328SOL    HW121617   1.979   2.123  10.022 -1.1522 -0.3926 -0.5031
 3328SOL    HW221618   1.899   2.126  10.144 -0.2022 -0.7306  0.2263
 3329SOL     OW21619   1.539   1.951   1.378  0.6146  0.3838 -0.0922
 3329SOL    HW121620   1.594   1.937   1.455  0.6895  1.8260  0.1178
 3329SOL    HW221621   1.603   1.992   1.319 -0.2265  0.3650 -1.0098
 3330SOL     OW21622   4.575   2.633   2.062 -0.1269  0.0081 -0.8837
 3330SOL    HW121623   4.549   2.579   1.987  0.7949 -0.7464 -0.6564
 3330SOL    HW221624   4.522   2.712   2.052  0.2400  0.4585  0.7946
 3331SOL     OW21625   2.038   3.097  11.970  0.3694  0.1350  0.5179
 3331SOL    HW121626   2.106   3.164  11.973 -0.8049  1.3292  1.1388
 3331SOL    HW221627   1.967   3.161  11.980  0.1532  0.1312 -1.0052
 3332SOL     OW21628   2.582   0.129  11.147 -0.4555 -0.5051 -0.5418
 3332SOL    HW121629   2.655   0.141  11.208 -0.0374 -0.8286 -0.9779
 3332SOL    HW221630   2.507   0.153  11.200 -0.3930 -0.2826 -0.5550
 3333SOL     OW21631   1.307   2.578   3.388  0.2829 -0.1952  0.8002
 3333SOL    HW121632   1.338   2.499   3.433  1.8345  0.0727  0.1740
 3333SOL    HW221633   1.220   2.583   3.429  0.7537  0.9435  1.6447
 3334SOL     OW21634   0.793   4.549   7.611  0.3203 -0.3522 -0.2297
 3334SOL    HW121635   0.764   4.530   7.521 -0.2382  1.1118 -0.3617
 3334SOL    HW221636   0.863   4.487   7.631 -0.5108  0.0525  3.8990
 3335SOL     OW21637   1.330   0.532   9.123  0.5159 -0.0003  0.1271
 3335SOL    HW121638   1.318   0.533   9.218  0.6295 -1.9673  0.1514
 3335SOL    HW221639   1.251   0.574   9.087  0.4621  0.8096  1.1663
 3336SOL     OW21640   0.707   0.546  12.091  0.4034 -0.0339 -0.0078
 3336SOL    HW121641   0.754   0.588  12.163  0.7316 -0.4443  0.0160
 3336SOL    HW221642   0.710   0.453  12.114 -3.8748 -0.2932 -0.5308
 3337SOL     OW21643   0.153   2.551   4.711  0.4424 -0.3687 -0.5031
 3337SOL    HW121644   0.175   2.580   4.622 -1.2677  1.5912 -0.3033
 3337SOL    HW221645   0.077   2.606   4.731 -2.2603 -3.6417 -1.9246
 3338SOL     OW21646   0.566   4.305   5.042  0.0583 -0.2127  0.5420
 3338SOL    HW121647   0.656   4.337   5.036 -0.1346 -0.0508 -1.5487
 3338SOL    HW221648   0.573   4.256   5.124  0.6553 -2.9066 -1.1353
 3339SOL     OW21649   0.020   1.117  14.231  0.0196 -0.5191 -0.2512
 3339SOL    HW121650   0.014   1.157  14.144  1.1793  0.8035  0.2684
 3339SOL    HW221651   4.734   1.190  14.290  1.9776  0.5784 -0.8816
 3340SOL     OW21652   1.926   4.231   6.157 -0.7377  0.1347 -0.1214
 3340SOL    HW121653   1.882   4.210   6.074  0.1636  1.2455 -0.8784
 3340SOL    HW221654   1.947   4.145   6.195 -1.0384  0.8749  1.7089
 3341SOL     OW21655   3.790   3.164   9.205  0.2357  0.7563 -0.2599
 3341SOL    HW121656   3.862   3.128   9.153 -0.5004 -1.6762  0.4312
 3341SOL    HW221657   3.823   3.157   9.295 -0.3191  0.9875 -0.0405
 3342SOL     OW21658   1.795   1.645   2.658 -0.0161 -0.2392 -0.1029
 3342SOL    HW121659   1.836   1.564   2.689  1.9918  0.0069 -2.0585
 3342SOL    HW221660   1.849   1.710   2.702  0.0696 -0.5811  0.2904
 3343SOL     OW21661   2.593   0.057   5.580  0.2176 -0.4835 -0.3019
 3343SOL    HW121662   2.609   4.712   5.529  1.5222  0.0893 -0.8018
 3343SOL    HW221663   2.630   0.024   5.662 -0.3164 -1.7662 -0.5733
 3344SOL     OW21664   3.119   4.513  12.559  0.0935  0.3031 -0.0019
 3344SOL    HW121665   3.081   4.516  12.471  1.1311  1.5628 -0.3836
 3344SOL    HW221666   3.211   4.537  12.548  0.4171 -1.6225 -1.4811
 3345SOL     OW21667   3.027   0.203  11.512 -0.3789  0.0359 -0.0191
 3345SOL    HW121668   3.061   0.151  11.585  2.4568 -0.8191 -1.9625
 3345SOL    HW221669   3.033   0.141  11.440 -1.3109 -0.0552 -0.0239
 3346SOL     OW21670   2.135   4.556  16.042 -0.0112  0.5503  0.6000
 3346SOL    HW121671   2.062   4.615  16.062 -0.9121 -0.1548 -0.5907
 3346SOL    HW221672   2.118   4.513  15.958  0.9094  2.9279 -0.7911
 3347SOL     OW21673   0.331   3.246   9.433  0.2130  0.1341 -0.9807
 3347SOL    HW121674   0.239   3.265   9.419  0.0705  0.3652  0.3199
 3347SOL    HW221675   0.330   3.151   9.420 -1.3618  0.1031 -0.5157
 3348SOL     OW21676   2.487   3.011  16.777  0.2424 -0.0159  0.6905
 3348SOL    HW121677   2.550   3.078  16.807  1.5097 -0.7115 -0.4181
 3348SOL    HW221678   2.495   3.018  16.682  2.0390 -1.1085  0.7529
 3349SOL     OW21679   1.722   3.404   8.881 -0.3056  0.0797 -0.2774
 3349SOL    HW121680   1.729   3.350   8.960  1.8819  1.1339  0.2334
 3349SOL    HW221681   1.781   3.359   8.821 -0.4149 -0.1243 -0.2343
 3350SOL     OW21682   1.896   4.294   8.580 -0.5627  0.0690  0.0417
 3350SOL    HW121683   1.815   4.304   8.531  0.9154  1.6840 -2.0807
 3350SOL    HW221684   1.863   4.279   8.669 -0.4785  3.8461  0.7148
 3351SOL     OW21685   4.381   4.414   1.037 -0.0848 -0.6768 -0.6755
 3351SOL    HW121686   4.467   4.438   1.073 -0.6532 -0.1345  0.3210
 3351SOL    HW221687   4.357   4.484   0.976 -0.2588 -1.0294 -1.0060
 3352SOL     OW21688   2.787   2.755   1.626 -0.2661  0.1966 -0.1299
 3352SOL    HW121689   2.771   2.848   1.641  1.3080 -0.1336  3.5519
 3352SOL    HW221690   2.840   2.742   1.705  1.2815  1.3140 -0.9706
 3353SOL     OW21691   3.537   3.948   7.453 -0.3336 -0.4893  0.5547
 3353SOL    HW121692   3.510   3.884   7.386  0.4930 -1.3047  1.0038
 3353SOL    HW221693   3.629   3.930   7.469 -0.0463  0.1904 -0.3189
 3354SOL     OW21694   3.729   3.452   7.121  0.1219 -0.3816  0.4241
 3354SOL    HW121695   3.758   3.533   7.163 -1.2984  0.6935 -0.6320
 3354SOL    HW221696   3.638   3.445   7.150 -0.7885 -0.8729 -2.6089
 3355SOL     OW21697   1.949   2.879   1.235 -0.3922 -0.3337 -0.0135
 3355SOL    HW121698   1.964   2.806   1.295  0.1989  0.8554  1.2886
 3355SOL    HW221699   2.004   2.947   1.275 -0.8699  0.6029 -0.9535
 3356SOL     OW21700   4.299   0.528   4.238  0.7284  0.3420 -0.3327
 3356SOL    HW121701   4.359   0.456   4.220  0.7978  0.2536  0.2597
 3356SOL    HW221702   4.296   0.542   4.333 -0.8029 -0.2770 -0.2902
 3357SOL     OW21703   4.042   4.313   5.774  0.8059  0.4070 -0.3589
 3357SOL    HW121704   4.060   4.389   5.718 -0.5816 -1.0804 -2.8282
 3357SOL    HW221705   4.067   4.347   5.860 -0.8057 -1.1757  0.7503
 3358SOL     OW21706   0.124   1.080  15.037 -0.2388  0.0321 -0.4922
 3358SOL    HW121707   0.174   1.138  14.980 -2.0539  0.4611 -1.6176
 3358SOL    HW221708   0.147   1.119  15.121 -1.2137 -1.5126  0.4897
 3359SOL     OW21709   3.463   2.739   2.552  0.1261 -0.2379  0.0278
 3359SOL    HW121710   3.394   2.794   2.591  0.3372  0.6753 -0.8821
 3359SOL    HW221711   3.538   2.784   2.591 -0.3533 -1.6788  2.6716
 3360SOL     OW21712   0.958   0.642   8.094 -0.3899 -0.2069  0.2439
 3360SOL    HW121713   0.937   0.727   8.056 -3.2244 -1.0980 -0.1689
 3360SOL    HW221714   1.036   0.667   8.145 -1.4712  0.2379  1.6814
 3361SOL     OW21715   1.078   0.978   0.261  0.3501 -0.2102 -0.1189
 3361SOL    HW121716   1.064   1.016   0.348  3.5633 -0.6119  0.5943
 3361SOL    HW221717   1.052   1.049   0.203 -1.8708 -1.5016 -0.7130
 3362SOL     OW21718   4.445   2.915   5.907  0.2895  0.2812 -0.7652
 3362SOL    HW121719   4.515   2.979   5.903  0.0189  0.8043  3.2461
 3362SOL    HW221720   4.405   2.920   5.820  0.7734 -1.0452 -1.0716
 3363SOL     OW21721   2.871   0.323   9.235 -0.6874 -0.3654 -0.1352
 3363SOL    HW121722   2.781   0.350   9.214 -0.7333  1.1353  2.0374
 3363SOL    HW221723   2.865   0.242   9.286  0.4407  0.2838  1.0022
 3364SOL     OW21724   2.688   1.358   3.239 -0.5709 -0.1535  0.3330
 3364SOL    HW121725   2.639   1.279   3.213 -0.5972 -0.6110  1.7401
 3364SOL    HW221726   2.628   1.409   3.294 -1.2228 -0.4685 -0.0815
 3365SOL     OW21727   2.397   0.400   8.735  0.6189 -0.0409 -0.8262
 3365SOL    HW121728   2.454   0.330   8.767  0.0621 -0.3664 -0.5456
 3365SOL    HW221729   2.404   0.385   8.641 -0.2783  0.4592 -0.9725
 3366SOL     OW21730   1.429   1.878   7.956  0.1125 -0.1134 -0.1178
 3366SOL    HW121731   1.453   1.913   7.871  1.5943  1.4467  0.9610
 3366SOL    HW221732   1.388   1.797   7.926  1.3019 -0.9332  0.4717
 3367SOL     OW21733   0.809   4.301   6.536  0.2582  0.2767 -0.3314
 3367SOL    HW121734   0.717   4.278   6.549  0.2289  0.3075 -0.4798
 3367SOL    HW221735   0.813   4.292   6.441  0.2874 -0.7902 -0.2375
 3368SOL     OW21736   1.227   2.968   8.710  0.4189  0.6472 -0.5936
 3368SOL    HW121737   1.240   2.884   8.666 -0.6377  0.8757 -1.3164
 3368SOL    HW221738   1.308   3.015   8.687  0.8929 -0.4717 -1.2536
 3369SOL     OW21739   4.593   3.649   9.028  0.2658 -0.5658 -0.7113
 3369SOL    HW121740   4.509   3.653   9.073  0.0900 -0.6770 -1.0368
 3369SOL    HW221741   4.653   3.657   9.103 -2.8631  1.5785  1.5614
 3370SOL     OW21742   4.709   0.411   2.354  0.2364 -0.1251 -0.0949
 3370SOL    HW121743   4.713   0.374   2.265  3.5512 -1.6950  0.7231
 3370SOL    HW221744   4.667   0.494   2.330  1.8583  0.6594 -0.2156
 3371SOL     OW21745   2.044   3.854   4.226  0.2937  0.0287 -0.4251
 3371SOL    HW121746   1.967   3.908   4.208 -1.0539 -2.1663 -1.2758
 3371SOL    HW221747   2.075   3.839   4.137 -2.1449  0.2012 -1.3164
 3372SOL     OW21748   1.273   1.126   6.908  0.2049 -0.2222  0.5058
 3372SOL    HW121749   1.338   1.090   6.968 -0.7785 -1.8384  0.5948
 3372SOL    HW221750   1.309   1.098   6.824 -1.2302  0.3854 -0.3134
 3373SOL     OW21751   2.191   4.549   3.575  0.0530 -0.0317  0.0676
 3373SOL    HW121752   2.279   4.582   3.594 -1.9091  3.3180  3.3798
 3373SOL    HW221753   2.144   4.540   3.658 -1.1558 -1.3170 -0.7555
 3374SOL     OW21754   4.070   3.410   9.141  0.2298  0.2372 -0.1224
 3374SOL    HW121755   4.155   3.377   9.112 -0.5630 -0.4525 -1.6529
 3374SOL    HW221756   4.025   3.400   9.057  1.0929  0.1573 -0.5738
 3375SOL     OW21757   4.563   1.836   6.521  0.5550  0.5789  0.0405
 3375SOL    HW121758   4.508   1.907   6.554  1.4231  0.7410  1.1850
 3375SOL    HW221759   4.650   1.872   6.541  0.7326  0.9345 -1.3676
 3376SOL     OW21760   0.283   1.992   7.575  0.2366 -0.4978  0.4980
 3376SOL    HW121761   0.350   1.973   7.642  1.8653  0.5821 -0.8303
 3376SOL    HW221762   0.277   2.087   7.570  1.7072 -0.5479 -2.1112
 3377SOL     OW21763   0.763   3.177  16.782  0.0306 -0.0952 -0.3432
 3377SOL    HW121764   0.751   3.183  16.877  1.5185 -2.6008  0.0059
 3377SOL    HW221765   0.802   3.262  16.762 -0.3018 -0.0395 -0.7626
 3378SOL     OW21766   0.114   0.533  11.735  0.1050 -0.0610 -0.0634
 3378SOL    HW121767   0.139   0.494  11.818  1.6262  0.0265 -0.4755
 3378SOL    HW221768   0.094   0.626  11.750  2.7278  0.4158  0.4961
 3379SOL     OW21769   4.183   0.954  11.216  0.0906  0.3230 -0.6371
 3379SOL    HW121770   4.225   0.956  11.130 -0.3584  0.3619 -0.8560
 3379SOL    HW221771   4.257   0.963  11.275  0.4753  0.3770 -1.1272
 3380SOL     OW21772   0.657   2.675   5.434  0.3060 -0.1544  0.6966
 3380SOL    HW121773   0.685   2.622   5.509  0.4456 -2.6833 -1.1284
 3380SOL    HW221774   0.644   2.759   5.478 -1.2163  1.1994 -2.3370
 3381SOL     OW21775   2.094   3.026   7.628 -0.1605 -0.3655 -0.2328
 3381SOL    HW121776   2.108   2.945   7.579 -0.8899 -0.4020 -0.3769
 3381SOL    HW221777   2.020   3.058   7.577 -1.5203 -0.8282  1.4384
 3382SOL     OW21778   1.019   3.391   1.304  0.4251 -0.7684 -0.4467
 3382SOL    HW121779   1.056   3.308   1.275 -0.1565 -1.4776  0.8333
 3382SOL    HW221780   0.973   3.374   1.386  0.3278 -1.1008 -0.5727
 3383SOL     OW21781   1.508   0.364  10.885 -0.2378 -0.2220  0.1711
 3383SOL    HW121782   1.440   0.391  10.823 -1.9279  0.0307  2.1469
 3383SOL    HW221783   1.548   0.296  10.830 -0.3416 -0.0969 -0.0571
 3384SOL     OW21784   4.497   2.684   6.476 -0.2083  0.5963 -0.6567
 3384SOL    HW121785   4.558   2.699   6.404 -0.0948 -2.7971 -1.2777
 3384SOL    HW221786   4.478   2.776   6.494  1.6065  0.9572 -0.6022
 3385SOL     OW21787   2.834   0.404   4.625 -0.6163  0.4734 -0.0779
 3385SOL    HW121788   2.848   0.465   4.698 -0.1303 -0.8309  0.9136
 3385SOL    HW221789   2.833   0.461   4.548  0.2884  0.9070  0.2352
 3386SOL     OW21790   3.422   1.804  16.186 -0.1982 -1.0466 -0.2070
 3386SOL    HW121791   3.400   1.717  16.220  0.8143 -1.9325 -1.8093
 3386SOL    HW221792   3.505   1.821  16.231 -0.9809  0.8667  0.5366
 3387SOL     OW21793   0.995   2.715   6.337  0.4197  0.0935  0.4823
 3387SOL    HW121794   0.931   2.758   6.395  1.3675  0.6782  1.0876
 3387SOL    HW221795   0.938   2.645   6.306  1.7069 -1.4826  1.7039
 3388SOL     OW21796   2.767   3.450   2.145  0.4690  0.2427 -0.0647
 3388SOL    HW121797   2.850   3.491   2.119  1.5253 -1.2728  0.9388
 3388SOL    HW221798   2.703   3.521   2.133  0.3314  0.3437  1.2906
 3389SOL     OW21799   0.936   1.900   7.333 -0.2936  0.4745 -0.2953
 3389SOL    HW121800   1.008   1.858   7.286 -2.2810 -1.2143 -1.8381
 3389SOL    HW221801   0.927   1.827   7.394  1.0903 -0.6189 -1.4124
 3390SOL     OW21802   3.785   0.237   4.000 -0.4640  0.3232  0.0126
 3390SOL    HW121803   3.790   0.167   3.935 -1.4271  0.4428 -0.1907
 3390SOL    HW221804   3.849   0.302   3.973 -1.5870  0.9178 -1.2111
 3391SOL     OW21805   3.149   4.677   6.794 -0.2972 -0.2536  0.2146
 3391SOL    HW121806   3.166   4.638   6.708  2.7403 -2.9211  2.0274
 3391SOL    HW221807   3.125   0.032   6.773  2.7809  0.8363  1.2728
 3392SOL     OW21808   1.073   0.344  10.741 -0.0365 -0.1738 -0.5544
 3392SOL    HW121809   1.046   0.263  10.786  1.3110 -0.5826 -0.4677
 3392SOL    HW221810   1.138   0.310  10.679 -1.5005 -0.3185 -2.0002
 3393SOL     OW21811   2.292   3.189  15.471 -0.4808  0.3859 -0.0410
 3393SOL    HW121812   2.337   3.187  15.555 -0.0460  2.2955 -0.2172
 3393SOL    HW221813   2.356   3.232  15.413  1.7502 -2.1934  0.5049
 3394SOL     OW21814   2.578   4.626  15.394 -0.5682 -0.3076 -0.1873
 3394SOL    HW121815   2.580   4.665  15.482 -0.2400  0.5552 -0.5707
 3394SOL    HW221816   2.487   4.604  15.376 -0.1745 -1.5638 -0.6331
 3395SOL     OW21817   4.691   1.216   3.634 -0.4988  0.2158  0.1604
 3395SOL    HW121818   4.707   1.294   3.581 -1.4631 -0.3862 -0.9993
 3395SOL    HW221819   0.020   1.151   3.605 -1.4372 -0.4039 -0.5073
 3396SOL     OW21820   1.706   3.148  11.952 -0.9370 -0.3252 -0.2658
 3396SOL    HW121821   1.675   3.210  11.886  0.5435  0.1554 -0.4892
 3396SOL    HW221822   1.639   3.154  12.021 -1.3835  1.4786 -0.8594
 3397SOL     OW21823   2.320   3.134   1.600  0.0858 -0.1869  0.1046
 3397SOL    HW121824   2.277   3.088   1.673 -0.5739 -1.0661 -0.8411
 3397SOL    HW221825   2.272   3.217   1.594  1.7887  0.7954  0.1706
 3398SOL     OW21826   1.980   1.048   5.488  0.3423  0.0572 -0.2624
 3398SOL    HW121827   2.063   1.002   5.482 -0.5562 -1.5235 -0.7059
 3398SOL    HW221828   2.009   1.132   5.451 -0.2137  0.3250 -0.0941
 3399SOL     OW21829   0.290   1.414   4.883  1.0261 -0.2174 -0.2960
 3399SOL    HW121830   0.263   1.496   4.925  2.8742 -0.7629  2.0042
 3399SOL    HW221831   0.312   1.371   4.966 -0.0452 -1.7702 -0.8356
 3400SOL     OW21832   3.580   1.934  12.968 -0.4464  0.3668  0.1690
 3400SOL    HW121833   3.488   1.911  12.957 -0.2262 -0.4603  0.0715
 3400SOL    HW221834   3.627   1.860  12.929 -0.7678  0.2424  0.0222
 3401SOL     OW21835   1.554   2.934   0.547 -0.4003 -0.2472  0.3680
 3401SOL    HW121836   1.598   2.866   0.497 -0.7721 -0.5141  0.4035
 3401SOL    HW221837   1.585   2.915   0.635 -1.4365 -0.2357  0.7340
 3402SOL     OW21838   3.279   0.017   5.913 -0.1838 -0.2110 -0.3088
 3402SOL    HW121839   3.282   4.674   5.968  2.8352 -1.5974 -2.4052
 3402SOL    HW221840   3.351   4.721   5.858 -1.3355  0.5209 -2.2126
 3403SOL     OW21841   0.245   3.406   0.973 -0.1433 -0.0341 -0.2466
 3403SOL    HW121842   0.283   3.379   0.889 -1.0236  2.8674 -1.5545
 3403SOL    HW221843   0.154   3.387   0.952 -0.5482 -0.0062  1.4999
 3404SOL     OW21844   2.304   2.681  12.590  0.2300  0.5595  0.5896
 3404SOL    HW121845   2.334   2.771  12.603  1.0417  0.1839  1.2641
 3404SOL    HW221846   2.258   2.664  12.672  0.9283 -0.3219  0.7984
 3405SOL     OW21847   0.211   3.801   6.448 -0.2735  0.0042 -0.2438
 3405SOL    HW121848   0.240   3.890   6.465 -3.1937  1.3180 -2.1722
 3405SOL    HW221849   0.171   3.783   6.533  0.1315  3.0367  0.5939
 3406SOL     OW21850   3.034   3.558   6.399 -0.2545 -0.3321 -0.3565
 3406SOL    HW121851   2.970   3.495   6.365  0.7818 -0.0126 -2.8733
 3406SOL    HW221852   2.980   3.636   6.409  0.0019 -0.3002  0.8040
 3407SOL     OW21853   3.616   0.884  16.672 -0.4149  0.2296  0.3700
 3407SOL    HW121854   3.646   0.968  16.708  0.9997 -1.0779  2.2051
 3407SOL    HW221855   3.638   0.831  16.749  0.2780 -0.5572 -0.3687
 3408SOL     OW21856   3.519   2.092   7.089 -0.0496 -0.5471  0.2604
 3408SOL    HW121857   3.478   2.078   7.174 -2.9058 -1.9364 -1.3520
 3408SOL    HW221858   3.526   2.186   7.102  1.9960 -0.9543  2.0614
 3409SOL     OW21859   2.658   2.993   2.768 -0.0680  0.7359  0.3331
 3409SOL    HW121860   2.717   3.001   2.843  0.5709 -1.0093 -0.0031
 3409SOL    HW221861   2.622   3.081   2.758  1.3662  1.4203  1.1060
 3410SOL     OW21862   3.598   1.060  17.574 -0.0290  0.1191 -0.1929
 3410SOL    HW121863   3.659   1.121  17.533 -0.1348  0.3810  0.0417
 3410SOL    HW221864   3.632   0.974  17.549 -0.3492  0.0008 -0.2114
 3411SOL     OW21865   2.263   3.461  14.771  0.1079  0.0273 -0.0209
 3411SOL    HW121866   2.260   3.506  14.686 -0.2383  0.0623  0.0123
 3411SOL    HW221867   2.342   3.501  14.807 -0.0468 -0.5474  0.9422
 3412SOL     OW21868   4.104   2.441   5.617  0.0968  0.2059 -0.0871
 3412SOL    HW121869   4.111   2.382   5.542 -0.9675 -0.9479  0.7229
 3412SOL    HW221870   4.121   2.525   5.574 -3.1339  0.6767 -0.4725
 3413SOL     OW21871   3.390   0.447   1.900 -0.8486  0.0120  0.0553
 3413SOL    HW121872   3.459   0.392   1.936 -1.3027  0.6177  1.8330
 3413SOL    HW221873   3.435   0.482   1.823 -2.3460 -1.0971 -1.3221
 3414SOL     OW21874   3.294   4.499   6.576 -0.2220  0.0376 -1.0246
 3414SOL    HW121875   3.379   4.456   6.583 -0.0088  0.5361 -0.6304
 3414SOL    HW221876   3.249   4.421   6.543  0.3128 -0.8008  0.2343
 3415SOL     OW21877   1.642   3.994   6.319 -0.2118  0.0994  0.5555
 3415SOL    HW121878   1.561   3.983   6.367 -1.8362 -0.6674 -2.3900
 3415SOL    HW221879   1.613   4.016   6.231  0.2813  2.3905  0.9618
 3416SOL     OW21880   3.150   4.547  10.140 -0.6582 -0.6141  0.0552
 3416SOL    HW121881   3.142   4.636  10.105 -0.5178 -0.4734  0.3844
 3416SOL    HW221882   3.067   4.510  10.110 -0.4079  0.9824 -2.6578
 3417SOL     OW21883   4.595   0.429   4.394 -0.0813 -0.1376 -0.1614
 3417SOL    HW121884   4.577   0.407   4.303 -1.8022  2.7290 -0.5062
 3417SOL    HW221885   4.589   0.344   4.438  1.2975 -0.5295 -0.7143
 3418SOL     OW21886   4.077   3.755   2.028  0.6697  0.1307  0.2399
 3418SOL    HW121887   4.124   3.800   2.098  1.1084 -1.2123  0.7992
 3418SOL    HW221888   4.146   3.749   1.962 -2.1702 -1.4107 -2.6019
 3419SOL     OW21889   4.379   4.526   9.149 -0.5851 -0.3461 -0.0609
 3419SOL    HW121890   4.314   4.460   9.123 -2.1701  1.0608  0.3958
 3419SOL    HW221891   4.433   4.466   9.200  1.7829  0.3104 -1.7613
 3420SOL     OW21892   1.947   4.573  16.642  0.4237  0.0509 -0.7118
 3420SOL    HW121893   1.962   4.667  16.653 -2.1697  0.1999  1.3707
 3420SOL    HW221894   1.881   4.566  16.710  1.5144 -0.4226  0.2985
 3421SOL     OW21895   1.246   3.851  13.714 -0.0039 -0.8368 -0.0245
 3421SOL    HW121896   1.322   3.821  13.764  2.5961  2.4683 -2.0243
 3421SOL    HW221897   1.286   3.933  13.686  2.1771 -1.0575  2.4524
 3422SOL     OW21898   0.452   3.899   3.987 -0.6135  0.4299  0.6944
 3422SOL    HW121899   0.441   3.961   4.059 -0.2432  1.0371  0.2269
 3422SOL    HW221900   0.363   3.873   3.965 -0.8942  1.9508  0.0425
 3423SOL     OW21901   2.782   1.002   6.445 -0.2071  0.0338 -0.2946
 3423SOL    HW121902   2.747   1.078   6.492  0.3616 -0.9398  1.7010
 3423SOL    HW221903   2.747   0.928   6.494  1.1534 -1.7735 -2.0372
 3424SOL     OW21904   4.516   3.915   7.924  0.2990 -0.0497 -0.7255
 3424SOL    HW121905   4.576   3.904   7.850 -0.5236 -2.5782 -1.0134
 3424SOL    HW221906   4.463   3.836   7.928 -0.0862  0.3106  1.2832
 3425SOL     OW21907   2.025   2.427   9.060 -0.4225  0.0388 -0.6301
 3425SOL    HW121908   1.940   2.416   9.104 -0.2259  0.0295 -0.2521
 3425SOL    HW221909   2.012   2.384   8.976  0.2337 -1.6514  0.1403
 3426SOL     OW21910   0.850   0.971   8.810 -0.0446 -0.3249 -0.0522
 3426SOL    HW121911   0.876   0.901   8.750 -0.5581 -0.1022 -0.5289
 3426SOL    HW221912   0.790   1.022   8.756  1.1467  0.8706 -0.2577
 3427SOL     OW21913   2.994   2.527  13.855 -0.8457 -0.2579 -0.2472
 3427SOL    HW121914   2.944   2.568  13.926  0.2688  1.2187 -0.3074
 3427SOL    HW221915   2.928   2.486  13.800  0.1162 -0.3989 -1.2910
 3428SOL     OW21916   4.227   1.083  17.111 -0.0017  0.2278  0.1752
 3428SOL    HW121917   4.206   1.162  17.160 -2.5256 -0.3765  0.0356
 3428SOL    HW221918   4.277   1.028  17.171  1.0576 -0.7171 -1.5624
 3429SOL     OW21919   2.241   1.554   8.357  0.6022  0.0225  0.3083
 3429SOL    HW121920   2.310   1.557   8.290 -0.7232  0.0889 -1.0557
 3429SOL    HW221921   2.270   1.481   8.410 -0.9090 -0.7859  0.0075
 3430SOL     OW21922   2.254   3.266   7.668 -0.3564  0.7418  0.3599
 3430SOL    HW121923   2.183   3.319   7.631 -1.8698 -1.5373 -0.0090
 3430SOL    HW221924   2.220   3.178   7.651  2.3134 -0.5551  1.7360
 3431SOL     OW21925   1.026   0.168   3.202  0.5274 -0.0003  0.6380
 3431SOL    HW121926   1.039   0.075   3.181  1.8321  0.3986 -0.3018
 3431SOL    HW221927   1.092   0.204   3.143 -1.3908  0.6640 -1.0807
 3432SOL     OW21928   1.242   1.475   4.006 -0.0063 -0.6564  0.5658
 3432SOL    HW121929   1.190   1.473   3.925 -0.6876  1.4548  0.9673
 3432SOL    HW221930   1.330   1.472   3.969  1.7146  0.9552  4.5596
 3433SOL     OW21931   0.437   4.542  17.156 -0.2919  0.0355  0.2184
 3433SOL    HW121932   0.431   4.548  17.061 -1.0524  0.2567  0.2742
 3433SOL    HW221933   0.343   4.533  17.175 -0.0740 -2.3581  0.2399
 3434SOL     OW21934   0.893   2.279  15.873 -0.3246 -0.0576 -0.1957
 3434SOL    HW121935   0.813   2.299  15.921  0.3889 -0.2014  1.0451
 3434SOL    HW221936   0.900   2.348  15.806  2.5276 -0.1072  0.0370
 3435SOL     OW21937   2.067   2.478   5.513  0.2348  0.2606  0.5726
 3435SOL    HW121938   2.155   2.487   5.475  0.5003  0.3068  1.1916
 3435SOL    HW221939   2.088   2.434   5.595  0.0854  1.5866  1.3206
 3436SOL     OW21940   4.312   4.539  16.844 -0.2582 -0.0603  0.3979
 3436SOL    HW121941   4.331   4.633  16.834  4.1441 -1.0313 -0.2825
 3436SOL    HW221942   4.246   4.537  16.775  0.0618  0.9658  0.0676
 3437SOL     OW21943   3.301   0.422  13.809  0.0121 -0.5332 -0.1538
 3437SOL    HW121944   3.325   0.333  13.836  0.8176 -0.3160 -0.1290
 3437SOL    HW221945   3.341   0.467  13.884  1.7305 -0.8160 -0.9045
 3438SOL     OW21946   4.727   3.744   1.666 -0.4208  0.2559 -0.3325
 3438SOL    HW121947   0.039   3.662   1.656 -0.5370 -0.0710  1.7131
 3438SOL    HW221948   4.656   3.716   1.724  2.0967 -0.7517  2.3000
 3439SOL     OW21949   3.906   1.324   3.280  0.6499 -0.3790 -0.1100
 3439SOL    HW121950   3.883   1.285   3.196 -2.4697  1.8688 -0.3342
 3439SOL    HW221951   3.893   1.247   3.335  0.7648  1.2095  2.1257
 3440SOL     OW21952   2.753   1.698   2.369 -0.2284  0.8205  0.3899
 3440SOL    HW121953   2.792   1.686   2.456  1.5995 -4.0813 -1.1615
 3440SOL    HW221954   2.818   1.672   2.305 -0.9306 -1.3479  0.5537
 3441SOL     OW21955   2.562   3.418   4.507 -0.4257 -0.0550  0.1464
 3441SOL    HW121956   2.568   3.477   4.583 -0.6753  1.0858 -0.7087
 3441SOL    HW221957   2.467   3.415   4.496 -0.4029  0.6393 -0.3017
 3442SOL     OW21958   3.340   2.781   6.301 -0.3985 -0.3130 -0.1388
 3442SOL    HW121959   3.363   2.769   6.209  0.4472  0.0276  0.0200
 3442SOL    HW221960   3.392   2.716   6.350  1.1979  0.6252 -0.5684
 3443SOL     OW21961   3.930   3.229   1.927  0.2294 -0.1034 -0.4014
 3443SOL    HW121962   3.846   3.244   1.884  1.1547  2.1931 -1.4517
 3443SOL    HW221963   3.918   3.295   1.995 -1.3458 -1.5417  0.6922
 3444SOL     OW21964   1.038   0.610   9.370 -0.6061 -0.0513 -0.1612
 3444SOL    HW121965   0.971   0.674   9.347  1.4613  1.5018 -1.9608
 3444SOL    HW221966   1.006   0.537   9.318  0.4292 -0.7817  0.2204
 3445SOL     OW21967   0.941   0.250   4.694  0.0127  0.4319  0.5120
 3445SOL    HW121968   0.915   0.159   4.685 -2.2908  1.2640 -1.2720
 3445SOL    HW221969   1.034   0.235   4.708 -0.1300 -1.3803 -0.5301
 3446SOL     OW21970   0.308   3.580   6.345 -0.2733  0.0284 -0.4168
 3446SOL    HW121971   0.376   3.632   6.387 -0.4574 -0.9722  1.1052
 3446SOL    HW221972   0.235   3.628   6.382  1.2711  2.5200 -0.6260
 3447SOL     OW21973   3.286   1.093  12.866  0.4004 -0.0454 -0.3347
 3447SOL    HW121974   3.191   1.084  12.858 -0.0451  1.8345  2.6048
 3447SOL    HW221975   3.311   1.075  12.776 -2.6816 -0.7607 -1.0657
 3448SOL     OW21976   1.143   0.088   5.373 -0.1359  0.1028  0.0387
 3448SOL    HW121977   1.051   0.115   5.366 -0.0075  0.6902  0.6166
 3448SOL    HW221978   1.186   0.172   5.354 -1.3480  1.1842  2.0327
 3449SOL     OW21979   2.531   1.813  13.876 -0.2586  0.2028  0.4611
 3449SOL    HW121980   2.438   1.802  13.857  0.0023  1.1336 -1.3735
 3449SOL    HW221981   2.539   1.733  13.928 -0.7979  1.5973  2.7027
 3450SOL     OW21982   2.830   0.460   8.318 -0.4711  0.0209 -0.3687
 3450SOL    HW121983   2.805   0.432   8.229  1.4236  1.6075 -1.3848
 3450SOL    HW221984   2.802   0.551   8.326  0.0348  0.0621  0.8796
 3451SOL     OW21985   4.390   1.483  13.364  0.1334 -0.1999  0.3430
 3451SOL    HW121986   4.433   1.535  13.431 -0.1134 -0.3434  0.6137
 3451SOL    HW221987   4.300   1.467  13.393 -0.0693  1.7313  0.7377
 3452SOL     OW21988   0.154   2.437   6.383 -0.0470  0.1576  0.4299
 3452SOL    HW121989   0.156   2.361   6.324 -2.9613  0.6956 -0.3514
 3452SOL    HW221990   0.098   2.499   6.336  2.0627  1.3886 -0.4443
 3453SOL     OW21991   3.619   1.884   6.942  0.0871  0.4208 -0.2075
 3453SOL    HW121992   3.575   1.953   6.991  1.2632  0.6375  0.5630
 3453SOL    HW221993   3.667   1.832   7.007 -1.8343  0.0534  0.9126
 3454SOL     OW21994   1.231   4.646   4.200 -1.1447 -0.4327 -0.2741
 3454SOL    HW121995   1.203   4.710   4.135  1.0679  1.4314  0.5918
 3454SOL    HW221996   1.168   4.652   4.272  0.6031  0.0578  1.2336
 3455SOL     OW21997   4.133   0.577   1.092 -0.3758 -0.2491 -0.0172
 3455SOL    HW121998   4.143   0.632   1.171 -1.1699 -1.6057  1.0272
 3455SOL    HW221999   4.109   0.642   1.026 -0.4905  0.3843  0.6368
 3456SOL     OW22000   2.250   3.921   3.065  0.2090  0.4139  0.2746
 3456SOL    HW122001   2.280   3.908   3.155 -1.7139 -1.3721  0.6714
 3456SOL    HW222002   2.156   3.937   3.078  0.1977 -0.5069  1.3038
 3457SOL     OW22003   3.127   1.617   0.725 -0.3069 -0.4552  0.0567
 3457SOL    HW122004   3.177   1.689   0.686 -0.5602  0.6131  1.7005
 3457SOL    HW222005   3.134   1.560   0.648  0.4785  0.2181 -0.3596
 3458SOL     OW22006   4.013   1.121   5.014  0.1969 -0.1326 -0.8474
 3458SOL    HW122007   3.962   1.060   4.960  1.8703 -0.5832 -1.9268
 3458SOL    HW222008   4.091   1.069   5.036 -1.4041 -3.1188 -2.0992
 3459SOL     OW22009   0.299   3.153   3.072 -0.3341  0.1982 -0.1402
 3459SOL    HW122010   0.301   3.136   2.977  0.9670 -0.1328 -0.0496
 3459SOL    HW222011   0.380   3.203   3.074  0.1330 -0.5872  0.4480
 3460SOL     OW22012   3.438   3.276  11.038  0.2872  0.1688 -0.0298
 3460SOL    HW122013   3.473   3.343  11.095 -2.5728  0.9372  0.8100
 3460SOL    HW222014   3.486   3.202  11.075 -0.6618 -0.1569  0.5449
 3461SOL     OW22015   2.094   1.239   2.977  0.2816 -0.0077  0.2217
 3461SOL    HW122016   2.033   1.167   2.997 -1.7563  1.3421 -1.0431
 3461SOL    HW222017   2.027   1.305   2.959  1.0304  0.4437 -0.9334
 3462SOL     OW22018   3.074   2.284   2.104 -0.6507 -0.0098 -0.0184
 3462SOL    HW122019   3.115   2.300   2.190 -0.5496 -1.0459  0.1366
 3462SOL    HW222020   3.142   2.245   2.050 -0.4594 -0.6477  0.6759
 3463SOL     OW22021   1.820   2.510   1.182  0.4096  0.2198  0.2568
 3463SOL    HW122022   1.764   2.454   1.128 -2.5721  3.2797  0.1941
 3463SOL    HW222023   1.756   2.521   1.252 -1.2962  0.3165 -1.3245
 3464SOL     OW22024   0.495   3.846   4.680 -0.6870  0.5823 -0.0740
 3464SOL    HW122025   0.468   3.928   4.638  0.1377  0.3964 -0.9616
 3464SOL    HW222026   0.589   3.860   4.688 -0.9719  2.3654  0.1556
 3465SOL     OW22027   1.605   3.982   1.698  0.2771  0.1634 -0.1850
 3465SOL    HW122028   1.612   4.068   1.658  1.3274  0.4319  0.5877
 3465SOL    HW222029   1.687   3.982   1.747  0.5870 -1.4552 -0.6951
 3466SOL     OW22030   3.786   4.371   2.276  0.0560  0.0371 -0.6083
 3466SOL    HW122031   3.851   4.408   2.336  2.0529 -1.1468 -2.0420
 3466SOL    HW222032   3.795   4.280   2.305 -1.5116  0.8752  2.4845
 3467SOL     OW22033   3.685   4.567  10.531  0.4212 -0.5005 -0.1402
 3467SOL    HW122034   3.593   4.565  10.557  1.0640  0.2102  2.2108
 3467SOL    HW222035   3.685   4.630  10.459  0.9597  0.1371  0.4147
 3468SOL     OW22036   1.782   3.308   4.902  1.1107 -0.0169 -0.3698
 3468SOL    HW122037   1.687   3.294   4.898  1.1250  0.0936 -1.1291
 3468SOL    HW222038   1.806   3.226   4.858 -3.1516 -0.1437 -2.4801
 3469SOL     OW22039   0.133   1.914   1.361 -0.2293  0.0382 -0.1948
 3469SOL    HW122040   0.107   1.927   1.270 -2.6359  0.2643  0.5377
 3469SOL    HW222041   0.226   1.937   1.352 -0.8042  1.4232 -2.6099
 3470SOL     OW22042   0.424   0.558  11.313  0.8525 -0.2626  0.0680
 3470SOL    HW122043   0.427   0.653  11.302  1.6141 -0.3065 -0.1070
 3470SOL    HW222044   0.336   0.547  11.349  0.6035  1.3720 -0.0666
 3471SOL     OW22045   1.301   4.131  16.830  0.4244 -0.3206  0.3222
 3471SOL    HW122046   1.215   4.166  16.808  0.1265 -0.3988  1.3641
 3471SOL    HW222047   1.282   4.051  16.879  1.2918 -0.2617  0.7640
 3472SOL     OW22048   3.668   4.257   2.978  0.0754 -0.1332  0.2108
 3472SOL    HW122049   3.701   4.324   3.039 -1.5861 -1.7741  2.8941
 3472SOL    HW222050   3.672   4.178   3.031  1.6528  0.7713  1.4344
 3473SOL     OW22051   1.983   4.705   9.502  0.1079 -0.2194  1.1716
 3473SOL    HW122052   1.910   4.693   9.562 -2.2608  1.8215 -1.3018
 3473SOL    HW222053   1.938   0.020   9.434  2.2870  0.0181 -0.1014
 3474SOL     OW22054   0.639   2.555  16.607  0.1050  0.2378 -0.0739
 3474SOL    HW122055   0.715   2.602  16.643 -0.8196  0.6234  1.3959
 3474SOL    HW222056   0.589   2.528  16.684 -1.7908  2.0102 -0.6827
 3475SOL     OW22057   4.142   4.338   9.529 -0.0680  0.0198 -0.2044
 3475SOL    HW122058   4.138   4.249   9.496 -0.2718  0.0559 -0.2763
 3475SOL    HW222059   4.233   4.361   9.510 -0.0126 -0.3924 -0.4234
 3476SOL     OW22060   0.310   3.078   2.814  0.3511  0.2149 -0.2266
 3476SOL    HW122061   0.230   3.025   2.800  0.6121 -0.2107 -0.1111
 3476SOL    HW222062   0.375   3.012   2.789 -0.8005 -0.5691 -1.2231
 3477SOL     OW22063   1.057   0.324   5.039 -0.2627  0.3886  0.7512
 3477SOL    HW122064   1.041   0.232   5.064  0.4995  0.8158  2.8210
 3477SOL    HW222065   1.067   0.323   4.944  0.6782  0.5464  0.8477
 3478SOL     OW22066   0.909   0.445  17.549  0.5070 -0.3392  0.1074
 3478SOL    HW122067   0.972   0.377  17.527  1.0924  0.5726 -1.0537
 3478SOL    HW222068   0.827   0.402  17.572 -0.8253  2.6292  0.9661
 3479SOL     OW22069   1.019   3.572  14.902 -0.0404 -0.1711 -0.3471
 3479SOL    HW122070   1.020   3.512  14.976 -2.1255 -0.9436 -0.9578
 3479SOL    HW222071   1.102   3.618  14.913 -0.0509 -0.4164  0.7515
 3480SOL     OW22072   2.323   1.436   1.100 -0.2809 -0.4647 -0.3575
 3480SOL    HW122073   2.289   1.525   1.103  3.4074  0.9513 -0.1070
 3480SOL    HW222074   2.386   1.448   1.172  0.3588  0.8852 -1.1425
 3481SOL     OW22075   0.129   3.910   9.843 -0.2497 -0.3598  0.3296
 3481SOL    HW122076   0.167   3.853   9.776  0.5374  0.3524  0.1651
 3481SOL    HW222077   0.120   3.849   9.917  0.6087 -0.7340  0.1327
 3482SOL     OW22078   2.516   1.219   2.126 -0.1102 -0.5423  0.9378
 3482SOL    HW122079   2.456   1.208   2.053 -0.1665  0.1368  0.8827
 3482SOL    HW222080   2.556   1.133   2.116 -3.0784 -1.7899 -0.0409
 3483SOL     OW22081   4.045   1.144   3.737  0.1696 -0.6921 -0.3609
 3483SOL    HW122082   4.059   1.226   3.690 -1.6049 -1.1286 -1.6499
 3483SOL    HW222083   4.126   1.100   3.713  0.0877 -1.6245  1.0145
 3484SOL     OW22084   0.179   1.767  16.434  0.2469 -0.0287 -0.9156
 3484SOL    HW122085   0.125   1.734  16.362 -1.1868  0.0655  0.1114
 3484SOL    HW222086   0.174   1.697  16.499  1.3246  0.7437 -0.0122
 3485SOL     OW22087   4.236   1.965  12.334  0.4640 -0.7224 -0.8585
 3485SOL    HW122088   4.181   1.893  12.303 -0.5233 -0.3262 -0.0527
 3485SOL    HW222089   4.197   1.973  12.421  2.5880  0.7291 -0.0390
 3486SOL     OW22090   0.192   1.806   6.756  0.3036 -0.2487 -0.6066
 3486SOL    HW122091   0.108   1.839   6.787  0.3790 -1.6913  1.0974
 3486SOL    HW222092   0.203   1.872   6.687  0.0222  0.4596  0.0219
 3487SOL     OW22093   3.766   1.180  10.987  0.1470  0.0499 -0.2442
 3487SOL    HW122094   3.687   1.175  11.042  1.4590 -0.2017  1.6271
 3487SOL    HW222095   3.743   1.232  10.910 -2.0856 -0.8046 -0.1594
 3488SOL     OW22096   3.804   0.735   3.407 -0.3293  0.3298  0.3161
 3488SOL    HW122097   3.788   0.659   3.463  1.3378  0.4452  0.9445
 3488SOL    HW222098   3.715   0.767   3.392 -1.0777 -0.8461  2.2619
 3489SOL     OW22099   2.795   3.419   5.675 -0.0729  0.0073 -0.2219
 3489SOL    HW122100   2.713   3.465   5.692 -1.0656 -1.3175 -1.4345
 3489SOL    HW222101   2.830   3.395   5.761 -0.8756  1.4501  0.4998
 3490SOL     OW22102   3.850   0.909  14.553 -0.1506  0.4030  0.1366
 3490SOL    HW122103   3.850   0.839  14.617  0.7657 -0.1099 -0.4171
 3490SOL    HW222104   3.764   0.915  14.511  0.6020  2.1051 -1.1673
 3491SOL     OW22105   1.980   4.452  12.123  0.0906 -0.3397 -0.3254
 3491SOL    HW122106   2.044   4.386  12.098 -1.2440 -2.1548  1.0048
 3491SOL    HW222107   1.919   4.393  12.167  0.3342 -0.3940 -0.0639
 3492SOL     OW22108   3.848   3.322   4.134 -0.1271 -0.0932  0.3240
 3492SOL    HW122109   3.944   3.327   4.127 -0.2154 -0.2667 -0.9854
 3492SOL    HW222110   3.842   3.226   4.137 -1.1126 -0.0662 -1.0506
 3493SOL     OW22111   2.591   1.968  12.081 -0.1256 -0.0620  0.0699
 3493SOL    HW122112   2.517   2.004  12.032 -0.6696  0.0828  0.9810
 3493SOL    HW222113   2.640   1.933  12.007  0.5901  0.9967  0.0385
 3494SOL     OW22114   1.730   4.417   2.486 -0.2545 -0.2110 -0.3580
 3494SOL    HW122115   1.712   4.472   2.562  0.7856 -0.2303 -0.1020
 3494SOL    HW222116   1.812   4.378   2.517 -1.2019 -2.5397 -0.7648
 3495SOL     OW22117   3.621   0.140   3.340  0.5501  0.0892 -0.1369
 3495SOL    HW122118   3.608   0.059   3.291 -0.4199 -1.4448  2.6099
 3495SOL    HW222119   3.679   0.110   3.410  0.3346  1.7999  0.7965
 3496SOL     OW22120   3.323   0.411  13.522  0.4169  0.1251  0.1443
 3496SOL    HW122121   3.376   0.488  13.501  2.0338 -0.2438  2.9017
 3496SOL    HW222122   3.319   0.421  13.617 -0.8602  1.6376 -0.0702
 3497SOL     OW22123   3.026   3.764   4.625  0.8549 -0.3015 -0.3840
 3497SOL    HW122124   2.934   3.788   4.623  0.6292 -1.3632 -2.2531
 3497SOL    HW222125   3.022   3.685   4.678 -1.6890 -0.5039 -0.8971
 3498SOL     OW22126   0.213   3.309   6.786  0.1575 -0.1384 -0.2008
 3498SOL    HW122127   0.150   3.267   6.728 -0.1669 -0.1059  0.1233
 3498SOL    HW222128   0.154   3.326   6.860 -1.1588 -0.7419 -1.1227
 3499SOL     OW22129   0.401   4.701   7.014  0.1401  0.4303 -0.4452
 3499SOL    HW122130   0.458   4.712   7.090  0.4456  1.2536 -0.8052
 3499SOL    HW222131   0.357   4.624   7.050  0.1776  0.2700 -0.7387
 3500SOL     OW22132   1.656   2.820   0.775 -0.2059  0.3491  0.5027
 3500SOL    HW122133   1.655   2.725   0.774 -0.3038  0.3465  2.5413
 3500SOL    HW222134   1.678   2.836   0.866  0.8892 -1.2758  0.5191
 3501SOL     OW22135   3.737   4.437   4.702 -0.1208  0.0081 -0.5253
 3501SOL    HW122136   3.753   4.352   4.662  2.5006  1.2348 -2.0198
 3501SOL    HW222137   3.823   4.454   4.741 -0.9783 -1.6770  2.1009
 3502SOL     OW22138   2.613   3.721   7.314 -0.5321 -0.1299  0.1090
 3502SOL    HW122139   2.575   3.705   7.400 -0.3726  2.3487  0.6241
 3502SOL    HW222140   2.625   3.628   7.293 -1.4605 -0.4443  0.9636
 3503SOL     OW22141   3.068   3.213  15.503  0.2320 -0.9653 -0.7214
 3503SOL    HW122142   3.111   3.264  15.435  1.9062  0.7723  1.6290
 3503SOL    HW222143   3.140   3.188  15.560 -0.1154 -0.3489 -0.0164
 3504SOL     OW22144   0.208   1.358   2.946 -0.2632  0.7494  0.0642
 3504SOL    HW122145   0.157   1.298   3.000  0.0378  0.8152  0.4214
 3504SOL    HW222146   0.168   1.359   2.859 -1.5661 -4.4981  0.6011
 3505SOL     OW22147   4.106   0.837  13.744  0.2696  0.7084  0.8757
 3505SOL    HW122148   4.191   0.844  13.788 -0.2129  3.0691  1.4467
 3505SOL    HW222149   4.123   0.752  13.703 -2.9118  0.2595  0.4681
 3506SOL     OW22150   1.998   4.533   8.505  0.1462  0.5846  0.3193
 3506SOL    HW122151   2.068   4.519   8.568  0.6473  0.1987 -0.3187
 3506SOL    HW222152   1.940   4.460   8.527 -1.1737  0.7724 -2.3830
 3507SOL     OW22153   2.222   0.416  17.669  0.4182 -0.0412  0.1393
 3507SOL    HW122154   2.299   0.389  17.619  1.0003 -0.6185  1.3559
 3507SOL    HW222155   2.210   0.346  17.732  1.7333 -1.3031 -1.0178
 3508SOL     OW22156   0.231   3.564  16.289 -0.0528  0.3015 -0.3843
 3508SOL    HW122157   0.158   3.548  16.348  1.4930 -1.3263  1.0747
 3508SOL    HW222158   0.304   3.574  16.350  0.3513  1.8401 -1.1390
 3509SOL     OW22159   3.154   0.578  11.100  0.1695  0.4023 -0.5205
 3509SOL    HW122160   3.063   0.562  11.076  0.3473 -1.1298 -0.2238
 3509SOL    HW222161   3.205   0.573  11.019 -0.4183 -0.3331 -0.8454
 3510SOL     OW22162   1.463   2.605  10.866 -0.2608  0.6579  0.6956
 3510SOL    HW122163   1.375   2.614  10.903 -0.4244  0.3609  0.3797
 3510SOL    HW222164   1.466   2.664  10.791  0.3174  0.3895  0.5094
 3511SOL     OW22165   3.875   4.470  14.332  0.2610 -0.3845  1.0619
 3511SOL    HW122166   3.951   4.528  14.337  0.9335 -1.0407 -1.5861
 3511SOL    HW222167   3.805   4.530  14.361 -2.2444 -2.2545 -1.1244
 3512SOL     OW22168   0.442   2.027  14.292 -0.6200  0.3146 -0.1306
 3512SOL    HW122169   0.387   2.087  14.343 -1.9342  0.3125 -1.5417
 3512SOL    HW222170   0.527   2.042  14.333 -0.0201 -0.6421 -1.0307
 3513SOL     OW22171   4.161   3.951   0.158 -0.2518  0.0081  0.1132
 3513SOL    HW122172   4.194   3.867   0.126  1.6425  0.8085 -0.0500
 3513SOL    HW222173   4.069   3.931   0.144  0.1034 -0.5929 -1.3887
 3514SOL     OW22174   2.521   2.055  13.746  0.1500  0.0966  0.0376
 3514SOL    HW122175   2.532   1.963  13.770  0.1457  0.8921  3.1215
 3514SOL    HW222176   2.547   2.096  13.828  0.8304 -0.8591  0.2960
 3515SOL     OW22177   4.322   3.091   4.462  0.3975 -0.5854  0.1950
 3515SOL    HW122178   4.385   3.142   4.411 -0.5893 -1.0511 -1.5105
 3515SOL    HW222179   4.233   3.113   4.433  1.3029  1.6979 -0.8615
 3516SOL     OW22180   0.873   4.583   8.897  0.4479  0.7536 -0.2465
 3516SOL    HW122181   0.936   4.613   8.831  0.7773  0.3374 -0.1255
 3516SOL    HW222182   0.930   4.571   8.974 -1.2419  0.8707  1.0109
 3517SOL     OW22183   4.478   3.693   6.690  0.2870  0.6194  0.2966
 3517SOL    HW122184   4.533   3.772   6.695 -0.5550  1.1514  1.1898
 3517SOL    HW222185   4.446   3.687   6.780  1.5365 -0.3478  0.6827
 3518SOL     OW22186   4.569   1.220  16.754 -0.1424 -0.4080 -0.5651
 3518SOL    HW122187   4.608   1.133  16.750  0.1566 -0.4034  2.2734
 3518SOL    HW222188   4.639   1.278  16.722  1.1376 -1.6259  0.0225
 3519SOL     OW22189   0.504   4.322  17.298 -0.0694  0.0918 -0.3278
 3519SOL    HW122190   0.464   4.385  17.239  3.4076  1.4955 -1.1611
 3519SOL    HW222191   0.449   4.341  17.374 -0.1932 -0.9096 -0.1626
 3520SOL     OW22192   1.118   4.267   3.413  0.0910  0.2805 -0.0801
 3520SOL    HW122193   1.116   4.173   3.425  0.0154  0.2333 -0.4683
 3520SOL    HW222194   1.206   4.292   3.441 -0.0368  0.4815  0.1391
 3521SOL     OW22195   4.097   3.224   4.396  0.4733  0.2035  0.1896
 3521SOL    HW122196   4.014   3.273   4.395  1.8955  2.6808  1.4413
 3521SOL    HW222197   4.106   3.187   4.309 -1.4235 -1.4091  0.6830
 3522SOL     OW22198   4.089   2.315  13.864  0.1802 -0.3144  0.6232
 3522SOL    HW122199   4.179   2.339  13.887  0.9321 -0.7866 -1.8928
 3522SOL    HW222200   4.067   2.290  13.954 -0.5130  2.4163  1.2299
 3523SOL     OW22201   1.091   0.177  10.352 -0.2517  0.0867  0.1305
 3523SOL    HW122202   1.163   0.182  10.415 -0.7573  1.4435  0.6022
 3523SOL    HW222203   1.139   0.146  10.275 -0.5901 -1.5840  0.6062
 3524SOL     OW22204   4.267   2.270   4.360  0.0413 -0.0673 -0.5083
 3524SOL    HW122205   4.268   2.205   4.430 -2.2968  1.3362  0.8329
 3524SOL    HW222206   4.281   2.203   4.293 -1.0537 -0.4203 -0.3947
 3525SOL     OW22207   0.779   2.765   5.156 -0.1412  0.2698 -0.3086
 3525SOL    HW122208   0.744   2.699   5.097 -0.9604  1.1304 -0.7850
 3525SOL    HW222209   0.700   2.794   5.202 -0.2746  3.6013 -2.6170
 3526SOL     OW22210   4.163   1.455  12.640 -0.9495 -0.2575 -0.6206
 3526SOL    HW122211   4.094   1.440  12.705 -2.0181  1.0876 -1.4447
 3526SOL    HW222212   4.208   1.370  12.642  1.4174  1.0320 -0.0091
 3527SOL     OW22213   2.146   1.627   5.947 -0.7831  0.0881  0.3866
 3527SOL    HW122214   2.063   1.623   5.995 -1.4829 -0.6507 -0.8885
 3527SOL    HW222215   2.138   1.713   5.905  0.9041 -0.3180 -0.7387
 3528SOL     OW22216   3.387   2.930   5.998 -0.0746  0.1744 -0.0714
 3528SOL    HW122217   3.292   2.915   5.995  0.1147 -1.1144  0.1858
 3528SOL    HW222218   3.414   2.841   5.973 -1.9445 -0.3864 -0.1311
 3529SOL     OW22219   1.217   3.020  12.938  0.1113  0.1671  0.0819
 3529SOL    HW122220   1.302   3.044  12.974  0.6561 -0.3586 -0.8737
 3529SOL    HW222221   1.199   2.948  12.998 -0.1603  0.2804  0.1390
 3530SOL     OW22222   0.994   0.276  12.483 -1.1177  0.3912 -0.7754
 3530SOL    HW122223   0.991   0.257  12.576  0.1896  0.6716 -0.6654
 3530SOL    HW222224   1.018   0.369  12.481  1.4087 -0.2511 -1.6552
 3531SOL     OW22225   2.242   3.160   3.659  0.4153 -0.4473 -0.0028
 3531SOL    HW122226   2.178   3.206   3.603  2.1827  1.9908 -0.0196
 3531SOL    HW222227   2.203   3.163   3.746  0.4586  0.6260 -0.0106
 3532SOL     OW22228   1.132   2.715  11.969  0.0051  0.0410 -0.3293
 3532SOL    HW122229   1.209   2.668  11.936 -0.3836  0.0241 -1.2171
 3532SOL    HW222230   1.137   2.793  11.913  2.5695  0.0632 -0.0795
 3533SOL     OW22231   1.786   1.004   3.913 -0.0799 -0.5420 -0.2381
 3533SOL    HW122232   1.744   0.962   3.838 -1.4377 -0.0764  0.2677
 3533SOL    HW222233   1.717   1.021   3.978  1.2513  0.3917  0.9565
 3534SOL     OW22234   2.444   1.553   5.012 -0.3351  0.6751  0.0661
 3534SOL    HW122235   2.398   1.616   4.956 -1.5841 -0.6275 -0.3536
 3534SOL    HW222236   2.529   1.548   4.967 -0.5094 -0.1622 -0.1504
 3535SOL     OW22237   0.339   0.857   7.723  0.1741 -0.6415 -0.1558
 3535SOL    HW122238   0.331   0.878   7.816 -0.7414  0.6503 -0.5133
 3535SOL    HW222239   0.276   0.923   7.693 -0.8020 -0.3301  2.6056
 3536SOL     OW22240   0.321   0.002  13.345 -0.1060  0.2937  0.2114
 3536SOL    HW122241   0.277   0.049  13.416 -0.6368  0.0293  0.0608
 3536SOL    HW222242   0.353   0.072  13.287  0.7893  0.6027  1.0911
 3537SOL     OW22243   3.479   0.057   4.834 -0.0477 -0.2644 -0.4977
 3537SOL    HW122244   3.526   0.118   4.776  0.8359 -0.8629 -0.4076
 3537SOL    HW222245   3.551   0.026   4.888  0.2742  0.0324 -0.7506
 3538SOL     OW22246   1.985   1.885   7.638 -0.2100  0.0211  0.4053
 3538SOL    HW122247   2.055   1.885   7.573  0.1824  0.5842  0.8335
 3538SOL    HW222248   1.933   1.806   7.621 -2.0143  1.7094 -1.9512
 3539SOL     OW22249   4.332   0.388   6.831 -0.4374 -0.6256 -0.0366
 3539SOL    HW122250   4.319   0.449   6.903  0.7158  0.0539 -0.4048
 3539SOL    HW222251   4.337   0.442   6.752 -0.3918 -0.2292  0.2377
 3540SOL     OW22252   1.499   0.388   6.879 -0.0474  0.4046  0.0028
 3540SOL    HW122253   1.425   0.341   6.839 -0.6482  1.9784 -0.7075
 3540SOL    HW222254   1.530   0.428   6.798  3.0326 -0.8737  0.5425
 3541SOL     OW22255   2.036   1.720   1.348 -0.3973  0.6412  0.5314
 3541SOL    HW122256   2.105   1.744   1.286 -1.3810  0.7771 -0.5182
 3541SOL    HW222257   1.998   1.643   1.306 -2.6482  0.5200  2.7627
 3542SOL     OW22258   0.901   3.524   6.667 -0.1970 -0.3479 -0.0928
 3542SOL    HW122259   0.905   3.433   6.639  0.8994 -0.5284  0.6678
 3542SOL    HW222260   0.880   3.575   6.589 -0.8628  0.9531  0.9327
 3543SOL     OW22261   1.745   2.870   1.051  0.5876 -0.5611  0.1066
 3543SOL    HW122262   1.827   2.888   1.097 -0.0400  1.2058  0.5103
 3543SOL    HW222263   1.681   2.832   1.112 -0.1286  1.9508  0.9255
 3544SOL     OW22264   4.424   1.468  14.550  0.3524  0.1739 -0.0702
 3544SOL    HW122265   4.383   1.520  14.619 -0.0861 -0.5954  0.2479
 3544SOL    HW222266   4.514   1.456  14.581 -0.5523 -0.6664  2.2398
 3545SOL     OW22267   1.491   2.968   6.772 -0.3604 -0.1652 -0.0968
 3545SOL    HW122268   1.560   2.969   6.705  0.2846 -0.8672  0.5502
 3545SOL    HW222269   1.525   3.039   6.827 -1.2388 -1.3674  2.0315
 3546SOL     OW22270   3.322   4.334   6.904 -0.4817 -0.4170 -0.2122
 3546SOL    HW122271   3.387   4.395   6.868 -0.8764  0.4448  0.5371
 3546SOL    HW222272   3.245   4.388   6.921 -0.6414 -0.4280 -0.8914
 3547SOL     OW22273   1.658   3.574   3.592  0.6200 -0.1468  0.1331
 3547SOL    HW122274   1.659   3.499   3.534  1.1316 -1.1085  1.3762
 3547SOL    HW222275   1.574   3.615   3.573 -0.0626 -1.5214  0.2198
 3548SOL     OW22276   2.750   3.721   0.965  0.1542 -0.0448 -0.0489
 3548SOL    HW122277   2.740   3.794   1.026 -0.3509 -0.5371  0.4566
 3548SOL    HW222278   2.667   3.712   0.918 -0.5092 -1.4889  1.4093
 3549SOL     OW22279   0.659   3.802  14.177  0.8019 -0.0007  0.0682
 3549SOL    HW122280   0.658   3.868  14.108 -2.2920  3.1164  3.0308
 3549SOL    HW222281   0.752   3.810  14.198  0.9302 -1.2296 -0.0602
 3550SOL     OW22282   3.267   1.640   8.292 -0.3778 -0.4052  0.4587
 3550SOL    HW122283   3.211   1.707   8.252 -2.1748 -1.1850  1.6297
 3550SOL    HW222284   3.246   1.652   8.385  1.0593 -2.1623  1.0055
 3551SOL     OW22285   3.534   1.337   4.421 -0.0620  0.5042  0.0492
 3551SOL    HW122286   3.569   1.255   4.456 -1.8465  0.8512  2.6558
 3551SOL    HW222287   3.527   1.395   4.497  3.3394 -0.1723  0.8564
 3552SOL     OW22288   0.012   1.458  15.316  0.2269  0.1413  0.1919
 3552SOL    HW122289   4.684   1.528  15.330  0.2109  0.2437 -0.4355
 3552SOL    HW222290   0.097   1.496  15.341  1.0111 -1.0237 -0.7161
 3553SOL     OW22291   1.131   0.646   4.360  0.5190  0.0938 -0.1409
 3553SOL    HW122292   1.120   0.650   4.265  0.2733  0.9726 -0.0800
 3553SOL    HW222293   1.204   0.585   4.367  2.9570  2.5565 -3.9468
 3554SOL     OW22294   1.077   2.141   6.504  0.4602 -0.1784  0.0854
 3554SOL    HW122295   1.047   2.138   6.413 -1.1252  4.0928  0.4749
 3554SOL    HW222296   1.120   2.227   6.497  2.2718 -1.0952 -0.0836
 3555SOL     OW22297   1.781   4.613   8.683  0.2179  0.4316 -0.0752
 3555SOL    HW122298   1.866   4.621   8.641 -0.4669  1.3850 -1.2642
 3555SOL    HW222299   1.758   4.520   8.686  0.9954  0.1888 -1.8364
 3556SOL     OW22300   3.195   2.988   4.133 -0.1711 -0.4993 -0.4849
 3556SOL    HW122301   3.267   2.960   4.188  0.0448  0.5915 -0.2183
 3556SOL    HW222302   3.131   3.026   4.193  0.5338 -1.0164  0.5892
 3557SOL     OW22303   4.477   3.237  11.952  0.0594  0.0718  0.4727
 3557SOL    HW122304   4.532   3.168  11.915 -1.2445 -0.7844  0.1705
 3557SOL    HW222305   4.448   3.193  12.032  0.1691  1.2044  1.1393
 3558SOL     OW22306   3.838   0.710  14.754 -0.4691  0.2554 -0.6379
 3558SOL    HW122307   3.805   0.738  14.840 -1.3251 -1.8391 -0.2826
 3558SOL    HW222308   3.929   0.690  14.774 -0.3324  0.9715 -0.5430
 3559SOL     OW22309   4.629   0.154   4.420 -0.4727  0.1016 -0.0403
 3559SOL    HW122310   4.628   0.185   4.329  0.6180 -4.2118 -1.5384
 3559SOL    HW222311   4.558   0.091   4.415 -0.6755  0.3065  0.3011
 3560SOL     OW22312   2.418   3.679   6.036  0.3710 -0.2029  0.0919
 3560SOL    HW122313   2.497   3.707   5.990  0.8844  0.8868  1.6178
 3560SOL    HW222314   2.365   3.647   5.964 -0.6197 -4.1673  2.6031
 3561SOL     OW22315   0.759   0.978   2.223 -0.1203  0.4688 -0.2303
 3561SOL    HW122316   0.787   0.977   2.131 -0.3217  0.4543 -0.2925
 3561SOL    HW222317   0.824   1.029   2.271  1.0284 -0.7154 -0.5418
 3562SOL     OW22318   3.782   3.353  12.336  0.8596 -0.0031  0.5265
 3562SOL    HW122319   3.752   3.287  12.398  1.2950  0.6499  1.4442
 3562SOL    HW222320   3.714   3.420  12.338  1.5850  0.7386  0.5227
 3563SOL     OW22321   0.195   3.847   4.968 -0.1624 -0.2939  0.2385
 3563SOL    HW122322   0.128   3.795   5.012 -2.2451  1.4801 -0.8454
 3563SOL    HW222323   0.216   3.791   4.894 -2.1129  0.8225 -1.1426
 3564SOL     OW22324   4.324   3.264   1.913  0.2102  0.1693 -0.2803
 3564SOL    HW122325   4.361   3.188   1.958 -2.6830 -1.2394 -0.3087
 3564SOL    HW222326   4.398   3.325   1.915  0.1229  0.2244  1.0708
 3565SOL     OW22327   1.573   1.964   7.721  0.1956 -0.1498 -0.0558
 3565SOL    HW122328   1.595   1.972   7.628  2.6042  0.3866  0.5564
 3565SOL    HW222329   1.657   1.951   7.766  0.0945  2.5491  0.9131
 3566SOL     OW22330   1.978   1.650   0.940 -0.0280  0.2024 -0.0671
 3566SOL    HW122331   1.886   1.662   0.965  0.5568  0.5658  1.9293
 3566SOL    HW222332   1.990   1.711   0.867  0.3726 -0.2739 -0.3919
 3567SOL     OW22333   1.709   2.355  14.118 -0.2226 -0.8783 -0.1516
 3567SOL    HW122334   1.625   2.311  14.102 -0.9655  0.5232 -0.0826
 3567SOL    HW222335   1.730   2.411  14.043 -2.3843 -0.1422 -0.2203
 3568SOL     OW22336   2.773   0.901   9.149 -0.6376 -0.3827 -0.1253
 3568SOL    HW122337   2.698   0.907   9.090 -1.1199 -1.7486  0.3486
 3568SOL    HW222338   2.751   0.827   9.205 -0.2687  0.1819  0.7696
 3569SOL     OW22339   3.432   2.371   6.035  0.1989 -0.0492  0.6597
 3569SOL    HW122340   3.435   2.328   5.950 -1.0777 -1.3649  1.2968
 3569SOL    HW222341   3.413   2.303   6.099  0.4460  0.0077  0.7937
 3570SOL     OW22342   1.182   0.073   7.843  0.2560  0.1055 -0.2524
 3570SOL    HW122343   1.211   0.144   7.786  1.1052  0.9312  1.2019
 3570SOL    HW222344   1.196   4.727   7.795 -0.0119  0.8531 -1.5862
 3571SOL     OW22345   3.980   4.330   5.072  0.2967  0.1947 -0.6205
 3571SOL    HW122346   4.064   4.293   5.099 -1.2432 -1.6205  1.6439
 3571SOL    HW222347   3.929   4.249   5.075  0.0502  0.3604 -0.3012
 3572SOL     OW22348   1.536   1.654   3.404  0.3416 -0.3893 -0.6807
 3572SOL    HW122349   1.606   1.717   3.386  1.5247 -2.2225 -2.4590
 3572SOL    HW222350   1.457   1.699   3.376 -0.8797 -2.1666 -0.1136
 3573SOL     OW22351   3.643   3.065   7.938  0.3725  0.1506 -0.1048
 3573SOL    HW122352   3.577   3.103   7.880  0.5953 -0.1014 -0.5247
 3573SOL    HW222353   3.634   2.976   7.905  0.9937 -1.3084  3.6517
 3574SOL     OW22354   3.137   3.907   6.369  0.2085 -0.5775  0.1685
 3574SOL    HW122355   3.088   3.838   6.325  1.5660 -0.5109 -1.4390
 3574SOL    HW222356   3.204   3.850   6.408  2.1995  1.0968 -0.7788
 3575SOL     OW22357   3.737   0.190   0.016  0.0362  0.4786  0.7855
 3575SOL    HW122358   3.804   0.212   0.082 -0.0480 -1.5204  1.5445
 3575SOL    HW222359   3.678   0.262   0.037 -0.6906  0.7179 -2.1283
 3576SOL     OW22360   2.676   4.125  13.271  0.1793  0.0043 -0.2877
 3576SOL    HW122361   2.714   4.209  13.297  0.2358  0.7411 -2.7210
 3576SOL    HW222362   2.760   4.083  13.254  0.6649  1.5136 -1.6673
 3577SOL     OW22363   1.787   4.249   9.083 -0.1925  1.5068  0.0918
 3577SOL    HW122364   1.727   4.324   9.080  0.4264  1.9775 -0.5241
 3577SOL    HW222365   1.761   4.200   9.005  1.0396 -0.4975  0.9545
 3578SOL     OW22366   3.638   0.412   3.311  0.3909 -0.4849  0.6913
 3578SOL    HW122367   3.561   0.466   3.324 -2.0707 -3.5560 -1.2562
 3578SOL    HW222368   3.604   0.324   3.327 -0.4028 -0.2177  0.4494
 3579SOL     OW22369   4.406   2.224   7.615  0.6169 -0.3765 -0.5564
 3579SOL    HW122370   4.423   2.318   7.605 -0.2392  0.0065  1.5708
 3579SOL    HW222371   4.435   2.207   7.704 -2.3121 -1.2350  0.2398
 3580SOL     OW22372   0.335   4.721   1.325  0.2285 -0.6443 -0.2761
 3580SOL    HW122373   0.274   4.667   1.376  1.5585 -0.1071  1.8601
 3580SOL    HW222374   0.275   0.011   1.254  0.0836 -0.0008  0.0814
 3581SOL     OW22375   3.778   2.228   2.719  0.1169 -0.1395 -0.0501
 3581SOL    HW122376   3.838   2.275   2.777 -0.1902  0.4121 -0.1812
 3581SOL    HW222377   3.779   2.144   2.766  1.4685 -0.3303 -0.4196
 3582SOL     OW22378   4.118   4.670   2.484 -0.7063  0.0611  0.0324
 3582SOL    HW122379   4.199   4.681   2.434 -0.4017  0.6707  0.6585
 3582SOL    HW222380   4.109   0.007   2.546 -1.2390 -1.1317  1.3422
 3583SOL     OW22381   0.416   2.817   2.720 -0.0025 -0.2824  0.3356
 3583SOL    HW122382   0.352   2.748   2.740 -0.2092 -0.1876  0.0102
 3583SOL    HW222383   0.454   2.777   2.642  1.7615 -1.8875  2.0313
 3584SOL     OW22384   3.026   4.725   5.327  0.0083 -0.4976  0.0203
 3584SOL    HW122385   3.057   4.734   5.236  0.0872  1.4045  0.2357
 3584SOL    HW222386   3.026   0.081   5.356  0.9876 -0.9862  1.5425
 3585SOL     OW22387   3.750   1.302   7.502 -0.2631 -0.2154  0.1966
 3585SOL    HW122388   3.680   1.243   7.474 -0.1673 -1.0392  1.6885
 3585SOL    HW222389   3.764   1.264   7.589  0.4915  0.2683  0.2897
 3586SOL     OW22390   1.768   3.347   2.525  0.2729  0.3473 -0.1939
 3586SOL    HW122391   1.832   3.391   2.470 -0.1058  0.8834 -0.2049
 3586SOL    HW222392   1.694   3.328   2.468 -1.0094  4.2059  0.1980
 3587SOL     OW22393   0.752   0.009   0.419  0.4078 -0.4637  0.1782
 3587SOL    HW122394   0.818   4.677   0.435  0.6676 -0.4755 -0.9660
 3587SOL    HW222395   0.731   4.712   0.331 -1.0928  0.4758  0.2015
 3588SOL     OW22396   1.814   2.084   1.782 -0.0925  0.3423 -0.0790
 3588SOL    HW122397   1.819   2.175   1.814 -0.0781 -0.9103  3.5449
 3588SOL    HW222398   1.908   2.073   1.768  0.0379  0.1562  0.8866
 3589SOL     OW22399   1.817   0.742   0.876  0.0587  0.4718 -0.1688
 3589SOL    HW122400   1.848   0.657   0.845 -2.0577 -1.0850  1.9236
 3589SOL    HW222401   1.903   0.772   0.904 -0.3989 -0.1966  1.9884
 3590SOL     OW22402   0.398   3.906   8.825  0.0905 -0.0450 -0.4598
 3590SOL    HW122403   0.455   3.831   8.806 -2.2286 -1.9243  0.0500
 3590SOL    HW222404   0.329   3.885   8.762 -0.0106  0.7137 -0.6092
 3591SOL     OW22405   2.514   3.168  15.052 -0.2749 -0.0308  0.2544
 3591SOL    HW122406   2.537   3.093  14.996 -0.3172 -0.2822  0.5723
 3591SOL    HW222407   2.419   3.163  15.045 -0.0880  0.0956 -2.6369
 3592SOL     OW22408   0.335   3.318   6.323 -0.0748  0.2552 -0.8828
 3592SOL    HW122409   0.308   3.409   6.312 -0.6814  0.0470 -1.1171
 3592SOL    HW222410   0.312   3.301   6.414 -0.0961  1.5474 -0.6520
 3593SOL     OW22411   4.021   1.857  16.483  0.1374  0.0181  0.2314
 3593SOL    HW122412   3.975   1.941  16.491  0.4660  0.2054  0.1171
 3593SOL    HW222413   3.996   1.811  16.563 -2.3689  1.2170  0.1419
 3594SOL     OW22414   0.402   3.846  17.411  0.5155 -0.3103 -0.1685
 3594SOL    HW122415   0.415   3.887  17.496 -2.6079 -1.7482  0.9871
 3594SOL    HW222416   0.494   3.841  17.387 -0.0196 -1.1334 -2.0895
 3595SOL     OW22417   1.493   3.635  14.299 -0.0038  0.0513  0.2691
 3595SOL    HW122418   1.584   3.611  14.316  0.5930  1.7863 -0.5059
 3595SOL    HW222419   1.462   3.629  14.389 -3.4510  4.8031 -0.6311
 3596SOL     OW22420   0.431   3.614   8.749 -0.1990  0.0866 -0.1435
 3596SOL    HW122421   0.492   3.541   8.754  1.1402  1.2386  0.5921
 3596SOL    HW222422   0.357   3.571   8.791  0.5452  0.6836  1.8079
 3597SOL     OW22423   3.594   4.406   7.582  0.5047 -0.1893 -0.0677
 3597SOL    HW122424   3.673   4.357   7.604 -0.0937 -0.0754  2.2751
 3597SOL    HW222425   3.627   4.487   7.621  2.6996 -1.0619 -0.1200
 3598SOL     OW22426   4.492   1.060  15.105 -0.6482  0.2881 -0.5222
 3598SOL    HW122427   4.530   1.141  15.070 -2.3445  0.9195 -0.9031
 3598SOL    HW222428   4.556   0.994  15.079 -1.0051  0.8342 -2.7652
 3599SOL     OW22429   0.331   2.526   9.637 -0.0279 -0.6560 -0.0695
 3599SOL    HW122430   0.330   2.575   9.719  1.2489 -0.2661 -0.2810
 3599SOL    HW222431   0.335   2.433   9.663  1.2692 -0.6536 -0.2635
 3600SOL     OW22432   2.010   1.758   6.379 -0.0957 -0.9581  0.4809
 3600SOL    HW122433   2.072   1.732   6.447  1.0960 -2.2782 -1.0974
 3600SOL    HW222434   1.978   1.671   6.353  1.9061 -1.8375  0.9266
 3601SOL     OW22435   1.311   0.425   3.735 -0.3362 -0.4380 -0.0373
 3601SOL    HW122436   1.231   0.433   3.683  1.2005  0.9918 -2.1900
 3601SOL    HW222437   1.286   0.346   3.782  1.5845 -0.6506  0.6304
 3602SOL     OW22438   0.044   1.987   8.549 -0.5407 -0.1838 -0.0045
 3602SOL    HW122439   0.089   2.058   8.595  1.8814 -1.7284  0.0146
 3602SOL    HW222440   0.117   1.962   8.492 -0.6335 -2.0278  0.6664
 3603SOL     OW22441   3.088   3.395   0.870 -0.2491 -0.7602  0.1786
 3603SOL    HW122442   3.077   3.446   0.950  2.8085 -1.8023  1.2220
 3603SOL    HW222443   3.005   3.421   0.830 -0.2058 -1.0299 -0.0851
 3604SOL     OW22444   3.387   0.486  12.725 -0.5632  0.0403  0.3619
 3604SOL    HW122445   3.467   0.538  12.731 -1.3955  1.3948 -0.2358
 3604SOL    HW222446   3.409   0.434  12.649 -0.5893  0.4090  0.1009
 3605SOL     OW22447   4.371   2.802   2.067  0.3833  0.6267  0.0502
 3605SOL    HW122448   4.354   2.824   2.159  1.6953 -0.3522  0.5140
 3605SOL    HW222449   4.303   2.854   2.024  0.5490 -0.1796 -1.1776
 3606SOL     OW22450   2.903   0.717   6.694  0.1814 -0.5175 -0.0621
 3606SOL    HW122451   2.932   0.676   6.613  0.6360 -0.0324 -0.1407
 3606SOL    HW222452   2.960   0.672   6.757  1.2423  1.0955  0.1132
 3607SOL     OW22453   1.146   2.345  15.314 -0.2074 -0.6504  0.0546
 3607SOL    HW122454   1.141   2.417  15.251  2.5896 -1.9188 -1.6569
 3607SOL    HW222455   1.133   2.263  15.265 -2.5434 -0.8083  0.9601
 3608SOL     OW22456   0.991   2.937   5.088  0.8084  0.0783  0.2652
 3608SOL    HW122457   0.927   2.866   5.090  0.3246  0.3841 -4.2436
 3608SOL    HW222458   0.934   3.009   5.114  2.8979  1.2938  1.4929
 3609SOL     OW22459   4.243   2.649   6.098  0.5696  0.6483  0.3757
 3609SOL    HW122460   4.216   2.595   6.172 -0.2667  0.0222 -0.3959
 3609SOL    HW222461   4.192   2.628   6.020  1.1385 -1.4451  0.5815
 3610SOL     OW22462   0.484   1.813   4.093  0.0551 -0.5493  0.7374
 3610SOL    HW122463   0.519   1.877   4.154  0.3076  0.0941 -0.0824
 3610SOL    HW222464   0.453   1.876   4.029 -1.1408 -0.2507  1.6099
 3611SOL     OW22465   0.601   4.586   0.710 -0.2746 -0.0717  0.1187
 3611SOL    HW122466   0.605   4.682   0.714  0.1818 -0.0642 -0.4748
 3611SOL    HW222467   0.532   4.569   0.774 -0.5055  0.0265 -0.1053
 3612SOL     OW22468   1.185   0.115   6.927 -0.4722  0.1659 -0.3600
 3612SOL    HW122469   1.113   0.132   6.866  0.6314 -0.5657 -1.8578
 3612SOL    HW222470   1.169   0.022   6.938  2.0997  0.1959  3.5461
 3613SOL     OW22471   3.235   4.562  11.432 -0.2248  0.5899  0.6720
 3613SOL    HW122472   3.278   4.640  11.468 -2.4305  2.4422 -0.7242
 3613SOL    HW222473   3.310   4.508  11.406  1.3436  2.4677  1.2583
 3614SOL     OW22474   4.543   3.318  11.038 -0.6846  0.3178 -0.2354
 3614SOL    HW122475   4.458   3.353  11.065 -0.6924 -1.9758  2.6237
 3614SOL    HW222476   4.543   3.226  11.064  0.6037 -0.8312 -4.3625
 3615SOL     OW22477   3.852   1.111   0.772  0.1689 -0.3624  0.8230
 3615SOL    HW122478   3.826   1.163   0.848  0.0787  2.6717 -1.3245
 3615SOL    HW222479   3.887   1.167   0.703  1.5860 -0.2612  1.6317
 3616SOL     OW22480   4.643   0.784   1.974  0.0760  0.2729  0.0111
 3616SOL    HW122481   4.695   0.838   2.034 -0.4914 -1.2370  1.8507
 3616SOL    HW222482   4.708   0.713   1.975 -0.8362 -0.5872 -1.9272
 3617SOL     OW22483   0.220   2.628   4.129 -0.1344  0.3388  0.6288
 3617SOL    HW122484   0.228   2.594   4.040  1.6239 -1.3362  1.4295
 3617SOL    HW222485   0.146   2.582   4.168  1.4181 -0.1388  2.9904
 3618SOL     OW22486   1.624   1.360   7.453  0.4550  0.1040 -0.2759
 3618SOL    HW122487   1.715   1.390   7.464  0.5416 -0.2986  0.0923
 3618SOL    HW222488   1.629   1.265   7.455  2.9252  0.2303 -0.0732
 3619SOL     OW22489   1.843   4.154   9.331 -0.2024  0.3536 -0.2242
 3619SOL    HW122490   1.833   4.203   9.249  0.4050 -0.1760 -0.6140
 3619SOL    HW222491   1.934   4.127   9.329 -0.5712 -1.0962  2.8399
 3620SOL     OW22492   1.596   4.098   8.282 -0.3854  0.0184  0.0447
 3620SOL    HW122493   1.598   4.182   8.328 -0.9455 -0.1622  0.3858
 3620SOL    HW222494   1.687   4.097   8.250 -0.5569 -1.2657 -0.3760
 3621SOL     OW22495   3.592   4.416   6.832 -0.0752  0.1880 -0.2748
 3621SOL    HW122496   3.576   4.391   6.741  1.7398 -0.8975 -0.2750
 3621SOL    HW222497   3.681   4.448   6.823 -0.4536  0.9856 -1.1958
 3622SOL     OW22498   1.627   0.825   5.792 -0.0948  0.0473  0.6838
 3622SOL    HW122499   1.607   0.772   5.868  2.3102 -1.1293  0.4864
 3622SOL    HW222500   1.702   0.881   5.814 -0.6505  0.5384  1.3175
 3623SOL     OW22501   0.983   4.304   3.129  0.4407 -0.0444 -0.3130
 3623SOL    HW122502   0.995   4.214   3.098 -0.4488 -0.2920  0.0623
 3623SOL    HW222503   1.025   4.303   3.215 -0.5982  0.2557  0.1952
 3624SOL     OW22504   3.701   3.027   6.304  0.0430  0.0648  0.0908
 3624SOL    HW122505   3.734   2.941   6.332  1.6233 -0.1418 -2.3890
 3624SOL    HW222506   3.786   3.068   6.288  0.4134 -0.2961  1.0961
 3625SOL     OW22507   1.821   3.668   7.252 -0.0193 -0.8082  0.1797
 3625SOL    HW122508   1.739   3.712   7.277  0.6537  0.5300  0.0113
 3625SOL    HW222509   1.883   3.729   7.293 -0.0335 -0.8444  0.2565
 3626SOL     OW22510   0.288   4.271   2.505  0.2046  0.6079 -0.2187
 3626SOL    HW122511   0.353   4.304   2.567  0.9332 -0.5568 -0.3539
 3626SOL    HW222512   0.334   4.198   2.462  0.4739 -0.1242  1.2962
 3627SOL     OW22513   1.241   0.571   2.653 -0.5440 -0.3704  0.6528
 3627SOL    HW122514   1.288   0.630   2.713 -1.8204  1.0049  0.2826
 3627SOL    HW222515   1.225   0.632   2.582  1.9672 -1.3023 -0.6932
 3628SOL     OW22516   1.473   4.703   4.540 -0.2786  0.0969 -0.2148
 3628SOL    HW122517   1.519   4.619   4.545  1.6380  1.1262 -0.7656
 3628SOL    HW222518   1.516   0.014   4.613 -3.8201  1.9083  0.7075
 3629SOL     OW22519   0.535   1.724   5.068  0.7678  0.2350  0.4787
 3629SOL    HW122520   0.568   1.803   5.027  1.1521 -0.3888 -0.4055
 3629SOL    HW222521   0.515   1.767   5.151  1.3544  1.6971 -0.1368
 3630SOL     OW22522   0.090   1.001  10.397 -0.1799  0.0428 -0.0682
 3630SOL    HW122523   0.108   0.953  10.316 -2.9923 -1.7261  0.3340
 3630SOL    HW222524   0.175   0.990  10.438 -0.1371 -1.8217 -0.6502
 3631SOL     OW22525   2.481   3.394   3.263 -0.4628  0.6204 -0.4479
 3631SOL    HW122526   2.541   3.344   3.319 -0.4814  0.5208 -0.5176
 3631SOL    HW222527   2.401   3.342   3.254 -0.3021  0.8059 -2.8759
 3632SOL     OW22528   2.919   3.870   4.323 -0.1757  0.2351  0.5201
 3632SOL    HW122529   2.837   3.829   4.352 -0.6007 -0.7671 -2.0625
 3632SOL    HW222530   2.932   3.936   4.391  0.8613  0.8660 -0.2869
 3633SOL     OW22531   1.321   0.936   9.641  0.5298 -0.1712 -0.4609
 3633SOL    HW122532   1.358   0.923   9.553  0.3388  0.9624 -0.7091
 3633SOL    HW222533   1.266   1.010   9.614 -0.2813  0.4190  2.8923
 3634SOL     OW22534   2.272   0.731   3.007  0.2101 -0.1697  0.1291
 3634SOL    HW122535   2.214   0.659   2.985  0.1891 -0.0576 -0.1936
 3634SOL    HW222536   2.355   0.699   2.970 -0.2042 -1.1235  0.0397
 3635SOL     OW22537   4.446   1.408   7.956 -0.0598  0.6869 -0.2580
 3635SOL    HW122538   4.422   1.461   8.032  2.5836  1.3364  0.1291
 3635SOL    HW222539   4.506   1.343   7.995 -0.2069 -0.8871 -2.6463
 3636SOL     OW22540   1.761   2.733   6.831  0.6208 -0.4829 -0.3887
 3636SOL    HW122541   1.765   2.812   6.886  0.0879 -0.4577 -0.3831
 3636SOL    HW222542   1.781   2.773   6.746 -0.7509  2.0594  0.4597
 3637SOL     OW22543   4.641   1.475  15.762 -0.5290 -0.1449  0.1417
 3637SOL    HW122544   4.589   1.396  15.747  1.4495 -1.3836 -0.3242
 3637SOL    HW222545   4.719   1.454  15.710 -2.3692 -0.2999 -2.5463
 3638SOL     OW22546   1.114   1.108   8.557 -0.1832  0.3089 -0.1307
 3638SOL    HW122547   1.104   1.198   8.527  0.1746 -0.4426 -2.5074
 3638SOL    HW222548   1.169   1.065   8.492  2.8940  0.7400  2.1953
 3639SOL     OW22549   1.686   2.955   2.821 -0.4938  0.2649  0.1249
 3639SOL    HW122550   1.762   3.005   2.791 -0.5819 -0.2737 -1.0336
 3639SOL    HW222551   1.659   2.938   2.730 -0.4265  1.5458 -0.1445
 3640SOL     OW22552   0.115   1.483   9.260  0.2729 -0.1441  0.6809
 3640SOL    HW122553   0.098   1.514   9.349  0.6916  0.0503  0.6939
 3640SOL    HW222554   0.196   1.431   9.258 -0.9930 -2.2081  2.8065
 3641SOL     OW22555   3.546   1.469   4.664  0.1462 -0.4691 -0.0675
 3641SOL    HW122556   3.583   1.549   4.702 -0.4277  1.3729 -3.3987
 3641SOL    HW222557   3.486   1.448   4.736 -0.2657 -0.5911 -0.4421
 3642SOL     OW22558   3.782   4.544   1.586 -0.2475  0.1077  0.2239
 3642SOL    HW122559   3.825   4.470   1.543 -2.6813 -0.9028 -0.4471
 3642SOL    HW222560   3.809   4.523   1.676  1.2740 -0.4094 -0.3551
 3643SOL     OW22561   1.203   1.083  13.716  0.7553  0.0368 -0.5656
 3643SOL    HW122562   1.216   1.157  13.657  0.9686 -0.7533 -1.5202
 3643SOL    HW222563   1.173   1.122  13.798  1.2892 -0.6853 -0.0297
 3644SOL     OW22564   4.213   0.779  12.378 -0.4637 -0.0653  0.3035
 3644SOL    HW122565   4.141   0.778  12.441 -0.5376 -1.5763  0.1822
 3644SOL    HW222566   4.258   0.704  12.416 -0.0570 -0.4184 -0.8882
 3645SOL     OW22567   1.297   3.173  16.615  0.3114 -0.4664  0.2844
 3645SOL    HW122568   1.292   3.221  16.532  1.1046 -1.3525 -0.2809
 3645SOL    HW222569   1.352   3.100  16.584 -1.7240 -1.2576 -1.4916
 3646SOL     OW22570   4.195   0.879   7.421 -0.1534 -0.1686 -0.5916
 3646SOL    HW122571   4.139   0.928   7.482  0.6320  1.8925 -1.5347
 3646SOL    HW222572   4.207   0.795   7.465 -0.1052 -0.3360 -0.9267
 3647SOL     OW22573   0.129   1.558  12.657  0.0861  0.1871 -0.0161
 3647SOL    HW122574   0.170   1.475  12.633  0.0929  0.4642 -0.9552
 3647SOL    HW222575   0.123   1.597  12.570  1.7293  0.8234  0.1648
 3648SOL     OW22576   3.234   2.264   3.845 -0.1356  0.6075  0.2429
 3648SOL    HW122577   3.196   2.200   3.906  0.6131  0.9137  1.0252
 3648SOL    HW222578   3.231   2.217   3.761  0.3153 -0.0165  0.5720
 3649SOL     OW22579   0.147   2.039   5.770 -0.1010 -0.3046  0.0468
 3649SOL    HW122580   0.152   2.063   5.678  0.4785  0.4964  0.2859
 3649SOL    HW222581   0.163   2.115   5.826  0.1319  0.0242 -0.4655
 3650SOL     OW22582   1.791   0.385   3.927 -0.1402  0.3687 -0.5766
 3650SOL    HW122583   1.854   0.431   3.983 -2.4809  3.7725 -0.7450
 3650SOL    HW222584   1.737   0.460   3.902 -2.0094 -0.7317  0.1830
 3651SOL     OW22585   2.531   1.643   6.693 -0.3066 -0.0789 -0.3051
 3651SOL    HW122586   2.465   1.673   6.631 -1.3305 -1.0976  0.3055
 3651SOL    HW222587   2.474   1.651   6.769  0.1439 -1.6378  0.1949
 3652SOL     OW22588   4.726   1.162  15.900 -0.0703 -1.1392 -0.2518
 3652SOL    HW122589   0.048   1.194  15.830  0.0303 -2.0584 -0.5803
 3652SOL    HW222590   0.031   1.077  15.915  2.0737  0.0589  0.9100
 3653SOL     OW22591   1.015   1.077  17.518  0.2929  1.0525  0.0509
 3653SOL    HW122592   0.964   1.025  17.456  1.2569  1.1092 -0.7868
 3653SOL    HW222593   1.090   1.019  17.533 -0.6540 -0.5508 -1.3140
 3654SOL     OW22594   1.099   2.050   5.101 -0.8097 -0.2659 -0.0903
 3654SOL    HW122595   1.037   2.112   5.139  2.2781  1.4469  2.1864
 3654SOL    HW222596   1.042   1.989   5.055  0.2032 -1.4020  0.1637
 3655SOL     OW22597   4.164   0.686   7.193  0.5282  0.0797 -0.0486
 3655SOL    HW122598   4.174   0.726   7.280  0.8517  1.1851 -0.5839
 3655SOL    HW222599   4.146   0.754   7.128 -1.0153 -3.0737 -2.9003
 3656SOL     OW22600   1.607   4.707  12.215  0.2920 -0.3470 -0.3296
 3656SOL    HW122601   1.608   4.624  12.166  1.3081 -1.4326  1.5112
 3656SOL    HW222602   1.685   4.680  12.265 -0.3564  0.0340  0.8902
 3657SOL     OW22603   0.053   2.130   8.232 -0.1439  0.5360  0.4107
 3657SOL    HW122604   0.054   2.153   8.139 -1.6367 -0.1198  0.2312
 3657SOL    HW222605   4.716   2.180   8.269 -0.9608 -0.0247 -0.4213
 3658SOL     OW22606   3.389   4.658   7.771  0.1658 -0.5060  0.4094
 3658SOL    HW122607   3.299   4.636   7.794 -0.6616  1.2768 -1.1040
 3658SOL    HW222608   3.427   4.572   7.751  2.3501  0.9140 -1.4961
 3659SOL     OW22609   0.718   1.974   7.865 -0.2113 -0.0130 -0.4707
 3659SOL    HW122610   0.783   1.940   7.803 -0.2375 -2.0219  0.6066
 3659SOL    HW222611   0.752   1.942   7.949  0.3007  0.3193 -0.5495
 3660SOL     OW22612   1.794   3.542  17.392 -0.5094 -0.0363  0.4430
 3660SOL    HW122613   1.868   3.573  17.340 -1.2429 -1.1456 -1.2928
 3660SOL    HW222614   1.832   3.468  17.440 -2.3568 -1.3539 -0.1024
 3661SOL     OW22615   4.478   3.034  16.640  0.3861 -0.6075  0.3585
 3661SOL    HW122616   4.497   2.951  16.595  2.2087  0.1888 -0.3351
 3661SOL    HW222617   4.544   3.021  16.707  0.9791  1.6461  0.2101
 3662SOL     OW22618   0.050   3.242   3.940  0.3418 -0.4596  0.2184
 3662SOL    HW122619   4.703   3.218   3.983  0.8142  2.1449  2.5626
 3662SOL    HW222620   0.026   3.328   3.905  1.2106  0.1715  1.1706
 3663SOL     OW22621   2.477   0.734   2.179  0.0514  0.3382  0.1428
 3663SOL    HW122622   2.558   0.779   2.153 -0.7290  1.5159 -0.2482
 3663SOL    HW222623   2.477   0.660   2.118  1.6141  0.7717 -0.3906
 3664SOL     OW22624   4.723   0.281   1.251  0.3375 -0.1006  0.1776
 3664SOL    HW122625   0.024   0.251   1.334 -0.9789  0.3641  0.9236
 3664SOL    HW222626   4.651   0.339   1.276 -1.0157 -1.7357  0.0253
 3665SOL     OW22627   1.387   1.701   4.418  0.1628  0.3550  0.5613
 3665SOL    HW122628   1.390   1.608   4.439  1.8209  0.8383  2.4481
 3665SOL    HW222629   1.313   1.700   4.357  0.8217 -1.4519 -0.2195
 3666SOL     OW22630   3.846   1.065  17.170 -0.4033  0.4567  0.9769
 3666SOL    HW122631   3.916   1.108  17.120  0.0287  0.7304  1.8229
 3666SOL    HW222632   3.890   1.058  17.254 -0.6850 -1.2454  0.9745
 3667SOL     OW22633   0.202   0.320   4.823  0.1014 -0.0454 -0.4596
 3667SOL    HW122634   0.217   0.226   4.839 -3.1464 -0.2223  1.5972
 3667SOL    HW222635   0.283   0.353   4.785  1.4383 -0.4107  2.0943
 3668SOL     OW22636   1.903   2.138   6.989  0.3175 -0.1022 -0.6262
 3668SOL    HW122637   1.932   2.121   7.079 -0.7484 -2.6523 -0.7585
 3668SOL    HW222638   1.813   2.164   7.005  0.2235 -0.6241 -0.3163
 3669SOL     OW22639   2.309   0.138   7.879  0.0832  0.0699 -0.0833
 3669SOL    HW122640   2.249   0.209   7.905  1.2236  1.3202 -0.8862
 3669SOL    HW222641   2.291   0.072   7.946  1.4001 -0.7340 -0.5341
 3670SOL     OW22642   3.560   4.613   3.609  0.4310  0.3745  0.2045
 3670SOL    HW122643   3.492   4.649   3.666 -1.5991 -2.2408 -0.5879
 3670SOL    HW222644   3.633   4.675   3.617  0.7011  0.2354 -1.1270
 3671SOL     OW22645   3.664   0.378   3.015 -0.0206 -0.4115  0.0184
 3671SOL    HW122646   3.742   0.386   3.071 -0.2079  1.4000  0.0142
 3671SOL    HW222647   3.677   0.296   2.968  2.0510  0.2641 -0.6178
 3672SOL     OW22648   4.643   2.212   4.379  0.8422 -0.3039 -0.5634
 3672SOL    HW122649   4.641   2.251   4.466 -0.5990  3.2506 -2.2144
 3672SOL    HW222650   4.567   2.258   4.346  0.7021  0.0165  0.2153
 3673SOL     OW22651   3.549   0.896  14.104  0.0407 -0.2606 -0.3449
 3673SOL    HW122652   3.507   0.969  14.057 -1.0938 -0.2542  0.6576
 3673SOL    HW222653   3.523   0.814  14.063 -1.7435 -0.7179  1.6918
 3674SOL     OW22654   0.116   4.054   7.537 -0.0958 -0.0954 -0.1178
 3674SOL    HW122655   0.195   4.100   7.565 -0.4966  1.9148 -2.2869
 3674SOL    HW222656   0.056   4.118   7.499  0.0445 -0.7908 -1.4965
 3675SOL     OW22657   2.783   1.903   7.415 -0.0112 -0.2449 -0.3450
 3675SOL    HW122658   2.701   1.937   7.378  1.0019  3.4289  0.7995
 3675SOL    HW222659   2.766   1.809   7.406 -0.5330 -0.3822  2.0291
 3676SOL     OW22660   4.321   1.861   4.668 -0.1043 -0.1001 -0.2002
 3676SOL    HW122661   4.392   1.800   4.685  0.9694  1.4250  0.7447
 3676SOL    HW222662   4.243   1.821   4.707  1.0652  1.0611  3.3227
 3677SOL     OW22663   0.205   4.287   6.905 -0.4384  0.1988 -0.1078
 3677SOL    HW122664   0.286   4.241   6.882 -0.7407 -0.1907 -0.3796
 3677SOL    HW222665   0.245   4.347   6.969 -0.0995 -0.6303  0.4618
 3678SOL     OW22666   1.201   2.314   9.738 -0.8750 -0.2893 -0.5213
 3678SOL    HW122667   1.209   2.236   9.793 -3.4244 -1.6642 -2.1346
 3678SOL    HW222668   1.289   2.351   9.745 -1.5949  1.1868  1.0515
 3679SOL     OW22669   3.888   3.090   6.861 -0.0931  0.2031 -0.2637
 3679SOL    HW122670   3.898   3.058   6.951 -0.3215  0.3358 -0.1887
 3679SOL    HW222671   3.867   3.182   6.881  1.0344  0.2454  0.7437
 3680SOL     OW22672   2.439   0.385   2.894  0.2966 -0.3967 -0.4574
 3680SOL    HW122673   2.507   0.320   2.910  0.2200 -0.8363 -1.9296
 3680SOL    HW222674   2.369   0.337   2.850  0.7710  0.6132 -2.3110
 3681SOL     OW22675   1.257   4.078  16.171  0.2300 -0.3274 -0.3764
 3681SOL    HW122676   1.184   4.037  16.124 -1.4204  1.1263  0.8974
 3681SOL    HW222677   1.325   4.011  16.161  0.5187 -0.2345  0.9823
 3682SOL     OW22678   3.153   3.535  11.236  0.5421  0.7059  0.3532
 3682SOL    HW122679   3.191   3.575  11.158 -1.1817  1.3423 -0.1556
 3682SOL    HW222680   3.172   3.605  11.299  0.9782  0.3335  0.6327
 3683SOL     OW22681   2.517   0.623   2.884 -0.3442 -0.1145  0.2296
 3683SOL    HW122682   2.612   0.612   2.883 -0.3415 -0.2014  1.4795
 3683SOL    HW222683   2.498   0.531   2.864  0.8226  0.0839 -1.8813
 3684SOL     OW22684   4.248   0.455   9.420 -0.7591  0.2559 -0.0552
 3684SOL    HW122685   4.324   0.415   9.379 -1.3924 -1.0969  0.0752
 3684SOL    HW222686   4.183   0.388   9.399 -2.7585  2.6745 -1.4783
 3685SOL     OW22687   2.755   2.079   7.149 -0.8221 -0.5983  0.2457
 3685SOL    HW122688   2.681   2.058   7.206 -1.8716  0.1596 -0.8140
 3685SOL    HW222689   2.713   2.069   7.063 -0.5714 -0.9686  0.1681
 3686SOL     OW22690   2.821   4.601   9.246  0.0272 -0.0849 -0.2493
 3686SOL    HW122691   2.847   4.515   9.279  1.6343 -0.0710 -1.4817
 3686SOL    HW222692   2.726   4.592   9.253  0.0366 -0.7952 -0.9924
 3687SOL     OW22693   1.132   3.920   3.390  0.1770 -0.2812 -0.2911
 3687SOL    HW122694   1.077   3.921   3.468  1.4039 -0.5681  0.5754
 3687SOL    HW222695   1.134   3.826   3.374 -0.1916 -0.8432  3.1410
 3688SOL     OW22696   0.374   1.591   9.974 -0.6799  0.2659  0.0445
 3688SOL    HW122697   0.396   1.499   9.961 -2.2562  0.3709 -3.5441
 3688SOL    HW222698   0.278   1.583   9.975 -0.8032  1.7588  0.0934
 3689SOL     OW22699   3.835   4.710   2.042 -0.1773 -0.1781  0.1737
 3689SOL    HW122700   3.875   4.693   2.127 -0.7517  0.3137  0.5495
 3689SOL    HW222701   3.786   4.628   2.034 -0.5502  0.0568 -0.0230
 3690SOL     OW22702   2.196   4.224   9.682  0.4081 -0.1828  0.1163
 3690SOL    HW122703   2.243   4.289   9.734  1.7249  0.0703 -1.4119
 3690SOL    HW222704   2.118   4.218   9.738  1.4581  1.9150  1.8077
 3691SOL     OW22705   4.510   2.115  10.373 -0.8690 -0.0955 -0.3736
 3691SOL    HW122706   4.438   2.113  10.436 -0.2766  1.5490  0.3806
 3691SOL    HW222707   4.477   2.148  10.289  1.0551  2.5401 -0.0912
 3692SOL     OW22708   3.778   1.509   5.153 -0.1573 -0.4988  0.4405
 3692SOL    HW122709   3.778   1.420   5.117 -1.5502 -0.8778  1.4021
 3692SOL    HW222710   3.714   1.545   5.092 -0.0888 -0.6581  0.2736
 3693SOL     OW22711   1.430   2.275  10.584 -0.0186  0.0580  0.3851
 3693SOL    HW122712   1.502   2.245  10.527  2.1981  3.5487  1.3464
 3693SOL    HW222713   1.435   2.367  10.556 -0.0683  0.1601  0.7162
 3694SOL     OW22714   2.613   0.964   2.084  0.3198 -0.2021  0.0621
 3694SOL    HW122715   2.564   0.940   2.005  0.4210 -4.0051  1.1387
 3694SOL    HW222716   2.702   0.979   2.053 -0.4724 -1.0983 -2.6553
 3695SOL     OW22717   0.797   2.459  15.182 -0.4080  0.1360  0.3726
 3695SOL    HW122718   0.778   2.525  15.248  1.4920  1.0802 -0.0017
 3695SOL    HW222719   0.884   2.487  15.152 -1.8411  2.2786 -1.7871
 3696SOL     OW22720   1.553   3.789   1.465 -0.0498 -0.5849 -0.5251
 3696SOL    HW122721   1.607   3.814   1.390 -0.4629 -0.4275 -0.7637
 3696SOL    HW222722   1.593   3.835   1.539 -0.0618  0.1380 -0.9716
 3697SOL     OW22723   0.795   1.291   2.593 -0.3653  0.1547  0.3600
 3697SOL    HW122724   0.776   1.362   2.654  0.4162 -0.4597  1.3101
 3697SOL    HW222725   0.884   1.300   2.558 -1.2029  0.8437 -1.5982
 3698SOL     OW22726   1.536   3.207  12.181 -0.4012  0.1487 -0.2634
 3698SOL    HW122727   1.482   3.209  12.260 -0.2052  1.6217 -0.1739
 3698SOL    HW222728   1.485   3.264  12.124 -0.0325  1.1225  0.3899
 3699SOL     OW22729   4.030   1.681   1.899  0.4776 -0.1362  0.2295
 3699SOL    HW122730   3.974   1.672   1.976  0.2932  1.3951  0.2854
 3699SOL    HW222731   4.004   1.771   1.878 -0.7500 -0.5673 -0.0686
 3700SOL     OW22732   1.131   0.835   5.115 -0.2344  0.1637 -0.2122
 3700SOL    HW122733   1.094   0.749   5.098  2.5031 -0.7387 -1.5925
 3700SOL    HW222734   1.221   0.814   5.142 -0.2842  2.3971  1.7563
 3701SOL     OW22735   0.764   3.628   3.211 -0.6338 -0.2288 -0.5054
 3701SOL    HW122736   0.751   3.630   3.305 -1.7319  1.7376 -0.7184
 3701SOL    HW222737   0.782   3.712   3.169  0.5225 -0.7284 -1.0171
 3702SOL     OW22738   0.286   4.370   4.549 -0.0712 -0.0198  0.3298
 3702SOL    HW122739   0.374   4.409   4.549  0.5179 -1.3201 -0.5101
 3702SOL    HW222740   0.277   4.329   4.462 -1.0905  0.8143  0.0545
 3703SOL     OW22741   1.699   1.371  16.134  0.0107 -0.1521  0.3281
 3703SOL    HW122742   1.625   1.312  16.144 -0.0858 -0.2114 -0.6921
 3703SOL    HW222743   1.754   1.343  16.207  1.0131 -0.0511 -0.3701
 3704SOL     OW22744   1.870   2.820  16.114 -0.6581 -0.0204 -0.1073
 3704SOL    HW122745   1.946   2.779  16.071  0.4868  1.2283  0.7231
 3704SOL    HW222746   1.920   2.857  16.187  0.5141  0.5425 -1.1973
 3705SOL     OW22747   2.193   4.250  14.228  0.2963  0.0828  0.1201
 3705SOL    HW122748   2.236   4.305  14.294  2.1270  0.8928 -1.7383
 3705SOL    HW222749   2.191   4.168  14.277 -1.0585 -0.1595 -0.3562
 3706SOL     OW22750   2.521   0.119   6.345 -0.0418  0.2732  0.8376
 3706SOL    HW122751   2.599   0.070   6.372  0.1509 -0.7935 -1.6583
 3706SOL    HW222752   2.570   0.200   6.328 -0.2940  0.2203 -0.1191
 3707SOL     OW22753   0.104   2.883   2.819  0.6914 -0.0067  0.5513
 3707SOL    HW122754   0.069   2.819   2.757 -0.8196  0.4007  1.0002
 3707SOL    HW222755   0.136   2.824   2.887 -1.8569  2.0077  3.4713
 3708SOL     OW22756   0.988   1.639   4.585 -0.0387 -0.1025 -0.3021
 3708SOL    HW122757   0.971   1.732   4.571 -0.9076 -0.2752 -0.3946
 3708SOL    HW222758   0.940   1.613   4.506 -0.0921  0.1086 -0.3387
 3709SOL     OW22759   4.673   4.633  14.970 -0.4358  0.7223  0.4562
 3709SOL    HW122760   4.633   4.649  15.055 -1.7889  1.2294 -0.2838
 3709SOL    HW222761   4.590   4.624  14.923  0.1760  1.6287 -0.7815
 3710SOL     OW22762   0.655   0.425   5.159  0.1513  0.2097 -0.2285
 3710SOL    HW122763   0.667   0.330   5.159 -0.0641  0.1802 -0.5292
 3710SOL    HW222764   0.684   0.441   5.069  0.7327  2.7953  0.4190
 3711SOL     OW22765   3.513   3.726   2.845 -0.7164  0.3521 -0.4032
 3711SOL    HW122766   3.494   3.633   2.859  0.5904  0.2183  0.4195
 3711SOL    HW222767   3.527   3.754   2.936 -1.8198 -1.0983  0.2344
 3712SOL     OW22768   2.370   4.456   7.293  0.6121 -0.1070  0.8510
 3712SOL    HW122769   2.282   4.430   7.265  0.7189  0.4418 -0.0113
 3712SOL    HW222770   2.406   4.368   7.284  0.0112 -0.0695 -2.1108
 3713SOL     OW22771   0.336   1.005  13.730  0.0912  0.4707  0.8537
 3713SOL    HW122772   0.300   1.012  13.818  1.6292 -1.8588  1.6598
 3713SOL    HW222773   0.384   1.088  13.727  0.4050  0.2337 -1.3646
 3714SOL     OW22774   0.297   1.730   9.136  0.4867  0.0862  0.0738
 3714SOL    HW122775   0.238   1.731   9.211  0.0835 -0.0640 -0.2388
 3714SOL    HW222776   0.383   1.750   9.172  1.4171  0.7427 -2.4915
 3715SOL     OW22777   2.314   1.831   1.860 -0.5279  0.1446 -0.0999
 3715SOL    HW122778   2.220   1.830   1.876 -0.1855  3.3134  2.1493
 3715SOL    HW222779   2.343   1.773   1.931 -2.1011  1.4281  1.5720
 3716SOL     OW22780   1.700   1.759  11.348 -0.2645 -0.2205 -0.0650
 3716SOL    HW122781   1.635   1.787  11.413  1.5973 -1.2194  2.2312
 3716SOL    HW222782   1.651   1.761  11.266 -0.4581  2.0115  0.1097
 3717SOL     OW22783   0.069   1.939  14.905  0.3596 -0.5823  0.4274
 3717SOL    HW122784   0.117   2.014  14.869  1.8619 -1.4625  0.5769
 3717SOL    HW222785   4.720   1.984  14.910  1.6763  1.6142  2.6588
 3718SOL     OW22786   4.390   1.398   0.840  0.4417  0.6170  0.3059
 3718SOL    HW122787   4.336   1.337   0.890  0.0392  1.2374  0.6267
 3718SOL    HW222788   4.469   1.402   0.894  0.3574 -0.3197  0.4885
 3719SOL     OW22789   1.419   0.128   6.232 -0.1967  0.0494 -0.0677
 3719SOL    HW122790   1.392   0.216   6.258 -1.5333 -0.5048  0.3905
 3719SOL    HW222791   1.360   0.130   6.157 -1.5980  2.4720  1.0879
 3720SOL     OW22792   4.626   0.788   1.083 -0.2191  0.0532  0.2745
 3720SOL    HW122793   4.531   0.784   1.079 -0.2564  1.7086 -0.9243
 3720SOL    HW222794   4.625   0.828   1.170 -0.1423 -1.2416  0.8722
 3721SOL     OW22795   1.641   2.687   2.178  0.1296  0.2499 -0.7305
 3721SOL    HW122796   1.553   2.696   2.213  0.7227 -1.9338  1.3921
 3721SOL    HW222797   1.690   2.681   2.260  1.2052 -0.0346 -1.3814
 3722SOL     OW22798   4.148   0.485   5.466  0.2369 -0.2131 -0.3071
 3722SOL    HW122799   4.227   0.434   5.453  0.7792  0.6939 -0.5590
 3722SOL    HW222800   4.094   0.427   5.520 -0.7015  0.2036 -0.7902
 3723SOL     OW22801   1.927   2.414  13.827  0.0147 -0.0553  0.2994
 3723SOL    HW122802   1.985   2.449  13.895  0.2631  1.7957 -0.8625
 3723SOL    HW222803   1.848   2.466  13.838  0.0641 -0.1838  1.2971
 3724SOL     OW22804   0.930   2.533  12.819 -0.1645  0.7910 -0.2422
 3724SOL    HW122805   0.988   2.599  12.783 -0.0393  0.3181 -0.9150
 3724SOL    HW222806   0.857   2.538  12.756  0.2327 -0.6986 -0.8116
 3725SOL     OW22807   0.878   1.454   4.729 -0.4265 -0.1843  0.9496
 3725SOL    HW122808   0.907   1.535   4.687 -3.4643  0.4263  0.0349
 3725SOL    HW222809   0.836   1.493   4.806  0.1221 -0.6861  1.5111
 3726SOL     OW22810   1.892   1.420   7.423  0.5191  0.1655 -0.0372
 3726SOL    HW122811   1.943   1.428   7.342  0.4969  0.3354 -0.0356
 3726SOL    HW222812   1.929   1.340   7.461  1.5747  0.2189 -0.9608
 3727SOL     OW22813   1.481   1.198  15.869  0.9654  0.4202  0.2234
 3727SOL    HW122814   1.557   1.249  15.839  1.1894  1.1776  2.0651
 3727SOL    HW222815   1.411   1.262  15.881  1.4521  0.8508  0.7480
 3728SOL     OW22816   1.462   2.261  14.031 -0.4412  0.4595 -0.7130
 3728SOL    HW122817   1.423   2.340  14.069  0.3535  0.9689 -0.9601
 3728SOL    HW222818   1.428   2.274  13.943 -0.2244  0.4370 -0.8000
 3729SOL     OW22819   4.467   4.700   1.322 -0.3926 -0.2358  0.3095
 3729SOL    HW122820   4.397   4.645   1.287 -0.3540  1.6313 -2.7613
 3729SOL    HW222821   4.429   0.051   1.306  2.4555  0.7194 -1.3094
 3730SOL     OW22822   2.583   2.910  15.620  0.0657  0.3855 -0.5333
 3730SOL    HW122823   2.565   2.936  15.530  0.4449  2.6974  0.0713
 3730SOL    HW222824   2.535   2.827  15.625  0.6560 -0.0433 -1.7830
 3731SOL     OW22825   4.360   1.173  16.579 -0.0359 -0.1374 -0.3240
 3731SOL    HW122826   4.352   1.078  16.579 -0.3835 -0.1034 -0.8169
 3731SOL    HW222827   4.440   1.175  16.633  0.5273 -1.9390 -1.1004
 3732SOL     OW22828   2.219   4.606   9.385 -0.3762  0.1028  0.2102
 3732SOL    HW122829   2.228   4.511   9.379 -1.7707 -0.0392  0.5041
 3732SOL    HW222830   2.133   4.625   9.420 -0.3917  1.2095 -0.4163
 3733SOL     OW22831   0.384   3.769   5.134  0.1100 -0.3802 -0.2741
 3733SOL    HW122832   0.451   3.828   5.098  0.7991 -0.7935  0.3335
 3733SOL    HW222833   0.314   3.803   5.078  1.2900 -0.1531 -1.6217
 3734SOL     OW22834   1.809   1.440  14.775  0.4878 -0.7672 -0.0966
 3734SOL    HW122835   1.870   1.478  14.838 -0.1369  0.9448 -0.5362
 3734SOL    HW222836   1.744   1.403  14.835  0.0976  2.3483  1.4202
 3735SOL     OW22837   1.427   1.337  13.523 -0.0776 -0.2768  0.2917
 3735SOL    HW122838   1.338   1.349  13.555 -0.1096 -1.9167  0.7962
 3735SOL    HW222839   1.448   1.422  13.485  1.8380 -1.3112 -0.9693
 3736SOL     OW22840   4.247   3.762   5.222 -0.4214  0.0760 -0.1130
 3736SOL    HW122841   4.185   3.753   5.150 -1.1384 -2.3044  0.8381
 3736SOL    HW222842   4.203   3.802   5.297 -0.8757 -1.5240  0.4562
 3737SOL     OW22843   0.353   3.484  14.918  0.0867  0.1269  0.4331
 3737SOL    HW122844   0.298   3.527  14.984  0.0957  0.3856  0.2728
 3737SOL    HW222845   0.431   3.538  14.931  0.4550  0.0447 -1.5210
 3738SOL     OW22846   2.499   3.417   0.902  0.1542 -0.2891  0.3036
 3738SOL    HW122847   2.483   3.422   0.996 -2.0556 -2.0045  0.0393
 3738SOL    HW222848   2.466   3.333   0.869  1.8278 -1.0236  0.4999
 3739SOL     OW22849   4.660   4.215   8.655  0.4832  0.2799 -0.1183
 3739SOL    HW122850   4.735   4.190   8.602 -0.0740  0.1279 -0.8353
 3739SOL    HW222851   4.700   4.251   8.735 -1.3105  1.5816  0.2075
 3740SOL     OW22852   1.296   0.488   3.141 -0.7083 -0.0283 -0.1790
 3740SOL    HW122853   1.255   0.532   3.066  0.1004  0.2727 -0.4419
 3740SOL    HW222854   1.274   0.543   3.216 -1.5898 -0.7861  0.1118
 3741SOL     OW22855   2.828   3.879   7.386  0.3374 -0.2767  0.1617
 3741SOL    HW122856   2.879   3.834   7.453 -0.5651 -0.9120  0.4219
 3741SOL    HW222857   2.755   3.818   7.377  0.8208 -0.8870  0.4192
 3742SOL     OW22858   3.630   3.816   4.573 -0.2998  0.1894 -0.0540
 3742SOL    HW122859   3.623   3.788   4.664 -0.3760 -3.1119 -1.0730
 3742SOL    HW222860   3.548   3.862   4.553 -0.0733  0.3424 -0.6487
 3743SOL     OW22861   0.646   3.816   8.242 -0.0995 -0.6481  0.1963
 3743SOL    HW122862   0.628   3.890   8.184  0.4364  0.5954  1.6317
 3743SOL    HW222863   0.583   3.750   8.213  0.7731 -0.2980 -2.4781
 3744SOL     OW22864   0.759   0.337  17.316 -0.0394 -0.8738 -0.1549
 3744SOL    HW122865   0.841   0.310  17.357  0.4839 -1.3470 -1.4979
 3744SOL    HW222866   0.694   0.285  17.363 -0.7316 -0.4449 -0.6273
 3745SOL     OW22867   3.445   0.608   2.629  0.5553 -0.0603  0.4053
 3745SOL    HW122868   3.442   0.582   2.537  2.0123  0.4841  0.2053
 3745SOL    HW222869   3.376   0.674   2.636 -1.4279 -2.2948  2.0670
 3746SOL     OW22870   4.140   3.229  10.488 -0.1499 -0.2014  0.0107
 3746SOL    HW122871   4.121   3.168  10.559 -2.7116 -1.2289 -1.5666
 3746SOL    HW222872   4.056   3.223  10.442  0.1035  2.0984 -0.7628
 3747SOL     OW22873   1.838   0.135   0.930  0.3933 -0.2891 -0.2968
 3747SOL    HW122874   1.848   0.206   0.867  0.6741  0.5494  0.7050
 3747SOL    HW222875   1.880   0.173   1.007 -0.0210  3.1103 -1.7502
 3748SOL     OW22876   3.054   4.185   5.277  0.8790 -0.8851  0.6851
 3748SOL    HW122877   3.059   4.153   5.368 -2.1912  0.3129  1.2594
 3748SOL    HW222878   3.142   4.222   5.271 -0.1118  1.1192 -1.1081
 3749SOL     OW22879   0.040   2.625   1.159 -0.4614 -0.6418 -0.3129
 3749SOL    HW122880   0.013   2.658   1.244  0.3606 -3.2699  0.9722
 3749SOL    HW222881   4.705   2.670   1.111 -1.4563 -1.3772  0.4651
 3750SOL     OW22882   1.152   3.250   7.612 -0.2518 -0.0640 -0.0482
 3750SOL    HW122883   1.069   3.210   7.587  1.3905 -1.1404 -3.7502
 3750SOL    HW222884   1.148   3.237   7.707  1.8165 -0.5952 -0.0293
 3751SOL     OW22885   3.625   0.352   1.990  0.4248 -0.1197  0.7758
 3751SOL    HW122886   3.651   0.261   1.975  0.0102  0.3990 -3.0254
 3751SOL    HW222887   3.707   0.399   2.004 -0.3900  1.1829  1.1271
 3752SOL     OW22888   1.733   4.014   3.814 -0.5334  0.2004  0.2047
 3752SOL    HW122889   1.762   4.081   3.876  0.1046  0.1054  0.0073
 3752SOL    HW222890   1.727   4.073   3.739 -0.1831  3.4466  2.7294
 3753SOL     OW22891   0.449   3.036   2.447 -0.4201  0.0815 -0.5102
 3753SOL    HW122892   0.500   3.031   2.528 -0.6006  1.3096 -0.3227
 3753SOL    HW222893   0.479   3.113   2.399 -1.3719 -0.0022 -1.2376
 3754SOL     OW22894   2.706   0.115  12.310 -0.1595  0.1359  0.1944
 3754SOL    HW122895   2.635   0.106  12.247  2.2702  3.4411 -3.0282
 3754SOL    HW222896   2.708   0.021  12.327  1.2082  0.0222 -0.5852
 3755SOL     OW22897   4.722   2.820   7.450  0.2305  0.2356 -0.1766
 3755SOL    HW122898   0.060   2.838   7.391 -1.1047  0.5759 -1.7203
 3755SOL    HW222899   4.672   2.900   7.439  1.6895  1.1813  0.0092
 3756SOL     OW22900   1.209   1.090   3.720  0.3148  0.2982  0.1025
 3756SOL    HW122901   1.140   1.024   3.720 -0.8497  1.4976 -0.2772
 3756SOL    HW222902   1.145   1.154   3.752 -0.1448 -0.1942  0.1787
 3757SOL     OW22903   4.305   0.983  17.399 -0.2646  0.0453  0.4111
 3757SOL    HW122904   4.255   1.000  17.479 -4.1547 -2.8982 -1.3828
 3757SOL    HW222905   4.397   0.974  17.423 -0.9876 -1.9383  2.3388
 3758SOL     OW22906   0.610   3.847  16.387  0.0612  0.1848  0.1718
 3758SOL    HW122907   0.649   3.934  16.399  2.2607 -1.0841  2.0769
 3758SOL    HW222908   0.577   3.865  16.299  1.2220  1.5652  0.0205
 3759SOL     OW22909   3.426   3.502   4.708  0.1067  0.1899 -0.0166
 3759SOL    HW122910   3.490   3.507   4.779 -0.0271 -0.2590  0.1396
 3759SOL    HW222911   3.348   3.479   4.759 -1.3560  1.5604 -1.6463
 3760SOL     OW22912   2.851   2.531   5.475 -0.3622  0.1790 -0.2833
 3760SOL    HW122913   2.829   2.596   5.542 -0.5579  2.5128 -2.5962
 3760SOL    HW222914   2.852   2.586   5.397  0.8299 -1.0979 -1.1710
 3761SOL     OW22915   2.750   4.541   3.023 -0.7751  0.6253  0.0383
 3761SOL    HW122916   2.722   4.629   2.998 -0.0563  0.9635  0.4286
 3761SOL    HW222917   2.790   4.567   3.106 -0.3435  1.2684 -0.3733
 3762SOL     OW22918   3.364   2.634   6.011 -0.2492  0.4366  0.2763
 3762SOL    HW122919   3.311   2.620   5.933  0.0798 -2.0685  0.5230
 3762SOL    HW222920   3.403   2.548   6.025  0.0690  0.3496 -1.1197
 3763SOL     OW22921   3.426   4.565   1.979  0.1219 -0.3289  0.4264
 3763SOL    HW122922   3.355   4.603   1.927 -0.1582 -2.3575 -0.6742
 3763SOL    HW222923   3.493   4.632   1.967 -0.3008 -0.4880 -2.8573
 3764SOL     OW22924   0.674   0.681   7.434 -0.0767 -0.4819 -0.3819
 3764SOL    HW122925   0.716   0.595   7.442 -0.6424 -0.7383 -0.1918
 3764SOL    HW222926   0.732   0.749   7.400 -0.0086 -0.5825 -0.4642
 3765SOL     OW22927   3.414   3.310   5.162 -0.1530 -0.0750 -0.4173
 3765SOL    HW122928   3.412   3.238   5.099 -1.3532 -0.6343  0.2520
 3765SOL    HW222929   3.431   3.388   5.109 -1.2865 -0.4182 -1.3034
 3766SOL     OW22930   1.579   3.903   3.580 -0.3972 -0.0987  0.0162
 3766SOL    HW122931   1.559   3.917   3.673  1.0735 -1.0951  0.4889
 3766SOL    HW222932   1.535   3.982   3.549  0.7344  0.4140 -0.3099
 3767SOL     OW22933   1.590   0.141   3.870  0.3879  0.2167  0.6000
 3767SOL    HW122934   1.547   0.134   3.785  0.0764 -0.5090  0.8110
 3767SOL    HW222935   1.639   0.220   3.848 -0.4292 -0.3384 -3.1668
 3768SOL     OW22936   3.773   0.218  17.472 -0.1467 -0.0277  0.4515
 3768SOL    HW122937   3.763   0.200  17.565 -0.8177 -1.9690  0.0128
 3768SOL    HW222938   3.692   0.263  17.447  0.0518  0.1048  0.0342
 3769SOL     OW22939   4.384   4.157   1.550 -0.5074  0.8722 -0.4269
 3769SOL    HW122940   4.466   4.109   1.563 -2.7675 -2.6029  1.1447
 3769SOL    HW222941   4.375   4.207   1.631 -1.3087  0.6907 -0.4007
 3770SOL     OW22942   2.991   1.284   6.922 -0.3594 -0.2743  0.5016
 3770SOL    HW122943   3.039   1.291   6.840 -2.4365  3.0244 -0.4515
 3770SOL    HW222944   3.066   1.290   6.982 -1.3736  3.3972  1.4229
 3771SOL     OW22945   3.745   2.195  11.309  0.2948 -0.0176 -0.8349
 3771SOL    HW122946   3.718   2.244  11.231  0.6889  0.0070 -0.9572
 3771SOL    HW222947   3.838   2.210  11.291  0.1714  0.8087 -0.7883
 3772SOL     OW22948   0.611   2.238   7.968  0.3094  0.0393  0.0114
 3772SOL    HW122949   0.658   2.157   7.952  0.0077  0.1956 -1.6723
 3772SOL    HW222950   0.656   2.281   8.041  2.1289  2.7765 -2.7211
 3773SOL     OW22951   3.265   0.198   2.858 -0.0077  0.1780 -0.2427
 3773SOL    HW122952   3.232   0.238   2.777  0.5479 -0.7629 -0.9234
 3773SOL    HW222953   3.316   0.274   2.884 -1.2320  1.6551 -2.0919
 3774SOL     OW22954   0.037   4.396   5.800  0.1098 -0.1907  0.3640
 3774SOL    HW122955   4.727   4.442   5.729  1.2414  0.2772 -0.0478
 3774SOL    HW222956   0.047   4.463   5.867  0.6575  0.9005 -0.8340
 3775SOL     OW22957   1.245   0.713  16.034  0.1319 -0.1875  0.1499
 3775SOL    HW122958   1.313   0.780  16.047  0.4497 -0.5623  0.4113
 3775SOL    HW222959   1.164   0.764  16.043  1.6097  2.3472 -0.8428
 3776SOL     OW22960   2.077   4.480   1.502 -0.1065 -0.8327  0.1110
 3776SOL    HW122961   2.042   4.449   1.586  1.2225  2.5850  1.9093
 3776SOL    HW222962   2.171   4.467   1.519  0.3961  0.2521 -1.9038
 3777SOL     OW22963   2.722   1.520   7.637  0.5911  0.1755  0.4961
 3777SOL    HW122964   2.806   1.476   7.652  1.2711  0.8432 -1.3693
 3777SOL    HW222965   2.716   1.575   7.715 -0.0888  1.4047 -0.4316
 3778SOL     OW22966   2.905   2.532   5.096 -0.0727  0.1840 -0.0218
 3778SOL    HW122967   2.866   2.618   5.081 -2.1299 -0.7564 -0.0495
 3778SOL    HW222968   2.868   2.484   5.022  1.6508  2.2938 -2.2596
 3779SOL     OW22969   3.748   0.730   5.172 -0.0401 -0.3558  0.0638
 3779SOL    HW122970   3.680   0.683   5.219  0.1085  2.7295  3.3326
 3779SOL    HW222971   3.799   0.760   5.247  1.5744  0.5950 -1.4039
 3780SOL     OW22972   3.159   1.549   5.485  0.3679  0.5808  0.1387
 3780SOL    HW122973   3.211   1.505   5.553  2.8524  0.0828 -2.0591
 3780SOL    HW222974   3.171   1.642   5.502  2.8053  0.6760 -2.1643
 3781SOL     OW22975   3.460   4.092   6.468  0.8536  0.0105  0.5331
 3781SOL    HW122976   3.428   4.005   6.489 -0.6544  0.4749  0.2056
 3781SOL    HW222977   3.492   4.070   6.380 -0.1538  3.8813 -0.8093
 3782SOL     OW22978   3.547   0.860   7.403 -0.3501  0.1701 -0.2081
 3782SOL    HW122979   3.548   0.953   7.379  1.7849  0.6263  1.5852
 3782SOL    HW222980   3.631   0.856   7.449  0.0601 -5.7669 -1.4943
 3783SOL     OW22981   4.623   0.361   3.368  0.1803  0.2252 -0.0275
 3783SOL    HW122982   4.675   0.362   3.448  1.2763  0.8839 -0.7448
 3783SOL    HW222983   4.669   0.291   3.320 -0.6023 -0.1480 -0.2333
 3784SOL     OW22984   0.005   1.140   3.050 -0.2424 -0.0867 -0.2836
 3784SOL    HW122985   0.019   1.068   3.113  1.8942  0.8364  0.2866
 3784SOL    HW222986   4.693   1.195   3.112  0.0360  0.8582 -0.9235
 3785SOL     OW22987   1.373   3.903   4.798  0.1406  0.1685 -0.7446
 3785SOL    HW122988   1.281   3.876   4.799 -0.4108  2.0568 -1.2967
 3785SOL    HW222989   1.391   3.936   4.886  1.1304 -0.6864 -0.6373
 3786SOL     OW22990   2.538   2.510   0.990  0.2815 -0.2338 -0.3293
 3786SOL    HW122991   2.452   2.540   0.962 -1.0868 -1.5592  2.3945
 3786SOL    HW222992   2.558   2.553   1.073 -0.6055  1.2133 -0.8597
 3787SOL     OW22993   0.599   3.064   4.058 -0.2905  0.6356 -0.1445
 3787SOL    HW122994   0.622   3.155   4.039 -0.0107  0.6847  0.4157
 3787SOL    HW222995   0.639   3.040   4.142  0.6187  3.2197  0.1630
 3788SOL     OW22996   3.991   2.421  14.261  0.2663 -0.4319 -0.7327
 3788SOL    HW122997   4.027   2.487  14.321 -0.5322  0.6138 -1.4152
 3788SOL    HW222998   3.901   2.416  14.291  0.5477  0.4583  0.2432
 3789SOL     OW22999   1.687   3.193  17.732 -0.5028  0.2466  0.0667
 3789SOL    HW123000   1.665   3.284   0.012 -1.2194 -0.1840  1.2916
 3789SOL    HW223001   1.701   3.202  17.638 -1.8465 -3.3517 -0.4950
 3790SOL     OW23002   0.973   3.563  13.081 -0.4443  0.7696  0.2931
 3790SOL    HW123003   0.972   3.490  13.020 -0.9040 -0.5397  1.8792
 3790SOL    HW223004   1.013   3.629  13.024 -0.7594 -0.7813 -1.7503
 3791SOL     OW23005   4.029   0.749   8.178 -0.3301  0.0756  0.3093
 3791SOL    HW123006   4.033   0.674   8.238  0.7980  0.0800  0.2507
 3791SOL    HW223007   4.002   0.711   8.095  1.9198 -1.7301  0.4129
 3792SOL     OW23008   3.423   2.956   8.559 -0.5018  0.3318 -0.1642
 3792SOL    HW123009   3.356   2.974   8.493  1.7028 -0.5200 -2.6197
 3792SOL    HW223010   3.380   2.926   8.638 -0.3357 -1.1159 -0.6279
 3793SOL     OW23011   1.010   2.556  17.411  0.1916 -0.0349  0.0217
 3793SOL    HW123012   0.916   2.551  17.425  0.4284 -3.1403  0.7045
 3793SOL    HW223013   1.044   2.573  17.499 -0.5407  0.9705  0.1038
 3794SOL     OW23014   3.068   2.551   7.965  1.2407 -0.0888  0.2959
 3794SOL    HW123015   3.034   2.589   8.045  2.3728 -0.5999  1.0274
 3794SOL    HW223016   3.091   2.634   7.922  0.2694  0.3394  0.6151
 3795SOL     OW23017   2.596   0.341   9.130 -0.4864  0.5379  0.3321
 3795SOL    HW123018   2.623   0.254   9.160 -2.1425 -0.1770 -0.2496
 3795SOL    HW223019   2.576   0.324   9.038  1.2669 -0.9937  0.2364
 3796SOL     OW23020   1.674   2.576   4.077  0.0556  0.2278 -0.1817
 3796SOL    HW123021   1.607   2.550   4.141 -0.9623  0.7483 -1.0569
 3796SOL    HW223022   1.749   2.533   4.119 -0.7300 -0.3772  0.6081
 3797SOL     OW23023   3.472   1.894  13.227  0.4121 -0.1060 -0.0548
 3797SOL    HW123024   3.503   1.810  13.260  0.8119 -0.0004 -0.1621
 3797SOL    HW223025   3.521   1.908  13.146 -2.2862 -2.4485 -2.0999
 3798SOL     OW23026   3.325   2.892   7.651 -0.8365  1.0204 -0.0382
 3798SOL    HW123027   3.364   2.942   7.579 -2.3694  1.0192 -0.8735
 3798SOL    HW223028   3.333   2.966   7.712  0.7617 -0.0199  0.9889
 3799SOL     OW23029   0.432   1.966   8.347  0.6287  0.5241 -0.3961
 3799SOL    HW123030   0.349   1.930   8.315  0.8634 -0.8480  0.5334
 3799SOL    HW223031   0.440   1.911   8.425 -4.0811  1.4826  0.7734
 3800SOL     OW23032   1.508   3.089   7.928 -0.1539 -0.4514 -0.5041
 3800SOL    HW123033   1.417   3.076   7.957 -0.6752 -0.2676 -2.0477
 3800SOL    HW223034   1.500   3.178   7.893  0.1817 -0.1387  0.2132
 3801SOL     OW23035   1.389   0.872   1.046 -0.2924 -1.1192 -0.5717
 3801SOL    HW123036   1.312   0.907   1.092 -1.0049 -3.6941  0.2106
 3801SOL    HW223037   1.463   0.907   1.095 -0.8914 -1.1004  0.3378
 3802SOL     OW23038   1.339   2.952   7.692 -0.0777  0.0156  0.3484
 3802SOL    HW123039   1.424   2.957   7.735  0.6610  0.0137 -1.1137
 3802SOL    HW223040   1.278   2.943   7.766  0.3626 -1.5319  0.5106
 3803SOL     OW23041   1.120   0.625   4.092 -0.0526 -0.3680  0.6080
 3803SOL    HW123042   1.078   0.541   4.075 -1.2886  0.6182 -1.2506
 3803SOL    HW223043   1.174   0.620   4.012 -2.0535 -2.4971 -0.5901
 3804SOL     OW23044   2.236   1.170   7.927  0.0707  0.4937  0.0401
 3804SOL    HW123045   2.311   1.225   7.909  1.2182 -1.3607 -0.8390
 3804SOL    HW223046   2.271   1.083   7.908  1.1609  1.1262 -0.8220
 3805SOL     OW23047   0.829   1.561   4.390  0.3221  0.1037 -0.2913
 3805SOL    HW123048   0.804   1.471   4.371  0.1909  0.4690 -1.8442
 3805SOL    HW223049   0.799   1.608   4.312  1.5602  0.8737 -0.3161
 3806SOL     OW23050   0.219   1.871   9.381  0.3813 -0.0023 -0.0271
 3806SOL    HW123051   0.296   1.913   9.419 -0.1975  2.4234 -1.6088
 3806SOL    HW223052   0.214   1.793   9.437 -2.7682 -0.9655 -1.6405
 3807SOL     OW23053   1.385   3.146   7.492  0.3291  0.0944  0.4478
 3807SOL    HW123054   1.291   3.160   7.500  0.4364  1.1656 -0.2262
 3807SOL    HW223055   1.392   3.076   7.557 -2.6151 -2.1111 -1.6410
 3808SOL     OW23056   1.974   0.512   4.102 -0.0319 -0.5482 -0.4136
 3808SOL    HW123057   1.890   0.517   4.149  0.5888  1.0114  0.5187
 3808SOL    HW223058   2.037   0.487   4.169 -0.1032  0.6109  0.0832
 3809SOL     OW23059   0.429   0.947   8.152  0.6685  0.4115  0.3220
 3809SOL    HW123060   0.490   0.903   8.093 -0.1986 -0.0941 -0.1939
 3809SOL    HW223061   0.475   1.028   8.172 -1.2828  1.9370 -1.5280
 3810SOL     OW23062   2.540   1.094   6.294  0.2304 -0.8124  0.3368
 3810SOL    HW123063   2.610   1.032   6.316 -0.2218 -0.9809  1.2912
 3810SOL    HW223064   2.518   1.070   6.205 -0.0174  1.1078 -0.1210
 3811SOL     OW23065   4.102   1.875   2.232  0.4314 -0.3067 -0.2817
 3811SOL    HW123066   4.028   1.867   2.292  1.0590 -1.5841  0.3169
 3811SOL    HW223067   4.059   1.861   2.148  0.3543 -3.0862  0.2032
 3812SOL     OW23068   1.419   1.422   4.472  0.4824  0.1970 -0.7176
 3812SOL    HW123069   1.401   1.349   4.412  1.0846  2.3496 -3.5101
 3812SOL    HW223070   1.494   1.385   4.519  0.7722  1.1248 -0.4517
 3813SOL     OW23071   1.098   1.514   6.223  0.0248 -0.8800 -0.2223
 3813SOL    HW123072   1.117   1.421   6.218  3.3710 -0.2306 -0.0637
 3813SOL    HW223073   1.014   1.512   6.178  0.6859  1.6613 -1.6165
 3814SOL     OW23074   2.251   4.105   5.158  0.2791  0.2893  0.1462
 3814SOL    HW123075   2.323   4.166   5.145  0.0094  0.4323 -0.6881
 3814SOL    HW223076   2.169   4.155   5.162  0.1471  0.1741 -1.2519
 3815SOL     OW23077   0.443   1.787   6.923 -0.3578  0.1675  0.1358
 3815SOL    HW123078   0.396   1.716   6.966 -1.4257  1.9525  1.8816
 3815SOL    HW223079   0.398   1.787   6.838 -0.2260 -0.7169  0.0625
 3816SOL     OW23080   0.337   3.581   7.021  0.3625  0.1895  0.5193
 3816SOL    HW123081   0.331   3.566   6.927 -1.8702 -2.2226  1.0575
 3816SOL    HW223082   0.327   3.676   7.024 -1.9564 -0.0219 -0.5804
 3817SOL     OW23083   1.867   0.299   2.081  0.0911  0.2457  0.1280
 3817SOL    HW123084   1.792   0.256   2.122  1.3341 -0.4532  1.6728
 3817SOL    HW223085   1.890   0.233   2.016  0.1137 -0.6248  1.0127
 3818SOL     OW23086   2.694   4.511   9.944  0.0290  0.3162  0.2565
 3818SOL    HW123087   2.774   4.563   9.934  1.3525 -1.8075 -0.1909
 3818SOL    HW223088   2.624   4.576   9.942 -0.6691 -0.3876  2.7881
 3819SOL     OW23089   0.261   1.425   5.989  0.5543  0.0198  0.1828
 3819SOL    HW123090   0.254   1.338   6.028 -2.6611  0.9367  1.6467
 3819SOL    HW223091   0.208   1.399   5.913  0.0120  0.9817  0.2289
 3820SOL     OW23092   1.801   1.458   6.950  0.2556  0.2342 -0.0992
 3820SOL    HW123093   1.742   1.532   6.930  0.9224  0.8957  0.3764
 3820SOL    HW223094   1.758   1.388   6.901  0.1225  0.7920 -0.7839
 3821SOL     OW23095   1.537   4.719  16.450 -0.0276 -0.3341 -0.4866
 3821SOL    HW123096   1.524   4.669  16.531 -2.0532  0.1380 -0.5324
 3821SOL    HW223097   1.453   4.712  16.405 -1.0136 -0.6850  1.4100
 3822SOL     OW23098   3.645   1.786  16.825 -0.1232  0.4490 -0.5119
 3822SOL    HW123099   3.734   1.787  16.789  0.7670 -0.2336  1.6531
 3822SOL    HW223100   3.650   1.771  16.920 -2.8690 -1.3500 -0.6540
 3823SOL     OW23101   1.985   1.101   6.932 -0.0715 -0.0575 -0.4100
 3823SOL    HW123102   1.899   1.137   6.957  0.2623  0.0970  0.5064
 3823SOL    HW223103   2.017   1.165   6.869 -2.4384  1.6573  0.0975
 3824SOL     OW23104   2.021   2.336   7.230 -0.1322  0.4977  0.5398
 3824SOL    HW123105   2.015   2.413   7.174  1.2248 -0.6362 -1.1903
 3824SOL    HW223106   2.092   2.370   7.286 -0.7394  1.3158  0.8039
 3825SOL     OW23107   0.899   0.410  14.777 -0.3490  0.5761 -0.2018
 3825SOL    HW123108   0.925   0.373  14.693 -2.0074  2.1356 -1.4096
 3825SOL    HW223109   0.975   0.456  14.812 -1.3053  1.6661  0.4421
 3826SOL     OW23110   4.555   0.305   6.490 -0.1065  0.0930 -0.1678
 3826SOL    HW123111   4.558   0.397   6.517  0.2496  0.2555 -0.7592
 3826SOL    HW223112   4.596   0.261   6.564 -0.6768 -1.2147 -0.6320
 3827SOL     OW23113   4.607   4.363   7.087 -0.2332 -0.1478 -0.2887
 3827SOL    HW123114   4.630   4.429   7.153  1.2417 -1.2986  0.3478
 3827SOL    HW223115   4.611   4.420   7.009 -0.0861 -1.7674 -1.4586
 3828SOL     OW23116   2.927   1.115   5.958 -0.0656  0.3231  0.2484
 3828SOL    HW123117   2.902   1.095   6.048 -1.3169  0.7818  0.0065
 3828SOL    HW223118   3.018   1.087   5.955 -0.8377 -2.0444 -1.3457
 3829SOL     OW23119   0.709   4.353  11.115 -0.4910 -0.4235 -0.2505
 3829SOL    HW123120   0.689   4.445  11.101 -0.8450 -0.4211  0.2701
 3829SOL    HW223121   0.759   4.366  11.196 -0.9507 -1.8168  0.2561
 3830SOL     OW23122   1.994   1.966   5.441  0.1025  0.1659 -0.3158
 3830SOL    HW123123   2.030   1.882   5.469  3.3198  1.7270  0.2274
 3830SOL    HW223124   2.074   2.013   5.419  0.2060 -0.1557 -0.6261
 3831SOL     OW23125   0.071   2.103   8.835  0.2227  0.8071 -0.2297
 3831SOL    HW123126   0.062   2.015   8.872  0.0921  0.3033 -1.4362
 3831SOL    HW223127   4.733   2.150   8.873 -0.4044 -0.0940 -0.3059
 3832SOL     OW23128   0.485   1.970   6.165 -0.2993  0.7647 -0.0148
 3832SOL    HW123129   0.543   2.012   6.101 -0.2364  1.1676  0.3077
 3832SOL    HW223130   0.540   1.902   6.204  0.5707  1.0870 -0.6532
 3833SOL     OW23131   2.341   2.501   5.506 -0.4504  0.1969  0.1272
 3833SOL    HW123132   2.377   2.482   5.592 -0.5733  1.4786  0.4499
 3833SOL    HW223133   2.387   2.581   5.481  0.7991 -0.4494  0.3020
 3834SOL     OW23134   1.580   2.001   3.467  0.2104 -0.1044  0.6430
 3834SOL    HW123135   1.540   1.937   3.525 -1.1156 -0.0631 -0.2422
 3834SOL    HW223136   1.625   1.948   3.401 -0.8677 -1.4635  1.0182
 3835SOL     OW23137   0.390   0.505   4.219 -1.0253  0.1670 -0.0788
 3835SOL    HW123138   0.314   0.502   4.276 -1.0257  2.0550  0.0160
 3835SOL    HW223139   0.414   0.416   4.192  1.8837  1.3365 -1.4206
 3836SOL     OW23140   3.767   0.505   8.150 -0.3423  0.3817 -0.5079
 3836SOL    HW123141   3.793   0.423   8.192 -1.9492  0.8011  1.2882
 3836SOL    HW223142   3.672   0.495   8.151 -0.2640 -0.4585 -0.8397
 3837SOL     OW23143   0.120   3.818   6.192  0.0590 -0.3776  0.3147
 3837SOL    HW123144   0.198   3.817   6.248  1.2543 -1.6627 -1.3840
 3837SOL    HW223145   0.078   3.740   6.228  1.5510 -1.2742  0.1005
 3838SOL     OW23146   4.652   1.603   3.813 -0.0430 -0.1937 -0.0691
 3838SOL    HW123147   4.663   1.514   3.846  0.8331 -0.3280 -0.7330
 3838SOL    HW223148   4.582   1.596   3.747 -0.8205  0.3815  0.6865
 3839SOL     OW23149   2.730   4.121   0.328  0.4461  0.0839  0.3149
 3839SOL    HW123150   2.726   4.094   0.419  0.0853  0.3337  0.3752
 3839SOL    HW223151   2.790   4.057   0.289 -0.4697  0.3895 -1.6172
 3840SOL     OW23152   1.947   0.289   2.701  0.3399  0.7086  0.1174
 3840SOL    HW123153   1.867   0.341   2.707 -0.2153 -0.1969  0.7601
 3840SOL    HW223154   1.991   0.340   2.634 -0.5334 -0.8496 -1.6553
 3841SOL     OW23155   1.579   3.694   8.525  0.4347 -0.2802 -0.1153
 3841SOL    HW123156   1.561   3.744   8.445  0.6275 -1.9661 -1.2073
 3841SOL    HW223157   1.494   3.651   8.535  0.2362 -0.2394 -1.5820
 3842SOL     OW23158   0.591   4.268   8.399  0.1999 -0.1967 -0.6603
 3842SOL    HW123159   0.511   4.274   8.450  0.7188  1.6097 -0.0835
 3842SOL    HW223160   0.653   4.266   8.471  0.3688  1.3068 -0.7678
 3843SOL     OW23161   3.934   4.650  11.365 -0.1556  0.4412 -0.1037
 3843SOL    HW123162   3.930   4.693  11.280 -0.6513  1.6949  0.5493
 3843SOL    HW223163   3.872   4.578  11.357  0.0835  0.5414 -2.9007
 3844SOL     OW23164   0.614   4.002  11.938  0.7046 -0.4170  0.3256
 3844SOL    HW123165   0.583   4.021  12.027 -0.8796 -0.7860 -0.1502
 3844SOL    HW223166   0.614   4.090  11.901 -2.2115 -1.5779 -2.4179
 3845SOL     OW23167   2.425   1.108   7.375 -0.2915 -0.1540  0.2636
 3845SOL    HW123168   2.439   1.062   7.458  1.8945  0.9767  0.5514
 3845SOL    HW223169   2.413   1.195   7.414  3.3310  0.8518 -0.8002
 3846SOL     OW23170   2.306   2.160   2.401  0.1294  0.1419  0.6363
 3846SOL    HW123171   2.358   2.145   2.323  0.6960 -1.2926  1.2913
 3846SOL    HW223172   2.363   2.230   2.435  1.7595 -0.8128 -0.1769
 3847SOL     OW23173   3.523   0.604   2.362  0.0684 -0.0810 -0.0052
 3847SOL    HW123174   3.521   0.517   2.322  2.0636 -0.1790  0.1421
 3847SOL    HW223175   3.604   0.648   2.339  0.7825 -1.3359  0.1267
 3848SOL     OW23176   2.588   2.128   5.556  0.8149 -0.1065  0.2091
 3848SOL    HW123177   2.665   2.127   5.500  2.1822 -0.7456  2.0877
 3848SOL    HW223178   2.529   2.162   5.489 -1.2061  0.2990  2.1742
 3849SOL     OW23179   3.069   4.700   8.111  0.0292 -0.0750 -0.1227
 3849SOL    HW123180   3.156   4.710   8.073  1.2848 -1.7622  2.3757
 3849SOL    HW223181   3.084   4.620   8.161 -0.2197  0.2426  0.4506
 3850SOL     OW23182   4.566   4.190   3.548 -0.0529 -0.1348 -0.0394
 3850SOL    HW123183   4.637   4.208   3.487  1.8329 -0.7332  1.9535
 3850SOL    HW223184   4.597   4.107   3.585  1.4529  0.1925 -0.5711
 3851SOL     OW23185   2.300   0.817   7.487  0.2210 -0.3922 -0.5324
 3851SOL    HW123186   2.352   0.862   7.553 -1.6796  2.0583 -0.6990
 3851SOL    HW223187   2.347   0.837   7.406 -0.3398  0.8247 -0.5487
 3852SOL     OW23188   0.208   1.187   9.594  0.3183  0.4335  0.6533
 3852SOL    HW123189   0.130   1.241   9.579 -0.4245 -0.1756  2.3393
 3852SOL    HW223190   0.224   1.148   9.508  1.7371 -1.1633  1.6355
 3853SOL     OW23191   3.104   0.048  14.521 -0.6353 -0.0050 -0.5099
 3853SOL    HW123192   3.185   4.733  14.514  0.6500  1.7554  1.9982
 3853SOL    HW223193   3.135   0.121  14.574  0.6520 -1.8691  1.2993
 3854SOL     OW23194   3.329   3.401   3.489 -0.2752 -0.8228  0.3538
 3854SOL    HW123195   3.335   3.357   3.573  0.6766  0.3610  0.9041
 3854SOL    HW223196   3.400   3.465   3.500 -1.7074  0.7192  0.6304
 3855SOL     OW23197   3.343   1.612   6.127 -0.3099 -0.1418  0.0417
 3855SOL    HW123198   3.325   1.539   6.067  0.3558 -1.0408  0.9438
 3855SOL    HW223199   3.256   1.651   6.116 -0.6569 -0.6109  1.1623
 3856SOL     OW23200   2.725   4.004   7.663 -0.0211 -0.2313 -0.1655
 3856SOL    HW123201   2.785   3.997   7.589  0.0001  1.6893 -0.3355
 3856SOL    HW223202   2.777   4.044   7.733  1.0834 -0.6704 -0.7366
 3857SOL     OW23203   4.138   0.436   4.830 -1.1608 -0.8477  0.0488
 3857SOL    HW123204   4.181   0.519   4.813 -1.6503 -0.7157 -0.5347
 3857SOL    HW223205   4.208   0.393   4.880 -1.1587  1.5210  2.0544
 3858SOL     OW23206   1.629   4.434  12.095 -0.1585 -0.4858 -0.0527
 3858SOL    HW123207   1.694   4.370  12.124 -0.9129 -1.9365 -1.5858
 3858SOL    HW223208   1.546   4.387  12.092  0.6540 -2.0896  2.0058
 3859SOL     OW23209   1.349   1.410  10.130 -0.1395  0.2099  0.1040
 3859SOL    HW123210   1.328   1.395  10.222 -0.9397 -1.6678 -0.3938
 3859SOL    HW223211   1.269   1.449  10.093 -1.2706 -1.6395  0.6268
 3860SOL     OW23212   3.819   0.268   6.312  0.1698  0.3053 -0.0828
 3860SOL    HW123213   3.790   0.248   6.401 -1.3131 -0.6129 -0.7770
 3860SOL    HW223214   3.910   0.292   6.332 -0.4626  3.0501 -0.5070
 3861SOL     OW23215   0.955   0.756   2.552 -0.1935 -0.2957 -0.0437
 3861SOL    HW123216   1.017   0.806   2.499  1.3944 -0.4831  1.6121
 3861SOL    HW223217   0.887   0.817   2.578 -0.5478 -1.6635  2.2319
 3862SOL     OW23218   3.430   1.091  13.938  0.6742  0.6229 -0.0050
 3862SOL    HW123219   3.350   1.134  13.970  0.2709 -1.8680  2.3203
 3862SOL    HW223220   3.390   1.031  13.875 -2.0119  2.8338 -0.4334
 3863SOL     OW23221   4.280   2.068   2.203  0.8222 -0.5699  0.7182
 3863SOL    HW123222   4.219   2.141   2.189 -0.3488 -0.7957  4.6924
 3863SOL    HW223223   4.229   2.001   2.247 -2.0703  1.5786  0.6562
 3864SOL     OW23224   1.292   2.896   5.302 -0.0820 -0.7933 -0.3015
 3864SOL    HW123225   1.229   2.828   5.278  0.8543 -0.8212 -2.7385
 3864SOL    HW223226   1.361   2.880   5.238  0.9829 -1.4682  1.0296
 3865SOL     OW23227   2.755   4.678  12.604  0.1353  0.0477 -0.3347
 3865SOL    HW123228   2.736   4.631  12.522  2.0035 -2.2922  0.5879
 3865SOL    HW223229   2.808   4.617  12.654 -1.5813 -1.7989 -0.8037
 3866SOL     OW23230   1.982   2.576   7.857  0.0329 -0.2794  0.3924
 3866SOL    HW123231   2.064   2.626   7.858 -0.1135 -0.0454  0.7876
 3866SOL    HW223232   1.965   2.553   7.948  3.0286 -4.1731 -0.0442
 3867SOL     OW23233   4.248   0.900   8.620  0.0308 -0.3415 -0.0636
 3867SOL    HW123234   4.342   0.916   8.613 -0.4823  2.2918 -0.9574
 3867SOL    HW223235   4.222   0.971   8.678  0.1674 -0.3263 -0.0205
 3868SOL     OW23236   0.842   4.223   5.208  0.1731  0.5372 -0.2007
 3868SOL    HW123237   0.927   4.213   5.251  1.1475 -0.2347 -2.3036
 3868SOL    HW223238   0.802   4.149   5.254  2.0425 -0.7646 -0.6674
 3869SOL     OW23239   3.014   2.456   5.989 -0.0854  0.1624 -0.6439
 3869SOL    HW123240   3.053   2.452   6.077 -2.3545 -0.9489  0.3057
 3869SOL    HW223241   2.997   2.550   5.997  0.9142  0.2911  0.0463
 3870SOL     OW23242   0.445   3.167   7.149 -0.3297 -0.2633  0.0351
 3870SOL    HW123243   0.425   3.074   7.143 -2.4376  0.1728  0.1562
 3870SOL    HW223244   0.529   3.171   7.193 -0.2670  2.0824 -0.2973
 3871SOL     OW23245   1.632   4.458  12.666 -0.2281 -0.0827 -0.3857
 3871SOL    HW123246   1.630   4.445  12.761 -0.1068  0.0211 -0.3681
 3871SOL    HW223247   1.720   4.495  12.668  0.9641 -2.8185 -1.9835
 3872SOL     OW23248   2.396   2.003   7.699  0.2131 -0.3791  0.2159
 3872SOL    HW123249   2.328   2.067   7.678  0.4245 -0.1745  0.1578
 3872SOL    HW223250   2.429   2.044   7.779  0.1020  0.2727 -0.0742
 3873SOL     OW23251   3.437   0.532  14.011  0.1344 -0.3933  0.1351
 3873SOL    HW123252   3.464   0.614  13.969 -2.1794  1.1639  1.6731
 3873SOL    HW223253   3.464   0.560  14.099 -0.1730 -1.7966  0.6751
 3874SOL     OW23254   1.430   3.396   4.130  0.0314  0.2921  0.3497
 3874SOL    HW123255   1.422   3.420   4.222  0.1670  0.8737  0.2140
 3874SOL    HW223256   1.353   3.437   4.089  0.3488  0.6088  0.0626
 3875SOL     OW23257   0.514   0.641   6.136 -0.2221  0.0886 -0.1219
 3875SOL    HW123258   0.519   0.702   6.209 -0.7336  3.6049 -3.0463
 3875SOL    HW223259   0.602   0.637   6.099 -0.4483 -0.3409 -0.6053
 3876SOL     OW23260   3.616   1.242  16.855  0.3713 -0.2388  0.1006
 3876SOL    HW123261   3.649   1.330  16.874  1.8111 -0.4927 -1.2324
 3876SOL    HW223262   3.687   1.201  16.805  0.1940  1.2402 -1.3544
 3877SOL     OW23263   4.367   2.419   9.270  0.2710  0.3834  0.5305
 3877SOL    HW123264   4.354   2.510   9.296  0.3918  0.2417  1.0811
 3877SOL    HW223265   4.389   2.377   9.353  1.2131  0.7207  0.4404
 3878SOL     OW23266   0.369   4.028   0.608 -0.5785 -0.1112 -0.0244
 3878SOL    HW123267   0.378   4.097   0.673 -0.1556 -1.7629  1.6512
 3878SOL    HW223268   0.288   3.982   0.630  0.9543 -2.2944  1.1003
 3879SOL     OW23269   4.281   0.879   6.651 -0.3162 -0.0042  0.4963
 3879SOL    HW123270   4.205   0.923   6.688 -0.7764  2.4117 -3.3213
 3879SOL    HW223271   4.317   0.948   6.595 -1.4877 -1.2376 -1.7804
 3880SOL     OW23272   3.893   0.602  15.117  0.4059 -0.8805 -0.4163
 3880SOL    HW123273   3.984   0.631  15.107 -0.8093  2.3119 -1.9217
 3880SOL    HW223274   3.854   0.674  15.068 -1.8666 -1.1425  0.9930
 3881SOL     OW23275   1.663   0.239   8.748  0.3140 -0.2314 -0.2939
 3881SOL    HW123276   1.668   0.239   8.653  1.1363  0.3840 -0.2586
 3881SOL    HW223277   1.757   0.237   8.769  0.0863  0.2169  0.8026
 3882SOL     OW23278   1.616   4.438  11.093 -0.4500  0.3239 -0.3936
 3882SOL    HW123279   1.677   4.442  11.019 -1.7262  0.3234 -1.4619
 3882SOL    HW223280   1.682   4.475  11.151  0.0462 -2.1234  0.5807
 3883SOL     OW23281   3.614   1.720   8.397  0.0291 -0.2353 -0.8524
 3883SOL    HW123282   3.677   1.661   8.355 -2.0268 -4.6533  2.2150
 3883SOL    HW223283   3.606   1.786   8.329  2.5224  0.3633 -0.5675
 3884SOL     OW23284   2.710   4.619   4.058 -0.1331  0.0430  0.3145
 3884SOL    HW123285   2.760   4.654   3.985  1.5458  1.6779  2.2601
 3884SOL    HW223286   2.619   4.637   4.033  0.4584  2.7306  0.0900
 3885SOL     OW23287   3.197   0.429   7.327  0.1717  0.0734  0.1803
 3885SOL    HW123288   3.271   0.456   7.273 -0.3561  1.5489  0.2046
 3885SOL    HW223289   3.230   0.408   7.415 -1.0094 -0.9223  0.3852
 3886SOL     OW23290   0.174   4.223   3.769 -0.7717  0.2490 -0.1383
 3886SOL    HW123291   0.215   4.296   3.815  0.3731  0.5469 -1.6197
 3886SOL    HW223292   0.172   4.256   3.679 -0.4543  1.3979  0.2823
 3887SOL     OW23293   2.804   3.267   2.590  0.0598  0.0394 -0.3986
 3887SOL    HW123294   2.780   3.287   2.500 -0.7506 -1.3383 -0.4858
 3887SOL    HW223295   2.888   3.309   2.611  0.3930 -0.2057 -1.2224
 3888SOL     OW23296   1.096   3.637   2.843  0.2544  0.1543  0.4302
 3888SOL    HW123297   1.151   3.713   2.825 -0.6434  0.8236  0.5109
 3888SOL    HW223298   1.123   3.580   2.771  0.4118 -0.3381  0.8809
 3889SOL     OW23299   0.178   1.666  11.043  0.4086  0.3183 -0.7445
 3889SOL    HW123300   0.177   1.754  11.080  0.8660  0.3240 -0.7461
 3889SOL    HW223301   0.202   1.613  11.120 -0.4903  0.5681 -0.2925
 3890SOL     OW23302   1.292   4.441   2.583  0.4592  0.0205 -0.1467
 3890SOL    HW123303   1.245   4.440   2.499 -1.3753  0.6489  0.8869
 3890SOL    HW223304   1.384   4.445   2.556  0.7085 -1.4048  0.4861
 3891SOL     OW23305   2.827   1.143   5.200  0.4568 -0.1018  0.5326
 3891SOL    HW123306   2.849   1.233   5.174 -1.4772  0.5422  1.1218
 3891SOL    HW223307   2.813   1.106   5.114  1.5398  1.3262 -0.2724
 3892SOL     OW23308   0.269   0.442  16.019  0.4380  0.6565  0.3256
 3892SOL    HW123309   0.185   0.415  15.983  0.8117 -2.1257  1.5295
 3892SOL    HW223310   0.291   0.492  15.941 -1.8444  0.5346 -0.3905
 3893SOL     OW23311   0.893   0.449  16.307 -0.1208 -0.0434 -0.6690
 3893SOL    HW123312   0.953   0.523  16.295  2.3148 -1.5565  2.1720
 3893SOL    HW223313   0.816   0.496  16.275 -1.3505  0.0443  2.4689
 3894SOL     OW23314   0.879   0.934   4.744 -0.4455  0.5171 -0.0277
 3894SOL    HW123315   0.797   0.890   4.723  0.3249 -0.8458 -0.2106
 3894SOL    HW223316   0.879   1.012   4.689  2.2591  1.6373  1.5568
 3895SOL     OW23317   0.792   4.198   7.091  0.2906 -0.1736 -0.2442
 3895SOL    HW123318   0.775   4.103   7.093 -2.3333  0.2803 -2.4612
 3895SOL    HW223319   0.821   4.218   7.180  0.9492 -0.5044 -0.3818
 3896SOL     OW23320   3.358   0.222   3.382  0.1529  0.5495 -0.6876
 3896SOL    HW123321   3.328   0.175   3.305 -1.7184  3.1007 -1.5433
 3896SOL    HW223322   3.449   0.196   3.398  0.3726  1.4678 -0.4276
 3897SOL     OW23323   1.024   1.384   9.279  0.4850 -0.3163  0.3614
 3897SOL    HW123324   1.108   1.341   9.261  0.2494  0.4300 -2.4939
 3897SOL    HW223325   0.951   1.324   9.264  0.7093 -0.4585 -0.1606
 3898SOL     OW23326   2.722   1.400   6.919  0.3478  0.4419  0.1283
 3898SOL    HW123327   2.692   1.316   6.955  3.4604 -0.8038 -0.2062
 3898SOL    HW223328   2.816   1.381   6.909  0.3515  1.0008 -0.8742
 3899SOL     OW23329   3.395   4.308  11.579  0.4827 -0.3305  0.7844
 3899SOL    HW123330   3.456   4.323  11.652 -1.3378  0.6593  2.1208
 3899SOL    HW223331   3.441   4.360  11.513 -2.1075 -0.0089 -0.7710
 3900SOL     OW23332   0.680   1.822   2.756  0.4176 -0.0528 -0.3091
 3900SOL    HW123333   0.593   1.787   2.740 -0.1759  1.5503 -0.5750
 3900SOL    HW223334   0.686   1.836   2.851  1.1756  2.4435 -0.7256
 3901SOL     OW23335   0.853   2.520   7.813 -0.2438 -0.9350 -0.1491
 3901SOL    HW123336   0.882   2.594   7.759  0.2235 -0.3139  0.9485
 3901SOL    HW223337   0.810   2.468   7.745  1.1659  0.5409 -2.1589
 3902SOL     OW23338   0.228   0.471   4.404 -0.3592  0.2960  0.0662
 3902SOL    HW123339   0.142   0.491   4.441 -0.8262  0.9210 -1.3549
 3902SOL    HW223340   0.284   0.470   4.481  1.7340  1.1789 -1.4576
 3903SOL     OW23341   0.057   0.398   9.121  0.3159  0.0964 -0.0591
 3903SOL    HW123342   4.698   0.386   9.116  0.3025 -0.0491  0.5226
 3903SOL    HW223343   0.054   0.492   9.105 -1.4159  0.0869  0.2486
 3904SOL     OW23344   2.818   3.322   4.937  0.2999  0.3827 -0.2002
 3904SOL    HW123345   2.873   3.264   4.883 -0.9470 -0.5054 -0.5171
 3904SOL    HW223346   2.788   3.269   5.011 -0.7169  2.2009  0.6725
 3905SOL     OW23347   1.959   1.313   5.794  0.1634  0.1909  0.2839
 3905SOL    HW123348   1.913   1.390   5.761 -2.3011 -1.4978 -0.2697
 3905SOL    HW223349   1.902   1.237   5.779  1.6094 -0.7457 -0.5202
 3906SOL     OW23350   3.420   1.234  16.652 -0.0466  0.2785 -0.1503
 3906SOL    HW123351   3.427   1.328  16.638 -2.5073  0.4478 -0.3288
 3906SOL    HW223352   3.480   1.229  16.726  0.8977  2.5737 -0.7560
 3907SOL     OW23353   1.112   1.250   6.176 -0.1616  0.0016  0.1558
 3907SOL    HW123354   1.051   1.177   6.165 -0.5147  0.1376  1.2425
 3907SOL    HW223355   1.190   1.195   6.183  2.0730  3.1888  0.2257
 3908SOL     OW23356   4.415   3.358   3.863 -0.1099  0.5338 -0.1369
 3908SOL    HW123357   4.463   3.432   3.900  1.5666 -0.1361 -0.9973
 3908SOL    HW223358   4.449   3.354   3.774 -0.0846 -1.9382  0.0008
 3909SOL     OW23359   3.921   3.202  10.357 -0.3574  0.7376 -0.1395
 3909SOL    HW123360   3.899   3.110  10.344 -1.4482  0.9286  0.3333
 3909SOL    HW223361   3.837   3.246  10.342 -2.1488 -2.1127  1.4475
 3910SOL     OW23362   4.313   3.345  11.184 -0.3043  0.2972  0.1994
 3910SOL    HW123363   4.290   3.392  11.264 -1.7616  0.8223 -0.5417
 3910SOL    HW223364   4.251   3.272  11.178 -1.8284  1.5039  1.5377
 3911SOL     OW23365   1.521   3.217   4.915  0.6329  0.0952  0.2141
 3911SOL    HW123366   1.460   3.249   4.849 -2.1637  0.4714  2.9804
 3911SOL    HW223367   1.514   3.123   4.896 -0.1077  0.4535 -1.2553
 3912SOL     OW23368   0.739   4.546   3.071 -0.2928 -0.4500 -0.2283
 3912SOL    HW123369   0.716   4.614   3.008  2.6094  1.6935  1.0094
 3912SOL    HW223370   0.730   4.468   3.018  0.6441  0.0426 -1.1127
 3913SOL     OW23371   2.429   4.729   0.147  0.5278  0.3349 -0.2460
 3913SOL    HW123372   2.435   4.665   0.077 -1.0858 -1.1865  1.0072
 3913SOL    HW223373   2.394   4.676   0.219  0.8555  1.0118  0.4161
 3914SOL     OW23374   0.877   1.696  17.206 -0.4476  0.7849  0.2453
 3914SOL    HW123375   0.843   1.659  17.287 -2.5829 -0.3862 -1.1818
 3914SOL    HW223376   0.924   1.776  17.231 -1.2471  1.6382 -0.9935
 3915SOL     OW23377   2.823   3.182  16.565 -0.1185 -0.3088  0.3724
 3915SOL    HW123378   2.769   3.141  16.633  0.9295 -1.3120  0.5879
 3915SOL    HW223379   2.807   3.275  16.584 -0.3011 -0.0140 -1.1696
 3916SOL     OW23380   1.641   2.016   5.012  0.2610  0.3983  0.3124
 3916SOL    HW123381   1.587   1.985   4.940 -1.5067  0.1653  1.7324
 3916SOL    HW223382   1.681   1.931   5.032  0.3113  0.7614  1.7362
 3917SOL     OW23383   3.162   3.711  14.549 -0.2840 -0.6772 -0.1416
 3917SOL    HW123384   3.091   3.708  14.485 -0.0676 -3.5522 -0.2692
 3917SOL    HW223385   3.217   3.786  14.529 -1.9599  1.2009  2.3657
 3918SOL     OW23386   4.204   3.056   6.776  0.8433  0.4464  0.2851
 3918SOL    HW123387   4.115   3.089   6.766  0.0621 -1.6290  0.4098
 3918SOL    HW223388   4.188   2.966   6.747  2.6609 -0.0341  0.7486
 3919SOL     OW23389   3.686   1.784  15.878  0.2525  0.2611 -0.1580
 3919SOL    HW123390   3.691   1.874  15.846 -2.8140  1.4291  2.6540
 3919SOL    HW223391   3.747   1.779  15.952 -2.2566  3.4562  2.1128
 3920SOL     OW23392   3.043   2.753   3.573  0.3619  0.3218  0.4453
 3920SOL    HW123393   2.970   2.774   3.632  0.1423 -1.3410  0.7448
 3920SOL    HW223394   3.021   2.792   3.489 -0.5708 -1.5973 -0.1913
 3921SOL     OW23395   3.983   1.867   7.539 -0.8190 -0.1788  0.5497
 3921SOL    HW123396   4.046   1.924   7.583 -1.0989  2.9010 -3.0143
 3921SOL    HW223397   4.024   1.781   7.538 -1.0115 -0.2732  1.3863
 3922SOL     OW23398   0.253   0.884   9.910 -0.4034  0.6376 -0.0625
 3922SOL    HW123399   0.289   0.809   9.863  1.1624  3.3400 -3.2129
 3922SOL    HW223400   0.292   0.955   9.858  0.9498 -0.0083  0.0980
 3923SOL     OW23401   1.186   4.419  12.956 -0.6504  0.3875  0.4971
 3923SOL    HW123402   1.104   4.413  13.006 -0.1216  0.5422  1.3851
 3923SOL    HW223403   1.187   4.510  12.927 -0.7960 -0.6253 -2.6586
 3924SOL     OW23404   2.237   1.687   4.246 -0.1285 -0.0357  0.0982
 3924SOL    HW123405   2.230   1.757   4.311 -2.2823 -0.5008  0.3823
 3924SOL    HW223406   2.156   1.639   4.264 -0.5263 -0.0220 -1.6896
 3925SOL     OW23407   3.522   4.151   5.609 -0.2695  0.3450 -0.0898
 3925SOL    HW123408   3.597   4.197   5.646 -0.4166 -0.8097  1.6236
 3925SOL    HW223409   3.527   4.181   5.518 -0.1386  1.7697  0.3901
 3926SOL     OW23410   3.632   2.919  12.664  0.0004 -0.0642 -0.1235
 3926SOL    HW123411   3.666   2.946  12.578  0.0943 -0.2521 -0.1434
 3926SOL    HW223412   3.717   2.899  12.701  0.5713  1.3521 -0.6582
 3927SOL     OW23413   0.561   4.093  14.593  0.2192  0.3165  0.0506
 3927SOL    HW123414   0.635   4.049  14.550  0.9633  1.6965 -0.0786
 3927SOL    HW223415   0.544   4.039  14.670  0.0015  0.5902  0.1912
 3928SOL     OW23416   0.259   4.081  17.577 -0.0721 -0.2657  0.1349
 3928SOL    HW123417   0.287   4.172  17.563  1.9154 -0.8950 -0.0545
 3928SOL    HW223418   0.339   4.034  17.601  1.7078  1.1164 -2.9580
 3929SOL     OW23419   1.595   4.350   7.758 -0.5414 -0.3476  0.4657
 3929SOL    HW123420   1.591   4.425   7.817 -0.2127  0.1068 -0.0886
 3929SOL    HW223421   1.518   4.302   7.791 -0.1919 -2.0408 -1.1684
 3930SOL     OW23422   2.888   4.167   6.924  0.3993 -0.5162 -0.1566
 3930SOL    HW123423   2.960   4.124   6.878 -0.1028 -0.7936 -0.6781
 3930SOL    HW223424   2.871   4.097   6.987 -4.1657  0.4659 -0.3127
 3931SOL     OW23425   2.463   0.315   4.717  0.1705  0.4943  0.0137
 3931SOL    HW123426   2.418   0.251   4.772  0.4814  0.8952  0.7379
 3931SOL    HW223427   2.441   0.390   4.771 -1.9116 -1.3012  1.6602
 3932SOL     OW23428   1.303   0.102  10.520 -0.1427  0.0080 -1.0133
 3932SOL    HW123429   1.235   0.035  10.524 -1.8662  1.9051  2.2352
 3932SOL    HW223430   1.381   0.048  10.532  0.9263  1.4680 -1.3629
 3933SOL     OW23431   0.783   4.240   0.574 -0.2380  0.1094 -1.6852
 3933SOL    HW123432   0.699   4.212   0.611  0.2364  0.0604 -0.6262
 3933SOL    HW223433   0.785   4.320   0.626  0.7744 -1.3841  0.6097
 3934SOL     OW23434   1.371   3.231  12.381  0.0719  0.6463  0.4152
 3934SOL    HW123435   1.281   3.246  12.351 -0.4886  2.0536  2.7457
 3934SOL    HW223436   1.357   3.230  12.476  0.0871 -1.1860  0.3958
 3935SOL     OW23437   2.131   0.138   9.945  0.6426  0.1020 -0.0429
 3935SOL    HW123438   2.166   0.220   9.981  2.0996  0.0522 -1.3338
 3935SOL    HW223439   2.097   0.168   9.860  1.0468 -1.6553 -0.8183
 3936SOL     OW23440   1.468   0.926   2.159 -0.4437  0.4778  0.4307
 3936SOL    HW123441   1.559   0.928   2.131 -0.5358  1.4150  0.2086
 3936SOL    HW223442   1.482   0.900   2.250 -1.8065  0.8216  0.7485
 3937SOL     OW23443   1.185   0.124   1.513 -0.4092 -0.6357 -0.0171
 3937SOL    HW123444   1.126   0.197   1.495 -0.9301 -1.2433 -0.7827
 3937SOL    HW223445   1.136   0.047   1.483 -0.9111 -1.1425  2.1279
 3938SOL     OW23446   4.005   4.062  17.341  0.4289  0.4405 -0.2535
 3938SOL    HW123447   3.966   4.113  17.270 -0.0902 -1.5164 -1.3837
 3938SOL    HW223448   3.951   3.984  17.354 -0.0831  0.5651 -1.6319
 3939SOL     OW23449   1.438   2.056   0.900 -0.4380  0.3857  0.0523
 3939SOL    HW123450   1.418   2.030   0.990  1.9730 -1.9681 -0.1053
 3939SOL    HW223451   1.363   2.016   0.856 -0.0349  1.3045 -1.4851
 3940SOL     OW23452   1.264   2.036   9.706 -0.6793  0.1030  0.0811
 3940SOL    HW123453   1.198   1.967   9.698  0.7109 -1.3746  1.3979
 3940SOL    HW223454   1.295   2.022   9.796 -0.5663 -2.0952 -0.3085
 3941SOL     OW23455   3.827   2.282   2.436 -0.0302 -0.0012 -0.1220
 3941SOL    HW123456   3.920   2.302   2.441  0.3923 -2.2068  0.8149
 3941SOL    HW223457   3.812   2.274   2.530 -1.9630  0.0718 -0.4094
 3942SOL     OW23458   4.573   4.379   3.116  0.2787  0.2407  0.1851
 3942SOL    HW123459   4.587   4.471   3.140 -2.2368 -0.7174  5.4764
 3942SOL    HW223460   4.479   4.385   3.095  0.0225  0.4190  1.3538
 3943SOL     OW23461   4.325   2.428   5.279 -0.1238 -0.7243  0.5718
 3943SOL    HW123462   4.310   2.336   5.254  1.7613 -0.8896  0.0016
 3943SOL    HW223463   4.339   2.421   5.373  2.0861 -0.1182  0.2948
 3944SOL     OW23464   0.228   3.582  16.017 -0.1732  0.2100 -0.0036
 3944SOL    HW123465   0.163   3.650  16.032  1.8300  2.0185  0.4556
 3944SOL    HW223466   0.245   3.559  16.108  0.1621 -1.3498 -0.4440
 3945SOL     OW23467   3.131   4.692   7.059  0.0569  0.3982  0.2083
 3945SOL    HW123468   3.164   0.046   7.053  0.5908  0.0394 -2.1966
 3945SOL    HW223469   3.144   4.672   6.966 -0.0255  1.3187  0.0025
 3946SOL     OW23470   0.375   1.874   0.458  0.3341 -0.6654  0.2475
 3946SOL    HW123471   0.466   1.899   0.445 -0.4801  2.1929 -0.0248
 3946SOL    HW223472   0.358   1.806   0.393 -1.1009  0.2250 -0.3353
 3947SOL     OW23473   0.487   3.107   0.103  0.2575  0.1773  0.0526
 3947SOL    HW123474   0.557   3.153   0.058 -0.2884  0.4679 -0.5043
 3947SOL    HW223475   0.414   3.140   0.050 -0.2774  0.8915  1.2411
 3948SOL     OW23476   3.245   2.321   4.239 -0.1938  0.4649  0.2359
 3948SOL    HW123477   3.230   2.366   4.322  1.6071  0.4436  0.5781
 3948SOL    HW223478   3.171   2.260   4.239  1.1644 -1.2041 -1.4809
 3949SOL     OW23479   3.099   4.479   3.862  0.3750  0.3025 -0.2315
 3949SOL    HW123480   3.179   4.441   3.826 -0.3178  0.7072 -2.2192
 3949SOL    HW223481   3.117   4.448   3.950  1.7412  1.8060 -0.0077
 3950SOL     OW23482   3.328   0.191   6.972 -0.0907 -0.0611  0.0793
 3950SOL    HW123483   3.385   0.128   7.016  1.6190  0.7822 -0.9540
 3950SOL    HW223484   3.358   0.192   6.882  0.5021 -2.5455  0.2383
 3951SOL     OW23485   4.395   0.995   5.858  0.2519 -0.4076  0.1096
 3951SOL    HW123486   4.341   1.057   5.907  0.4882  0.5135 -0.7952
 3951SOL    HW223487   4.382   1.034   5.771  1.9788  0.7443  0.3792
 3952SOL     OW23488   1.628   2.146   3.779 -0.1774 -0.4899  0.6832
 3952SOL    HW123489   1.721   2.127   3.791  0.0135  1.0775  1.5817
 3952SOL    HW223490   1.617   2.205   3.705 -2.6094 -2.3426 -0.4533
 3953SOL     OW23491   0.927   1.840   5.804 -0.1736  0.3893 -0.1066
 3953SOL    HW123492   0.831   1.831   5.801 -0.1883  0.9415 -1.1304
 3953SOL    HW223493   0.931   1.928   5.766 -0.8418  0.3321 -0.3064
 3954SOL     OW23494   0.104   3.984   4.351 -0.1592 -0.4991 -0.4478
 3954SOL    HW123495   0.124   3.956   4.441 -0.8780  0.2345 -0.0628
 3954SOL    HW223496   0.150   3.914   4.304  1.2754  1.9296 -2.6208
 3955SOL     OW23497   3.171   2.520   3.866 -0.1492 -0.6013  0.0395
 3955SOL    HW123498   3.161   2.548   3.957  1.2209  1.3569 -0.4103
 3955SOL    HW223499   3.174   2.425   3.867 -0.3763 -0.5958  1.1140
 3956SOL     OW23500   3.948   0.384   1.120 -0.4415  0.4587 -0.7963
 3956SOL    HW123501   3.981   0.311   1.069  0.5058  1.4816 -1.6494
 3956SOL    HW223502   4.017   0.450   1.111  0.2196 -0.0546  0.5905
 3957SOL     OW23503   3.692   0.518  17.519 -0.3805  0.0781  0.1100
 3957SOL    HW123504   3.677   0.585  17.586 -2.5491  0.1681 -0.4620
 3957SOL    HW223505   3.620   0.456  17.531 -0.8500  0.5890 -0.0435
 3958SOL     OW23506   4.506   1.624   3.303  0.0185  0.1878  0.1547
 3958SOL    HW123507   4.576   1.619   3.368  2.7466  0.8765 -2.7163
 3958SOL    HW223508   4.434   1.610   3.365  0.6807 -3.2998  0.1137
 3959SOL     OW23509   4.344   1.338  15.480 -0.4794 -0.0356  0.3172
 3959SOL    HW123510   4.401   1.364  15.407 -0.5772 -0.7503 -0.0144
 3959SOL    HW223511   4.413   1.299  15.535  0.4054  1.8916  0.5647
 3960SOL     OW23512   2.814   1.483  13.016 -0.4858 -0.1943  0.3040
 3960SOL    HW123513   2.858   1.566  12.996 -0.7552 -0.4941 -1.5107
 3960SOL    HW223514   2.724   1.502  12.992 -0.2847  0.5259  0.1019
 3961SOL     OW23515   0.396   2.553   1.146  0.0832 -0.1485  0.4720
 3961SOL    HW123516   0.476   2.592   1.112 -0.5569  0.1887 -0.6435
 3961SOL    HW223517   0.384   2.615   1.218 -2.7252 -0.1755  0.0286
 3962SOL     OW23518   3.427   4.135   1.704 -0.1276 -0.3881  0.2175
 3962SOL    HW123519   3.487   4.137   1.778 -0.1749  2.5330  0.2120
 3962SOL    HW223520   3.489   4.162   1.636 -0.9277  1.2171  0.1182
 3963SOL     OW23521   1.680   4.454  12.942 -0.1013 -0.0373  0.0146
 3963SOL    HW123522   1.711   4.377  12.989  0.6165 -0.8082 -1.7073
 3963SOL    HW223523   1.718   4.531  12.985 -0.3862  0.1438 -0.0591
 3964SOL     OW23524   2.209   1.716   3.286 -0.0350  0.1424  0.0020
 3964SOL    HW123525   2.193   1.808   3.267 -0.2409  0.2629  0.7301
 3964SOL    HW223526   2.262   1.733   3.365 -1.2699  3.4074  0.0962
 3965SOL     OW23527   0.316   2.795   9.036  0.4550 -0.2065  0.5585
 3965SOL    HW123528   0.321   2.890   9.039  3.1498 -0.3068 -0.2631
 3965SOL    HW223529   0.366   2.768   9.114  0.7784  0.6873  0.6592
 3966SOL     OW23530   3.002   0.879   7.681  0.7637  0.5992  0.2904
 3966SOL    HW123531   3.092   0.886   7.650 -0.1072  1.2050 -2.0943
 3966SOL    HW223532   2.961   0.833   7.607 -1.8565  1.0531  1.4477
 3967SOL     OW23533   0.675   2.097   3.100  0.3849  0.2119 -0.3649
 3967SOL    HW123534   0.734   2.096   3.025  1.3591  0.0723  0.4063
 3967SOL    HW223535   0.698   2.176   3.150  1.0218 -0.5828  0.5936
 3968SOL     OW23536   3.928   0.751   4.445  0.3292 -0.4999 -1.0745
 3968SOL    HW123537   3.846   0.724   4.403 -0.0748 -0.6411 -0.1830
 3968SOL    HW223538   3.923   0.714   4.533 -1.4983 -0.9250 -1.3612
 3969SOL     OW23539   0.504   1.100   7.503 -0.3219 -0.2038 -0.5494
 3969SOL    HW123540   0.541   1.108   7.415  2.8809 -1.1073  0.7245
 3969SOL    HW223541   0.417   1.138   7.490 -0.4550 -0.4106 -0.2637
 3970SOL     OW23542   1.870   0.935   1.526 -0.1388  0.5297  0.0369
 3970SOL    HW123543   1.903   1.015   1.567  2.1930 -0.6762  0.4882
 3970SOL    HW223544   1.813   0.892   1.589  1.0454  0.4390  1.0545
 3971SOL     OW23545   1.316   2.232   6.758 -0.1629 -0.0699 -0.7844
 3971SOL    HW123546   1.265   2.267   6.685 -0.7927 -0.6644 -0.6336
 3971SOL    HW223547   1.300   2.139   6.747 -1.3549  0.0318  0.0280
 3972SOL     OW23548   0.368   3.956   9.274 -0.4677 -0.6443 -0.0803
 3972SOL    HW123549   0.304   3.964   9.346 -0.2999  0.8868 -0.1203
 3972SOL    HW223550   0.424   4.032   9.287 -0.4377 -0.6898  0.0632
 3973SOL     OW23551   4.163   0.194   6.888 -0.3668  0.2865  0.3133
 3973SOL    HW123552   4.230   0.263   6.878  0.8522 -1.0575 -0.6730
 3973SOL    HW223553   4.090   0.252   6.913 -0.1790  0.7311 -0.1622
 3974SOL     OW23554   3.520   1.904   5.970 -0.0375  0.1528  0.1032
 3974SOL    HW123555   3.495   1.982   6.020 -0.3644  0.0566  0.0904
 3974SOL    HW223556   3.588   1.863   6.023 -1.8911 -2.0402  0.7956
 3975SOL     OW23557   0.756   2.347   3.515  0.3231 -0.0613  0.1726
 3975SOL    HW123558   0.774   2.344   3.421 -0.4086 -1.8181  0.0782
 3975SOL    HW223559   0.664   2.369   3.523  0.6788  1.3721  0.3313
 3976SOL     OW23560   3.359   0.255  16.269  0.3416 -0.5131  0.3117
 3976SOL    HW123561   3.414   0.320  16.312  1.7130 -1.5411  0.0997
 3976SOL    HW223562   3.417   0.222  16.201  1.2028  1.1882  0.2263
 3977SOL     OW23563   4.616   2.470   5.039  0.4237  0.2964 -0.6917
 3977SOL    HW123564   4.584   2.383   5.062  2.9334 -0.3793  0.2215
 3977SOL    HW223565   4.586   2.476   4.948  1.9719  1.1881 -1.1468
 3978SOL     OW23566   0.747   0.115  15.431  0.1047  0.5765 -0.0924
 3978SOL    HW123567   0.806   0.040  15.435 -1.1395 -0.3784  0.5343
 3978SOL    HW223568   0.721   0.112  15.524 -1.2122  2.0620 -0.4146
 3979SOL     OW23569   0.666   3.980   7.814 -0.0164  0.5150 -0.3337
 3979SOL    HW123570   0.703   3.891   7.812  0.7985  0.8569 -0.3000
 3979SOL    HW223571   0.621   3.985   7.730  2.5922  1.2147 -1.6932
 3980SOL     OW23572   4.242   2.371   3.871 -0.3175  0.1937  0.4057
 3980SOL    HW123573   4.238   2.450   3.817  0.0807  0.9914  1.5570
 3980SOL    HW223574   4.215   2.300   3.812 -0.0546  1.0908 -0.7921
 3981SOL     OW23575   0.960   2.230  17.026  0.2009 -0.8032 -0.4038
 3981SOL    HW123576   1.023   2.190  17.086  0.1604 -2.6299 -1.5690
 3981SOL    HW223577   0.920   2.150  16.991  0.2025 -1.0292  0.1074
 3982SOL     OW23578   3.640   1.095   4.550  0.0482 -0.1536 -0.2588
 3982SOL    HW123579   3.716   1.060   4.597 -1.0246  0.3704  1.8992
 3982SOL    HW223580   3.581   1.021   4.537 -1.2542  0.7686  0.3793
 3983SOL     OW23581   1.618   0.337   0.467 -0.1922  0.1735  0.1484
 3983SOL    HW123582   1.566   0.383   0.401  0.4677  0.0195 -0.4891
 3983SOL    HW223583   1.704   0.332   0.424  0.7567 -0.9508  2.1963
 3984SOL     OW23584   0.708   0.310  14.926 -0.3192  0.3522 -0.5746
 3984SOL    HW123585   0.762   0.375  14.881  2.6179 -0.5232  1.6470
 3984SOL    HW223586   0.683   0.250  14.856 -0.2798 -0.4082  0.0573
 3985SOL     OW23587   4.484   1.899   3.259 -0.2085  0.4645 -0.0820
 3985SOL    HW123588   4.493   1.804   3.263 -1.4828  0.4493  2.1354
 3985SOL    HW223589   4.480   1.918   3.352 -0.5526  0.2606 -0.0550
 3986SOL     OW23590   3.135   2.856   6.000  0.0824  0.2463 -0.0782
 3986SOL    HW123591   3.064   2.898   6.050  0.9026  1.3456  0.1559
 3986SOL    HW223592   3.140   2.771   6.042 -0.5668 -0.3499 -1.2107
 3987SOL     OW23593   3.752   2.579   1.238 -0.1722  0.5142  0.0886
 3987SOL    HW123594   3.767   2.673   1.253 -2.3557  1.0734 -1.1160
 3987SOL    HW223595   3.722   2.586   1.147  2.4438  0.0380 -0.8112
 3988SOL     OW23596   0.660   3.860  17.300  0.4994  0.2119 -0.3565
 3988SOL    HW123597   0.748   3.882  17.331 -0.7154  3.7714  0.5817
 3988SOL    HW223598   0.670   3.777  17.253 -1.6014 -0.4615  0.4070
 3989SOL     OW23599   3.004   3.151  17.603 -0.5819 -0.3635 -0.7194
 3989SOL    HW123600   3.070   3.095  17.646 -0.1542 -0.2205 -1.1867
 3989SOL    HW223601   3.029   3.240  17.629 -0.4283 -0.2631 -1.2130
 3990SOL     OW23602   4.375   3.230  14.612 -0.1367  0.0566 -0.2696
 3990SOL    HW123603   4.433   3.306  14.619 -0.9366  0.5322  1.1669
 3990SOL    HW223604   4.376   3.209  14.519  1.7890 -1.8559  0.1635
 3991SOL     OW23605   0.712   2.292  16.828  0.3234  0.2322 -0.3722
 3991SOL    HW123606   0.672   2.375  16.854 -1.6381  0.2642 -3.4280
 3991SOL    HW223607   0.775   2.268  16.896 -0.3245  1.4703  0.6658
 3992SOL     OW23608   2.894   1.158   3.971  0.3516  0.0002  0.4162
 3992SOL    HW123609   2.811   1.111   3.958  0.1476  0.3496  0.4475
 3992SOL    HW223610   2.951   1.082   3.985 -0.3331  0.0296  3.3551
 3993SOL     OW23611   0.116   0.747   6.957  0.2362 -0.2905 -0.2323
 3993SOL    HW123612   0.163   0.683   7.011 -1.5695 -1.5320 -0.1334
 3993SOL    HW223613   0.168   0.827   6.968  0.8666 -0.3635 -2.6958
 3994SOL     OW23614   0.391   2.756  13.791  0.2282  0.3352 -0.4125
 3994SOL    HW123615   0.409   2.849  13.802 -0.4663  0.4948 -0.6688
 3994SOL    HW223616   0.299   2.750  13.815  0.5113 -1.9639  0.0739
 3995SOL     OW23617   4.453   2.857   4.386 -0.0134 -0.5345 -0.0395
 3995SOL    HW123618   4.522   2.918   4.361 -0.2145 -0.2967 -0.0279
 3995SOL    HW223619   4.391   2.919   4.426 -0.5871 -1.3999  0.4155
 3996SOL     OW23620   1.877   3.252   8.599 -0.1576 -0.6118  0.0141
 3996SOL    HW123621   1.815   3.279   8.531 -0.0282  0.0475  0.1553
 3996SOL    HW223622   1.816   3.203   8.653  0.9547 -1.8293  0.1813
 3997SOL     OW23623   2.287   3.428  11.390  0.4734  0.7077 -0.1904
 3997SOL    HW123624   2.347   3.501  11.376 -1.2753  2.0503 -0.7192
 3997SOL    HW223625   2.248   3.441  11.476  0.0000  1.5349 -0.5224
 3998SOL     OW23626   1.863   0.049   2.785  0.2060 -0.0464 -0.3480
 3998SOL    HW123627   1.919   4.721   2.739  0.9069 -0.3960  0.9834
 3998SOL    HW223628   1.893   0.134   2.754 -2.3685  0.4942 -1.3618
 3999SOL     OW23629   4.710   2.877   8.599 -0.3661  0.1452  0.2677
 3999SOL    HW123630   0.007   2.936   8.531 -0.8319 -0.3199 -0.3504
 3999SOL    HW223631   0.043   2.895   8.663 -1.4812  1.5106  1.0891
 4000SOL     OW23632   2.588   3.586   6.295  0.2619  0.4370  0.5411
 4000SOL    HW123633   2.534   3.508   6.280  1.1691  0.1521 -1.2802
 4000SOL    HW223634   2.540   3.655   6.248 -1.5414 -2.9530 -2.6409
 4001SOL     OW23635   3.105   2.275   2.779 -0.5488  0.1554  0.0109
 4001SOL    HW123636   3.146   2.221   2.711  2.4097  0.3307  1.6208
 4001SOL    HW223637   3.044   2.326   2.726  2.9677  2.1867 -2.0723
 4002SOL     OW23638   0.042   1.800   6.008 -0.4262 -0.4132  0.4345
 4002SOL    HW123639   0.087   1.766   6.085 -0.0367 -0.7347  0.0620
 4002SOL    HW223640   0.052   1.895   6.005  1.3354 -0.5847  1.1617
 4003SOL     OW23641   2.466   4.353   3.911 -0.3514  0.5666 -0.1677
 4003SOL    HW123642   2.411   4.398   3.974 -0.1329 -0.5951  0.8558
 4003SOL    HW223643   2.490   4.274   3.960 -0.1742  0.2669 -0.7323
 4004SOL     OW23644   1.979   3.565  13.050 -0.2780  0.1318  0.0952
 4004SOL    HW123645   2.072   3.572  13.028 -0.5746  0.9457 -0.9221
 4004SOL    HW223646   1.947   3.655  13.054 -0.9841 -0.0545 -1.4576
 4005SOL     OW23647   3.084   3.964  14.359  0.8105  0.0228  0.1701
 4005SOL    HW123648   3.031   3.886  14.340 -1.7047  2.0225 -0.9794
 4005SOL    HW223649   3.127   3.991  14.278  0.5445  0.0161  0.0269
 4006SOL     OW23650   0.840   0.439  10.659  0.1167  0.2318  0.0549
 4006SOL    HW123651   0.930   0.406  10.664 -0.3400 -0.9703  0.4380
 4006SOL    HW223652   0.798   0.356  10.637  0.2035  0.1126  0.3418
 4007SOL     OW23653   3.989   2.756   2.287  0.1616 -0.4079  0.1287
 4007SOL    HW123654   3.921   2.699   2.249 -1.5079  1.0608  0.9193
 4007SOL    HW223655   3.948   2.842   2.281 -0.1250 -0.6079 -0.8337
 4008SOL     OW23656   4.311   2.447   2.380  0.2553  0.1321  0.6459
 4008SOL    HW123657   4.388   2.395   2.356  1.0761  1.3061  0.7262
 4008SOL    HW223658   4.289   2.496   2.301 -0.7836  0.6050  1.2333
 4009SOL     OW23659   3.903   0.363   8.671 -0.5203 -0.3432 -0.1081
 4009SOL    HW123660   3.910   0.333   8.580 -1.8230 -0.6679 -0.0911
 4009SOL    HW223661   3.899   0.459   8.666 -1.6631 -0.3636  0.3808
 4010SOL     OW23662   4.306   1.449   6.816 -0.2368 -0.2181  0.4750
 4010SOL    HW123663   4.333   1.367   6.856 -2.7682 -0.4195  1.7555
 4010SOL    HW223664   4.284   1.502   6.893 -2.0983  0.1105 -0.2693
 4011SOL     OW23665   2.761   0.467   8.048  0.3171 -0.3101  0.4627
 4011SOL    HW123666   2.843   0.421   8.029 -0.1101 -0.6546 -0.5517
 4011SOL    HW223667   2.709   0.437   7.973 -1.1035 -0.6427  1.5970
 4012SOL     OW23668   1.090   1.528   6.487 -0.1656  0.7231  0.2344
 4012SOL    HW123669   1.094   1.526   6.392 -0.9882 -2.1235  0.2745
 4012SOL    HW223670   1.015   1.472   6.507  0.3023  0.2285  0.6010
 4013SOL     OW23671   2.802   1.938  14.843 -0.1278 -1.2541  0.1020
 4013SOL    HW123672   2.773   1.965  14.930  0.2789 -0.6914  0.0592
 4013SOL    HW223673   2.784   2.010  14.783  2.3727  0.1125  0.9909
 4014SOL     OW23674   3.252   3.406   3.883  0.2719  0.8782 -0.3222
 4014SOL    HW123675   3.317   3.403   3.953  1.2986 -0.2971 -1.3191
 4014SOL    HW223676   3.232   3.314   3.864  0.7809  1.1105 -1.9601
 4015SOL     OW23677   2.913   3.069   4.437 -0.5401 -0.0973  0.0403
 4015SOL    HW123678   2.907   3.009   4.512 -1.3382 -2.7971 -2.1948
 4015SOL    HW223679   2.820   3.080   4.418 -0.0043  0.9161 -1.9063
 4016SOL     OW23680   2.563   1.060  10.373  0.3174  0.5042 -1.2097
 4016SOL    HW123681   2.615   1.137  10.395  0.2916  0.2089 -0.1107
 4016SOL    HW223682   2.479   1.092  10.341  0.2017  2.0494  0.6145
 4017SOL     OW23683   2.428   4.620  17.559 -0.6917  0.2604  0.5167
 4017SOL    HW123684   2.333   4.617  17.563 -0.6846 -1.1153 -0.8035
 4017SOL    HW223685   2.436   4.690  17.493  1.7508 -2.2105 -1.7816
 4018SOL     OW23686   2.111   4.335  17.632  0.5550 -0.0777 -0.4540
 4018SOL    HW123687   2.150   4.356  17.546  0.1526 -0.3393 -0.6987
 4018SOL    HW223688   2.059   4.257  17.614  1.4629 -0.6245 -0.7370
 4019SOL     OW23689   2.584   0.383   7.859 -0.3181 -0.1297  0.0151
 4019SOL    HW123690   2.525   0.364   7.787 -1.7325  1.5947  0.7176
 4019SOL    HW223691   2.661   0.332   7.832  1.0291  3.1084 -2.2514
 4020SOL     OW23692   2.394   1.077   4.461 -0.4750 -0.3037  0.1686
 4020SOL    HW123693   2.436   1.068   4.547 -0.3322  1.8539  0.3345
 4020SOL    HW223694   2.360   1.166   4.463 -1.6771 -0.7179 -2.0735
 4021SOL     OW23695   1.832   2.288   8.169  0.0595 -0.0026 -0.6827
 4021SOL    HW123696   1.785   2.306   8.088 -1.5650  1.9351  0.7061
 4021SOL    HW223697   1.824   2.194   8.185  0.4514  0.0421 -0.2036
 4022SOL     OW23698   1.917   3.910   5.746 -0.5355 -0.2631 -0.0993
 4022SOL    HW123699   2.004   3.871   5.754 -0.9992 -1.0489  1.0369
 4022SOL    HW223700   1.876   3.833   5.707 -0.3099 -0.0622 -0.7380
 4023SOL     OW23701   4.350   2.245   2.977  0.3769 -0.4129  0.1177
 4023SOL    HW123702   4.385   2.163   3.011 -2.7863 -1.5254  0.6516
 4023SOL    HW223703   4.405   2.243   2.898 -0.7962 -1.5711 -0.6660
 4024SOL     OW23704   4.088   1.040   6.742 -0.4706  0.4921  0.0922
 4024SOL    HW123705   4.037   1.070   6.667 -2.0911  0.8884  1.3800
 4024SOL    HW223706   4.012   1.024   6.798  1.3603  0.0786  2.4631
 4025SOL     OW23707   1.797   0.891   0.655 -0.0311 -0.3977  0.3101
 4025SOL    HW123708   1.872   0.939   0.690  0.7695 -1.2381 -0.2580
 4025SOL    HW223709   1.783   0.848   0.740 -3.0092  0.3952  0.2236
 4026SOL     OW23710   1.195   0.084   3.850  0.2468  0.6037 -0.3372
 4026SOL    HW123711   1.200   0.076   3.754 -0.3014  2.3792 -0.5063
 4026SOL    HW223712   1.196   4.724   3.865 -3.5784  0.6338 -0.0214
 4027SOL     OW23713   4.373   0.807   2.043 -0.0525 -0.2192 -0.2257
 4027SOL    HW123714   4.466   0.786   2.028  0.9078  2.6400  1.8569
 4027SOL    HW223715   4.328   0.723   2.035  1.9936 -1.4407  0.7936
 4028SOL     OW23716   3.853   4.240   2.762  0.3082  0.0454  0.1051
 4028SOL    HW123717   3.780   4.284   2.720 -0.8520 -1.6631  0.3368
 4028SOL    HW223718   3.808   4.180   2.822 -3.0844  0.9472 -1.5552
 4029SOL     OW23719   3.371   2.793   1.531  0.5126 -0.0489 -0.8054
 4029SOL    HW123720   3.378   2.813   1.625 -0.8070  0.3770 -0.7964
 4029SOL    HW223721   3.415   2.709   1.519 -1.4287 -0.9299 -1.8335
 4030SOL     OW23722   1.880   0.357   5.156 -0.2669  0.4141  0.5883
 4030SOL    HW123723   1.857   0.443   5.191  0.0619  0.0530  1.6925
 4030SOL    HW223724   1.976   0.357   5.157 -0.2730 -0.4476  0.8421
 4031SOL     OW23725   1.990   4.625   6.170 -0.0276  0.2316  0.4172
 4031SOL    HW123726   2.071   4.655   6.211  1.1026 -2.6575  0.2838
 4031SOL    HW223727   2.006   4.531   6.179 -1.0260  0.1134  1.0516
 4032SOL     OW23728   2.172   2.909   6.254 -0.2034 -0.4105  0.1126
 4032SOL    HW123729   2.130   2.903   6.339 -0.5608  1.3053  0.0498
 4032SOL    HW223730   2.093   2.902   6.200 -0.9564  1.9619  0.9306
 4033SOL     OW23731   4.217   2.786  16.516 -0.2038 -0.4167  0.5138
 4033SOL    HW123732   4.310   2.767  16.530 -0.6363 -1.6372  1.8054
 4033SOL    HW223733   4.188   2.718  16.455 -2.3641  0.7703  0.2195
 4034SOL     OW23734   4.715   3.381   3.417 -0.5724  0.0344 -0.5106
 4034SOL    HW123735   0.068   3.345   3.404 -0.2581 -1.3956  5.6878
 4034SOL    HW223736   4.665   3.318   3.365 -0.5236 -0.0277 -0.4826
 4035SOL     OW23737   3.214   2.313   4.864  0.1583 -0.0483 -0.0975
 4035SOL    HW123738   3.305   2.343   4.870  0.3314 -0.2176 -1.6868
 4035SOL    HW223739   3.182   2.331   4.952 -1.3045  0.6646 -0.7687
 4036SOL     OW23740   4.482   3.348   2.206  0.3422 -0.3398 -0.0265
 4036SOL    HW123741   4.474   3.410   2.134  0.3409 -1.7034 -1.1793
 4036SOL    HW223742   4.558   3.388   2.248 -0.0195 -0.5528  0.8417
 4037SOL     OW23743   3.476   3.529   1.904  0.0665  0.5722  1.2389
 4037SOL    HW123744   3.489   3.609   1.852 -3.4460 -0.4567 -1.1813
 4037SOL    HW223745   3.442   3.476   1.832  0.0243 -1.1013  2.4838
 4038SOL     OW23746   2.651   0.069   7.114  0.5854 -0.0689  0.0354
 4038SOL    HW123747   2.725   0.043   7.059  1.2303 -0.3851  1.0628
 4038SOL    HW223748   2.599   4.724   7.118  0.7853 -0.0476  2.6489
 4039SOL     OW23749   4.294   2.080  12.098 -0.4095 -0.3861 -0.5998
 4039SOL    HW123750   4.375   2.032  12.084  0.4144  1.4477 -2.0919
 4039SOL    HW223751   4.270   2.040  12.181 -0.0603 -0.1270 -0.3785
 4040SOL     OW23752   2.860   1.923   6.853  0.7134  0.3098  0.0102
 4040SOL    HW123753   2.900   1.857   6.909  2.5545 -0.4966 -2.2621
 4040SOL    HW223754   2.826   1.872   6.779  0.7209 -0.0866  0.2787
 4041SOL     OW23755   0.939   2.042   6.752 -0.7433 -0.0348  0.1208
 4041SOL    HW123756   0.956   2.069   6.662 -1.2066  1.8287  0.5977
 4041SOL    HW223757   0.993   2.107   6.797 -0.3261 -0.3079  0.0162
 4042SOL     OW23758   0.741   3.346  11.482 -0.5786 -0.5612 -0.4693
 4042SOL    HW123759   0.749   3.252  11.498 -0.0483 -0.5484 -0.6339
 4042SOL    HW223760   0.660   3.377  11.521  0.3519  0.5003  0.6093
 4043SOL     OW23761   0.023   3.717   5.096  0.3954  0.0323  0.5633
 4043SOL    HW123762   0.060   3.642   5.141 -1.2504 -1.2181 -0.1783
 4043SOL    HW223763   4.673   3.732   5.137  0.0510  0.2737 -0.2310
 4044SOL     OW23764   0.149   3.693  10.012 -0.1915 -0.3117 -0.1585
 4044SOL    HW123765   0.068   3.641  10.010 -1.4404  1.6273 -0.0828
 4044SOL    HW223766   0.212   3.621  10.009 -0.6489 -0.7453  0.4600
 4045SOL     OW23767   4.682   1.804  12.738  0.4318  0.5051 -0.0858
 4045SOL    HW123768   4.653   1.753  12.814 -2.3304  2.2724  0.0336
 4045SOL    HW223769   4.632   1.885  12.743  0.1639  0.2165  1.8026
 4046SOL     OW23770   3.003   4.551   6.585  0.0564 -0.6894  0.0757
 4046SOL    HW123771   2.999   4.460   6.615  0.3165 -0.3711  1.0957
 4046SOL    HW223772   2.922   4.595   6.611  0.7927  0.2080  0.8814
 4047SOL     OW23773   1.692   1.421   3.340 -0.5299  0.1986 -0.7006
 4047SOL    HW123774   1.627   1.490   3.358  0.3593  0.5365  1.1961
 4047SOL    HW223775   1.754   1.438   3.412 -1.3636 -0.2714  0.1266
 4048SOL     OW23776   1.724   1.919   5.919  0.0948 -0.0090  0.4785
 4048SOL    HW123777   1.669   1.841   5.923  0.3863 -0.2241  0.3261
 4048SOL    HW223778   1.741   1.924   5.825 -2.3421 -1.4851 -0.0288
 4049SOL     OW23779   0.965   1.652   8.211 -0.0068 -0.0049 -0.5986
 4049SOL    HW123780   0.974   1.707   8.289  4.1583  0.9371 -1.7819
 4049SOL    HW223781   1.024   1.678   8.141 -0.5117  2.1759 -0.2185
 4050SOL     OW23782   1.395   1.592  16.454  0.5276 -0.2770  0.2891
 4050SOL    HW123783   1.444   1.568  16.375 -0.3033 -0.1897 -0.2472
 4050SOL    HW223784   1.329   1.644  16.408  0.8021  0.0272  0.2343
 4051SOL     OW23785   0.127   0.727   8.765 -0.1247 -0.4418 -0.2712
 4051SOL    HW123786   0.122   0.809   8.715  1.6357  0.5903  1.2488
 4051SOL    HW223787   0.215   0.695   8.745  0.5557  0.4250  1.3421
 4052SOL     OW23788   3.583   4.007  11.598  0.6503  0.2640 -0.1757
 4052SOL    HW123789   3.609   3.943  11.665 -0.6721  1.9540  1.9388
 4052SOL    HW223790   3.651   4.071  11.616 -0.7056  1.7066 -0.2148
 4053SOL     OW23791   2.784   1.877   7.709 -0.0799  0.1397 -0.8719
 4053SOL    HW123792   2.820   1.954   7.753 -1.3148  0.8705 -1.1515
 4053SOL    HW223793   2.812   1.888   7.619  2.6186 -0.3798 -0.0872
 4054SOL     OW23794   1.969   0.346   9.293  0.2137  0.7689  0.4886
 4054SOL    HW123795   1.890   0.398   9.278  0.5523  0.4483 -2.4471
 4054SOL    HW223796   2.029   0.388   9.231 -1.3167  1.0861 -0.7700
 4055SOL     OW23797   1.842   0.810   8.489 -0.3733  0.0999  0.1360
 4055SOL    HW123798   1.920   0.838   8.537 -1.0293  0.9887  0.6801
 4055SOL    HW223799   1.769   0.850   8.536 -1.4913  0.6379 -2.0422
 4056SOL     OW23800   2.960   0.707   3.788 -0.5865  0.0392  0.2307
 4056SOL    HW123801   3.010   0.638   3.744 -0.2439  2.0816 -2.5807
 4056SOL    HW223802   2.887   0.716   3.727 -0.2101 -0.9265 -0.3646
 4057SOL     OW23803   3.679   4.670  14.450  0.5340 -0.1286 -0.1060
 4057SOL    HW123804   3.642   4.723  14.520  1.5127  2.3255 -1.4429
 4057SOL    HW223805   3.712   4.733  14.386  0.9103  0.1602  0.3692
 4058SOL     OW23806   3.245   0.402  14.434  0.3799  0.2497  0.8090
 4058SOL    HW123807   3.247   0.493  14.465  2.1739 -0.3378  2.4620
 4058SOL    HW223808   3.167   0.406  14.379  0.7974 -1.0970  0.1240
 4059SOL     OW23809   4.470   4.225  17.343 -0.2324  0.0046  0.1980
 4059SOL    HW123810   4.517   4.202  17.262  0.9407  1.5702  0.4358
 4059SOL    HW223811   4.417   4.146  17.337  0.0267 -0.3724  2.8929
 4060SOL     OW23812   2.068   4.650  17.108 -0.4054  0.3978 -0.8472
 4060SOL    HW123813   2.157   4.620  17.127 -0.8440 -0.3336  0.0566
 4060SOL    HW223814   2.072   4.678  17.017 -0.8129  0.0901 -0.9548
 4061SOL     OW23815   4.067   2.915   2.828  0.3881  0.2693 -1.0700
 4061SOL    HW123816   4.008   2.844   2.854 -0.7086  0.6468 -2.4895
 4061SOL    HW223817   4.106   2.868   2.753 -0.5591 -1.5417 -0.4303
 4062SOL     OW23818   4.342   0.742   2.406  0.6647  0.4543  0.1455
 4062SOL    HW123819   4.276   0.744   2.475  0.2001 -0.2631 -0.2763
 4062SOL    HW223820   4.305   0.802   2.341  1.1211  0.1332 -0.4143
 4063SOL     OW23821   4.150   0.095   5.624 -0.0245  0.0672  0.0389
 4063SOL    HW123822   4.245   0.103   5.612  0.0915  0.7693  1.4569
 4063SOL    HW223823   4.132   0.169   5.681 -3.1848 -1.2271  0.7177
 4064SOL     OW23824   0.052   3.650   4.470  0.6032 -0.5483 -0.5348
 4064SOL    HW123825   4.711   3.650   4.411  0.2588  0.0204 -0.0841
 4064SOL    HW223826   0.024   3.590   4.539 -0.2770 -0.5569 -0.8895
 4065SOL     OW23827   3.380   3.420   6.602  0.5465  0.4210  0.5693
 4065SOL    HW123828   3.357   3.341   6.651 -1.3277 -0.0158 -0.9810
 4065SOL    HW223829   3.409   3.382   6.519  0.9182 -0.4522  1.0996
 4066SOL     OW23830   1.725   4.366   6.286 -0.2346 -0.7266 -0.6170
 4066SOL    HW123831   1.753   4.437   6.228 -1.9212 -0.7766 -1.4802
 4066SOL    HW223832   1.793   4.306   6.254  0.7651 -0.2715  0.6543
 4067SOL     OW23833   2.130   4.279   8.277 -0.1432  0.5119 -0.1788
 4067SOL    HW123834   2.128   4.245   8.367  0.1083 -1.4620 -0.9283
 4067SOL    HW223835   2.225   4.289   8.274  0.1090 -1.2724  1.6760
 4068SOL     OW23836   3.945   3.765   8.594 -0.1262  0.6098 -0.2457
 4068SOL    HW123837   3.977   3.836   8.538 -0.8205  1.3347  0.2736
 4068SOL    HW223838   3.881   3.720   8.538 -2.9837  1.8890  1.9774
 4069SOL     OW23839   1.283   1.534   8.379  0.2930 -0.2467 -0.6207
 4069SOL    HW123840   1.283   1.612   8.434  0.7242  1.2672 -2.7585
 4069SOL    HW223841   1.328   1.577   8.306  0.5309  0.2037 -0.2058
 4070SOL     OW23842   0.088   0.545   2.038 -0.8151 -0.4175  0.4360
 4070SOL    HW123843   0.126   0.481   2.098  1.6695  0.5396 -0.1221
 4070SOL    HW223844   0.115   0.499   1.959  0.2138  3.2997 -1.3805
 4071SOL     OW23845   3.330   3.760  16.486  0.3170 -0.6300  0.0732
 4071SOL    HW123846   3.394   3.731  16.422 -1.8716 -0.1672 -2.3156
 4071SOL    HW223847   3.302   3.842  16.444  1.1635 -0.6287 -0.4822
 4072SOL     OW23848   3.552   2.523   3.343 -0.0323  0.0364  0.2274
 4072SOL    HW123849   3.510   2.571   3.272 -1.5805 -1.7967 -0.0828
 4072SOL    HW223850   3.503   2.560   3.417  3.0741  1.4337  1.6013
 4073SOL     OW23851   0.365   1.158   5.010  0.4462  0.7936  0.4138
 4073SOL    HW123852   0.349   1.075   5.054 -1.1419  0.4768 -0.7791
 4073SOL    HW223853   0.460   1.170   5.018  0.6041  0.2951 -0.6070
 4074SOL     OW23854   0.798   4.125  10.967 -0.4632  0.5585 -0.2397
 4074SOL    HW123855   0.766   4.212  10.988 -0.4463 -0.3105  3.3676
 4074SOL    HW223856   0.812   4.095  11.057  3.8352  3.3447  0.0050
 4075SOL     OW23857   4.604   0.446  13.988  0.1623 -0.0345 -0.1763
 4075SOL    HW123858   4.664   0.396  13.932  2.5854  1.4004  1.1330
 4075SOL    HW223859   4.665   0.488  14.048 -0.7577 -1.1653  1.5477
 4076SOL     OW23860   1.633   0.638   6.051 -0.1204  0.6765  0.0222
 4076SOL    HW123861   1.637   0.583   6.130  0.7668  0.7212  0.0153
 4076SOL    HW223862   1.665   0.580   5.982  2.5513  0.5560  1.3532
 4077SOL     OW23863   0.473   2.391   5.833 -0.6542  0.5135  0.1005
 4077SOL    HW123864   0.476   2.480   5.799  2.8592 -0.1976 -1.3447
 4077SOL    HW223865   0.513   2.413   5.917  0.9233  0.8131 -0.7343
 4078SOL     OW23866   4.587   0.874   4.597  0.2769  0.1389 -0.1208
 4078SOL    HW123867   4.504   0.897   4.554  1.3347  2.4302 -0.9750
 4078SOL    HW223868   4.634   0.823   4.531 -0.6452  0.5063 -1.0596
 4079SOL     OW23869   4.440   3.040   5.635  0.3539 -0.7610 -0.7360
 4079SOL    HW123870   4.387   3.120   5.636  0.9723 -0.3973  1.8544
 4079SOL    HW223871   4.527   3.080   5.648 -1.4803  3.3827 -1.1035
 4080SOL     OW23872   2.423   4.159  11.320 -0.2695  0.3152 -0.1756
 4080SOL    HW123873   2.500   4.104  11.327  0.3766  1.4076  1.3900
 4080SOL    HW223874   2.413   4.170  11.225 -1.7444 -0.3815 -0.0962
 4081SOL     OW23875   0.777   1.984  15.436 -0.0641 -0.2969 -0.1123
 4081SOL    HW123876   0.776   2.072  15.473 -1.4331 -1.0283  1.5899
 4081SOL    HW223877   0.684   1.961  15.445  0.3708 -1.7332  0.7362
 4082SOL     OW23878   3.672   4.644  17.720  0.0828 -0.0575 -0.1205
 4082SOL    HW123879   3.615   4.613   0.050  0.4562 -0.7338 -0.1230
 4082SOL    HW223880   3.692   4.735   0.005  0.3937 -0.5405  1.4159
 4083SOL     OW23881   2.851   1.068   8.327  0.5937 -0.0691 -0.4277
 4083SOL    HW123882   2.867   1.112   8.411  5.5928 -1.3203 -0.7587
 4083SOL    HW223883   2.888   0.982   8.345 -0.1917  0.3599  3.2154
 4084SOL     OW23884   0.292   2.193  14.427 -0.5252 -0.0322 -0.2867
 4084SOL    HW123885   0.281   2.212  14.520 -1.5026 -1.1425 -0.1724
 4084SOL    HW223886   0.199   2.185  14.407 -0.4378 -0.1693 -0.6382
 4085SOL     OW23887   3.182   3.001   3.457  0.1894  0.3119 -0.2353
 4085SOL    HW123888   3.094   2.966   3.477  0.0916 -0.3831 -1.9142
 4085SOL    HW223889   3.168   3.028   3.366 -1.6045  2.0367  0.5389
 4086SOL     OW23890   0.016   0.711   7.924 -0.2881  0.5513 -0.0734
 4086SOL    HW123891   0.032   0.770   7.851 -2.5535  2.5791  1.0603
 4086SOL    HW223892   0.087   0.736   7.983  0.2530 -1.7044  0.2484
 4087SOL     OW23893   1.534   3.674   6.859 -0.2317 -0.0198  0.5602
 4087SOL    HW123894   1.597   3.688   6.930  2.0747 -1.9894 -1.1021
 4087SOL    HW223895   1.540   3.752   6.805  1.2902  0.6593  1.7198
 4088SOL     OW23896   1.941   2.544   8.120 -0.2585  0.0943  0.0223
 4088SOL    HW123897   1.883   2.477   8.156  0.1865  1.2107  2.8008
 4088SOL    HW223898   1.928   2.613   8.185  0.6422 -0.5026  0.8473
 4089SOL     OW23899   2.448   3.590   5.488 -0.5240 -0.6167  0.5329
 4089SOL    HW123900   2.452   3.665   5.547 -1.3407 -1.3811  1.5621
 4089SOL    HW223901   2.373   3.544   5.527 -1.3176  2.2635  2.3712
 4090SOL     OW23902   1.643   0.541   1.709  0.2046  0.2612  0.3522
 4090SOL    HW123903   1.641   0.487   1.788 -1.0577 -1.1976 -0.6546
 4090SOL    HW223904   1.562   0.506   1.670 -1.3825  1.2691  2.7742
 4091SOL     OW23905   3.996   4.186   3.092 -0.3206 -0.1170 -0.2106
 4091SOL    HW123906   4.086   4.168   3.120  0.6130  1.5094 -2.1304
 4091SOL    HW223907   4.022   4.244   3.020 -2.0455 -0.4251 -1.0792
 4092SOL     OW23908   2.633   3.924   3.148  0.1204  0.4446 -1.0406
 4092SOL    HW123909   2.620   3.994   3.212  0.6467 -0.6196  0.2266
 4092SOL    HW223910   2.712   3.882   3.182 -0.3534 -1.1854 -1.9237
 4093SOL     OW23911   3.476   1.429   8.882 -0.0038  0.7262  0.3460
 4093SOL    HW123912   3.474   1.525   8.882 -0.8550  0.7171 -0.7989
 4093SOL    HW223913   3.439   1.402   8.966  2.4710 -0.7728  0.9821
 4094SOL     OW23914   0.634   2.649   1.033 -0.1277  0.3459  0.1872
 4094SOL    HW123915   0.670   2.634   0.945 -1.4975  0.0838 -0.3234
 4094SOL    HW223916   0.703   2.642   1.100 -0.4397 -2.4479  0.2114
 4095SOL     OW23917   4.497   0.316  15.460  0.5509 -0.2117 -0.3781
 4095SOL    HW123918   4.497   0.372  15.383 -0.0897 -0.1933 -0.3642
 4095SOL    HW223919   4.410   0.330  15.499  0.7861  1.1385 -0.3492
 4096SOL     OW23920   3.621   2.641  10.152 -0.8659  0.7299  0.2511
 4096SOL    HW123921   3.540   2.624  10.199  0.6841 -3.3911  1.3947
 4096SOL    HW223922   3.658   2.712  10.205  0.9984 -0.1341  0.0945
 4097SOL     OW23923   3.082   3.388  17.716  0.0726  0.1112 -0.3087
 4097SOL    HW123924   3.174   3.380  17.690  0.1705 -0.5981  0.2331
 4097SOL    HW223925   3.091   3.429   0.063  1.8720  0.9522 -0.8949
 4098SOL     OW23926   2.758   2.353  15.647 -0.2522  0.5636  0.4721
 4098SOL    HW123927   2.724   2.431  15.690 -0.2846  1.5285 -1.2823
 4098SOL    HW223928   2.726   2.356  15.556 -0.0448  2.1169  0.4416
 4099SOL     OW23929   3.952   4.706   6.049 -0.0635 -0.6027 -0.3489
 4099SOL    HW123930   3.879   4.688   6.107  0.4142  1.4853  0.8716
 4099SOL    HW223931   4.014   4.633   6.055  1.1551  0.4281 -0.2154
 4100SOL     OW23932   0.419   4.594   1.617 -0.5551  0.2156  0.2268
 4100SOL    HW123933   0.396   4.512   1.662  4.3066 -2.5250 -2.3263
 4100SOL    HW223934   0.470   4.640   1.684 -1.0098  0.1027  0.6504
 4101SOL     OW23935   2.859   2.016  12.888 -0.0610  0.9090 -0.0535
 4101SOL    HW123936   2.819   2.100  12.910 -1.4522 -0.0159  0.9201
 4101SOL    HW223937   2.875   2.034  12.795  1.2021  2.0468  0.3682
 4102SOL     OW23938   4.224   0.418   8.593  0.5626 -0.2969 -0.3697
 4102SOL    HW123939   4.295   0.416   8.658 -0.9186 -1.4347  1.2291
 4102SOL    HW223940   4.238   0.335   8.547  0.0709 -1.8442  2.2337
 4103SOL     OW23941   3.650   4.607  17.465  0.6168 -0.7347 -0.1573
 4103SOL    HW123942   3.641   4.626  17.559  0.3512  0.7935 -0.4963
 4103SOL    HW223943   3.623   4.515  17.457  1.5925 -0.9336 -1.1323
 4104SOL     OW23944   1.542   2.209   8.722 -0.2636 -0.2094 -0.3826
 4104SOL    HW123945   1.516   2.134   8.668  1.4800 -0.8698 -0.3068
 4104SOL    HW223946   1.451   2.239   8.730 -0.5286 -1.4202  0.9793
 4105SOL     OW23947   2.296   0.543   7.301  0.0370  0.2788  0.1322
 4105SOL    HW123948   2.271   0.610   7.365 -1.8164  1.1917 -1.5537
 4105SOL    HW223949   2.392   0.541   7.306  0.1996  1.6407 -2.6282
 4106SOL     OW23950   0.037   3.463  16.462  0.0479  0.4074 -0.0591
 4106SOL    HW123951   0.087   3.466  16.544 -0.5409 -0.7802  0.3518
 4106SOL    HW223952   4.727   3.379  16.466  0.4395  0.2373  0.7885
 4107SOL     OW23953   3.055   0.721   3.108  0.9534  0.9921  0.2144
 4107SOL    HW123954   3.048   0.800   3.161  0.7705  0.1773  1.4037
 4107SOL    HW223955   3.105   0.749   3.031 -0.8602  1.2165 -0.9001
 4108SOL     OW23956   3.003   1.879  16.780  0.3879  1.2224  0.3545
 4108SOL    HW123957   2.996   1.962  16.732  0.9661 -0.1567 -2.1245
 4108SOL    HW223958   3.040   1.901  16.866 -0.2768 -2.3895  1.5397
 4109SOL     OW23959   1.105   4.206  17.663  0.4807 -0.2629 -0.3582
 4109SOL    HW123960   1.042   4.269  17.628  0.3311 -1.1545 -1.7013
 4109SOL    HW223961   1.051   4.158  17.726 -0.6098 -0.5286 -1.4811
 4110SOL     OW23962   1.893   4.436  14.325 -0.0637  0.0846  0.0228
 4110SOL    HW123963   1.957   4.462  14.391 -0.5835  0.8456  0.2299
 4110SOL    HW223964   1.897   4.502  14.255 -1.2359 -0.0692 -0.1826
 4111SOL     OW23965   1.608   2.259   9.502 -0.1672 -0.4132  0.7268
 4111SOL    HW123966   1.557   2.188   9.541  0.8520 -1.1017  0.8072
 4111SOL    HW223967   1.538   2.317   9.470  0.8106 -0.7929 -2.1350
 4112SOL     OW23968   0.899   2.682   3.373  0.2028 -0.6590  0.8426
 4112SOL    HW123969   0.833   2.620   3.343 -0.9407  1.5330 -1.2236
 4112SOL    HW223970   0.848   2.741   3.429  2.5044  0.4708  1.7787
 4113SOL     OW23971   1.027   1.637   3.265  0.1694  0.4691  0.3163
 4113SOL    HW123972   0.984   1.703   3.211  1.9682  0.8299 -0.6758
 4113SOL    HW223973   1.106   1.684   3.291 -0.0816  2.4527 -2.4906
 4114SOL     OW23974   1.793   0.920   6.755 -0.9181 -0.7052 -0.2939
 4114SOL    HW123975   1.874   0.889   6.795 -0.7970 -0.1144 -0.0800
 4114SOL    HW223976   1.827   0.912   6.666  2.4775  1.1824  0.8655
 4115SOL     OW23977   1.509   2.715   7.947  0.3806  0.0376  0.1547
 4115SOL    HW123978   1.419   2.703   7.917  0.1133 -0.1949  1.0465
 4115SOL    HW223979   1.501   2.740   8.039  1.0819 -1.4117  0.6025
 4116SOL     OW23980   0.067   2.477   7.797 -0.0806  0.9241 -0.0290
 4116SOL    HW123981   0.041   2.502   7.708  0.7646 -0.0072 -0.5452
 4116SOL    HW223982   0.051   2.562   7.837  0.5569  0.7670  0.5544
 4117SOL     OW23983   4.009   0.737  11.144  0.9177  0.0333 -0.6365
 4117SOL    HW123984   4.046   0.663  11.191 -0.6043  0.2222  0.8473
 4117SOL    HW223985   4.059   0.809  11.182 -0.0324  1.0996 -1.3778
 4118SOL     OW23986   0.792   0.838   1.809 -0.2083  0.2469 -0.3506
 4118SOL    HW123987   0.807   0.922   1.853 -1.2240  1.1191 -1.6715
 4118SOL    HW223988   0.700   0.813   1.819  0.4263 -1.5303  1.0234
 4119SOL     OW23989   3.689   1.755   4.808  0.1257  0.4452 -0.2171
 4119SOL    HW123990   3.700   1.812   4.732  1.3027 -0.9812 -1.1174
 4119SOL    HW223991   3.734   1.674   4.784 -0.5238 -0.3959  1.4352
 4120SOL     OW23992   3.130   2.650   4.112 -0.1644  0.2826  0.2759
 4120SOL    HW123993   3.102   2.738   4.087 -0.6903 -0.7704 -2.7842
 4120SOL    HW223994   3.156   2.662   4.204  3.9632 -1.5444 -0.6197
 4121SOL     OW23995   2.229   4.248   4.800 -0.5076  0.1432 -0.1310
 4121SOL    HW123996   2.321   4.272   4.794 -0.4078 -0.3651 -0.6232
 4121SOL    HW223997   2.182   4.328   4.826 -0.7565  0.1858 -0.7139
 4122SOL     OW23998   4.707   1.942   6.904  0.2551 -0.0619 -0.2891
 4122SOL    HW123999   4.649   1.989   6.843  1.4713  0.6051 -0.9388
 4122SOL    HW224000   0.039   2.004   6.932 -0.3364 -0.3467  1.7669
 4123SOL     OW24001   3.877   1.576   4.683 -0.0202 -0.0769  0.3797
 4123SOL    HW124002   3.898   1.530   4.602 -0.6678 -0.9943  0.7254
 4123SOL    HW224003   3.901   1.667   4.667 -3.6410  1.0184  1.0811
 4124SOL     OW24004   0.962   1.776   3.604 -1.1274  0.0443  0.3170
 4124SOL    HW124005   1.013   1.833   3.662  0.3339  2.2650 -3.1327
 4124SOL    HW224006   0.955   1.839   3.532 -0.0611  2.2831  2.1829
 4125SOL     OW24007   0.214   2.934   8.688  0.4088  0.0629  0.0412
 4125SOL    HW124008   0.273   2.863   8.714  1.2811  1.3043  1.3619
 4125SOL    HW224009   0.195   2.966   8.775 -2.3008 -1.1541 -0.0829
 4126SOL     OW24010   3.200   1.444   3.214 -0.3518  0.2607  0.0062
 4126SOL    HW124011   3.180   1.412   3.127  1.8707 -0.7560 -0.1284
 4126SOL    HW224012   3.125   1.411   3.264 -1.1929  1.9214 -0.1697
 4127SOL     OW24013   0.058   0.038   5.459 -0.0551 -0.6423 -0.3583
 4127SOL    HW124014   0.148   0.026   5.429  0.4115  1.3414  0.2032
 4127SOL    HW224015   0.060   0.132   5.477  2.1560 -1.1424  1.9787
 4128SOL     OW24016   1.135   2.220   6.963 -0.4812 -0.8892 -0.5688
 4128SOL    HW124017   1.206   2.227   6.899  0.9230  0.4137  1.1289
 4128SOL    HW224018   1.175   2.159   7.025  0.3675  1.7566  1.4813
 4129SOL     OW24019   0.487   0.267   4.173 -0.2980  0.7004 -0.5695
 4129SOL    HW124020   0.528   0.277   4.087  3.5443 -0.7073  1.1005
 4129SOL    HW224021   0.527   0.192   4.219  0.1975  0.9757 -0.5570
 4130SOL     OW24022   1.155   0.292   4.296  0.2875 -0.2088  0.8131
 4130SOL    HW124023   1.106   0.355   4.241  2.2416  0.4074 -0.2104
 4130SOL    HW224024   1.209   0.248   4.231 -0.9654  2.3241 -1.9614
 4131SOL     OW24025   3.315   1.924  16.718 -0.8201  0.2980  0.1012
 4131SOL    HW124026   3.405   1.937  16.688  0.0862  0.1796  2.7119
 4131SOL    HW224027   3.270   1.978  16.653 -0.3385 -0.8617 -1.2006
 4132SOL     OW24028   1.918   4.216   6.926 -0.0392  0.3482  0.4954
 4132SOL    HW124029   1.930   4.266   6.845  0.7008  1.3450  1.2306
 4132SOL    HW224030   1.997   4.162   6.929 -0.9159 -0.7918  3.0648
 4133SOL     OW24031   2.217   2.260   6.150 -0.0561 -0.0839 -0.0258
 4133SOL    HW124032   2.125   2.244   6.168  0.1605 -1.8421 -0.4596
 4133SOL    HW224033   2.253   2.177   6.179 -0.5154 -0.7695 -1.3893
 4134SOL     OW24034   3.863   0.002   2.349  0.2091 -0.5321 -0.4774
 4134SOL    HW124035   3.941   0.054   2.367  0.5432 -1.1545 -0.1381
 4134SOL    HW224036   3.864   4.677   2.424  0.0219  0.9286  0.7132
 4135SOL     OW24037   1.488   1.168   3.801 -0.9015 -0.1512  0.7527
 4135SOL    HW124038   1.393   1.161   3.789 -0.1488  1.2380 -6.3317
 4135SOL    HW224039   1.517   1.095   3.746 -2.8744 -1.7556  1.8615
 4136SOL     OW24040   4.243   4.524   1.256  0.0271  0.3555 -0.0088
 4136SOL    HW124041   4.310   4.477   1.207  1.3998  1.0237  1.2110
 4136SOL    HW224042   4.212   4.445   1.299 -0.3313 -0.2425 -1.3623
 4137SOL     OW24043   0.939   4.079   5.665  0.0165  0.1327 -0.4850
 4137SOL    HW124044   1.002   4.039   5.726  1.1175  0.6064 -1.3208
 4137SOL    HW224045   0.993   4.144   5.621 -1.7498  0.8604 -1.5683
 4138SOL     OW24046   1.698   2.760   0.366  0.1170 -0.1486  0.5244
 4138SOL    HW124047   1.790   2.736   0.357  0.2184 -0.0293  1.2260
 4138SOL    HW224048   1.691   2.824   0.295 -1.6717 -0.6347  0.2749
 4139SOL     OW24049   1.449   2.959  16.251  0.8082 -0.2395  0.1559
 4139SOL    HW124050   1.533   2.998  16.226  1.0746 -0.0022  1.4471
 4139SOL    HW224051   1.444   2.980  16.344 -3.4046  4.2758 -1.0828
 4140SOL     OW24052   0.211   3.352   7.247 -0.1593 -0.4142 -0.1744
 4140SOL    HW124053   0.205   3.288   7.318  1.2388 -0.8393 -0.4352
 4140SOL    HW224054   0.271   3.305   7.190 -1.1940  0.3070 -1.8472
 4141SOL     OW24055   1.386   3.761   9.399  0.6128 -0.2554  0.6906
 4141SOL    HW124056   1.435   3.717   9.329  2.7469 -1.1451  2.7369
 4141SOL    HW224057   1.312   3.803   9.354  0.8954 -0.7696 -0.2752
 4142SOL     OW24058   2.000   3.511   7.125  0.3803  0.3509  0.3603
 4142SOL    HW124059   1.963   3.535   7.040 -0.6404  0.5261  0.8586
 4142SOL    HW224060   1.937   3.562   7.177 -0.4685  0.0548 -0.3826
 4143SOL     OW24061   3.964   2.136   7.060 -0.1257 -0.0201 -0.3883
 4143SOL    HW124062   3.894   2.113   7.122  1.6279 -1.8264  0.9288
 4143SOL    HW224063   3.910   2.161   6.984 -2.2245  1.5709  1.6111
 4144SOL     OW24064   1.660   3.438  10.171 -0.1608 -0.2476  0.6805
 4144SOL    HW124065   1.619   3.418  10.256  0.0842 -1.3112  0.5576
 4144SOL    HW224066   1.650   3.349  10.138  1.5403 -0.0757 -0.2697
 4145SOL     OW24067   3.502   2.072   6.224  0.4945  0.4645 -0.3984
 4145SOL    HW124068   3.422   2.048   6.177  0.7705 -0.9830 -0.1186
 4145SOL    HW224069   3.530   1.988   6.260  1.3769 -0.0208 -2.2119
 4146SOL     OW24070   1.988   2.381   8.412  0.2817 -0.2610 -0.0404
 4146SOL    HW124071   1.896   2.375   8.439 -0.1979 -1.1904 -1.8802
 4146SOL    HW224072   1.975   2.353   8.321  0.3675  1.6129 -0.6397
 4147SOL     OW24073   0.163   2.593  17.276  0.0777 -0.0730 -0.1489
 4147SOL    HW124074   0.088   2.634  17.233  1.4413  0.9721 -1.5340
 4147SOL    HW224075   0.132   2.507  17.306  0.1882  0.5759  1.7836
 4148SOL     OW24076   4.593   1.582  16.934  0.5715  0.2557  0.1718
 4148SOL    HW124077   4.571   1.638  17.008 -3.4328  0.8663 -1.4759
 4148SOL    HW224078   4.609   1.650  16.868 -2.6861 -0.7803 -1.6827
 4149SOL     OW24079   0.587   0.013  13.582  0.4416 -0.3768 -0.2616
 4149SOL    HW124080   0.561   4.714  13.496 -2.0348 -1.2860  0.8348
 4149SOL    HW224081   0.621   4.663  13.612  1.9289  0.0882 -0.6488
 4150SOL     OW24082   3.216   4.243   6.521 -0.5342  0.2520 -0.0500
 4150SOL    HW124083   3.275   4.186   6.472 -1.9351 -1.1661 -0.0759
 4150SOL    HW224084   3.137   4.191   6.513 -0.6260  0.6839 -1.9163
 4151SOL     OW24085   3.842   1.021   6.900  0.5459 -0.0660 -0.3170
 4151SOL    HW124086   3.816   1.082   6.969 -0.8211 -2.2846  1.0952
 4151SOL    HW224087   3.757   0.986   6.874  0.5291 -1.0170  1.0482
 4152SOL     OW24088   2.985   4.487   4.830 -0.0831 -0.0545  0.6509
 4152SOL    HW124089   3.002   4.428   4.903 -0.1128 -1.4268 -0.4428
 4152SOL    HW224090   3.071   4.530   4.829 -0.9879  1.7540  0.8729
 4153SOL     OW24091   1.643   1.331   8.234 -0.1971  0.2887  0.4330
 4153SOL    HW124092   1.688   1.344   8.151 -0.3671  1.6480  0.5553
 4153SOL    HW224093   1.631   1.420   8.266  1.1548  0.1309  1.3615
 4154SOL     OW24094   0.649   4.229   5.497 -0.2522  0.1024  0.0702
 4154SOL    HW124095   0.716   4.277   5.547 -0.1545 -1.9120  1.8459
 4154SOL    HW224096   0.582   4.298   5.494 -1.4287 -1.0903 -0.6473
 4155SOL     OW24097   2.861   3.835   5.350 -0.4314  0.4422  0.4193
 4155SOL    HW124098   2.945   3.815   5.309 -1.3894 -0.1480 -1.2705
 4155SOL    HW224099   2.800   3.811   5.280  1.5546 -3.5585  0.0334
 4156SOL     OW24100   4.452   0.241   3.924  0.6344 -0.4038  0.3061
 4156SOL    HW124101   4.512   0.308   3.891 -1.1398  1.7187  1.3850
 4156SOL    HW224102   4.510   0.166   3.932 -0.3874 -1.0038  1.9993
 4157SOL     OW24103   0.072   4.184   1.245 -0.0060 -0.6464 -0.7860
 4157SOL    HW124104   0.107   4.100   1.274 -1.9446 -1.1411  0.0811
 4157SOL    HW224105   0.153   4.226   1.216  0.3866 -0.8261  0.0632
 4158SOL     OW24106   2.516   0.487   9.343 -0.0323 -0.0569 -0.2990
 4158SOL    HW124107   2.493   0.401   9.376  2.5956 -0.7797 -0.3424
 4158SOL    HW224108   2.539   0.457   9.255 -2.4043  0.4186 -1.0921
 4159SOL     OW24109   1.209   1.699  16.685  0.2353 -0.4073 -0.1152
 4159SOL    HW124110   1.209   1.737  16.597  1.1004 -0.7578 -0.2712
 4159SOL    HW224111   1.188   1.780  16.732 -3.0424  0.5029 -3.1204
 4160SOL     OW24112   1.398   0.746   9.878  0.5919 -0.4974  0.0667
 4160SOL    HW124113   1.438   0.818   9.927 -0.4466  1.2417 -1.6251
 4160SOL    HW224114   1.362   0.799   9.807 -1.0312  1.5150  2.3970
 4161SOL     OW24115   1.306   0.548   9.390  0.4726  0.7734  0.2271
 4161SOL    HW124116   1.351   0.632   9.401  2.2364 -0.2425  0.8344
 4161SOL    HW224117   1.220   0.588   9.380 -0.5281 -0.9637  1.6800
 4162SOL     OW24118   4.282   4.695   4.736  0.1596  0.2768 -0.5164
 4162SOL    HW124119   4.231   0.032   4.774 -1.2276 -0.5269 -0.8549
 4162SOL    HW224120   4.364   4.705   4.784 -1.3839  2.1086  1.7617
 4163SOL     OW24121   2.544   4.218   7.314 -0.1239  0.2158 -0.0084
 4163SOL    HW124122   2.632   4.232   7.348 -0.0278 -1.3454  0.3771
 4163SOL    HW224123   2.547   4.125   7.293  0.4450 -0.2084  1.9902
 4164SOL     OW24124   0.730   1.569   7.075  0.2838  0.3035  0.2311
 4164SOL    HW124125   0.716   1.594   6.984 -1.4236  1.2937  0.7642
 4164SOL    HW224126   0.728   1.657   7.113 -0.0063  0.4934 -0.2128
 4165SOL     OW24127   0.072   3.498   1.709 -0.5822 -0.0280 -0.0699
 4165SOL    HW124128   0.073   3.408   1.677 -0.9928  0.1174 -0.5035
 4165SOL    HW224129   0.157   3.509   1.751 -0.1056 -0.2015 -0.9794
 4166SOL     OW24130   1.319   3.403   5.723  0.4703  0.4337 -0.4515
 4166SOL    HW124131   1.332   3.343   5.796  0.0951  1.3781  0.3869
 4166SOL    HW224132   1.243   3.437   5.769  0.7705 -0.2968  0.5727
 4167SOL     OW24133   4.086   2.180   5.897 -0.1018  0.0029 -0.1693
 4167SOL    HW124134   4.038   2.109   5.854  1.3301 -0.1928 -1.4412
 4167SOL    HW224135   4.053   2.191   5.986 -1.1331  2.2066 -0.8072
 4168SOL     OW24136   3.988   3.124   8.544  0.2620 -0.0198 -0.3826
 4168SOL    HW124137   3.901   3.091   8.522  1.0664 -3.1315  1.1639
 4168SOL    HW224138   4.018   3.151   8.457  2.6736 -2.3339 -0.2377
 4169SOL     OW24139   0.748   3.806   0.158 -0.5391 -0.0163 -0.4086
 4169SOL    HW124140   0.671   3.752   0.179 -0.7463  0.7337  0.7071
 4169SOL    HW224141   0.798   3.785   0.236 -0.8912  1.5952  0.2392
 4170SOL     OW24142   1.728   0.089  13.425 -0.5436 -0.0425 -0.1179
 4170SOL    HW124143   1.799   0.088  13.490  0.5119  0.0952 -1.2840
 4170SOL    HW224144   1.783   0.107  13.349  1.1810  1.0613  1.3703
 4171SOL     OW24145   2.969   4.658   8.985  0.1459 -0.2531 -0.6819
 4171SOL    HW124146   2.922   4.623   9.060 -3.3689  3.1901 -1.3133
 4171SOL    HW224147   3.026   4.589   8.952  0.5559 -0.6517  0.8957
 4172SOL     OW24148   1.285   0.618   8.708 -0.4511  0.2298 -0.7607
 4172SOL    HW124149   1.225   0.544   8.718  0.1683 -0.2597 -0.6885
 4172SOL    HW224150   1.362   0.563   8.694 -1.9575 -2.1009  0.1017
 4173SOL     OW24151   1.631   2.268   3.536 -0.8240 -0.5864  0.1526
 4173SOL    HW124152   1.662   2.324   3.465 -1.5810 -0.4820 -0.0991
 4173SOL    HW224153   1.655   2.181   3.502 -1.3419 -0.4628 -0.5268
 4174SOL     OW24154   0.236   1.805   6.231  0.1853  0.7861 -0.3636
 4174SOL    HW124155   0.317   1.853   6.214  0.1505  1.1000  0.3466
 4174SOL    HW224156   0.251   1.748   6.307 -0.4113 -2.8655 -2.9873
 4175SOL     OW24157   2.535   2.034   6.653  0.5266  0.3476 -0.2001
 4175SOL    HW124158   2.445   2.012   6.629  0.4354  2.0848 -1.4698
 4175SOL    HW224159   2.579   1.954   6.626 -1.3471 -0.4840 -0.8256
 4176SOL     OW24160   3.762   1.782  12.815  0.2294  0.3509  0.1285
 4176SOL    HW124161   3.817   1.723  12.867  1.1899 -0.2668 -1.6105
 4176SOL    HW224162   3.799   1.778  12.727  0.2651 -0.0104  0.1580
 4177SOL     OW24163   0.625   3.167  11.876 -0.0228 -0.0178  0.2077
 4177SOL    HW124164   0.634   3.096  11.941 -0.6267  1.0864  1.4956
 4177SOL    HW224165   0.633   3.240  11.938 -1.2663 -0.3032  0.7153
 4178SOL     OW24166   3.758   1.400   0.441 -0.1050  0.3907  0.0783
 4178SOL    HW124167   3.725   1.312   0.461  1.0437  0.0533  0.5466
 4178SOL    HW224168   3.722   1.414   0.354 -0.7324 -0.7925  0.1402
 4179SOL     OW24169   3.983   2.557   1.368 -0.1936 -0.4718  0.1055
 4179SOL    HW124170   3.893   2.569   1.338 -1.0440 -0.6835  2.5835
 4179SOL    HW224171   4.016   2.522   1.285  2.5950  2.6732 -0.0965
 4180SOL     OW24172   3.484   2.099   9.572 -0.0664 -1.0226  0.2598
 4180SOL    HW124173   3.395   2.074   9.547  0.2692 -1.9175 -0.0462
 4180SOL    HW224174   3.514   2.138   9.490 -0.0021  0.4400  0.9744
 4181SOL     OW24175   3.053   4.399   6.965 -0.1423  0.0987  0.0554
 4181SOL    HW124176   2.994   4.339   6.919  0.4673 -0.5054  0.0625
 4181SOL    HW224177   3.038   4.374   7.056  1.6984 -1.4417 -0.0804
 4182SOL     OW24178   2.438   0.995   8.393  0.2873  0.0586 -0.4341
 4182SOL    HW124179   2.480   0.947   8.322  0.2124 -1.2996  0.4308
 4182SOL    HW224180   2.351   1.006   8.356 -0.0549 -0.1651  0.3049
 4183SOL     OW24181   3.812   2.078   4.698 -0.1707  0.0554 -0.4485
 4183SOL    HW124182   3.818   2.147   4.632 -1.8788  0.6720  0.0443
 4183SOL    HW224183   3.895   2.100   4.738  0.4962 -3.1078 -0.0861
 4184SOL     OW24184   4.643   3.223   5.655 -0.8971  0.4363 -0.8521
 4184SOL    HW124185   4.581   3.294   5.637 -0.2767  1.2268  0.1456
 4184SOL    HW224186   4.725   3.267   5.633  0.8838 -1.1433  2.5776
 4185SOL     OW24187   2.655   4.174   0.815 -0.3050 -0.4532  0.1586
 4185SOL    HW124188   2.568   4.194   0.849 -0.1668  0.0089  0.2340
 4185SOL    HW224189   2.722   4.182   0.883 -0.0179 -0.1072 -0.1619
 4186SOL     OW24190   1.741   1.764   8.918  0.2094 -0.5405  0.0031
 4186SOL    HW124191   1.739   1.804   8.831 -0.0041 -0.3136  0.1136
 4186SOL    HW224192   1.653   1.728   8.923  0.1259 -0.2124  0.8291
 4187SOL     OW24193   3.402   3.004   4.441 -0.1709  0.4874 -0.4018
 4187SOL    HW124194   3.449   2.952   4.376  0.7961  0.6493  0.1591
 4187SOL    HW224195   3.312   2.975   4.426  0.6631 -2.8416  0.9747
 4188SOL     OW24196   4.573   3.234  11.687  0.1419  0.3540  0.2437
 4188SOL    HW124197   4.645   3.178  11.716 -0.2699 -0.3394 -0.0611
 4188SOL    HW224198   4.580   3.295  11.760  0.4041 -0.1230  0.6123
 4189SOL     OW24199   4.590   0.277  10.760  0.0019 -0.0345  0.0487
 4189SOL    HW124200   4.654   0.227  10.811 -0.6090  0.0980  0.9354
 4189SOL    HW224201   4.545   0.212  10.706  2.6024 -2.7562  1.1727
 4190SOL     OW24202   0.445   1.637  12.960  0.5689  0.3491  0.0440
 4190SOL    HW124203   0.408   1.655  13.046  0.6714  0.5856  0.0396
 4190SOL    HW224204   0.455   1.725  12.923  3.3709  0.4500  1.0393
 4191SOL     OW24205   4.363   1.848   7.469 -0.3323  0.3710  0.1345
 4191SOL    HW124206   4.330   1.772   7.516  1.2391 -0.9580 -0.9079
 4191SOL    HW224207   4.316   1.918   7.515  2.0874  1.4593  0.9505
 4192SOL     OW24208   3.531   4.028   5.971 -0.3250 -0.3246 -0.1782
 4192SOL    HW124209   3.458   4.009   5.912 -1.1118 -2.5772  1.4902
 4192SOL    HW224210   3.608   4.015   5.915  0.7910 -0.1695  1.3224
 4193SOL     OW24211   0.289   0.095   6.419 -0.0136 -0.1167 -0.3681
 4193SOL    HW124212   0.298   0.170   6.361 -2.9027  0.1376 -0.5153
 4193SOL    HW224213   0.286   0.126   6.510  1.0336  0.4877 -0.5395
 4194SOL     OW24214   3.031   0.626   6.926  0.3432 -0.4887 -0.1955
 4194SOL    HW124215   3.101   0.561   6.940  1.1441 -0.1413 -2.5505
 4194SOL    HW224216   3.074   0.710   6.943  0.8234 -1.2112  2.0829
 4195SOL     OW24217   3.219   2.163   4.605  0.6012  0.1429 -0.3182
 4195SOL    HW124218   3.262   2.247   4.590  1.8329 -0.8263 -2.1885
 4195SOL    HW224219   3.172   2.180   4.687 -1.0441 -1.1634 -0.9854
 4196SOL     OW24220   3.338   3.720   7.637  0.1894 -0.2930 -0.0125
 4196SOL    HW124221   3.399   3.655   7.673  2.3143  1.3305 -0.6713
 4196SOL    HW224222   3.396   3.794   7.618  0.4875 -0.0942  1.7117
 4197SOL     OW24223   4.419   1.785   9.678  0.1379  0.0605  0.0911
 4197SOL    HW124224   4.370   1.718   9.630 -0.0558  0.0948  0.2409
 4197SOL    HW224225   4.366   1.862   9.661  2.4870  1.4589 -0.8111
 4198SOL     OW24226   1.330   3.614   4.662  0.6142 -0.5545 -0.2947
 4198SOL    HW124227   1.251   3.627   4.714 -0.6802  0.5056 -2.5655
 4198SOL    HW224228   1.342   3.693   4.610  0.5021 -1.1048 -1.1549
 4199SOL     OW24229   0.594   1.570   8.478  0.1158 -0.1032  0.1814
 4199SOL    HW124230   0.593   1.621   8.559 -4.3504 -0.8707  0.5988
 4199SOL    HW224231   0.542   1.496   8.507 -1.7762  0.2565 -2.2977
 4200SOL     OW24232   4.551   3.961   8.183  0.0038 -0.4787  0.4543
 4200SOL    HW124233   4.514   3.874   8.194  2.3950 -1.3519  1.5001
 4200SOL    HW224234   4.543   3.967   8.087 -1.2635 -0.2551  0.5744
 4201SOL     OW24235   2.881   2.432   6.550  0.0212 -0.2872  0.3022
 4201SOL    HW124236   2.809   2.373   6.571 -1.3638  1.3347  0.0415
 4201SOL    HW224237   2.963   2.384   6.566  1.6048  2.4645  0.4330
 4202SOL     OW24238   1.843   4.052   3.330 -0.1674 -0.3204 -0.7200
 4202SOL    HW124239   1.788   3.985   3.292  0.5463 -1.1878 -0.2172
 4202SOL    HW224240   1.889   3.996   3.392  1.5059  1.6509 -0.1637
 4203SOL     OW24241   4.070   0.810  15.142 -0.4208 -0.1112  0.3420
 4203SOL    HW124242   4.126   0.887  15.152  0.9064 -0.8580 -1.3780
 4203SOL    HW224243   4.019   0.821  15.223 -1.6723  1.4510 -0.6777
 4204SOL     OW24244   2.484   2.960   8.831 -0.1573 -0.4092  0.2409
 4204SOL    HW124245   2.455   2.888   8.774 -0.9975 -0.8141  1.1784
 4204SOL    HW224246   2.496   2.911   8.912  0.2120  2.0597  1.6725
 4205SOL     OW24247   2.049   2.529   6.295 -0.2229  0.6322  0.4637
 4205SOL    HW124248   2.035   2.435   6.299  1.7784  0.3153  0.1750
 4205SOL    HW224249   2.025   2.544   6.203 -2.0155 -4.2486  0.1252
 4206SOL     OW24250   2.372   1.088   7.106  0.3928  0.2763  1.2950
 4206SOL    HW124251   2.440   1.105   7.040  0.1892  1.3880  1.3612
 4206SOL    HW224252   2.421   1.103   7.187  1.6307  1.3013  0.3624
 4207SOL     OW24253   4.062   0.504  16.411 -0.2231  0.0959  0.1362
 4207SOL    HW124254   4.037   0.553  16.333  2.5006  1.3006  0.0048
 4207SOL    HW224255   4.038   0.560  16.485  1.1918 -0.9565  1.4148
 4208SOL     OW24256   2.455   0.619   3.678 -0.0170 -1.3138  0.2897
 4208SOL    HW124257   2.452   0.536   3.631 -0.2886 -1.1588  0.0342
 4208SOL    HW224258   2.393   0.664   3.621  1.1540  0.3197  0.3024
 4209SOL     OW24259   4.002   3.876   9.181 -0.1732  0.0925  0.4636
 4209SOL    HW124260   3.939   3.841   9.118 -0.1070  0.8755 -0.0367
 4209SOL    HW224261   3.964   3.960   9.206 -1.4778 -0.3699  0.0550
 4210SOL     OW24262   2.386   1.845   9.123 -0.2121  0.0351 -0.1938
 4210SOL    HW124263   2.324   1.798   9.068 -0.6372 -0.4106  0.6524
 4210SOL    HW224264   2.343   1.825   9.206  0.2484  0.2465  0.0987
 4211SOL     OW24265   4.228   1.837   9.354 -0.3939 -0.3588 -0.1119
 4211SOL    HW124266   4.236   1.760   9.410  2.7839  1.0330  1.3263
 4211SOL    HW224267   4.210   1.903   9.422 -1.1063 -0.6461 -0.0186
 4212SOL     OW24268   3.159   2.934  15.849  0.4032 -0.3207 -0.0526
 4212SOL    HW124269   3.187   2.845  15.827 -1.1617 -1.6521  3.2428
 4212SOL    HW224270   3.194   2.937  15.939  0.4632  1.0951 -0.1222
 4213SOL     OW24271   1.256   3.528   0.355  0.2251 -1.1936 -1.1823
 4213SOL    HW124272   1.247   3.486   0.441 -0.8887  2.1008  0.2912
 4213SOL    HW224273   1.299   3.606   0.390 -1.5177  0.1519 -2.0075
 4214SOL     OW24274   2.020   0.803   9.862 -0.4897 -0.0372 -0.6053
 4214SOL    HW124275   1.981   0.823   9.947  3.5438 -1.2090  1.4954
 4214SOL    HW224276   2.111   0.825   9.881 -0.7135  0.9324 -0.6527
 4215SOL     OW24277   4.137   4.733  10.234 -0.2369  0.9063 -0.0065
 4215SOL    HW124278   4.129   0.073  10.176 -0.4453  2.0819  1.5645
 4215SOL    HW224279   4.069   0.010  10.300 -0.2777  0.4768  0.0285
 4216SOL     OW24280   0.635   3.614   3.895 -0.7077  0.4577 -0.5015
 4216SOL    HW124281   0.599   3.630   3.983 -0.6167  0.0259 -0.3837
 4216SOL    HW224282   0.679   3.698   3.886  0.7488 -0.3456 -0.8257
 4217SOL     OW24283   3.779   0.822  14.998 -0.0525 -0.4417  0.1510
 4217SOL    HW124284   3.700   0.874  15.015  1.1329  1.7593 -1.1242
 4217SOL    HW224285   3.842   0.893  14.983 -2.5303  1.6978 -0.2383
 4218SOL     OW24286   4.485   1.655   6.824  0.5639 -0.4011  0.1684
 4218SOL    HW124287   4.516   1.676   6.736 -0.6033  1.4179  0.1941
 4218SOL    HW224288   4.426   1.583   6.801 -0.3023 -0.2137  1.8261
 4219SOL     OW24289   1.894   0.544  17.511  0.1866  0.2891 -0.0511
 4219SOL    HW124290   1.930   0.480  17.572 -1.5713 -1.1437 -0.5325
 4219SOL    HW224291   1.816   0.572  17.558 -0.2107 -0.5859 -0.1907
 4220SOL     OW24292   4.368   1.217   7.281  0.2836  0.1710  0.3346
 4220SOL    HW124293   4.401   1.188   7.367  0.0700  1.7651  0.9586
 4220SOL    HW224294   4.399   1.308   7.280  1.7934 -0.3407 -0.9254
 4221SOL     OW24295   0.108   4.289   7.929  0.0937  0.1788  0.2894
 4221SOL    HW124296   0.108   4.348   7.853 -2.0109  1.0615  0.9864
 4221SOL    HW224297   0.187   4.315   7.975 -1.5747  2.0862  2.0527
 4222SOL     OW24298   2.848   3.311  15.775  0.3121 -0.0528 -0.8344
 4222SOL    HW124299   2.809   3.305  15.862 -0.2816  2.2462 -0.9410
 4222SOL    HW224300   2.879   3.401  15.771  0.5542  0.0561  4.0853
 4223SOL     OW24301   1.986   4.542  10.499  0.2137 -0.2860 -0.6520
 4223SOL    HW124302   1.956   4.627  10.532  0.3612 -0.6716  0.4718
 4223SOL    HW224303   1.976   4.560  10.405 -0.6266  0.8025 -0.3521
 4224SOL     OW24304   2.874   2.088   9.084  0.4444 -0.6071  0.5374
 4224SOL    HW124305   2.947   2.045   9.040  1.6483  2.5832 -0.5334
 4224SOL    HW224306   2.825   2.012   9.116  0.0858 -1.0436 -1.0526
 4225SOL     OW24307   2.088   1.601   3.001  0.1810 -0.1392 -0.3979
 4225SOL    HW124308   2.116   1.634   3.086 -1.7264  0.2260  0.0753
 4225SOL    HW224309   1.994   1.605   3.014  0.0555  2.0503 -2.0010
 4226SOL     OW24310   0.253   3.757   3.866 -0.0777 -0.0180 -0.6934
 4226SOL    HW124311   0.291   3.686   3.813  1.1489 -0.2934  0.5284
 4226SOL    HW224312   0.206   3.805   3.799 -1.5398  0.2908  0.5664
 4227SOL     OW24313   4.389   3.554   2.041 -0.4524  0.0431  0.2797
 4227SOL    HW124314   4.393   3.638   2.088 -1.0967 -0.3512  1.0440
 4227SOL    HW224315   4.418   3.582   1.954 -0.5983  0.7466  0.4502
 4228SOL     OW24316   4.315   0.590  16.700 -0.0907 -1.2053 -0.2967
 4228SOL    HW124317   4.311   0.656  16.770 -1.0648 -1.0272 -0.5163
 4228SOL    HW224318   4.231   0.613  16.660  1.9123  0.9110 -3.2871
 4229SOL     OW24319   4.057   1.047   3.226  0.6455  0.0270  1.0579
 4229SOL    HW124320   4.060   0.954   3.205 -0.3010 -0.2299  2.0724
 4229SOL    HW224321   3.986   1.051   3.290 -0.0408  0.1045  0.2875
 4230SOL     OW24322   2.000   1.269   6.084  0.2050  0.7084 -0.4519
 4230SOL    HW124323   1.973   1.275   5.992  1.2469 -0.0719 -0.8144
 4230SOL    HW224324   2.069   1.336   6.085  2.5942 -1.7533  0.0578
 4231SOL     OW24325   2.211   3.823   0.763 -0.2676  0.0093  0.3537
 4231SOL    HW124326   2.214   3.918   0.752 -0.6367 -0.2318 -1.8665
 4231SOL    HW224327   2.207   3.799   0.671 -2.0100  0.2940  0.3634
 4232SOL     OW24328   0.721   2.258   5.143  0.1701  0.1637 -0.2522
 4232SOL    HW124329   0.714   2.187   5.206 -2.2965  0.0070 -0.7218
 4232SOL    HW224330   0.628   2.279   5.145  0.0790 -0.4194  2.5665
 4233SOL     OW24331   0.456   3.171   4.296 -0.5452  0.5337 -0.3302
 4233SOL    HW124332   0.419   3.127   4.219 -1.9290 -2.5325  2.0958
 4233SOL    HW224333   0.505   3.095   4.326 -0.6336  1.0868  1.1895
 4234SOL     OW24334   4.426   0.422   7.599 -0.3597 -0.0311 -0.2724
 4234SOL    HW124335   4.488   0.464   7.659 -1.1306 -0.7270  1.0272
 4234SOL    HW224336   4.385   0.350   7.648  1.1349 -1.3334 -0.9193
 4235SOL     OW24337   3.671   0.387   7.262 -0.1257 -0.2346  0.1760
 4235SOL    HW124338   3.670   0.300   7.221 -1.4544 -0.4726  0.7183
 4235SOL    HW224339   3.646   0.363   7.351  1.2464  1.7225  1.0958
 4236SOL     OW24340   4.517   1.166   7.713  0.5624 -0.4850  0.0834
 4236SOL    HW124341   4.483   1.100   7.774  0.5005  2.6772  3.4871
 4236SOL    HW224342   4.575   1.112   7.659 -0.4314 -1.3210 -0.1430
 4237SOL     OW24343   3.900   3.887  13.880 -0.1616  0.5410  0.1454
 4237SOL    HW124344   3.910   3.906  13.973  0.4612 -1.6878  0.5415
 4237SOL    HW224345   3.809   3.912  13.870 -0.1107 -0.4175 -2.8733
 4238SOL     OW24346   2.991   2.900   9.116  0.0602 -0.2792  0.1252
 4238SOL    HW124347   3.013   2.829   9.056  0.5760  1.3512 -1.6275
 4238SOL    HW224348   2.935   2.955   9.062  0.7372 -0.4446 -0.7538
 4239SOL     OW24349   0.507   1.952   7.355  0.3472 -0.0904  0.2378
 4239SOL    HW124350   0.535   2.039   7.385  0.7321  0.0501 -0.5424
 4239SOL    HW224351   0.474   1.916   7.437 -0.2563 -0.3044 -0.0964
 4240SOL     OW24352   4.537   2.504  13.605  0.4566 -0.5885  0.1801
 4240SOL    HW124353   4.622   2.545  13.620  0.1321  0.3035 -0.3878
 4240SOL    HW224354   4.502   2.498  13.694  0.5188 -2.1666  0.0981
 4241SOL     OW24355   2.626   4.514   0.269 -0.1324 -0.0307 -0.5656
 4241SOL    HW124356   2.702   4.481   0.222  0.9656  0.8450  0.5722
 4241SOL    HW224357   2.578   4.558   0.199  1.2125 -0.5819 -1.8220
 4242SOL     OW24358   4.393   3.223  14.324  0.4143  0.0691  0.9505
 4242SOL    HW124359   4.303   3.193  14.328  0.4800 -0.2598 -0.0194
 4242SOL    HW224360   4.398   3.248  14.232 -3.8569  1.7267  1.1913
 4243SOL     OW24361   2.828   3.783   6.934 -0.3733 -0.5324 -0.1409
 4243SOL    HW124362   2.784   3.700   6.915 -2.5852  0.5064  0.3934
 4243SOL    HW224363   2.875   3.783   6.850  1.6163  0.9443  0.9620
 4244SOL     OW24364   2.202   4.179   7.448  0.5362  0.1190 -0.4750
 4244SOL    HW124365   2.156   4.257   7.417 -1.8995 -1.4746 -0.8859
 4244SOL    HW224366   2.243   4.205   7.531  0.7736 -0.3263 -0.4569
 4245SOL     OW24367   2.857   2.546   7.767  0.2323 -0.6386  0.0152
 4245SOL    HW124368   2.893   2.467   7.726  2.9471  1.1937 -1.1449
 4245SOL    HW224369   2.880   2.535   7.860 -1.0000  1.7908  0.6192
 4246SOL     OW24370   1.237   2.692   7.898  0.6141  0.6675 -0.3303
 4246SOL    HW124371   1.161   2.635   7.882 -0.6629  3.0534 -2.7615
 4246SOL    HW224372   1.197   2.778   7.911 -0.2962  0.1228  0.4683
 4247SOL     OW24373   3.879   1.864   2.388 -0.2469  0.0375  0.3274
 4247SOL    HW124374   3.812   1.932   2.393  0.6010  0.8483  0.9245
 4247SOL    HW224375   3.872   1.807   2.464 -0.6504 -0.7345 -0.2931
 4248SOL     OW24376   0.036   1.698   8.673 -0.5518  0.3418  0.0647
 4248SOL    HW124377   0.111   1.639   8.677 -1.1924 -0.3323  1.8930
 4248SOL    HW224378   0.057   1.754   8.598  1.7231 -1.2505 -0.4910
 4249SOL     OW24379   0.647   3.431   4.908 -0.0639  0.0628 -0.1174
 4249SOL    HW124380   0.593   3.361   4.945 -0.7067  0.0166 -1.1181
 4249SOL    HW224381   0.588   3.461   4.839 -0.5137 -0.4541  0.0368
 4250SOL     OW24382   4.334   1.156   6.812  0.0750  0.1112  0.2768
 4250SOL    HW124383   4.331   1.144   6.907  0.1890  1.3126  0.4303
 4250SOL    HW224384   4.246   1.128   6.785  0.3118 -1.8637  1.6012
 4251SOL     OW24385   2.184   1.269   8.813 -0.0039  0.0429 -0.3828
 4251SOL    HW124386   2.184   1.216   8.893  0.4315 -0.1873 -0.5321
 4251SOL    HW224387   2.249   1.336   8.836  1.0213 -1.6612  1.6980
 4252SOL     OW24388   1.369   3.981   6.418 -0.2381 -0.0940 -0.1008
 4252SOL    HW124389   1.312   4.056   6.401  2.0321  1.4640 -0.9045
 4252SOL    HW224390   1.328   3.943   6.495  0.7271 -2.2559 -0.6390
 4253SOL     OW24391   3.851   3.907   2.976  0.2245 -0.2734 -0.2131
 4253SOL    HW124392   3.865   3.828   3.027 -0.0851 -0.8929 -1.0819
 4253SOL    HW224393   3.944   3.930   2.972 -0.4077  2.3090  0.1140
 4254SOL     OW24394   4.381   1.895   3.509  0.1029  0.2549 -0.3775
 4254SOL    HW124395   4.351   1.812   3.546 -2.1657  0.8185 -0.9314
 4254SOL    HW224396   4.305   1.948   3.530  1.8275  2.1858  1.0194
 4255SOL     OW24397   1.935   1.435  10.794 -0.2463 -0.0715 -0.1464
 4255SOL    HW124398   1.991   1.424  10.871  1.2495  1.4008 -1.0104
 4255SOL    HW224399   1.869   1.489  10.837  1.4088  1.4218  0.5181
 4256SOL     OW24400   4.480   3.610   3.669  0.2840  0.0383  0.4134
 4256SOL    HW124401   4.473   3.518   3.645  1.8730 -0.0543  0.3058
 4256SOL    HW224402   4.467   3.661   3.589 -3.4074 -2.5676 -0.6209
 4257SOL     OW24403   2.901   0.764   0.620  0.0754 -0.1402  0.4110
 4257SOL    HW124404   2.898   0.826   0.547 -1.0683 -1.0562 -0.3038
 4257SOL    HW224405   2.820   0.715   0.607  0.3481 -0.1998 -1.0414
 4258SOL     OW24406   3.892   3.417   4.872 -0.5864 -0.3441  0.0009
 4258SOL    HW124407   3.879   3.498   4.822  2.7752 -0.0572 -0.3725
 4258SOL    HW224408   3.870   3.350   4.808 -0.3909 -0.6654  0.2725
 4259SOL     OW24409   4.129   0.912  16.366  0.3766  0.0166  0.9785
 4259SOL    HW124410   4.157   0.994  16.326 -1.0992 -0.4942 -1.1270
 4259SOL    HW224411   4.140   0.852  16.292 -2.0380  1.7239 -0.7784
 4260SOL     OW24412   2.321   3.949   5.399  0.8652 -0.0465  0.0038
 4260SOL    HW124413   2.297   4.008   5.328 -0.0346  1.2186  1.3797
 4260SOL    HW224414   2.388   3.897   5.354 -0.4698  0.2186 -2.2875
 4261SOL     OW24415   2.137   0.816   4.533  0.4089  0.0817 -0.0990
 4261SOL    HW124416   2.097   0.777   4.611  0.0256  1.0181  0.1688
 4261SOL    HW224417   2.212   0.841   4.586  1.3853  1.4644 -2.1657
 4262SOL     OW24418   0.008   2.861   7.084  0.0101  0.0190 -0.0802
 4262SOL    HW124419   4.676   2.926   7.065 -0.1753 -0.0296  0.4244
 4262SOL    HW224420   0.074   2.878   7.016  0.3763 -1.5483 -0.1060
 4263SOL     OW24421   3.823   4.120  14.736 -0.0182 -0.2544 -0.3806
 4263SOL    HW124422   3.799   4.157  14.651 -2.2146 -0.7055  0.0439
 4263SOL    HW224423   3.736   4.132  14.774 -0.1246  1.4183 -1.1492
 4264SOL     OW24424   4.277   0.848  16.930 -0.2097  0.4121  0.6950
 4264SOL    HW124425   4.257   0.927  16.980 -0.4240  0.9941 -0.3122
 4264SOL    HW224426   4.372   0.849  16.932 -0.1882  0.1080  0.0420
 4265SOL     OW24427   4.654   2.811   1.348  0.7006 -0.2955  0.1306
 4265SOL    HW124428   4.647   2.721   1.380  1.2552  0.3354  1.9748
 4265SOL    HW224429   4.579   2.851   1.391  1.0756  1.9008 -1.2698
 4266SOL     OW24430   4.425   4.460   0.398 -0.0056 -0.0168  0.0652
 4266SOL    HW124431   4.426   4.397   0.326 -0.3210  0.4119 -0.3125
 4266SOL    HW224432   4.368   4.524   0.356 -0.3719 -1.7619 -2.0528
 4267SOL     OW24433   0.503   1.254  14.118 -0.3902 -0.0444  0.3232
 4267SOL    HW124434   0.465   1.324  14.171 -2.1276 -0.4261 -0.4161
 4267SOL    HW224435   0.448   1.179  14.140  0.2197 -0.9833 -1.3339
 4268SOL     OW24436   4.318   4.390   2.376  0.1539 -0.7326  0.0058
 4268SOL    HW124437   4.255   4.340   2.323 -1.1817  0.6652  0.2753
 4268SOL    HW224438   4.402   4.366   2.336  0.3802  0.5872 -0.3057
 4269SOL     OW24439   3.381   0.781   7.080 -0.5147 -0.1966 -0.3703
 4269SOL    HW124440   3.385   0.695   7.121 -2.3041 -1.0522 -1.9700
 4269SOL    HW224441   3.373   0.841   7.154 -0.8771  1.8570 -2.0665
 4270SOL     OW24442   3.094   3.495   8.324  0.1305 -0.0495 -0.0430
 4270SOL    HW124443   3.030   3.566   8.315  0.3537  0.1180 -0.3122
 4270SOL    HW224444   3.094   3.462   8.414 -1.0922  0.0072 -0.0203
 4271SOL     OW24445   0.202   3.042  11.779  0.1964  0.0999 -0.2092
 4271SOL    HW124446   0.204   2.973  11.845  2.1032 -0.2132 -0.5864
 4271SOL    HW224447   0.139   3.107  11.809 -0.9515 -1.0721 -0.1085
 4272SOL     OW24448   0.795   0.808   5.370 -0.3659 -0.8453 -0.3684
 4272SOL    HW124449   0.816   0.829   5.280  0.0624  1.2678  0.2362
 4272SOL    HW224450   0.754   0.889   5.401 -0.9432 -1.0865 -0.5044
 4273SOL     OW24451   1.271   1.992   4.008 -0.2175  0.8491 -0.0901
 4273SOL    HW124452   1.282   1.999   4.103  0.4999 -0.3776 -0.0829
 4273SOL    HW224453   1.360   1.978   3.975 -0.9605 -0.0898 -1.7183
 4274SOL     OW24454   0.802   3.842   3.733 -0.2460  0.2210 -0.6077
 4274SOL    HW124455   0.891   3.876   3.725  0.2722 -1.0315 -0.1977
 4274SOL    HW224456   0.767   3.883   3.654 -2.9224  1.1347  1.0487
 4275SOL     OW24457   0.295   2.214   3.651 -0.1270 -0.0209 -0.3433
 4275SOL    HW124458   0.261   2.193   3.564 -3.1457  0.3383  0.7598
 4275SOL    HW224459   0.319   2.133   3.696  1.9114  0.9817  0.3925
 4276SOL     OW24460   0.505   3.434  15.204  0.1110  0.1074 -0.2135
 4276SOL    HW124461   0.520   3.516  15.157  0.6797  0.7725  1.1246
 4276SOL    HW224462   0.560   3.365  15.166 -3.9423 -1.2153 -3.6944
 4277SOL     OW24463   4.533   2.229   7.352 -0.1185 -0.1910  0.1675
 4277SOL    HW124464   4.482   2.233   7.433  0.4478  1.4223  0.4537
 4277SOL    HW224465   4.563   2.139   7.365  2.0481  0.5284  0.1962
 4278SOL     OW24466   2.756   2.100   2.345 -0.2635  0.5379  0.1154
 4278SOL    HW124467   2.757   2.028   2.407 -0.4443  0.1551 -0.3307
 4278SOL    HW224468   2.741   2.053   2.263  1.1787  4.1412 -2.2545
 4279SOL     OW24469   0.754   2.441   6.534  0.2473  0.6149 -0.4355
 4279SOL    HW124470   0.690   2.441   6.462 -0.7539  2.0610  0.4622
 4279SOL    HW224471   0.774   2.533   6.549  4.4202 -0.7371  2.2475
 4280SOL     OW24472   3.612   3.981  17.471  0.0185  1.4581  0.3537
 4280SOL    HW124473   3.598   4.076  17.478 -0.2355  1.6040 -1.8767
 4280SOL    HW224474   3.616   3.977  17.375  1.6283 -2.8513  0.5881
 4281SOL     OW24475   4.503   3.995  14.240  0.5972 -0.3500 -0.0611
 4281SOL    HW124476   4.459   3.983  14.324  0.7049 -1.0579 -0.1006
 4281SOL    HW224477   4.428   3.981  14.182  0.7779 -0.0674 -0.3592
 4282SOL     OW24478   4.585   0.539   7.813 -0.7579  0.3902  0.3187
 4282SOL    HW124479   4.638   0.610   7.848 -2.2892 -0.3843  4.1170
 4282SOL    HW224480   4.624   0.465   7.860  1.9006  0.5529 -1.6014
 4283SOL     OW24481   0.253   0.692  13.146 -0.2534 -0.2324  0.6441
 4283SOL    HW124482   0.318   0.741  13.095  2.0101 -1.1968  2.6123
 4283SOL    HW224483   0.181   0.755  13.140  1.9226  2.2469  0.2309
 4284SOL     OW24484   0.942   2.581   4.380  0.1704  0.1826 -0.0547
 4284SOL    HW124485   0.905   2.557   4.465 -0.7533  0.2458 -0.4294
 4284SOL    HW224486   0.890   2.658   4.356 -0.1664  0.2463  0.8853
 4285SOL     OW24487   0.169   0.667  12.032  0.1909  0.2785 -0.2710
 4285SOL    HW124488   0.180   0.572  12.031  0.9991  0.3724 -0.3811
 4285SOL    HW224489   0.074   0.681  12.029 -0.0123 -0.9178  0.6781
 4286SOL     OW24490   2.749   2.994   7.987 -0.6246  0.3466  0.0685
 4286SOL    HW124491   2.730   2.902   7.971 -1.5318  0.5570 -0.0309
 4286SOL    HW224492   2.659   3.027   7.980 -0.5408  0.2540 -1.4676
 4287SOL     OW24493   3.397   1.699   6.848  0.3295 -0.1412 -0.3676
 4287SOL    HW124494   3.477   1.721   6.895  0.3113  0.0608 -0.4335
 4287SOL    HW224495   3.380   1.785   6.812  3.9554  0.2925 -0.9663
 4288SOL     OW24496   4.579   3.771   0.670  0.1633 -0.1192 -0.1252
 4288SOL    HW124497   4.569   3.798   0.761  0.7714 -1.5271  0.3583
 4288SOL    HW224498   4.646   3.706   0.688 -1.5821 -1.2204  2.3528
 4289SOL     OW24499   0.203   0.094   4.558 -0.0040 -0.2216  0.0701
 4289SOL    HW124500   0.168   0.165   4.505 -1.1055 -0.8577 -0.0506
 4289SOL    HW224501   0.283   0.063   4.516 -0.4623 -2.3709  0.7444
 4290SOL     OW24502   0.085   0.809  13.967  0.1842 -0.6589 -0.4305
 4290SOL    HW124503   0.105   0.902  13.969  1.4774 -0.9283 -0.5205
 4290SOL    HW224504   0.169   0.773  13.997 -0.7414 -1.9231  0.6684
 4291SOL     OW24505   2.515   3.196   1.410  0.0049  0.3960 -0.0389
 4291SOL    HW124506   2.438   3.164   1.457  0.5747 -0.7686  0.1022
 4291SOL    HW224507   2.581   3.145   1.457 -0.4046 -1.4329 -1.4672
 4292SOL     OW24508   1.311   1.697   2.181 -0.1668 -0.4431  0.7833
 4292SOL    HW124509   1.340   1.657   2.099  1.1732 -0.9742  1.5144
 4292SOL    HW224510   1.354   1.640   2.245  0.9716 -0.8725 -0.3863
 4293SOL     OW24511   2.434   4.637   7.478  0.4202 -0.0674  0.6006
 4293SOL    HW124512   2.394   4.582   7.411  0.6900 -0.0940  0.4606
 4293SOL    HW224513   2.362   4.662   7.536 -0.5307 -1.3618 -0.0367
 4294SOL     OW24514   0.491   0.727   3.062  0.2547  0.1980 -0.0901
 4294SOL    HW124515   0.512   0.805   3.113  2.0060  0.6804 -1.5375
 4294SOL    HW224516   0.575   0.711   3.019  0.0520  1.2735 -0.8855
 4295SOL     OW24517   1.480   4.087   4.638 -0.3569 -0.2096 -0.0361
 4295SOL    HW124518   1.490   4.139   4.717  2.0296 -0.4316 -0.1833
 4295SOL    HW224519   1.424   4.015   4.667  0.7962 -1.0821  0.0621
 4296SOL     OW24520   1.496   3.238  14.014  0.3168  0.0818 -0.1645
 4296SOL    HW124521   1.427   3.277  13.962 -2.1348 -3.8389  0.1378
 4296SOL    HW224522   1.486   3.282  14.098 -1.9561  0.0378 -0.4139
 4297SOL     OW24523   2.069   3.498   2.784 -0.4603 -0.8192 -0.4710
 4297SOL    HW124524   2.020   3.572   2.749  1.2172  0.1199 -0.8272
 4297SOL    HW224525   2.130   3.547   2.839 -2.1871  0.3872  0.3574
 4298SOL     OW24526   2.282   1.696   6.840  0.5985 -0.4902 -0.0762
 4298SOL    HW124527   2.219   1.671   6.907  1.2230  1.8824  1.3732
 4298SOL    HW224528   2.300   1.783   6.875 -2.0777  1.1314 -2.7736
 4299SOL     OW24529   3.225   0.927  12.604 -0.1823  0.1107  0.0085
 4299SOL    HW124530   3.301   0.980  12.578 -1.5132  2.3323  0.6658
 4299SOL    HW224531   3.256   0.876  12.679 -0.2420  1.3996  0.9128
 4300SOL     OW24532   2.404   2.414   6.029 -0.1196 -0.2821  0.3022
 4300SOL    HW124533   2.329   2.373   6.071  0.3258 -0.9137  0.4791
 4300SOL    HW224534   2.481   2.379   6.075 -0.1885 -0.7154  0.0841
 4301SOL     OW24535   4.697   2.520   5.511 -0.1824 -0.6027 -0.2235
 4301SOL    HW124536   0.047   2.540   5.471 -0.2789  0.7500  0.2520
 4301SOL    HW224537   4.657   2.459   5.449 -0.1282 -0.2723 -0.5825
 4302SOL     OW24538   3.972   4.003   2.189 -0.0124 -0.5305 -0.7039
 4302SOL    HW124539   3.905   3.998   2.257  1.3140 -3.4791  0.3461
 4302SOL    HW224540   4.034   3.939   2.223 -0.5407 -1.4005 -1.3780
 4303SOL     OW24541   2.673   3.412   7.846  0.3632 -0.1137 -0.4650
 4303SOL    HW124542   2.751   3.357   7.855  1.2033  1.0347 -0.7355
 4303SOL    HW224543   2.705   3.501   7.834  0.2913 -0.0562 -0.2265
 4304SOL     OW24544   1.041   0.230  16.233  0.0699  0.7388 -0.5016
 4304SOL    HW124545   1.098   0.275  16.171  0.5063  2.5834  1.2467
 4304SOL    HW224546   0.979   0.297  16.263 -1.6044 -2.2685  2.7229
 4305SOL     OW24547   1.532   1.801  16.610  0.1426 -0.7503  0.4492
 4305SOL    HW124548   1.487   1.856  16.674  0.8019  0.0079  0.2631
 4305SOL    HW224549   1.465   1.743  16.574  1.1533 -1.5602 -0.1537
 4306SOL     OW24550   3.105   3.553   8.965  0.1157 -0.6103 -0.7087
 4306SOL    HW124551   3.160   3.511   9.032  1.0672  0.0621 -1.0566
 4306SOL    HW224552   3.025   3.568   9.014  1.4536  2.9209  0.4056
 4307SOL     OW24553   2.563   1.526   0.700 -0.0980 -0.3741 -0.1283
 4307SOL    HW124554   2.605   1.611   0.686  2.4987 -1.1869  2.6422
 4307SOL    HW224555   2.517   1.514   0.617 -0.2594  1.1072 -0.2567
 4308SOL     OW24556   4.699   4.159  14.293 -0.1640  0.1251 -0.6612
 4308SOL    HW124557   4.643   4.233  14.315 -1.5697  0.1596 -4.5279
 4308SOL    HW224558   4.637   4.097  14.256 -0.5339  0.7381 -1.0662
 4309SOL     OW24559   4.431   1.642   5.384 -0.5073 -0.4967  0.5518
 4309SOL    HW124560   4.453   1.555   5.350  2.5533  0.7680 -0.7578
 4309SOL    HW224561   4.413   1.633   5.478  0.9302 -2.1503  0.6803
 4310SOL     OW24562   1.526   4.139  11.134  0.0168 -0.1500  0.1603
 4310SOL    HW124563   1.580   4.160  11.058 -2.3063  1.8957 -0.9533
 4310SOL    HW224564   1.592   4.156  11.201  0.0243 -0.6673  0.2817
 4311SOL     OW24565   2.486   2.900   1.661  0.1837 -0.2546 -0.5601
 4311SOL    HW124566   2.419   2.967   1.645 -1.3454 -1.1148  2.1411
 4311SOL    HW224567   2.562   2.953   1.638  0.2913 -1.1696 -2.3197
 4312SOL     OW24568   1.244   2.638   6.471 -0.3913 -0.0411 -0.2533
 4312SOL    HW124569   1.166   2.662   6.422  0.3193  1.1566 -0.7893
 4312SOL    HW224570   1.257   2.706   6.538  0.8199  0.7965 -1.3275
 4313SOL     OW24571   2.840   4.467   3.562 -0.3580  0.2655 -0.7791
 4313SOL    HW124572   2.813   4.559   3.559  0.3857  0.5213  0.7079
 4313SOL    HW224573   2.869   4.447   3.651 -0.0288 -0.2755 -1.0071
 4314SOL     OW24574   3.150   4.295   0.379 -0.3840  0.7899 -0.2220
 4314SOL    HW124575   3.060   4.327   0.390 -0.2800  0.7721  0.7429
 4314SOL    HW224576   3.128   4.228   0.315  2.4694  0.5846 -0.9520
 4315SOL     OW24577   1.116   0.092   1.906  0.4350  0.7496 -0.1642
 4315SOL    HW124578   1.191   0.122   1.855 -0.4783 -0.6010 -2.3025
 4315SOL    HW224579   1.093   0.010   1.864 -2.6820 -0.3048  3.5781
 4316SOL     OW24580   0.664   3.600   5.555  0.0496 -0.0686 -0.2058
 4316SOL    HW124581   0.713   3.669   5.599 -0.1137 -1.2137  1.7576
 4316SOL    HW224582   0.674   3.525   5.614 -1.1956 -0.0751  0.0107
 4317SOL     OW24583   1.956   0.150   7.789  0.2513 -0.0426 -0.0129
 4317SOL    HW124584   1.885   0.209   7.811 -0.3412 -1.1429  1.0217
 4317SOL    HW224585   2.032   0.192   7.831 -0.2648  0.0007  0.8649
 4318SOL     OW24586   0.967   0.051   7.561 -0.2384 -0.4687  0.2705
 4318SOL    HW124587   0.926   0.044   7.475  0.6121 -0.6900 -0.1142
 4318SOL    HW224588   0.917   4.724   7.615 -2.8397  0.8050 -0.6718
 4319SOL     OW24589   4.285   4.415  12.337 -0.2609 -0.4024 -0.3948
 4319SOL    HW124590   4.303   4.356  12.264 -0.0910  1.1312 -1.5795
 4319SOL    HW224591   4.203   4.376  12.368 -0.5923  0.1526 -0.5738
 4320SOL     OW24592   0.701   2.682   0.686  0.1226  0.1433 -0.1737
 4320SOL    HW124593   0.657   2.752   0.638 -1.0260  0.1628  0.9149
 4320SOL    HW224594   0.637   2.614   0.664 -0.3708  0.3247  0.7156
 4321SOL     OW24595   3.985   3.020   4.828 -0.3500 -0.3471  0.8814
 4321SOL    HW124596   3.961   3.081   4.758  0.2038  1.7912  2.5779
 4321SOL    HW224597   4.017   2.947   4.775 -2.0599 -2.2876  2.5194
 4322SOL     OW24598   0.351   3.370   7.513  0.5425 -0.0053  0.2393
 4322SOL    HW124599   0.272   3.415   7.541  0.6517  1.4307 -1.7771
 4322SOL    HW224600   0.321   3.281   7.496  3.6862 -1.1358  0.5798
 4323SOL     OW24601   0.025   1.907   9.674 -0.4478  0.2904  0.1421
 4323SOL    HW124602   0.087   1.974   9.703 -0.3052  0.1728  0.1118
 4323SOL    HW224603   4.724   1.957   9.601 -1.3053 -1.8802 -0.8979
 4324SOL     OW24604   2.814   0.218  15.729 -0.5398  0.4896  0.4869
 4324SOL    HW124605   2.888   0.189  15.675 -1.0802  1.1773 -0.6075
 4324SOL    HW224606   2.848   0.241  15.816 -0.0825  1.1177  0.1334
 4325SOL     OW24607   1.655   3.693  16.613  0.3427 -0.1349 -0.0083
 4325SOL    HW124608   1.569   3.732  16.598  0.9694  0.4722 -1.9102
 4325SOL    HW224609   1.666   3.692  16.709 -0.5120 -1.5414  0.0675
 4326SOL     OW24610   1.912   4.600   7.766  0.5609  0.2203 -0.4307
 4326SOL    HW124611   1.998   4.560   7.761  0.9810  1.2215 -1.2437
 4326SOL    HW224612   1.929   4.686   7.804  1.9217  1.7418 -4.4922
 4327SOL     OW24613   0.310   2.321   6.600 -0.1312  0.0676 -0.2080
 4327SOL    HW124614   0.351   2.263   6.535 -0.1034  0.3386 -0.4344
 4327SOL    HW224615   0.225   2.334   6.558  0.0669 -0.6257 -0.8357
 4328SOL     OW24616   1.275   0.445   4.860 -0.2271  0.1188  0.2456
 4328SOL    HW124617   1.367   0.467   4.846 -0.0293 -0.1923  1.0628
 4328SOL    HW224618   1.290   0.352   4.840 -1.6508 -0.6782  2.7674
 4329SOL     OW24619   0.007   3.773  10.319 -0.5426 -0.0420 -0.0404
 4329SOL    HW124620   0.005   3.695  10.375  0.9457  0.3440  0.5520
 4329SOL    HW224621   4.654   3.755  10.286  0.4760 -0.6287 -2.4020
 4330SOL     OW24622   4.557   0.948  11.897 -0.6644 -0.4669 -0.2377
 4330SOL    HW124623   4.560   0.913  11.986  1.2393  1.2003  0.3646
 4330SOL    HW224624   4.463   0.958  11.883 -0.4121  1.3149 -0.6867
 4331SOL     OW24625   0.580   3.565   8.005 -0.0873 -0.2071 -0.2114
 4331SOL    HW124626   0.532   3.614   8.072  0.3547  0.0885 -0.1088
 4331SOL    HW224627   0.570   3.473   8.030 -2.9516 -0.0067 -0.6252
 4332SOL     OW24628   1.070   0.915   4.441  0.2887 -0.3080  0.1702
 4332SOL    HW124629   1.107   0.832   4.411 -1.2883 -1.4921  1.4695
 4332SOL    HW224630   1.114   0.920   4.526 -2.1759  0.6675  1.3945
 4333SOL     OW24631   1.362   1.821  10.471  0.8693  0.5761  0.1361
 4333SOL    HW124632   1.325   1.838  10.558  2.0676  1.2165  0.5192
 4333SOL    HW224633   1.452   1.840  10.497  0.6472  1.0763  0.5287
 4334SOL     OW24634   0.008   0.060   0.626 -0.3099 -0.2270 -0.2819
 4334SOL    HW124635   4.667   0.062   0.569 -0.0772 -1.6820 -0.6535
 4334SOL    HW224636   0.080   0.028   0.571 -1.0913 -1.5246 -0.5525
 4335SOL     OW24637   0.076   1.458  10.907 -0.3883 -0.4502  0.4991
 4335SOL    HW124638   0.004   1.409  10.949 -0.6120  0.7202  1.4716
 4335SOL    HW224639   0.086   1.541  10.953  0.0909 -0.5612  0.5954
 4336SOL     OW24640   3.991   4.452   2.443  0.2106 -0.3296 -0.3823
 4336SOL    HW124641   4.030   4.534   2.415  2.0571 -1.6250 -1.6016
 4336SOL    HW224642   4.063   4.389   2.449  1.0420  0.7930  1.4233
 4337SOL     OW24643   0.293   1.609   8.622  0.1248 -0.2389 -0.4891
 4337SOL    HW124644   0.347   1.687   8.617 -0.1733 -0.1106 -1.6482
 4337SOL    HW224645   0.318   1.560   8.544 -0.3766  1.6147 -1.8027
 4338SOL     OW24646   1.276   0.111  12.972  0.8195  0.4059  0.3788
 4338SOL    HW124647   1.349   0.076  12.922 -0.6823 -0.7786 -0.9842
 4338SOL    HW224648   1.212   0.043  12.951  0.6163  0.3475  1.1693
 4339SOL     OW24649   0.665   4.382   2.588  0.0923 -0.3525  0.5561
 4339SOL    HW124650   0.738   4.443   2.601 -0.3397 -0.0939  1.7661
 4339SOL    HW224651   0.710   4.298   2.580 -1.4540 -0.9496 -1.7543
 4340SOL     OW24652   0.798   2.357   3.183  0.0282  0.0356  0.5876
 4340SOL    HW124653   0.798   2.367   3.087  1.0841 -0.2015  0.5688
 4340SOL    HW224654   0.730   2.420   3.205 -1.4969 -1.2653 -0.4020
 4341SOL     OW24655   1.833   3.440   7.723 -0.3263  0.6171  0.2112
 4341SOL    HW124656   1.795   3.363   7.681  0.1151 -0.5699  2.0042
 4341SOL    HW224657   1.892   3.470   7.654  0.3206 -0.2865  0.3697
 4342SOL     OW24658   0.881   3.428   1.825 -0.0025  0.0221  0.6413
 4342SOL    HW124659   0.926   3.476   1.895  0.9268 -0.1633  0.1652
 4342SOL    HW224660   0.877   3.337   1.854 -1.4880 -0.9529 -2.6780
 4343SOL     OW24661   2.474   3.051  15.952 -0.3788  0.2283  0.2512
 4343SOL    HW124662   2.439   3.025  16.037  1.5068 -0.2369  0.8923
 4343SOL    HW224663   2.507   2.969  15.914 -0.2251  1.4280 -2.2098
 4344SOL     OW24664   4.274   0.895  12.110 -0.3211 -0.6183 -0.0080
 4344SOL    HW124665   4.369   0.881  12.112 -0.2356  0.1642  1.3949
 4344SOL    HW224666   4.252   0.864  12.198 -1.2365  0.1416  0.0331
 4345SOL     OW24667   0.072   0.550   7.634 -0.2214 -0.3028 -0.2164
 4345SOL    HW124668   0.070   0.522   7.542 -0.2292  0.6237 -0.4949
 4345SOL    HW224669   4.715   0.541   7.660  0.6693  0.1003  3.0981
 4346SOL     OW24670   1.431   4.235   8.107 -0.0062  0.1302 -0.2301
 4346SOL    HW124671   1.355   4.189   8.142  0.0222  0.3830  0.1611
 4346SOL    HW224672   1.501   4.176   8.137  1.2845  2.3986  1.2138
 4347SOL     OW24673   3.765   1.249   7.065  0.1043  0.2791 -0.0079
 4347SOL    HW124674   3.814   1.328   7.042 -2.2440  1.2400 -1.7566
 4347SOL    HW224675   3.795   1.249   7.155 -0.8722 -0.0038  0.3171
 4348SOL     OW24676   0.736   4.494   8.091  0.0938  0.1743  0.4027
 4348SOL    HW124677   0.750   4.576   8.139 -0.2606  1.1155 -1.1166
 4348SOL    HW224678   0.742   4.523   8.000 -0.3547  0.4398  0.4555
 4349SOL     OW24679   1.516   2.666   4.428 -0.3799 -0.0411  0.2586
 4349SOL    HW124680   1.488   2.592   4.373 -0.5112 -0.2174  0.5663
 4349SOL    HW224681   1.589   2.625   4.474  0.3875 -0.1127 -1.0052
 4350SOL     OW24682   0.634   0.250  12.138 -0.3165  0.9079  0.3103
 4350SOL    HW124683   0.674   0.227  12.223 -0.7361  2.3466  0.9054
 4350SOL    HW224684   0.549   0.277  12.171 -0.4595 -0.3983  1.0202
 4351SOL     OW24685   1.896   4.556   2.088 -0.2228  0.1969  0.1214
 4351SOL    HW124686   1.895   4.481   2.148  0.3332  1.1670  1.3524
 4351SOL    HW224687   1.830   4.533   2.023 -0.8233  1.4885  0.2676
 4352SOL     OW24688   3.433   0.064   0.612  0.4333  0.2510 -0.3356
 4352SOL    HW124689   3.357   0.084   0.557 -0.8496 -2.3804  0.5055
 4352SOL    HW224690   3.447   4.706   0.597  0.3260  0.0785  0.6463
 4353SOL     OW24691   1.765   3.791   8.820  0.3720  0.4168 -0.8159
 4353SOL    HW124692   1.746   3.858   8.754  2.6510 -1.9415 -3.8467
 4353SOL    HW224693   1.760   3.713   8.764 -0.1007  0.6403 -1.0869
 4354SOL     OW24694   3.028   4.249   3.539  0.6491 -0.2059  0.7589
 4354SOL    HW124695   2.961   4.314   3.561  0.7733 -0.1172  0.8789
 4354SOL    HW224696   3.080   4.291   3.470  0.8978  0.9400  1.6316
 4355SOL     OW24697   1.634   1.886  15.026  0.6157  0.1976  0.1653
 4355SOL    HW124698   1.673   1.804  15.056  0.4577 -0.4579 -1.4097
 4355SOL    HW224699   1.638   1.933  15.109  0.1951  0.9666 -0.2411
 4356SOL     OW24700   2.539   2.723   5.469 -0.0674  0.2930 -0.2165
 4356SOL    HW124701   2.603   2.708   5.539 -2.7550 -2.7358  1.6452
 4356SOL    HW224702   2.583   2.690   5.391  2.0057  1.2606  0.5451
 4357SOL     OW24703   4.082   3.874   4.576 -0.1699 -0.4369 -0.2172
 4357SOL    HW124704   4.099   3.780   4.567 -0.2132 -0.4216 -0.4690
 4357SOL    HW224705   4.146   3.914   4.516 -1.6009 -1.0268 -2.1401
 4358SOL     OW24706   4.353   3.652  14.542 -0.0770 -0.3838 -0.7079
 4358SOL    HW124707   4.262   3.641  14.570  0.0261 -0.4301 -0.3888
 4358SOL    HW224708   4.362   3.740  14.579 -2.7817  0.1984 -1.4425
 4359SOL     OW24709   1.171   3.922   5.240 -0.4406 -0.0760 -0.0262
 4359SOL    HW124710   1.080   3.893   5.230  0.0687 -1.4841 -0.5793
 4359SOL    HW224711   1.203   3.849   5.293 -0.2954 -1.2250 -1.6756
 4360SOL     OW24712   0.269   3.771   3.474  0.1895  0.3514  0.4154
 4360SOL    HW124713   0.224   3.850   3.504 -0.3165 -1.0534  3.3333
 4360SOL    HW224714   0.234   3.761   3.386 -2.5630  0.9323  1.4493
 4361SOL     OW24715   0.205   0.000  16.117 -0.2742  0.4574  0.1868
 4361SOL    HW124716   0.279   0.026  16.172 -0.5521 -3.4245  2.3838
 4361SOL    HW224717   0.248   4.653  16.093 -2.2012 -0.1524 -1.1259
 4362SOL     OW24718   0.315   3.349   2.724 -0.4511 -0.3447  0.1849
 4362SOL    HW124719   0.318   3.258   2.752 -2.0232  0.2320  2.2204
 4362SOL    HW224720   0.272   3.339   2.639  0.8811  2.5707 -0.8425
 4363SOL     OW24721   1.501   4.251  14.161 -0.6659 -0.0796  0.2259
 4363SOL    HW124722   1.531   4.322  14.105 -2.4883  0.4806 -0.0605
 4363SOL    HW224723   1.528   4.285  14.247  0.4314 -0.3425 -0.0258
 4364SOL     OW24724   2.222   4.297  16.141  0.4753  0.2161 -0.0041
 4364SOL    HW124725   2.184   4.374  16.099  0.7143 -1.0227 -2.5253
 4364SOL    HW224726   2.162   4.289  16.214  2.2650  0.3446  1.4840
 4365SOL     OW24727   0.981   4.112   0.158  0.2486 -0.5342 -0.5445
 4365SOL    HW124728   0.887   4.100   0.171 -0.4277  0.2517 -4.7800
 4365SOL    HW224729   1.005   4.185   0.215 -0.2214 -1.4814  0.8984
 4366SOL     OW24730   0.755   2.727   3.000  0.0950  0.2793 -0.1039
 4366SOL    HW124731   0.814   2.802   2.989 -0.8798  1.1717  0.7191
 4366SOL    HW224732   0.677   2.745   2.947  0.6313 -0.1420 -1.0246
 4367SOL     OW24733   2.068   4.504   1.784 -0.0909  0.5162 -0.5612
 4367SOL    HW124734   2.110   4.577   1.830 -0.1028 -0.0525  0.3530
 4367SOL    HW224735   1.974   4.521   1.794 -0.4061 -1.5634 -0.0343
 4368SOL     OW24736   4.470   1.399   3.534 -0.1784 -0.4531 -0.0769
 4368SOL    HW124737   4.418   1.384   3.455  0.4233  0.3751 -0.6311
 4368SOL    HW224738   4.409   1.426   3.601 -1.3184 -0.3824 -1.1442
 4369SOL     OW24739   0.927   0.877  17.346  0.4966 -0.0530  0.0137
 4369SOL    HW124740   0.971   0.874  17.261  0.4183 -2.2378  0.0511
 4369SOL    HW224741   0.847   0.828  17.329 -0.0837  0.3756  1.4265
 4370SOL     OW24742   3.935   0.369  16.888  0.0009 -0.0204  0.2358
 4370SOL    HW124743   3.869   0.300  16.875  0.8615 -1.1505  1.8540
 4370SOL    HW224744   3.875   0.441  16.869  0.4892  0.4402  0.4351
 4371SOL     OW24745   2.811   4.005  16.971 -0.0515 -0.8696  0.0462
 4371SOL    HW124746   2.880   4.003  17.036 -0.3758 -1.3893  0.3760
 4371SOL    HW224747   2.730   4.025  17.018 -0.0465 -3.3358  1.0821
 4372SOL     OW24748   4.267   4.410   7.054  0.2318  0.1843 -0.3190
 4372SOL    HW124749   4.209   4.485   7.059  0.9263  0.7685 -1.1022
 4372SOL    HW224750   4.354   4.450   7.062 -1.7325  4.4060 -0.2514
 4373SOL     OW24751   3.458   3.396  15.327 -0.6111 -0.0840  0.2081
 4373SOL    HW124752   3.450   3.472  15.270  0.2311  0.3107  0.6088
 4373SOL    HW224753   3.385   3.341  15.299 -0.2266 -1.0080  1.0123
 4374SOL     OW24754   0.211   1.725   1.526 -0.9100 -0.2011 -0.1486
 4374SOL    HW124755   0.306   1.732   1.532 -1.1577  1.7733  1.2384
 4374SOL    HW224756   0.201   1.793   1.459 -2.2112 -2.4556 -2.2636
 4375SOL     OW24757   4.419   2.253   9.470 -0.0850  0.2752  0.5440
 4375SOL    HW124758   4.415   2.172   9.419  1.6153  1.3378 -1.2904
 4375SOL    HW224759   4.507   2.235   9.502 -0.2931 -0.6264  0.6013
 4376SOL     OW24760   0.615   0.445   8.523  0.1973 -0.4680  0.2847
 4376SOL    HW124761   0.564   0.519   8.559 -0.3908 -1.5005  1.5711
 4376SOL    HW224762   0.694   0.447   8.576 -0.2658 -0.0440  0.9619
 4377SOL     OW24763   1.728   0.480   9.264 -0.0741 -0.3218 -0.1360
 4377SOL    HW124764   1.732   0.575   9.252 -0.1030 -0.4865 -1.5454
 4377SOL    HW224765   1.691   0.474   9.351 -0.2040 -0.0209 -0.1739
 4378SOL     OW24766   1.921   0.440   7.298 -0.2445 -0.5547  0.1445
 4378SOL    HW124767   1.998   0.384   7.295  0.4448  0.4203 -0.2899
 4378SOL    HW224768   1.923   0.470   7.389 -0.8590  0.3723 -0.1505
 4379SOL     OW24769   1.230   2.005   8.759  0.0695  0.0293 -0.5058
 4379SOL    HW124770   1.323   1.986   8.773  0.5276  1.8762 -1.0646
 4379SOL    HW224771   1.232   2.097   8.733  0.6706  0.0699 -0.3301
 4380SOL     OW24772   0.394   2.239   2.497  0.4791  0.4430  0.0843
 4380SOL    HW124773   0.445   2.159   2.506 -0.8286 -0.4069 -0.0271
 4380SOL    HW224774   0.395   2.243   2.401 -0.4614 -0.8091  0.0346
 4381SOL     OW24775   1.857   1.022   5.762  0.2376  0.1112 -0.3243
 4381SOL    HW124776   1.918   1.003   5.691  1.4690 -0.3522  0.8580
 4381SOL    HW224777   1.784   1.060   5.712 -1.6573  2.2141  4.0356
 4382SOL     OW24778   2.588   2.564   7.769  0.4995 -0.0796 -0.0558
 4382SOL    HW124779   2.551   2.618   7.839  1.3718 -0.3630  0.6237
 4382SOL    HW224780   2.684   2.568   7.767  0.5523 -0.4671  1.6204
 4383SOL     OW24781   4.435   3.880   8.813  0.4158  0.3898  0.0905
 4383SOL    HW124782   4.363   3.883   8.877 -0.7835 -1.7066 -1.1523
 4383SOL    HW224783   4.426   3.962   8.765  2.7239  1.1595  1.0001
 4384SOL     OW24784   1.505   2.060  14.844  0.0531 -0.1484  0.4497
 4384SOL    HW124785   1.549   1.988  14.889 -0.1236 -1.2693 -1.1730
 4384SOL    HW224786   1.535   2.139  14.889 -1.2303  1.2981 -1.2094
 4385SOL     OW24787   3.825   2.775   3.494  0.4411 -0.0700  0.2704
 4385SOL    HW124788   3.745   2.722   3.486  0.5761  0.2058 -2.9885
 4385SOL    HW224789   3.792   2.829   3.566 -3.5354  2.1159 -3.1586
 4386SOL     OW24790   3.770   2.364   5.802  0.7524 -0.0827 -0.1976
 4386SOL    HW124791   3.825   2.426   5.851  0.2006 -0.0789  0.4129
 4386SOL    HW224792   3.807   2.281   5.832 -1.7657 -1.0433  0.1857
 4387SOL     OW24793   1.449   2.106  11.749  0.0126  0.1303  0.2884
 4387SOL    HW124794   1.459   2.071  11.837 -0.9652  0.8993  0.7106
 4387SOL    HW224795   1.538   2.137  11.735 -0.5163  1.4655 -0.1749
 4388SOL     OW24796   3.813   0.027   6.914 -0.4044 -0.3127 -0.1365
 4388SOL    HW124797   3.827   4.675   6.878  1.6345  0.6460 -1.6578
 4388SOL    HW224798   3.727   0.042   6.874 -0.9301 -0.6752  0.8499
 4389SOL     OW24799   0.365   2.987  15.518  0.0278  0.4511  0.4575
 4389SOL    HW124800   0.361   2.955  15.608  1.1018 -0.2936  0.2430
 4389SOL    HW224801   0.310   3.064  15.534 -2.8267 -1.1380 -1.7187
 4390SOL     OW24802   4.251   2.640   9.352  0.2099  0.3095 -0.0743
 4390SOL    HW124803   4.304   2.697   9.408  0.0030  0.4835 -0.0558
 4390SOL    HW224804   4.216   2.700   9.286 -0.5115 -1.7600 -1.5523
 4391SOL     OW24805   2.213   1.446   5.762 -0.4294  0.3129 -0.1050
 4391SOL    HW124806   2.122   1.418   5.752 -0.7946  0.8183  1.7171
 4391SOL    HW224807   2.192   1.511   5.829 -0.9678  0.1126 -0.0802
 4392SOL     OW24808   0.766   0.083   8.827  0.2644  0.5948  0.7437
 4392SOL    HW124809   0.801   0.002   8.865 -0.7428  0.0455  0.4837
 4392SOL    HW224810   0.677   0.056   8.808  0.4883 -0.2865  0.9556
 4393SOL     OW24811   2.913   2.609   9.547  0.6913 -0.5635  0.5625
 4393SOL    HW124812   2.964   2.543   9.502 -0.0783 -1.9298  1.6967
 4393SOL    HW224813   2.843   2.557   9.586  0.9347 -0.1787  1.5199
 4394SOL     OW24814   1.528   1.642   8.740  0.1882  0.2100 -0.1401
 4394SOL    HW124815   1.439   1.629   8.706  0.2227  1.4481 -0.7039
 4394SOL    HW224816   1.560   1.554   8.722  1.2900  0.7842 -1.0290
 4395SOL     OW24817   3.712   4.696   4.935  0.3145 -0.1874 -0.6334
 4395SOL    HW124818   3.739   4.614   4.893  2.0163  1.1874 -2.2488
 4395SOL    HW224819   3.786   4.709   4.994 -0.0325  2.8261 -0.8794
 4396SOL     OW24820   1.541   3.006   3.581 -0.0409 -0.3143  0.0373
 4396SOL    HW124821   1.480   2.937   3.555  0.9293 -0.6362 -1.3878
 4396SOL    HW224822   1.588   3.012   3.498  1.4743  2.2099  1.0623
 4397SOL     OW24823   0.624   1.096  13.900  0.0935 -0.1764  0.6620
 4397SOL    HW124824   0.597   1.161  13.965  0.2333 -0.2763  0.8193
 4397SOL    HW224825   0.612   1.135  13.814 -1.4592 -0.0947  0.9190
 4398SOL     OW24826   0.988   3.366   6.890 -0.6533 -0.0431 -0.2812
 4398SOL    HW124827   0.908   3.313   6.891 -0.7957  0.0954 -3.9523
 4398SOL    HW224828   0.953   3.446   6.850 -0.0696  0.5966  0.4853
 4399SOL     OW24829   4.599   0.675   2.327  0.3543 -0.4247  0.1109
 4399SOL    HW124830   4.514   0.718   2.344 -0.6086 -2.2641 -0.1057
 4399SOL    HW224831   4.649   0.748   2.291 -0.7292 -0.8125 -2.1658
 4400SOL     OW24832   1.022   2.763  13.269 -0.6209 -0.0507  0.1453
 4400SOL    HW124833   1.073   2.809  13.336 -0.4140  1.5345 -1.0891
 4400SOL    HW224834   1.091   2.732  13.210 -0.6180 -2.1825  1.2832
 4401SOL     OW24835   2.449   1.913   1.156 -0.1729 -0.2908  0.5816
 4401SOL    HW124836   2.494   1.847   1.209  0.8360 -0.4636 -0.4949
 4401SOL    HW224837   2.461   1.991   1.210  0.3195 -0.8228  1.2308
 4402SOL     OW24838   3.455   0.610   4.122 -0.1514  0.2936 -0.1032
 4402SOL    HW124839   3.361   0.622   4.139 -0.1287  0.3187  0.0056
 4402SOL    HW224840   3.471   0.516   4.135  1.2046  0.6569  0.8956
 4403SOL     OW24841   0.238   3.916   5.983  0.0076 -0.0116 -0.2645
 4403SOL    HW124842   0.181   3.878   6.050  0.9251 -2.1916 -0.7289
 4403SOL    HW224843   0.279   3.987   6.032  0.9400  1.1913 -2.7772
 4404SOL     OW24844   0.421   0.750   4.468  0.1699  0.2743 -0.1448
 4404SOL    HW124845   0.463   0.764   4.383 -1.0802 -0.5616 -0.9107
 4404SOL    HW224846   0.468   0.672   4.496 -0.9129  0.3646  1.9144
 4405SOL     OW24847   0.153   3.858   8.993  0.0901  0.2847  0.0668
 4405SOL    HW124848   0.240   3.863   8.954 -1.1894  1.4144 -2.6756
 4405SOL    HW224849   0.139   3.763   8.995 -0.4680  0.3431 -0.9691
 4406SOL     OW24850   0.975   2.983  16.726  0.6136 -0.3426 -0.8995
 4406SOL    HW124851   0.914   3.053  16.751  2.2971  0.8771 -0.1462
 4406SOL    HW224852   0.980   2.994  16.631  3.0873  1.7169 -0.5459
 4407SOL     OW24853   3.175   2.680   7.596  0.3129 -0.2272  0.1656
 4407SOL    HW124854   3.223   2.762   7.599 -1.9231  1.1162 -1.1617
 4407SOL    HW224855   3.184   2.654   7.504 -1.2699 -1.6941  0.4285
 4408SOL     OW24856   3.856   2.289   3.702  0.1796 -0.1486 -0.2494
 4408SOL    HW124857   3.864   2.384   3.690  0.3205  0.2444  3.1235
 4408SOL    HW224858   3.780   2.265   3.649 -1.2840  1.6951  1.0527
 4409SOL     OW24859   4.104   1.610   2.949  0.6248 -0.1792 -0.3298
 4409SOL    HW124860   4.129   1.624   2.858  2.4337  3.0450  0.6609
 4409SOL    HW224861   4.061   1.692   2.970  2.3203  0.6614 -0.1400
 4410SOL     OW24862   2.887   4.309   5.076 -0.0959 -0.3841 -0.3007
 4410SOL    HW124863   2.877   4.400   5.104  1.9193 -0.3832  0.4107
 4410SOL    HW224864   2.937   4.271   5.148  0.3595  1.4792  0.3571
 4411SOL     OW24865   2.665   3.476   7.229  0.9265 -0.2404 -0.7770
 4411SOL    HW124866   2.606   3.452   7.159  0.0906 -0.6322  0.0680
 4411SOL    HW224867   2.741   3.510   7.181  0.7731 -0.3886 -1.1157
 4412SOL     OW24868   0.081   3.870  17.158  0.0206 -0.0168 -0.1636
 4412SOL    HW124869   0.091   3.932  17.230  0.2995 -0.4625  0.1730
 4412SOL    HW224870   4.723   3.847  17.161 -0.7129  2.9358  0.2798
 4413SOL     OW24871   1.231   3.296   1.018 -0.6473 -0.3853 -0.0800
 4413SOL    HW124872   1.255   3.338   1.101 -0.4358 -0.9881  0.1610
 4413SOL    HW224873   1.286   3.218   1.016 -1.0875 -0.6820 -0.8557
 4414SOL     OW24874   4.234   1.141   4.718 -0.4633 -0.0255 -0.3687
 4414SOL    HW124875   4.249   1.192   4.797  0.4168  0.9085 -1.1275
 4414SOL    HW224876   4.140   1.152   4.704 -0.2214  2.5008 -0.0361
 4415SOL     OW24877   0.220   0.798  14.222 -0.4350 -0.9055  0.1112
 4415SOL    HW124878   0.136   0.822  14.260 -0.2931  1.0946 -0.8420
 4415SOL    HW224879   0.267   0.798  14.305  0.7794  0.4756 -0.5659
 4416SOL     OW24880   0.020   3.070   6.239 -0.1612 -0.0703 -0.4463
 4416SOL    HW124881   4.667   3.036   6.220  0.2602 -1.6218  0.3965
 4416SOL    HW224882   0.082   2.998   6.248 -0.2474  0.3623  3.6091
 4417SOL     OW24883   3.124   1.781   6.092  0.4264 -0.0963  0.5063
 4417SOL    HW124884   3.109   1.760   6.000  0.1650 -1.2780  0.8067
 4417SOL    HW224885   3.042   1.740   6.119 -0.3667  1.2296  0.0702
 4418SOL     OW24886   1.069   0.181   2.642 -0.3736  0.5241  0.2383
 4418SOL    HW124887   1.060   0.117   2.712  1.2904 -1.3803 -1.2776
 4418SOL    HW224888   0.992   0.234   2.664 -1.4520 -2.0187  2.5270
 4419SOL     OW24889   4.077   3.550   8.087  0.1766  0.4759  0.6671
 4419SOL    HW124890   3.991   3.512   8.102  0.4314 -0.0324  0.8367
 4419SOL    HW224891   4.084   3.618   8.154  1.4923 -0.4779  1.4912
 4420SOL     OW24892   2.073   3.296  14.894 -0.4979 -0.1836 -0.7190
 4420SOL    HW124893   2.132   3.260  14.960 -2.5804 -1.7148  0.3077
 4420SOL    HW224894   2.120   3.375  14.868  0.3255 -0.1208  1.0268
 4421SOL     OW24895   3.571   1.667   5.026 -0.0334  0.2097 -0.2891
 4421SOL    HW124896   3.602   1.711   4.947 -0.1298 -2.6947 -1.9481
 4421SOL    HW224897   3.478   1.687   5.025 -0.2303 -0.7818 -1.0936
 4422SOL     OW24898   0.613   4.676   2.770 -0.0681 -0.5236  0.0282
 4422SOL    HW124899   0.705   4.682   2.746  0.5680 -2.8992  1.8396
 4422SOL    HW224900   0.594   0.030   2.740  0.8336 -0.6091 -0.7887
 4423SOL     OW24901   3.695   0.825   0.437 -0.7482 -0.5497 -0.2682
 4423SOL    HW124902   3.708   0.748   0.382  1.0215 -0.7381  0.4209
 4423SOL    HW224903   3.623   0.870   0.393  0.5435  0.6508 -1.1509
 4424SOL     OW24904   3.685   1.350   9.771  0.1472  0.2365 -0.2302
 4424SOL    HW124905   3.773   1.333   9.804 -0.1954 -1.1516 -0.0357
 4424SOL    HW224906   3.657   1.401   9.847 -0.5984  1.3075 -1.2268
 4425SOL     OW24907   2.255   0.531   7.027 -0.1095 -0.2516 -0.4603
 4425SOL    HW124908   2.311   0.533   7.105 -0.7544 -0.6539  0.0142
 4425SOL    HW224909   2.180   0.580   7.060  2.2461  3.0934 -0.1368
 4426SOL     OW24910   0.039   3.884   1.903  0.3593 -0.2208 -0.1861
 4426SOL    HW124911   0.069   3.878   1.812 -0.1751 -0.3194 -0.3601
 4426SOL    HW224912   0.056   3.798   1.940 -0.8143 -0.2248  0.3635
 4427SOL     OW24913   1.791   3.371   8.159  0.1993 -0.4930 -0.1618
 4427SOL    HW124914   1.777   3.464   8.179  1.3920 -0.7354  1.7989
 4427SOL    HW224915   1.827   3.375   8.070 -2.5975  0.7527 -1.2407
 4428SOL     OW24916   4.496   2.230   5.073 -1.0515  0.1912 -0.1085
 4428SOL    HW124917   4.426   2.205   5.134 -1.5093  2.9784  0.5131
 4428SOL    HW224918   4.473   2.179   4.995 -2.0948 -1.6659  1.4221
 4429SOL     OW24919   1.369   2.447   2.659 -0.7779 -0.1809  0.5142
 4429SOL    HW124920   1.291   2.448   2.714 -0.4373 -0.8452  1.0257
 4429SOL    HW224921   1.348   2.375   2.600  2.0958 -2.5628  2.3549
 4430SOL     OW24922   0.467   3.914  14.828  0.6528  0.3410  0.3925
 4430SOL    HW124923   0.540   3.859  14.800 -0.4301 -1.2614  0.6888
 4430SOL    HW224924   0.473   3.893  14.921 -0.8751 -2.1259 -0.0591
 4431SOL     OW24925   0.100   4.246  17.203  0.3286 -0.1110  0.4357
 4431SOL    HW124926   0.074   4.183  17.270  1.8188 -1.2525 -0.0608
 4431SOL    HW224927   0.037   4.240  17.131 -1.0450  0.1162  1.6106
 4432SOL     OW24928   1.712   4.373   8.781 -0.5147 -0.0046  0.0916
 4432SOL    HW124929   1.714   4.283   8.812  0.4659  1.3038  3.8407
 4432SOL    HW224930   1.677   4.424   8.854 -1.7142  0.7924 -1.0241
 4433SOL     OW24931   3.814   1.636   5.391 -0.2022  0.4276  0.2076
 4433SOL    HW124932   3.756   1.683   5.332 -0.9884  0.1069  0.7303
 4433SOL    HW224933   3.833   1.558   5.339 -2.9411  0.6850 -1.1697
 4434SOL     OW24934   1.195   1.050   5.280  0.2680 -0.2663  0.0269
 4434SOL    HW124935   1.185   1.118   5.213 -0.7431  1.4807  1.8951
 4434SOL    HW224936   1.161   0.979   5.226  2.2589 -0.7860 -0.5407
 4435SOL     OW24937   2.149   1.394   4.770 -0.5688 -0.4364  0.4694
 4435SOL    HW124938   2.220   1.425   4.713  1.1298 -2.0694  1.7310
 4435SOL    HW224939   2.154   1.299   4.760 -1.7757 -0.6901  2.3826
 4436SOL     OW24940   3.848   0.443  14.745 -0.8947 -0.2927  0.5768
 4436SOL    HW124941   3.824   0.535  14.748  1.0853  0.2087  1.0958
 4436SOL    HW224942   3.872   0.428  14.653  1.0203  0.5570  0.9430
 4437SOL     OW24943   4.059   4.238  17.559  0.1714 -0.6675 -0.0030
 4437SOL    HW124944   4.033   4.158  17.514  0.7278 -1.6178  1.3748
 4437SOL    HW224945   3.989   4.300  17.539 -0.5892 -1.2459  0.8406
 4438SOL     OW24946   4.125   0.319   5.782 -0.1687  0.4344 -0.1827
 4438SOL    HW124947   4.139   0.267   5.861 -2.7663 -0.4078 -0.2916
 4438SOL    HW224948   4.039   0.357   5.798  0.7011  2.3843 -0.1100
 4439SOL     OW24949   1.890   0.084   1.909 -0.2421 -0.7556 -0.2615
 4439SOL    HW124950   1.892   0.082   1.813 -1.2521 -2.1382 -0.2548
 4439SOL    HW224951   1.859   4.732   1.934 -0.2543 -0.5784  0.3291
 4440SOL     OW24952   2.232   1.250  12.030 -0.0746 -0.7873  0.7050
 4440SOL    HW124953   2.256   1.167  12.072  0.1853 -1.2010 -0.2645
 4440SOL    HW224954   2.319   1.282  12.005  0.0009  0.0169  1.9968
 4441SOL     OW24955   2.216   4.696   4.477 -0.3730  0.1644 -0.4418
 4441SOL    HW124956   2.196   4.657   4.562  2.6546 -0.5188 -0.0173
 4441SOL    HW224957   2.300   0.004   4.495  0.0683  0.2105 -2.5170
 4442SOL     OW24958   4.673   2.419   2.993  0.5255  0.5340  0.5502
 4442SOL    HW124959   4.709   2.428   2.905  0.4448 -0.9616  0.3640
 4442SOL    HW224960   4.639   2.507   3.011  0.1811  0.2395  1.3462
 4443SOL     OW24961   4.391   0.675   1.389  0.1442 -0.5192 -0.4881
 4443SOL    HW124962   4.383   0.687   1.295  0.2383 -0.8872 -0.5459
 4443SOL    HW224963   4.308   0.630   1.407  0.7733 -1.5186 -0.0828
 4444SOL     OW24964   0.524   2.493   4.436  0.3165  0.1692  0.2368
 4444SOL    HW124965   0.580   2.562   4.401 -0.9030  0.6668 -0.7500
 4444SOL    HW224966   0.585   2.420   4.447  1.5545  1.4106  1.6545
 4445SOL     OW24967   2.525   4.441  15.629 -0.5571  0.0533 -0.2116
 4445SOL    HW124968   2.523   4.535  15.615 -1.6641  0.0972  0.2492
 4445SOL    HW224969   2.498   4.440  15.721 -1.6757 -1.8042 -0.5609
 4446SOL     OW24970   0.263   2.149   8.608 -0.4559  0.2247  0.2484
 4446SOL    HW124971   0.238   2.148   8.700 -0.8431  0.3984  0.1443
 4446SOL    HW224972   0.358   2.155   8.618 -0.5374  1.3835  0.3037
 4447SOL     OW24973   2.884   2.607   3.878  0.4256  0.1878 -0.4746
 4447SOL    HW124974   2.935   2.646   3.950  0.7621 -0.1226 -0.5409
 4447SOL    HW224975   2.948   2.547   3.838  1.5240 -1.8240  4.2837
 4448SOL     OW24976   1.757   1.692   2.322 -0.4120 -0.2541  0.2247
 4448SOL    HW124977   1.836   1.745   2.333 -1.5307  0.9609  2.3819
 4448SOL    HW224978   1.796   1.625   2.265 -0.5693 -0.3201  0.1954
 4449SOL     OW24979   1.075   4.386  15.744  0.3159 -0.3554  0.4785
 4449SOL    HW124980   1.020   4.454  15.705  0.3076 -0.5408  0.1714
 4449SOL    HW224981   1.090   4.412  15.836  1.2563 -1.5382  0.6556
 4450SOL     OW24982   0.813   1.874   4.991  0.5565 -0.1013  0.2745
 4450SOL    HW124983   0.899   1.832   5.000 -0.1951 -1.6825  0.1533
 4450SOL    HW224984   0.769   1.805   4.941 -1.3380  2.2311 -1.2680
 4451SOL     OW24985   4.158   2.688   4.164 -0.0455  0.1319  0.2841
 4451SOL    HW124986   4.206   2.697   4.081 -0.8767 -1.9886 -0.4426
 4451SOL    HW224987   4.169   2.593   4.169  0.1556  0.0561 -1.5125
 4452SOL     OW24988   4.445   3.225   9.740 -0.6618  0.2405  0.3145
 4452SOL    HW124989   4.421   3.146   9.789  0.6169 -0.7036 -0.5993
 4452SOL    HW224990   4.423   3.284   9.813 -2.7010 -1.0108  0.7142
 4453SOL     OW24991   0.461   2.111   2.837  0.7154  0.2665  0.3529
 4453SOL    HW124992   0.384   2.145   2.881  0.9727  1.1848  0.1106
 4453SOL    HW224993   0.447   2.155   2.753 -1.3921  0.6294  0.9021
 4454SOL     OW24994   2.095   0.684   4.849 -0.2677 -0.2386 -0.7855
 4454SOL    HW124995   2.031   0.751   4.871 -1.5834 -0.9418 -2.4159
 4454SOL    HW224996   2.168   0.705   4.906 -0.6212  1.5868 -1.0161
 4455SOL     OW24997   2.996   2.850  11.178 -0.4427 -0.0839 -0.1784
 4455SOL    HW124998   3.031   2.774  11.131 -1.0757  0.4985 -1.5946
 4455SOL    HW224999   2.907   2.835  11.146  0.0856 -1.9844 -0.7484
 4456SOL     OW25000   0.263   2.215  11.150 -0.2273 -0.5125  0.5226
 4456SOL    HW125001   0.325   2.151  11.187 -0.7228 -0.7106  1.0261
 4456SOL    HW225002   0.310   2.296  11.168  0.9566 -1.1020  0.1149
 4457SOL     OW25003   0.999   1.849   9.452 -0.0788  0.4437  0.8516
 4457SOL    HW125004   0.925   1.795   9.481  0.1723  0.3769  1.3606
 4457SOL    HW225005   0.957   1.936   9.452  2.5247  1.6911 -1.3850
 4458SOL     OW25006   2.068   3.215   3.872  0.0013  0.3590 -0.3311
 4458SOL    HW125007   2.068   3.257   3.958 -2.0184 -1.3741  0.5110
 4458SOL    HW225008   1.975   3.193   3.869 -0.4718  1.9616  2.7544
 4459SOL     OW25009   2.619   3.996  11.366 -0.4793  0.0385 -0.2779
 4459SOL    HW125010   2.675   3.920  11.382 -0.0951 -0.3496 -3.5109
 4459SOL    HW225011   2.547   3.981  11.427  0.2360  2.8429  1.2628
 4460SOL     OW25012   3.163   3.100   7.332 -0.0423  0.2263 -0.2439
 4460SOL    HW125013   3.251   3.066   7.342 -1.0399 -2.3272 -0.1866
 4460SOL    HW225014   3.154   3.161   7.405 -0.3193 -0.3144  0.1705
 4461SOL     OW25015   0.518   2.399  10.035  0.0350  0.3122 -0.4685
 4461SOL    HW125016   0.605   2.435  10.020 -0.2856  0.5458 -1.8031
 4461SOL    HW225017   0.532   2.317  10.083 -3.9357 -1.7115 -2.7741
 4462SOL     OW25018   1.400   0.812   9.380  0.3468 -0.2034  0.0645
 4462SOL    HW125019   1.489   0.846   9.380  0.1184  0.4317  1.0725
 4462SOL    HW225020   1.369   0.843   9.295  1.3782 -0.0608 -0.2485
 4463SOL     OW25021   1.264   4.533   3.628  0.0985  0.1135  0.1320
 4463SOL    HW125022   1.357   4.519   3.610  0.3525 -0.0226  1.5395
 4463SOL    HW225023   1.255   4.626   3.606 -1.6669  0.2859  1.5756
 4464SOL     OW25024   3.882   2.361  14.596  0.7263  0.1757 -0.6656
 4464SOL    HW125025   3.845   2.405  14.520  0.0544  0.6339 -0.0713
 4464SOL    HW225026   3.868   2.268  14.575 -0.4716  0.1322  0.2857
 4465SOL     OW25027   2.172   2.214  12.535 -0.0951 -0.1209  0.2918
 4465SOL    HW125028   2.104   2.180  12.477 -0.1143 -2.0232  1.4343
 4465SOL    HW225029   2.168   2.306  12.510  0.9700  0.7760  3.3933
 4466SOL     OW25030   1.705   1.548   4.830  0.1793  0.1085  0.1862
 4466SOL    HW125031   1.705   1.575   4.739  0.1551  1.1000  0.4742
 4466SOL    HW225032   1.755   1.467   4.834  0.4695  0.3092  0.6940
 4467SOL     OW25033   4.483   3.720  10.243  0.1158 -0.2650  0.1260
 4467SOL    HW125034   4.470   3.810  10.211  0.7924 -0.6005 -1.1132
 4467SOL    HW225035   4.406   3.670  10.215 -1.8287  1.8444  1.7122
 4468SOL     OW25036   1.270   3.958  17.662 -0.2564 -0.3858 -0.2786
 4468SOL    HW125037   1.228   3.922   0.002  3.0334 -0.1171  1.5991
 4468SOL    HW225038   1.231   4.045  17.655 -0.3974 -0.3145  1.2981
 4469SOL     OW25039   2.179   3.823   1.180 -0.0535 -0.2294 -0.2763
 4469SOL    HW125040   2.267   3.852   1.154 -0.2410 -1.2292 -2.0221
 4469SOL    HW225041   2.160   3.769   1.103  1.3214 -0.9513 -0.1253
 4470SOL     OW25042   0.551   3.290  17.087 -0.3836  0.0032 -0.3413
 4470SOL    HW125043   0.528   3.197  17.088  1.2736 -0.3927  2.5793
 4470SOL    HW225044   0.647   3.285  17.089 -0.5188 -1.5489  2.7169
 4471SOL     OW25045   0.123   1.757   2.951  0.0911  0.6824 -0.1355
 4471SOL    HW125046   0.058   1.697   2.989  0.6662  0.1402  0.0013
 4471SOL    HW225047   0.164   1.794   3.029  0.6022 -2.1261  0.9184
 4472SOL     OW25048   4.453   1.427   6.022  0.5026 -0.2162 -0.1337
 4472SOL    HW125049   4.409   1.505   6.055 -2.0647 -0.3968 -3.2246
 4472SOL    HW225050   4.545   1.456   6.026 -0.0711  1.6183 -0.1447
 4473SOL     OW25051   3.209   4.306   9.482  0.4584 -0.4029  0.2744
 4473SOL    HW125052   3.173   4.303   9.571  0.3688 -1.0833  0.2156
 4473SOL    HW225053   3.240   4.215   9.483 -1.5129 -1.1028 -2.5414
 4474SOL     OW25054   0.775   2.606   6.915  0.3866  0.3142 -0.0380
 4474SOL    HW125055   0.825   2.598   6.834 -1.0976  0.8403 -0.9971
 4474SOL    HW225056   0.758   2.514   6.936  1.7362 -0.1188 -0.7932
 4475SOL     OW25057   3.011   2.296  11.445 -0.0969  0.5958  0.0465
 4475SOL    HW125058   2.956   2.297  11.523  1.3135  0.3513  1.0492
 4475SOL    HW225059   3.043   2.206  11.438 -3.2898 -0.5901  0.9088
 4476SOL     OW25060   0.881   4.061   4.337  0.4727  0.6547  0.6412
 4476SOL    HW125061   0.812   4.002   4.305  1.3869  1.1097 -2.2011
 4476SOL    HW225062   0.836   4.142   4.311 -1.0869  0.3318  2.4430
 4477SOL     OW25063   1.314   2.736  16.329 -0.6240 -0.0054 -0.4104
 4477SOL    HW125064   1.367   2.813  16.314  2.1065 -1.8174  0.0327
 4477SOL    HW225065   1.265   2.758  16.408 -0.4286  0.9369 -0.5581
 4478SOL     OW25066   2.314   4.543   2.817 -0.0606 -0.5990  0.0121
 4478SOL    HW125067   2.401   4.504   2.817 -0.6392 -1.9068  1.2050
 4478SOL    HW225068   2.308   4.588   2.733  0.0503  1.6289  1.2143
 4479SOL     OW25069   3.843   1.195   0.028  0.0483  0.8546  0.3488
 4479SOL    HW125070   3.797   1.204  17.683  0.5981  1.7145  0.1443
 4479SOL    HW225071   3.779   1.248   0.076  0.3936  0.3642  1.3434
 4480SOL     OW25072   3.773   3.293   3.809  0.1796  0.0483 -0.0982
 4480SOL    HW125073   3.767   3.207   3.850 -2.1759  2.3931  4.4456
 4480SOL    HW225074   3.704   3.344   3.852  2.6848  1.7910  1.7833
 4481SOL     OW25075   3.646   0.937   4.992 -0.3554 -0.3062 -0.2542
 4481SOL    HW125076   3.577   0.974   5.047 -1.2598 -1.0729 -0.8632
 4481SOL    HW225077   3.697   0.884   5.053  1.2275 -0.3043 -1.5665
 4482SOL     OW25078   1.561   1.913   4.135  0.2504 -0.1821  0.0095
 4482SOL    HW125079   1.486   1.957   4.176  0.2741  1.0524 -1.2638
 4482SOL    HW225080   1.537   1.898   4.043 -1.8162  2.8480  0.0466
 4483SOL     OW25081   0.725   2.073   1.188  0.0093 -0.4288  0.2380
 4483SOL    HW125082   0.722   2.169   1.196 -0.4151 -0.3454 -0.8856
 4483SOL    HW225083   0.728   2.047   1.280 -1.9529  1.1113  0.7341
 4484SOL     OW25084   1.220   3.518   3.994  0.3697 -0.2825  0.1664
 4484SOL    HW125085   1.216   3.514   3.898 -0.4788 -2.0047  0.2600
 4484SOL    HW225086   1.124   3.516   4.004  0.7594  0.6029  3.9254
 4485SOL     OW25087   3.197   4.325  17.725 -0.1302  0.3648 -0.5170
 4485SOL    HW125088   3.198   4.269   0.064 -0.1457 -1.3873 -1.7627
 4485SOL    HW225089   3.199   4.265  17.650 -2.9357  1.8260 -1.7876
 4486SOL     OW25090   3.169   0.960   5.904  0.2133  0.1261 -0.0523
 4486SOL    HW125091   3.238   1.022   5.923 -1.3953  2.4112 -1.7020
 4486SOL    HW225092   3.221   0.881   5.922 -1.1072 -0.6746  0.2823
 4487SOL     OW25093   1.340   1.992  16.158 -0.3878 -0.7388  0.2472
 4487SOL    HW125094   1.244   1.993  16.159 -0.3677  3.2905 -1.0808
 4487SOL    HW225095   1.356   2.086  16.165  1.3512 -1.3335  4.1279
 4488SOL     OW25096   0.491   2.891  17.510  0.4490  0.3093 -0.0837
 4488SOL    HW125097   0.421   2.831  17.536 -0.1039  0.1417 -1.9217
 4488SOL    HW225098   0.561   2.828  17.493  0.8662  1.0608 -1.1879
 4489SOL     OW25099   2.491   0.080   4.291 -0.3759  0.2189  0.5365
 4489SOL    HW125100   2.540   0.135   4.352 -1.2408  0.6755  0.8182
 4489SOL    HW225101   2.421   0.038   4.340 -1.8936  0.2991 -1.5417
 4490SOL     OW25102   3.589   3.040   8.224  0.4257  0.2221  0.4886
 4490SOL    HW125103   3.495   3.057   8.219  0.4886  1.3528  2.9979
 4490SOL    HW225104   3.603   3.064   8.133  0.9843  0.0225  0.5205
 4491SOL     OW25105   3.548   3.205   9.121 -0.0620  0.3066 -0.1139
 4491SOL    HW125106   3.566   3.276   9.059  1.8843 -0.2187 -0.1696
 4491SOL    HW225107   3.637   3.181   9.148 -1.1956 -0.8972  2.5464
 4492SOL     OW25108   1.649   0.036   9.082  0.0163  0.3653  0.3930
 4492SOL    HW125109   1.701   0.115   9.066 -1.9525  1.7086  0.5853
 4492SOL    HW225110   1.634   4.728   8.998 -0.3454  1.1028  0.0774
 4493SOL     OW25111   1.919   3.879  12.137  1.1048  1.0692 -0.1894
 4493SOL    HW125112   1.994   3.930  12.169  1.8092 -0.2121  0.1817
 4493SOL    HW225113   1.961   3.794  12.129  1.4393  1.0937  1.1626
 4494SOL     OW25114   4.091   3.262   3.645  1.2402  0.0896 -0.6403
 4494SOL    HW125115   4.015   3.309   3.680  2.4509  0.5992  1.3073
 4494SOL    HW225116   4.052   3.185   3.603 -1.8561  0.0843  2.2484
 4495SOL     OW25117   0.131   1.799   5.393 -0.7967  0.2825  0.4034
 4495SOL    HW125118   0.157   1.811   5.484  1.3495 -0.0036 -0.1662
 4495SOL    HW225119   0.103   1.708   5.399  3.3871 -1.1372 -1.8436
 4496SOL     OW25120   1.503   1.030   1.496 -0.7500  0.0759 -0.4357
 4496SOL    HW125121   1.542   0.943   1.486 -0.3373  0.1204  0.7766
 4496SOL    HW225122   1.499   1.046   1.590  2.3501 -0.3316 -0.2070
 4497SOL     OW25123   1.558   2.863   4.233 -0.0473 -0.0559 -0.2609
 4497SOL    HW125124   1.538   2.812   4.311  1.4998  1.3154  1.0305
 4497SOL    HW225125   1.542   2.802   4.162 -2.6061  0.9091 -0.5018
 4498SOL     OW25126   4.101   3.290   4.105  0.1409 -0.0731 -0.1504
 4498SOL    HW125127   4.175   3.341   4.137  0.9985 -0.9743 -0.7092
 4498SOL    HW225128   4.141   3.254   4.026 -2.4545  0.5284 -1.7656
 4499SOL     OW25129   2.059   2.797   9.315  0.1398 -0.4094  0.3623
 4499SOL    HW125130   2.095   2.884   9.296 -0.4818 -0.4639 -1.0370
 4499SOL    HW225131   1.973   2.803   9.275  1.0768 -0.3283 -1.6595
 4500SOL     OW25132   3.741   1.532  14.082  0.8125  0.3419  0.3147
 4500SOL    HW125133   3.666   1.510  14.027  0.4622  0.1755  0.8536
 4500SOL    HW225134   3.799   1.575  14.020  1.1165  1.0544  1.0844
 4501SOL     OW25135   1.081   3.590   4.742 -0.1969 -0.2572 -0.0925
 4501SOL    HW125136   1.038   3.546   4.815 -0.4211  0.7532  0.3821
 4501SOL    HW225137   1.046   3.543   4.667 -0.5004 -0.8804  0.4354
 4502SOL     OW25138   1.902   2.913  12.876  0.0620 -0.2743  0.5039
 4502SOL    HW125139   1.808   2.921  12.856  0.3778 -0.1428 -0.9484
 4502SOL    HW225140   1.896   2.838  12.935  4.7665 -0.4149  0.7783
 4503SOL     OW25141   4.699   1.601   5.104 -0.3529 -0.0737 -0.3690
 4503SOL    HW125142   4.713   1.577   5.196 -0.3502  1.2200 -0.0260
 4503SOL    HW225143   0.049   1.638   5.083 -1.1116  1.3306 -1.0157
 4504SOL     OW25144   3.964   0.513   9.486  0.3225 -0.5910  0.7485
 4504SOL    HW125145   4.044   0.564   9.475 -0.1186  0.1701  1.1603
 4504SOL    HW225146   3.992   0.426   9.458  0.9296 -0.2290  0.2422
 4505SOL     OW25147   3.504   2.303   2.737 -0.0152  0.3271  0.0811
 4505SOL    HW125148   3.596   2.293   2.711 -0.0252  0.6949 -0.0874
 4505SOL    HW225149   3.518   2.334   2.826 -1.0612 -1.2966  0.8278
 4506SOL     OW25150   3.583   3.337   4.375  0.0545 -0.0261 -0.2312
 4506SOL    HW125151   3.537   3.292   4.305  0.2288  1.4201 -1.2818
 4506SOL    HW225152   3.513   3.400   4.396 -0.0649 -0.6869  1.3791
 4507SOL     OW25153   3.656   4.646   5.994 -1.0297 -0.0209  0.0944
 4507SOL    HW125154   3.597   4.575   6.019 -0.2802 -0.1726  1.4640
 4507SOL    HW225155   3.660   4.703   6.071  2.1656 -2.1686  1.5015
 4508SOL     OW25156   3.078   0.119  10.113  0.4201 -0.0586 -0.0428
 4508SOL    HW125157   3.113   0.149  10.029  0.1091 -0.1052 -0.1891
 4508SOL    HW225158   3.135   0.161  10.177  1.3406 -1.6187  0.1495
 4509SOL     OW25159   0.876   3.449  12.297  1.2055 -0.0916 -0.2643
 4509SOL    HW125160   0.833   3.466  12.381 -1.3422  1.2804 -1.8401
 4509SOL    HW225161   0.906   3.539  12.281 -0.6700  0.5848  0.0340
 4510SOL     OW25162   0.910   1.919   4.468 -0.8241 -0.0804  0.8958
 4510SOL    HW125163   0.987   1.922   4.411 -2.4566 -0.2568 -1.3311
 4510SOL    HW225164   0.906   2.005   4.509  2.3581  1.1865 -1.4344
 4511SOL     OW25165   0.139   1.138   5.266 -1.4824  0.2157 -0.1794
 4511SOL    HW125166   0.058   1.153   5.218 -0.2456  3.8110 -1.1863
 4511SOL    HW225167   0.125   1.044   5.276  0.7123  0.2736  3.5995
 4512SOL     OW25168   3.057   1.315  15.939 -0.7339  0.0018  0.1773
 4512SOL    HW125169   3.089   1.376  15.872  1.7707 -0.3539  1.0495
 4512SOL    HW225170   3.108   1.347  16.013 -1.7131  0.4646  0.6510
 4513SOL     OW25171   1.983   0.925   4.913 -0.1006 -0.1167 -0.2520
 4513SOL    HW125172   1.892   0.905   4.937 -0.4100 -0.1565 -1.4650
 4513SOL    HW225173   2.025   0.944   4.997 -0.0196 -0.2719 -0.2582
 4514SOL     OW25174   3.977   4.327   0.843 -0.0603 -0.0201 -0.0508
 4514SOL    HW125175   3.921   4.346   0.918 -0.2389 -2.2058  0.3680
 4514SOL    HW225176   3.915   4.338   0.771  1.0493  1.8575 -0.7313
 4515SOL     OW25177   3.064   3.115  11.176 -0.3611 -0.0984  0.1081
 4515SOL    HW125178   3.081   3.147  11.265  1.2203 -1.6956  0.3844
 4515SOL    HW225179   3.022   3.030  11.188  0.2789 -0.8492 -2.9070
 4516SOL     OW25180   1.811   1.834  16.667  0.2333 -0.1192 -0.2791
 4516SOL    HW125181   1.722   1.821  16.634 -0.3788  0.4239  1.1494
 4516SOL    HW225182   1.801   1.894  16.741 -0.0597 -1.4293  0.7628
 4517SOL     OW25183   0.439   2.367   3.220 -0.3441 -0.4178 -0.0200
 4517SOL    HW125184   0.466   2.407   3.138  0.1883 -0.6080  0.0652
 4517SOL    HW225185   0.426   2.447   3.270  1.5599  0.6649 -1.2688
 4518SOL     OW25186   2.100   0.015   2.611 -0.6632 -0.4277 -0.2333
 4518SOL    HW125187   2.178   4.728   2.561 -1.3930  0.2227 -1.6756
 4518SOL    HW225188   2.032   0.019   2.543 -0.8112  1.5136  0.0314
 4519SOL     OW25189   2.374   1.474   8.839  0.1839 -0.4808 -0.1541
 4519SOL    HW125190   2.453   1.439   8.880  1.1928  0.5825 -1.2118
 4519SOL    HW225191   2.350   1.557   8.881 -0.8148 -0.3566 -0.9747
 4520SOL     OW25192   3.580   2.298   1.131  0.4080  0.6129 -0.3041
 4520SOL    HW125193   3.538   2.382   1.116 -0.8068  0.6389  3.2757
 4520SOL    HW225194   3.672   2.313   1.108  0.2443  3.4444  0.9600
 4521SOL     OW25195   3.649   1.202   6.001 -0.7722  0.5631 -0.0365
 4521SOL    HW125196   3.741   1.185   5.979 -0.3805  1.6827  0.7398
 4521SOL    HW225197   3.643   1.153   6.084  0.5174 -1.3413 -1.0838
 4522SOL     OW25198   3.775   1.061   3.693 -0.5130 -0.7035  0.3032
 4522SOL    HW125199   3.704   1.091   3.749 -0.4054  1.2180 -0.5807
 4522SOL    HW225200   3.853   1.111   3.719 -1.8285  0.7762  1.4314
 4523SOL     OW25201   1.890   1.064  11.417 -0.0755 -0.0758 -0.1099
 4523SOL    HW125202   1.896   0.969  11.405 -0.4351  0.1653 -2.1944
 4523SOL    HW225203   1.894   1.102  11.329 -0.0549 -0.0072 -0.0797
 4524SOL     OW25204   2.560   2.739   2.909 -0.3684  0.6285 -0.0737
 4524SOL    HW125205   2.556   2.689   2.990 -0.3803  0.5997 -0.0923
 4524SOL    HW225206   2.578   2.827   2.943 -1.3944 -0.1560  2.5198
 4525SOL     OW25207   3.131   2.651   5.228 -0.0087 -0.1475  0.7295
 4525SOL    HW125208   3.061   2.607   5.179  1.6123 -1.5135 -0.3820
 4525SOL    HW225209   3.175   2.575   5.266 -1.0550 -1.1264 -0.0037
 4526SOL     OW25210   2.732   4.695   0.474 -0.1271 -0.2620  0.5301
 4526SOL    HW125211   2.719   4.643   0.395  0.8103  1.5475 -0.8057
 4526SOL    HW225212   2.718   4.621   0.534 -2.0860  0.6806  1.2233
 4527SOL     OW25213   2.946   4.083   4.511 -0.7099  0.4268  0.1477
 4527SOL    HW125214   3.014   4.098   4.577 -0.5872  0.3238  0.0429
 4527SOL    HW225215   2.899   4.166   4.519  2.1063  1.7950  2.3817
 4528SOL     OW25216   4.578   2.407   3.315  0.6883 -0.1623 -0.8679
 4528SOL    HW125217   4.616   2.483   3.271 -1.0254  0.5230 -1.1602
 4528SOL    HW225218   4.569   2.351   3.238  1.9696 -0.7740 -0.5667
 4529SOL     OW25219   3.100   0.488  13.385 -0.8330 -0.2825 -0.4355
 4529SOL    HW125220   3.126   0.501  13.294 -1.4886 -2.4491 -0.9256
 4529SOL    HW225221   3.186   0.460  13.417 -0.1760  2.0912 -0.1174
 4530SOL     OW25222   2.595   1.452   2.006 -0.1261  0.3023 -0.8243
 4530SOL    HW125223   2.568   1.372   2.051 -1.9578  2.2094  1.4323
 4530SOL    HW225224   2.688   1.452   2.028 -0.3634  0.0848  0.1628
 4531SOL     OW25225   3.591   1.776   6.213  0.1960 -0.6352  0.5687
 4531SOL    HW125226   3.552   1.761   6.298  0.0187 -1.7012  0.2936
 4531SOL    HW225227   3.514   1.771   6.156 -0.7027  0.5844  1.6676
 4532SOL     OW25228   0.198   4.200   9.771  0.1347 -0.0855 -0.4657
 4532SOL    HW125229   0.171   4.130   9.831  1.4964  0.0516  0.3209
 4532SOL    HW225230   0.139   4.198   9.696  0.8172  1.3593 -1.0447
 4533SOL     OW25231   2.292   0.670   3.488  0.2066 -0.0678 -0.4403
 4533SOL    HW125232   2.318   0.719   3.411  0.7433 -0.7741 -0.7100
 4533SOL    HW225233   2.197   0.680   3.474  0.0493  1.2286  1.5815
 4534SOL     OW25234   1.164   4.150   8.206  0.4271  0.5101  0.0336
 4534SOL    HW125235   1.092   4.205   8.177  0.5333  0.4450 -0.3437
 4534SOL    HW225236   1.153   4.162   8.301  0.8011  0.1896  0.1200
 4535SOL     OW25237   3.616   0.248   7.488  0.7874 -0.1954 -0.4906
 4535SOL    HW125238   3.661   0.260   7.572 -0.5899 -0.4368  0.2868
 4535SOL    HW225239   3.603   0.153   7.483 -1.9038  0.1336 -0.0883
 4536SOL     OW25240   0.876   1.185   7.528 -0.0420  0.6083 -0.0636
 4536SOL    HW125241   0.964   1.146   7.529 -0.1759  0.2466 -1.7191
 4536SOL    HW225242   0.860   1.197   7.621 -0.7645 -0.3584 -0.0712
 4537SOL     OW25243   0.385   1.408   0.839  0.2064  0.9154  0.4986
 4537SOL    HW125244   0.430   1.381   0.919  2.6453 -0.3877 -1.2989
 4537SOL    HW225245   0.429   1.344   0.783 -0.6016 -0.1072  1.0354
 4538SOL     OW25246   3.803   3.435  12.086  0.1380  0.1080  0.4117
 4538SOL    HW125247   3.894   3.407  12.075  0.7324  1.8019  1.1626
 4538SOL    HW225248   3.791   3.390  12.169  2.7975 -0.7952  0.2972
 4539SOL     OW25249   1.243   2.491  14.535  0.3093 -0.6037 -0.2158
 4539SOL    HW125250   1.279   2.555  14.473 -0.1257 -0.4981 -0.3601
 4539SOL    HW225251   1.321   2.454  14.577  0.4194 -0.5903 -0.4083
 4540SOL     OW25252   3.559   1.128  17.102  0.1631 -0.4128 -0.3434
 4540SOL    HW125253   3.650   1.108  17.121 -0.0056 -0.8872 -0.0293
 4540SOL    HW225254   3.575   1.140  17.008  3.5599  0.6753  0.3808
 4541SOL     OW25255   0.146   2.339   5.642  0.4406  0.2494 -0.3225
 4541SOL    HW125256   0.081   2.409   5.637  0.5178  0.3779  0.5104
 4541SOL    HW225257   0.161   2.314   5.551 -0.7574  1.7422 -0.9354
 4542SOL     OW25258   3.777   0.715   6.780  0.1485  0.3401  0.3109
 4542SOL    HW125259   3.745   0.668   6.856 -1.2237  2.8034  1.2625
 4542SOL    HW225260   3.721   0.793   6.785  0.5522  0.6335  0.2502
 4543SOL     OW25261   4.189   2.516   8.113 -0.2287 -0.0267  0.4742
 4543SOL    HW125262   4.123   2.480   8.055 -0.4556  1.0285  0.0736
 4543SOL    HW225263   4.246   2.571   8.058 -0.8064 -1.1952 -1.2912
 4544SOL     OW25264   1.883   0.011   5.011 -0.1994  0.2402  0.4683
 4544SOL    HW125265   1.844   0.093   4.982  1.0798  1.3916  1.9902
 4544SOL    HW225266   1.961   0.012   4.955 -2.9366 -0.8110 -3.3770
 4545SOL     OW25267   0.739   4.207   3.462  0.1949 -0.5803 -0.5410
 4545SOL    HW125268   0.703   4.119   3.471 -1.3621 -0.1145 -2.3515
 4545SOL    HW225269   0.712   4.219   3.372 -1.1547  0.4333  0.0004
 4546SOL     OW25270   3.583   3.820   3.083 -0.2782  0.1844 -0.1281
 4546SOL    HW125271   3.614   3.865   3.004  0.4593 -0.3779 -0.1653
 4546SOL    HW225272   3.597   3.894   3.141 -2.5204 -1.2686  2.3080
 4547SOL     OW25273   0.348   1.508   4.638 -0.0483 -0.1569 -0.1993
 4547SOL    HW125274   0.440   1.525   4.656 -0.8102  0.6066  3.1017
 4547SOL    HW225275   0.325   1.451   4.712  0.6312 -0.1535  0.0130
 4548SOL     OW25276   4.217   0.427   8.024 -0.1599 -0.2461 -0.2882
 4548SOL    HW125277   4.305   0.394   8.006 -0.2164 -1.1395  1.0588
 4548SOL    HW225278   4.213   0.448   8.117 -1.3344  2.8307 -1.0368
 4549SOL     OW25279   1.708   1.398   0.607  0.4675 -0.3221 -0.3064
 4549SOL    HW125280   1.769   1.418   0.537  0.9299 -2.0969 -0.4110
 4549SOL    HW225281   1.689   1.304   0.606 -1.0178 -0.0613  1.7761
 4550SOL     OW25282   4.267   1.551  16.993  0.1835 -0.9838  0.7308
 4550SOL    HW125283   4.355   1.579  16.970 -0.0646 -0.7265  0.1241
 4550SOL    HW225284   4.270   1.459  16.968 -0.5657 -0.3138 -1.8005
 4551SOL     OW25285   3.242   0.492   4.563 -0.5084 -0.2243 -0.0618
 4551SOL    HW125286   3.254   0.420   4.501  0.9647 -1.2452  1.4044
 4551SOL    HW225287   3.168   0.541   4.527 -0.1691 -0.2306 -0.7696
 4552SOL     OW25288   2.032   2.801  13.976 -0.0664 -0.4356 -1.0789
 4552SOL    HW125289   1.958   2.861  13.980 -0.3539 -0.6303 -3.2341
 4552SOL    HW225290   2.094   2.862  13.935 -0.0278  0.1480 -0.1358
 4553SOL     OW25291   3.305   3.375  10.198 -0.0011  0.0994  0.4233
 4553SOL    HW125292   3.337   3.464  10.210 -0.4683  0.6526 -2.3944
 4553SOL    HW225293   3.356   3.343  10.123 -0.4169 -0.8393  0.5389
 4554SOL     OW25294   3.376   4.580   5.715  0.1530  0.2797  0.7356
 4554SOL    HW125295   3.330   4.546   5.638 -0.4955  1.7370  0.4910
 4554SOL    HW225296   3.445   4.630   5.673  0.1808  0.9888  1.6307
 4555SOL     OW25297   1.017   2.984  11.564  0.7690  0.0070 -0.1407
 4555SOL    HW125298   1.014   2.889  11.560 -0.7589 -0.0199  1.6068
 4555SOL    HW225299   1.105   2.998  11.599  0.4833  0.6444  0.3315
 4556SOL     OW25300   1.670   1.135   0.825  0.3571 -0.0975  0.5494
 4556SOL    HW125301   1.578   1.112   0.839 -0.3670  1.5429 -1.4200
 4556SOL    HW225302   1.725   1.075   0.875  1.6424 -0.9185 -1.8255
 4557SOL     OW25303   2.265   2.249   9.192  0.2502  0.0213  0.4424
 4557SOL    HW125304   2.188   2.244   9.134  0.6397  0.3656 -0.1062
 4557SOL    HW225305   2.332   2.201   9.142  0.5991  0.0327  0.9015
 4558SOL     OW25306   0.131   4.607   6.630 -0.0240  0.1375  0.3608
 4558SOL    HW125307   0.059   4.583   6.571 -1.0150  3.5163  0.1834
 4558SOL    HW225308   0.115   4.700   6.645  0.9510  0.1593  1.2835
 4559SOL     OW25309   4.076   2.540   5.047 -0.2548  0.1726  0.0048
 4559SOL    HW125310   4.011   2.575   4.986 -0.1493  1.1723  0.4666
 4559SOL    HW225311   4.137   2.500   4.984 -1.0627  0.6811 -1.1100
 4560SOL     OW25312   2.473   4.731  12.600  0.0494  0.2478  0.6989
 4560SOL    HW125313   2.448   0.087  12.583 -0.7203 -0.4409 -1.7592
 4560SOL    HW225314   2.560   4.734  12.560 -0.8194 -0.7034 -1.2728
 4561SOL     OW25315   0.438   4.296   1.495  0.1616  0.9007  0.1588
 4561SOL    HW125316   0.360   4.268   1.542 -0.1662  0.0681 -0.8798
 4561SOL    HW225317   0.503   4.293   1.566 -1.6258  0.4663  1.7794
 4562SOL     OW25318   1.866   4.708   0.077  0.8358 -0.4318 -0.4021
 4562SOL    HW125319   1.928   4.637   0.097  0.6080 -0.6701 -0.5514
 4562SOL    HW225320   1.877   4.702  17.721 -2.8578 -1.2880 -0.7429
 4563SOL     OW25321   1.526   3.580   2.929  0.3398  0.1354  0.3462
 4563SOL    HW125322   1.522   3.603   2.836  0.3016  0.9886  0.5571
 4563SOL    HW225323   1.615   3.548   2.943  1.2565  1.9194 -1.2908
 4564SOL     OW25324   4.707   1.652   7.741  0.5696  0.2642 -0.4240
 4564SOL    HW125325   4.721   1.745   7.725  3.0638  0.0599  0.6107
 4564SOL    HW225326   0.038   1.639   7.809  0.2654  1.2543  0.0567
 4565SOL     OW25327   1.175   3.131   6.178 -0.6390 -0.2127 -0.7259
 4565SOL    HW125328   1.166   3.145   6.272 -2.2159 -0.0929 -0.8994
 4565SOL    HW225329   1.193   3.037   6.175  0.4027 -0.0438  0.2722
 4566SOL     OW25330   2.498   2.971   5.359 -0.2717  0.2392  0.1579
 4566SOL    HW125331   2.490   2.878   5.379  1.0074  0.5356  2.0739
 4566SOL    HW225332   2.474   2.971   5.266  0.9643 -0.1734 -0.1626
 4567SOL     OW25333   4.019   4.109  11.006 -0.4545  0.1512 -0.2655
 4567SOL    HW125334   4.078   4.046  10.965  1.7282  1.0088  1.5383
 4567SOL    HW225335   4.036   4.183  10.947  1.5716 -1.0876 -1.2214
 4568SOL     OW25336   1.362   1.030  16.792  0.2211 -0.2478  0.2241
 4568SOL    HW125337   1.297   1.098  16.809 -0.1844 -0.4310 -0.6316
 4568SOL    HW225338   1.302   0.964  16.759 -1.2834  0.1441  2.1860
 4569SOL     OW25339   1.968   3.794  10.153 -0.1593  0.2513 -0.0959
 4569SOL    HW125340   1.909   3.725  10.123  0.2004  0.2430 -0.7948
 4569SOL    HW225341   1.997   3.749  10.232  0.2876 -0.0196 -0.4161
 4570SOL     OW25342   4.503   1.521  13.960  0.3549  0.1330  0.0114
 4570SOL    HW125343   4.486   1.427  13.952  0.4285  0.1677 -0.5498
 4570SOL    HW225344   4.458   1.546  14.041 -1.8745 -1.2903 -0.7776
 4571SOL     OW25345   4.106   3.780   2.328 -0.6343  0.0720  0.8600
 4571SOL    HW125346   4.116   3.687   2.349 -0.2790 -0.5874 -2.2357
 4571SOL    HW225347   4.128   3.813   2.415  1.0829  1.1835 -0.0138
 4572SOL     OW25348   0.182   1.924  15.463 -0.5236  0.0892  0.0937
 4572SOL    HW125349   0.170   1.832  15.486  1.4942  0.0928  1.2528
 4572SOL    HW225350   0.168   1.935  15.369  0.6512 -0.6157 -0.1703
 4573SOL     OW25351   0.234   2.677   5.494 -0.0305 -0.5279 -0.3067
 4573SOL    HW125352   0.164   2.711   5.549  1.2697  0.5375  0.6766
 4573SOL    HW225353   0.253   2.757   5.446 -0.9097  0.3634  0.8579
 4574SOL     OW25354   1.145   2.187  10.006 -0.1399 -0.2710 -0.0828
 4574SOL    HW125355   1.203   2.150  10.072  0.8331 -0.9524 -1.3176
 4574SOL    HW225356   1.106   2.107   9.970 -0.0875 -0.2573 -0.1686
 4575SOL     OW25357   1.779   2.646  15.818 -0.1102 -0.2118 -0.6082
 4575SOL    HW125358   1.684   2.634  15.814 -0.0999 -0.0965 -1.2172
 4575SOL    HW225359   1.770   2.738  15.796  0.1718 -0.4377 -1.6529
 4576SOL     OW25360   3.953   0.461   0.209  0.0686 -0.4068 -0.3853
 4576SOL    HW125361   3.949   0.540   0.154  0.2898 -0.0209  0.1500
 4576SOL    HW225362   4.017   0.414   0.156  2.1563  0.9349  0.9757
 4577SOL     OW25363   3.728   4.163   7.328  0.4286  0.1294 -0.4767
 4577SOL    HW125364   3.684   4.245   7.305 -1.0029 -0.8111 -1.1315
 4577SOL    HW225365   3.750   4.185   7.418  0.1902  1.1154 -0.6599
 4578SOL     OW25366   3.522   4.414   5.893  0.5030 -0.4601  0.1311
 4578SOL    HW125367   3.434   4.437   5.864  0.3378 -0.5245  0.5725
 4578SOL    HW225368   3.570   4.453   5.820 -0.5296 -0.0136 -0.3055
 4579SOL     OW25369   1.707   0.009  17.182 -0.1377  0.0909  0.0664
 4579SOL    HW125370   1.796   0.044  17.179  0.1168 -0.7080 -1.6370
 4579SOL    HW225371   1.669   0.033  17.097 -0.5453  0.7559  0.4301
 4580SOL     OW25372   2.827   0.704  16.260 -0.1191 -0.1536  0.0105
 4580SOL    HW125373   2.847   0.614  16.289  0.3874 -0.2197 -0.5437
 4580SOL    HW225374   2.911   0.747  16.275  0.0853 -0.1341 -1.1450
 4581SOL     OW25375   0.617   3.714   4.443  0.1696  0.0951 -0.0881
 4581SOL    HW125376   0.568   3.735   4.522 -0.4882  3.1100 -1.3245
 4581SOL    HW225377   0.667   3.637   4.471  0.6357 -0.5237 -2.6596
 4582SOL     OW25378   0.493   0.745   9.461  0.1557 -0.0094  0.2690
 4582SOL    HW125379   0.456   0.804   9.527 -0.8148  1.1194 -1.2816
 4582SOL    HW225380   0.481   0.655   9.490 -0.5902 -0.5499 -1.6859
 4583SOL     OW25381   1.817   3.874   6.943 -0.1120 -0.9383 -0.3711
 4583SOL    HW125382   1.862   3.958   6.935 -2.7380  0.6283  1.5619
 4583SOL    HW225383   1.747   3.890   6.880 -2.5266  0.6530  2.7652
 4584SOL     OW25384   2.829   3.067   8.253 -0.1479  0.1885  0.4155
 4584SOL    HW125385   2.798   3.157   8.245  1.7691  0.8603  0.4445
 4584SOL    HW225386   2.835   3.039   8.162  0.2460  2.2214 -0.1726
 4585SOL     OW25387   1.179   0.467  16.135  0.7527  0.4822 -0.1246
 4585SOL    HW125388   1.228   0.548  16.121  0.1668  1.0771  1.3447
 4585SOL    HW225389   1.108   0.475  16.071  1.4020 -0.5719 -0.9858
 4586SOL     OW25390   3.990   1.743   7.034  0.1195  0.8017  0.2457
 4586SOL    HW125391   3.975   1.790   7.116  2.1982  1.7167  0.0899
 4586SOL    HW225392   3.897   1.725   7.017  0.5417  0.2051 -1.4471
 4587SOL     OW25393   2.911   0.190   8.108  0.8312 -0.0139  0.4024
 4587SOL    HW125394   2.831   0.140   8.117 -0.7955  2.2390 -1.4934
 4587SOL    HW225395   2.966   0.114   8.087 -0.8211 -1.0768 -0.0537
 4588SOL     OW25396   0.930   2.680   7.569 -0.3083 -1.0799  0.1482
 4588SOL    HW125397   1.023   2.656   7.561 -0.0208  0.4001 -1.1177
 4588SOL    HW225398   0.893   2.629   7.497 -1.7396  0.3941 -0.1650
 4589SOL     OW25399   0.705   1.923   2.002  0.0498 -0.6031  0.2590
 4589SOL    HW125400   0.755   1.844   2.025  1.0547  0.8641  3.0462
 4589SOL    HW225401   0.701   1.963   2.088  1.3459  0.6339 -0.2572
 4590SOL     OW25402   0.760   0.217   7.743 -0.0643 -0.4213 -0.0387
 4590SOL    HW125403   0.675   0.182   7.770 -0.7958  1.0492 -0.4327
 4590SOL    HW225404   0.766   0.295   7.798 -0.5053 -0.1750 -0.3363
 4591SOL     OW25405   3.385   1.827  14.720  0.3067  0.1529 -0.3068
 4591SOL    HW125406   3.300   1.844  14.761  1.1490 -1.2942  2.0407
 4591SOL    HW225407   3.450   1.860  14.782 -0.3308  0.8216 -0.0021
 4592SOL     OW25408   0.586   1.275   4.846  0.5054  0.0989  0.4094
 4592SOL    HW125409   0.497   1.306   4.832  0.3380 -1.3367 -1.7698
 4592SOL    HW225410   0.606   1.241   4.758 -0.7514  2.1443 -0.6586
 4593SOL     OW25411   3.225   1.133   8.094  0.1653  0.5696 -0.1179
 4593SOL    HW125412   3.320   1.137   8.079  0.0862 -0.0723 -0.8216
 4593SOL    HW225413   3.200   1.091   8.011  1.6453 -1.0463  0.2420
 4594SOL     OW25414   1.307   4.132   3.860 -0.0667 -0.6151 -0.0038
 4594SOL    HW125415   1.252   4.146   3.936  0.7023 -1.8108  0.7664
 4594SOL    HW225416   1.381   4.088   3.902  0.9543  2.5724  1.5834
 4595SOL     OW25417   1.994   4.342   0.708 -0.7767 -0.1794 -0.3385
 4595SOL    HW125418   1.986   4.390   0.791  0.6610 -2.0518  0.8820
 4595SOL    HW225419   1.912   4.293   0.700 -1.3333  0.6129  0.4703
 4596SOL     OW25420   0.259   0.588   3.299 -0.0514  0.5569  0.1536
 4596SOL    HW125421   0.239   0.681   3.309 -0.8937  0.3927 -0.0183
 4596SOL    HW225422   0.333   0.570   3.358  1.3230  3.1294 -0.7984
 4597SOL     OW25423   4.319   4.626  15.678 -0.9366  0.5227 -0.2531
 4597SOL    HW125424   4.331   4.700  15.738  0.3115  0.9287 -1.0050
 4597SOL    HW225425   4.226   4.641  15.660 -0.8746 -0.1204 -1.0849
 4598SOL     OW25426   4.532   0.778   3.636  0.3144 -0.3416  0.3623
 4598SOL    HW125427   4.614   0.819   3.662  0.7288 -0.8691 -0.1067
 4598SOL    HW225428   4.485   0.766   3.719  0.5658  1.1946  0.7212
 4599SOL     OW25429   1.227   2.950  11.322 -0.1522 -0.1393  0.1721
 4599SOL    HW125430   1.207   2.880  11.259  0.6596  0.3589 -0.6523
 4599SOL    HW225431   1.297   2.910  11.374  0.2651  0.1038 -0.2034
 4600SOL     OW25432   3.823   1.871   6.597 -0.0915  0.5944  0.0150
 4600SOL    HW125433   3.732   1.890   6.616 -0.5719 -0.3255 -1.3002
 4600SOL    HW225434   3.855   1.887   6.685 -0.8251 -2.4747  0.8502
 4601SOL     OW25435   2.256   2.437  13.139 -0.1051 -0.5516 -0.3022
 4601SOL    HW125436   2.312   2.440  13.216  0.1871  1.5092 -0.6030
 4601SOL    HW225437   2.320   2.463  13.072 -0.7711 -1.3446 -1.2479
 4602SOL     OW25438   0.430   4.510   3.753  0.0832  0.4049 -0.1527
 4602SOL    HW125439   0.496   4.521   3.821 -2.5394  2.3843  2.0668
 4602SOL    HW225440   0.470   4.523   3.668 -0.0919 -0.2890 -0.3474
 4603SOL     OW25441   3.460   1.318   3.724 -0.6986 -0.1683  0.1509
 4603SOL    HW125442   3.548   1.300   3.692 -0.4131  1.2446  0.1387
 4603SOL    HW225443   3.419   1.360   3.648  0.2133  2.0755  0.9253
 4604SOL     OW25444   3.281   2.023   6.071  0.4916  0.5292 -0.3837
 4604SOL    HW125445   3.240   1.941   6.045  2.0726 -0.8456  1.6010
 4604SOL    HW225446   3.203   2.067   6.036 -0.1751  0.0788  0.5613
 4605SOL     OW25447   3.603   0.672  15.295  0.0926  0.1988  0.1779
 4605SOL    HW125448   3.561   0.699  15.213  0.1562  0.1716  0.1360
 4605SOL    HW225449   3.618   0.578  15.288 -4.0879 -0.4624  0.3094
 4606SOL     OW25450   3.883   0.786  15.353 -0.3773  0.2440  0.1090
 4606SOL    HW125451   3.802   0.758  15.309  0.3878  0.8189 -1.6514
 4606SOL    HW225452   3.899   0.729  15.428 -1.8220  1.0348  1.0191
 4607SOL     OW25453   1.445   3.477   4.376 -0.0283 -0.2199  1.0393
 4607SOL    HW125454   1.538   3.478   4.395 -0.4209 -1.6551  3.0133
 4607SOL    HW225455   1.407   3.494   4.462 -0.7224 -0.0999  0.7150
 4608SOL     OW25456   4.341   1.688   6.091  0.3943 -0.6191 -0.8124
 4608SOL    HW125457   4.266   1.745   6.073  0.8161 -0.5797 -2.4831
 4608SOL    HW225458   4.403   1.707   6.020  1.4216  0.3006  0.3309
 4609SOL     OW25459   3.964   0.648  17.015  0.7386  0.1914 -0.1781
 4609SOL    HW125460   3.899   0.667  17.083  0.8573  0.0105 -0.0157
 4609SOL    HW225461   3.930   0.569  16.973 -0.9803  0.1651  1.2475
 4610SOL     OW25462   2.775   0.202   7.771  0.8114 -0.2728  0.8428
 4610SOL    HW125463   2.843   0.172   7.710  0.4244  1.7261 -0.5894
 4610SOL    HW225464   2.752   0.122   7.818 -0.0447 -0.7688 -0.4280
 4611SOL     OW25465   1.059   3.423   5.400 -0.0001 -0.4345 -0.3099
 4611SOL    HW125466   1.036   3.507   5.439  1.6071 -0.3711  0.5487
 4611SOL    HW225467   1.047   3.363   5.474  0.9051 -1.8649 -1.3168
 4612SOL     OW25468   2.415   3.638  11.301  0.1200  0.1012  0.0507
 4612SOL    HW125469   2.384   3.710  11.247  0.5112 -0.0741 -0.4144
 4612SOL    HW225470   2.498   3.608  11.264  1.2551  0.5045  2.3060
 4613SOL     OW25471   1.229   0.122   4.492  0.3318  0.0077 -0.3430
 4613SOL    HW125472   1.294   0.076   4.438  0.4443  0.3595 -0.5059
 4613SOL    HW225473   1.182   0.178   4.430  1.5550 -0.0556 -1.3299
 4614SOL     OW25474   2.542   4.237   9.572 -0.2777  0.0286  0.0940
 4614SOL    HW125475   2.624   4.191   9.590 -1.0369 -0.9319  1.0208
 4614SOL    HW225476   2.528   4.269   9.661 -0.7282  0.0770  0.0063
 4615SOL     OW25477   4.192   0.742   4.076 -0.2537 -0.3536  0.0407
 4615SOL    HW125478   4.228   0.680   4.140  1.3118 -0.9341 -1.4041
 4615SOL    HW225479   4.104   0.706   4.062  0.5748 -1.8926 -1.1840
 4616SOL     OW25480   4.322   1.482   8.500 -0.0490 -0.0235  0.0675
 4616SOL    HW125481   4.319   1.411   8.563 -1.3068  0.6333  0.7607
 4616SOL    HW225482   4.308   1.432   8.419  1.4596 -0.9937  0.4205
 4617SOL     OW25483   2.125   2.118   7.984 -0.8112 -0.5093  0.1533
 4617SOL    HW125484   2.120   2.044   8.044  3.1250  0.1270  1.2793
 4617SOL    HW225485   2.071   2.107   7.906  1.1323 -1.9294 -0.9797
 4618SOL     OW25486   3.450   4.505  16.854 -0.0836 -0.6065 -0.0144
 4618SOL    HW125487   3.475   4.470  16.939  0.5063 -0.6139 -0.1892
 4618SOL    HW225488   3.486   4.438  16.797  0.4289 -0.7490  0.4809
 4619SOL     OW25489   3.591   2.683   2.285 -0.0932  0.4851  0.0929
 4619SOL    HW125490   3.526   2.683   2.214 -0.2088 -1.1323  0.2048
 4619SOL    HW225491   3.535   2.722   2.352  0.6248  2.6365 -0.5751
 4620SOL     OW25492   1.941   0.333  17.685  0.2284 -0.9164  0.5011
 4620SOL    HW125493   1.935   0.279   0.025 -0.7630 -0.5486  0.6729
 4620SOL    HW225494   2.033   0.321  17.660  0.4844  3.0606 -0.4037
 4621SOL     OW25495   2.142   3.203   4.895 -0.4440  0.6998 -0.1698
 4621SOL    HW125496   2.228   3.233   4.924 -0.0142  1.2968 -2.0007
 4621SOL    HW225497   2.091   3.241   4.966 -0.6680 -0.7537  0.4408
 4622SOL     OW25498   3.900   0.595  16.612 -0.6382  0.6925 -0.3507
 4622SOL    HW125499   3.833   0.564  16.674 -3.2607  0.8856 -3.0634
 4622SOL    HW225500   3.914   0.681  16.650 -4.5689  0.4965  1.6111
 4623SOL     OW25501   0.809   0.765   4.473  0.1591 -0.1240  0.7536
 4623SOL    HW125502   0.905   0.773   4.467 -0.3899  4.8085 -0.7071
 4623SOL    HW225503   0.818   0.685   4.525  0.0066 -0.7746 -0.2255
 4624SOL     OW25504   0.285   1.315   2.144  0.7603  1.0458 -0.4183
 4624SOL    HW125505   0.371   1.281   2.120  0.1814  0.8651 -2.2429
 4624SOL    HW225506   0.303   1.347   2.233  0.2455 -0.5139  0.2568
 4625SOL     OW25507   4.225   1.611   2.369 -0.3516 -0.5477 -0.2085
 4625SOL    HW125508   4.151   1.561   2.335  0.0735  0.5762 -2.7876
 4625SOL    HW225509   4.206   1.705   2.375  1.3793 -0.2863  1.2484
 4626SOL     OW25510   3.573   4.578   3.342  0.0067 -0.4055  0.2321
 4626SOL    HW125511   3.606   4.567   3.432 -0.7630 -0.5859  0.4884
 4626SOL    HW225512   3.479   4.578   3.358  0.1076  1.1373  0.8629
 4627SOL     OW25513   2.050   0.934   3.957  0.2328  0.1606 -0.2044
 4627SOL    HW125514   2.035   0.868   4.024 -0.1944 -0.9230 -1.3757
 4627SOL    HW225515   1.967   0.983   3.955 -1.4709 -2.6823  1.1555
 4628SOL     OW25516   0.022   3.134   9.542 -0.1055  0.0710 -0.1135
 4628SOL    HW125517   4.697   3.060   9.551 -0.7419  0.6106  0.1307
 4628SOL    HW225518   0.088   3.119   9.609 -2.4290 -0.0654  2.1544
 4629SOL     OW25519   0.462   3.133   9.711 -0.2927  0.1128 -0.0355
 4629SOL    HW125520   0.517   3.198   9.756  0.9091 -0.3208 -0.8968
 4629SOL    HW225521   0.452   3.169   9.623  0.4875  0.9086  0.2038
 4630SOL     OW25522   2.599   0.356  13.350 -0.3328 -0.2923 -0.0414
 4630SOL    HW125523   2.648   0.274  13.348  0.4692  0.1322  2.4684
 4630SOL    HW225524   2.540   0.346  13.275 -0.7674  2.0913 -0.0040
 4631SOL     OW25525   1.378   1.556   1.139 -0.1719 -0.1154  0.3299
 4631SOL    HW125526   1.471   1.535   1.144 -0.6526 -2.5718 -1.2180
 4631SOL    HW225527   1.365   1.581   1.230 -0.5693  1.0783 -0.0462
 4632SOL     OW25528   1.895   1.318   0.830 -0.0457  0.3384 -0.0634
 4632SOL    HW125529   1.845   1.400   0.828 -1.7200 -0.6618  1.1687
 4632SOL    HW225530   1.825   1.253   0.837  1.5922 -1.2710  1.3058
 4633SOL     OW25531   1.379   0.140  13.224  0.4747  0.2837 -0.1735
 4633SOL    HW125532   1.330   0.066  13.258  0.8311  0.2626  0.3029
 4633SOL    HW225533   1.342   0.149  13.137 -0.8122 -1.1481  0.2353
 4634SOL     OW25534   4.258   3.629   3.025 -0.5355 -0.1873 -0.3328
 4634SOL    HW125535   4.260   3.537   3.050 -0.3160 -0.5590 -1.7306
 4634SOL    HW225536   4.250   3.672   3.110 -0.2782  1.2794 -1.0446
 4635SOL     OW25537   1.621   3.372   7.365  0.2234  0.1786  0.0569
 4635SOL    HW125538   1.596   3.458   7.400 -0.5403 -0.2748  0.6248
 4635SOL    HW225539   1.622   3.324   7.448 -0.6833 -0.0562 -0.0785
 4636SOL     OW25540   4.239   1.013  15.161 -0.3060 -0.0499 -1.1701
 4636SOL    HW125541   4.201   1.001  15.074 -2.2808 -0.6663 -0.2152
 4636SOL    HW225542   4.332   1.006  15.136 -0.7847 -2.3970 -2.3473
 4637SOL     OW25543   2.290   0.167   5.782 -0.0348  0.5014  0.4819
 4637SOL    HW125544   2.350   0.165   5.857 -0.0112  1.0860  0.4834
 4637SOL    HW225545   2.278   0.262   5.783 -3.0658  0.1149 -0.7594
 4638SOL     OW25546   3.319   1.025   6.755  0.1814 -0.5764 -0.4592
 4638SOL    HW125547   3.292   1.105   6.709 -1.3756 -0.9452 -0.1989
 4638SOL    HW225548   3.314   0.966   6.680 -1.2012 -0.7920 -0.1977
 4639SOL     OW25549   1.376   3.461   6.843  0.0205  0.0395  0.0134
 4639SOL    HW125550   1.427   3.541   6.859  0.8631 -0.5215  0.1299
 4639SOL    HW225551   1.387   3.418   6.927  2.9056  2.6469  0.9937
 4640SOL     OW25552   3.361   1.896  15.037  0.5513 -0.1659  0.2389
 4640SOL    HW125553   3.431   1.917  14.976 -0.1883  0.0395 -0.5345
 4640SOL    HW225554   3.408   1.858  15.112  0.5010  0.9701  0.8605
 4641SOL     OW25555   0.817   0.361   5.468  0.0573  0.0100 -0.1863
 4641SOL    HW125556   0.725   0.387   5.474  0.2086 -0.1960  2.5956
 4641SOL    HW225557   0.868   0.442   5.459 -1.9950  1.7568  4.0839
 4642SOL     OW25558   1.726   2.567   4.546  0.6064  0.1445  0.0353
 4642SOL    HW125559   1.794   2.571   4.478  0.5229  2.3832  0.0958
 4642SOL    HW225560   1.767   2.513   4.614 -2.0651 -0.8548  0.8224
 4643SOL     OW25561   4.556   3.909   3.666  0.4553  0.2849  0.1723
 4643SOL    HW125562   4.471   3.951   3.680 -0.1440 -0.6616 -0.6254
 4643SOL    HW225563   4.530   3.859   3.588 -0.5500  3.1048 -1.3114
 4644SOL     OW25564   0.823   1.564   1.970  0.0798  0.3142 -0.3638
 4644SOL    HW125565   0.873   1.589   2.049 -0.5553 -0.6530  0.3412
 4644SOL    HW225566   0.748   1.621   1.984 -0.4396 -1.1935  3.0683
 4645SOL     OW25567   3.014   0.436   1.513  0.3732  0.0335  0.3028
 4645SOL    HW125568   3.045   0.348   1.490  2.7051  0.8598  0.2228
 4645SOL    HW225569   3.073   0.451   1.587  2.2405 -0.3563 -1.1183
 4646SOL     OW25570   1.441   2.349   6.969 -0.2470  0.6792  0.1533
 4646SOL    HW125571   1.520   2.296   6.977 -0.9611 -0.6248 -1.3464
 4646SOL    HW225572   1.388   2.306   6.902  0.6438 -0.7274  0.3664
 4647SOL     OW25573   1.791   2.239   9.182 -0.2338 -0.4018  0.1715
 4647SOL    HW125574   1.723   2.173   9.197 -0.2527  0.1813  2.6696
 4647SOL    HW225575   1.866   2.196   9.223  0.4655 -1.8059 -2.5549
 4648SOL     OW25576   2.422   2.625   3.396  0.0758 -0.1866  0.3217
 4648SOL    HW125577   2.469   2.631   3.313 -2.1697  0.1191 -0.9372
 4648SOL    HW225578   2.377   2.542   3.379 -0.9622  0.4594 -0.0785
 4649SOL     OW25579   1.080   4.633  17.497  0.8190  0.5211 -0.1561
 4649SOL    HW125580   1.155   4.598  17.545  1.5368 -2.5500 -3.5348
 4649SOL    HW225581   1.127   4.680  17.429 -0.0275  1.9588  0.2474
 4650SOL     OW25582   3.661   3.933   5.529  0.2534 -0.0194  0.0451
 4650SOL    HW125583   3.715   3.951   5.606  1.6667  0.3025 -1.0172
 4650SOL    HW225584   3.591   3.997   5.517 -1.7330 -2.3757 -0.8717
 4651SOL     OW25585   4.555   3.441  12.997  0.4787 -0.7458 -0.6204
 4651SOL    HW125586   4.572   3.526  13.037 -1.2233 -0.4817 -0.4978
 4651SOL    HW225587   4.489   3.463  12.931  0.4442 -0.2886 -0.4299
 4652SOL     OW25588   0.610   2.097  15.760  0.1459 -0.2106 -0.4052
 4652SOL    HW125589   0.644   2.075  15.847  0.8872 -0.7223 -0.8276
 4652SOL    HW225590   0.573   2.016  15.725 -1.4413 -0.2674  1.3958
 4653SOL     OW25591   2.972   1.717  16.583 -0.5104 -0.5518 -0.1632
 4653SOL    HW125592   2.992   1.749  16.494  0.6301  0.9444  0.6274
 4653SOL    HW225593   2.979   1.790  16.644 -0.9210 -1.0172  0.4314
 4654SOL     OW25594   4.022   4.223   9.293  0.5032  0.2713 -0.1822
 4654SOL    HW125595   3.965   4.245   9.366  1.5873 -1.0455  1.0683
 4654SOL    HW225596   4.063   4.145   9.332  1.0092  0.0726 -1.1090
 4655SOL     OW25597   0.070   2.227   3.124  0.3918  0.0882  0.0821
 4655SOL    HW125598   0.142   2.216   3.061  1.1421  3.1810  0.4427
 4655SOL    HW225599   0.029   2.308   3.095  0.0187  0.0777  0.5789
 4656SOL     OW25600   1.788   0.832   1.216  0.5544  0.3149 -0.4420
 4656SOL    HW125601   1.739   0.827   1.298  0.0137  2.4544 -0.6283
 4656SOL    HW225602   1.732   0.769   1.171  0.6881 -0.4210  0.4336
 4657SOL     OW25603   1.422   4.160   3.607 -0.2309  0.6758 -0.2938
 4657SOL    HW125604   1.502   4.206   3.629 -0.9005  0.8317  1.7899
 4657SOL    HW225605   1.371   4.184   3.684  0.8726  0.3406  0.5317
 4658SOL     OW25606   4.306   3.740  15.310  0.2558  0.3218 -0.0316
 4658SOL    HW125607   4.358   3.683  15.253  0.5009 -0.3479  0.8554
 4658SOL    HW225608   4.382   3.772  15.359  0.1574  0.1501  0.2316
 4659SOL     OW25609   3.117   2.877   4.762 -0.3246 -0.2076 -0.4632
 4659SOL    HW125610   3.041   2.829   4.796 -0.5498  0.4002 -0.1213
 4659SOL    HW225611   3.189   2.816   4.745 -1.0397 -0.8870 -1.0383
 4660SOL     OW25612   0.166   0.691  10.473 -0.2023  0.2627  0.0746
 4660SOL    HW125613   0.186   0.784  10.488 -1.2420  0.9079 -2.4587
 4660SOL    HW225614   0.205   0.656  10.553  2.0420 -0.3766 -1.2936
 4661SOL     OW25615   0.005   2.481  16.918  0.2381  0.3620 -0.2597
 4661SOL    HW125616   0.077   2.418  16.919 -0.8209 -0.8814 -1.6916
 4661SOL    HW225617   4.692   2.459  16.998 -0.3363 -1.9518 -1.2537
 4662SOL     OW25618   2.503   3.183  11.763  0.3033  0.3862 -0.4456
 4662SOL    HW125619   2.563   3.155  11.832 -0.8004  1.0762  0.7787
 4662SOL    HW225620   2.473   3.100  11.726  2.3737 -0.2045 -0.8387
 4663SOL     OW25621   1.505   2.736   3.960  0.0190 -0.2660 -0.0815
 4663SOL    HW125622   1.564   2.676   4.005  0.2242  1.2256  1.6167
 4663SOL    HW225623   1.455   2.668   3.915 -1.2121  0.3777  0.3330
 4664SOL     OW25624   1.342   4.566   3.242 -0.4584 -0.0223  0.5876
 4664SOL    HW125625   1.406   4.631   3.273 -0.1087 -0.6970  1.2991
 4664SOL    HW225626   1.365   4.485   3.289 -3.1772 -1.0922  0.0847
 4665SOL     OW25627   2.442   0.495   2.020  0.3453 -0.1449 -0.3187
 4665SOL    HW125628   2.475   0.416   1.977 -2.0077 -0.9546 -0.6622
 4665SOL    HW225629   2.419   0.556   1.950 -2.9716 -0.3885  0.5494
 4666SOL     OW25630   1.609   1.518  12.165  0.0747 -0.0923 -0.1629
 4666SOL    HW125631   1.664   1.458  12.114  1.2258  0.5108  0.3777
 4666SOL    HW225632   1.667   1.527  12.241  1.3079  0.7935 -1.2001
 4667SOL     OW25633   1.823   4.089  11.984 -0.0262 -0.3344  0.0566
 4667SOL    HW125634   1.844   4.014  12.039 -2.9207  0.6403  2.4545
 4667SOL    HW225635   1.893   4.078  11.919 -0.8058  1.3296 -1.0573
 4668SOL     OW25636   4.144   3.170   2.844  0.5053  0.0695  0.3632
 4668SOL    HW125637   4.118   3.079   2.829  2.1687 -0.3570  0.0308
 4668SOL    HW225638   4.229   3.187   2.803 -0.8802  0.1216 -2.4254
 4669SOL     OW25639   1.116   4.291   9.156  0.0228  0.6073 -0.2192
 4669SOL    HW125640   1.043   4.229   9.163 -2.1993  3.2646 -0.2070
 4669SOL    HW225641   1.177   4.267   9.225 -0.4708 -1.1209 -0.3742
 4670SOL     OW25642   0.571   0.876   1.969  0.2034  0.0280 -0.0099
 4670SOL    HW125643   0.484   0.880   2.007 -0.7634 -0.2652 -2.2041
 4670SOL    HW225644   0.566   0.962   1.928  0.2456 -0.6345 -1.3816
 4671SOL     OW25645   2.133   3.337   1.577 -0.4568 -0.3046 -0.4709
 4671SOL    HW125646   2.042   3.348   1.602 -0.3732  1.1329 -0.8227
 4671SOL    HW225647   2.110   3.320   1.485  3.0548  1.8574 -1.7738
 4672SOL     OW25648   3.539   2.977   6.640  0.4740  0.5893 -0.3423
 4672SOL    HW125649   3.583   3.058   6.614  1.7062 -0.0340 -0.2204
 4672SOL    HW225650   3.466   2.976   6.579 -0.6381 -0.1228  0.9948
 4673SOL     OW25651   0.883   4.259   7.791 -0.2375 -0.2852  0.0970
 4673SOL    HW125652   0.893   4.292   7.880 -1.7185 -1.0354  0.5481
 4673SOL    HW225653   0.836   4.177   7.809 -4.3908  2.4108  1.3062
 4674SOL     OW25654   1.438   0.700  10.495 -0.3308 -0.3255 -0.2482
 4674SOL    HW125655   1.415   0.737  10.409 -1.7738 -1.4348 -0.3372
 4674SOL    HW225656   1.532   0.717  10.499 -0.8087  1.7225  1.9933
 4675SOL     OW25657   0.383   4.566   9.643 -0.1887  0.3525  0.5872
 4675SOL    HW125658   0.406   4.646   9.691 -0.8426  0.1283  1.2919
 4675SOL    HW225659   0.328   4.524   9.710  1.1742 -0.2112  1.3530
 4676SOL     OW25660   1.156   4.201   4.224 -0.5377 -0.0435  0.3118
 4676SOL    HW125661   1.071   4.214   4.266  0.8606  1.1437  2.7275
 4676SOL    HW225662   1.221   4.205   4.294  1.3079  2.0075 -1.5130
 4677SOL     OW25663   4.411   0.631   6.022  0.5079  0.0852 -0.5623
 4677SOL    HW125664   4.462   0.581   5.959  1.1613 -0.6747  0.5607
 4677SOL    HW225665   4.333   0.628   5.967 -1.1111 -1.6184  1.7933
 4678SOL     OW25666   1.858   3.611   5.666  0.3383  0.3370  0.0250
 4678SOL    HW125667   1.769   3.601   5.700 -0.3170 -1.1858 -2.1835
 4678SOL    HW225668   1.890   3.523   5.686  1.0609  0.8609  1.1867
 4679SOL     OW25669   3.052   4.165   7.194  0.2798  0.3418 -0.3063
 4679SOL    HW125670   3.030   4.159   7.287 -2.1179  0.9508 -0.8265
 4679SOL    HW225671   2.973   4.129   7.154  0.7563 -2.1514  0.9400
 4680SOL     OW25672   0.584   3.753  16.711 -0.2112 -0.5500  0.1308
 4680SOL    HW125673   0.678   3.749  16.726 -0.3452 -0.5959  0.9612
 4680SOL    HW225674   0.582   3.837  16.664 -3.0013  0.0297  1.2300
 4681SOL     OW25675   0.409   0.219   6.884  0.5000 -0.3197  0.2030
 4681SOL    HW125676   0.369   0.288   6.937 -0.0486 -0.4117 -0.0907
 4681SOL    HW225677   0.416   0.140   6.939 -0.6202 -0.7087 -0.2055
 4682SOL     OW25678   2.623   1.324   1.496 -0.2052  0.5122  0.3273
 4682SOL    HW125679   2.682   1.335   1.421  0.0303  2.7699  0.8173
 4682SOL    HW225680   2.543   1.359   1.456  0.0340  0.5020 -0.1529
 4683SOL     OW25681   1.428   2.230   3.045 -0.0791 -0.2924 -0.2094
 4683SOL    HW125682   1.413   2.188   2.960 -0.1331  0.9489 -0.8127
 4683SOL    HW225683   1.359   2.294   3.060  1.0022  0.7399  0.3788
 4684SOL     OW25684   0.468   1.653   3.599  0.1316 -0.5782 -0.3302
 4684SOL    HW125685   0.401   1.698   3.547 -0.8300 -0.7429  0.7477
 4684SOL    HW225686   0.521   1.726   3.631  0.2942 -0.8367 -0.0082
 4685SOL     OW25687   1.239   3.924   4.261  0.4825 -0.1550 -0.0433
 4685SOL    HW125688   1.266   3.894   4.175 -2.0959 -1.1048 -0.5139
 4685SOL    HW225689   1.242   4.020   4.255 -0.5309 -0.1855 -0.9667
 4686SOL     OW25690   3.736   2.149   2.116  0.7168  0.1115  0.2659
 4686SOL    HW125691   3.692   2.121   2.036  1.7018 -1.5055  0.2971
 4686SOL    HW225692   3.704   2.239   2.123  0.2712  0.1404 -1.9683
 4687SOL     OW25693   3.083   1.993   5.435  0.2698  0.0325  0.0269
 4687SOL    HW125694   3.083   2.081   5.471  0.3608  0.6510 -1.4690
 4687SOL    HW225695   3.173   1.997   5.404  0.2205 -0.4355 -0.1819
 4688SOL     OW25696   1.002   1.147   8.200  0.0484 -0.4531 -0.5744
 4688SOL    HW125697   0.920   1.141   8.249  1.5578  0.7447  2.0970
 4688SOL    HW225698   1.045   1.212   8.256 -2.0992 -0.3178  0.9258
 4689SOL     OW25699   2.213   4.472   0.552 -1.0289  0.1724  0.1240
 4689SOL    HW125700   2.234   4.556   0.594  4.6808  0.3660 -3.0992
 4689SOL    HW225701   2.174   4.420   0.622 -0.8687  0.1937  0.2305
 4690SOL     OW25702   4.490   3.094  14.816  0.3020  0.0456  0.1357
 4690SOL    HW125703   4.524   3.049  14.738  0.3317 -1.0463  0.7852
 4690SOL    HW225704   4.443   3.158  14.763 -0.1584 -0.6596 -0.3212
 4691SOL     OW25705   1.884   1.467   6.308  0.0046  0.1938  0.2156
 4691SOL    HW125706   1.849   1.378   6.296 -0.2144  0.1970  0.8384
 4691SOL    HW225707   1.976   1.448   6.285 -0.6363 -1.5049 -1.0116
 4692SOL     OW25708   3.970   0.243   1.387 -0.8470  0.0101 -0.5097
 4692SOL    HW125709   4.058   0.218   1.417 -0.1511  4.2401  0.9356
 4692SOL    HW225710   4.000   0.287   1.308 -1.1592  0.7293 -0.2290
 4693SOL     OW25711   4.515   0.618   6.918  0.0299  0.2776 -0.1163
 4693SOL    HW125712   4.455   0.691   6.905 -1.3109 -0.6001  1.1835
 4693SOL    HW225713   4.604   0.652   6.904  0.5599 -0.5537  1.2357
 4694SOL     OW25714   3.341   3.376  17.663  0.4819  0.2471 -0.3820
 4694SOL    HW125715   3.378   3.321  17.732 -1.1415 -0.6597 -0.2579
 4694SOL    HW225716   3.402   3.370  17.589  1.5218 -1.7822  0.6575
 4695SOL     OW25717   0.214   2.333  11.924 -0.2067 -0.5518 -0.5238
 4695SOL    HW125718   0.157   2.404  11.895  1.7341  0.5234 -1.7526
 4695SOL    HW225719   0.183   2.313  12.012 -2.8379  0.7953 -1.1439
 4696SOL     OW25720   4.007   2.925   7.880  0.3451  0.0483 -0.8528
 4696SOL    HW125721   3.993   2.830   7.886  2.3126 -0.1664  0.5348
 4696SOL    HW225722   3.972   2.933   7.792 -2.1107  0.3163  0.1617
 4697SOL     OW25723   0.212   0.669   4.634 -0.0850 -0.1528 -0.5684
 4697SOL    HW125724   0.229   0.699   4.723 -1.3128  1.4474 -0.8748
 4697SOL    HW225725   0.184   0.755   4.601 -0.6515 -0.9340 -2.1396
 4698SOL     OW25726   2.442   2.907   2.101 -0.4215  0.0206 -0.2672
 4698SOL    HW125727   2.417   2.908   2.193 -1.0958 -1.0789 -0.4435
 4698SOL    HW225728   2.444   3.001   2.083 -2.0473 -0.0004 -0.5504
 4699SOL     OW25729   4.524   3.129   5.122  0.1104  0.2380 -0.6512
 4699SOL    HW125730   4.455   3.142   5.058  0.7455  1.7788 -1.0164
 4699SOL    HW225731   4.478   3.133   5.206 -0.0065  1.1168 -0.7581
 4700SOL     OW25732   3.075   0.046   3.034 -0.3729  0.4630 -0.5092
 4700SOL    HW125733   3.120   4.698   3.022 -0.5983  0.4695 -1.3524
 4700SOL    HW225734   3.139   0.098   2.985 -1.5005  0.6207 -1.7979
 4701SOL     OW25735   4.091   3.393   6.140 -0.1581  0.2506  0.5311
 4701SOL    HW125736   4.033   3.318   6.135 -0.6483  0.7764 -1.7818
 4701SOL    HW225737   4.050   3.451   6.076  2.0062  0.4896 -0.6671
 4702SOL     OW25738   0.457   1.339   8.529 -0.6559 -0.4860 -0.1313
 4702SOL    HW125739   0.495   1.252   8.518 -0.2109 -0.6013  2.4025
 4702SOL    HW225740   0.379   1.306   8.573 -0.4441  0.5480  1.0141
 4703SOL     OW25741   3.508   2.861   9.226 -0.1768 -0.1348  0.1104
 4703SOL    HW125742   3.450   2.791   9.254 -2.6205  2.5541  1.7927
 4703SOL    HW225743   3.565   2.879   9.302  0.1002  1.7949 -0.5373
 4704SOL     OW25744   3.427   2.452   0.054  0.4221  0.1883  0.3750
 4704SOL    HW125745   3.490   2.399   0.103  1.2605  2.0101  1.2777
 4704SOL    HW225746   3.405   2.522   0.115  1.4202  0.0725  0.8744
 4705SOL     OW25747   0.308   3.252  17.655 -0.1046  0.0973 -0.1463
 4705SOL    HW125748   0.311   3.338  17.614 -2.0311 -0.1763 -0.8714
 4705SOL    HW225749   0.216   3.228  17.645  0.1251 -1.2489  0.9659
 4706SOL     OW25750   2.185   2.288   1.973 -0.6263 -0.4867 -0.1250
 4706SOL    HW125751   2.269   2.244   1.958 -0.2685  0.0447  0.3392
 4706SOL    HW225752   2.212   2.370   2.016 -0.5505  0.3056 -1.6955
 4707SOL     OW25753   2.625   0.766   8.938 -0.2448 -0.3771  0.1011
 4707SOL    HW125754   2.623   0.704   9.011 -1.2907  0.6149  0.9296
 4707SOL    HW225755   2.716   0.751   8.915  0.2098 -0.8705  2.2234
 4708SOL     OW25756   3.723   1.108   1.504  0.1189  0.6412  0.5719
 4708SOL    HW125757   3.706   1.196   1.537  1.3494  1.2808 -0.5042
 4708SOL    HW225758   3.727   1.136   1.413  2.7004 -0.8182  0.2283
 4709SOL     OW25759   1.189   0.500  16.436 -0.0119  0.2960 -0.2298
 4709SOL    HW125760   1.242   0.572  16.403 -0.4910 -0.2189 -2.1181
 4709SOL    HW225761   1.169   0.467  16.348  0.8199  0.0903 -0.3440
 4710SOL     OW25762   1.373   3.597   2.217  0.1759  0.6391  0.1517
 4710SOL    HW125763   1.371   3.609   2.122  2.4358 -1.0119 -0.0943
 4710SOL    HW225764   1.392   3.504   2.223 -3.3330 -0.2883 -2.9891
 4711SOL     OW25765   4.411   0.023   2.546 -0.5256  0.0593  0.2896
 4711SOL    HW125766   4.398   0.014   2.452 -1.1243  1.2081  0.2668
 4711SOL    HW225767   4.464   0.103   2.543 -2.4320  1.3440  0.6904
 4712SOL     OW25768   4.705   2.794   3.513  0.1032  0.0415 -0.0885
 4712SOL    HW125769   4.694   2.788   3.608 -1.1191  0.7214 -0.1802
 4712SOL    HW225770   4.698   2.887   3.496  0.9525 -0.0124 -0.7291
 4713SOL     OW25771   4.001   1.176   4.011 -0.5654 -0.4570 -0.4298
 4713SOL    HW125772   4.020   1.149   3.922 -2.3014  0.6674 -1.1439
 4713SOL    HW225773   3.998   1.087   4.047  2.1588 -0.2569  0.3471
 4714SOL     OW25774   2.935   1.624   3.976 -0.2762 -0.0681  0.2982
 4714SOL    HW125775   2.979   1.542   3.953  0.4725  0.1527  0.9508
 4714SOL    HW225776   2.933   1.653   3.885 -0.1737  0.6793  0.5362
 4715SOL     OW25777   1.358   4.269  12.053 -0.1605 -0.8949 -0.2064
 4715SOL    HW125778   1.405   4.205  11.999 -0.1158  0.3943 -1.6993
 4715SOL    HW225779   1.396   4.231  12.132  0.1309  0.9948  0.5665
 4716SOL     OW25780   2.790   3.046   5.371 -0.0811  0.1118 -0.4184
 4716SOL    HW125781   2.700   3.026   5.397  0.2254  1.4472  1.7556
 4716SOL    HW225782   2.833   3.006   5.446  0.1727  0.4830 -0.3630
 4717SOL     OW25783   1.436   1.533   4.947  0.0016 -0.0122 -0.3201
 4717SOL    HW125784   1.518   1.535   4.897 -0.1215  0.9888 -0.4676
 4717SOL    HW225785   1.456   1.448   4.988  0.6066 -0.1341 -0.8585
 4718SOL     OW25786   1.176   1.563   2.557  0.3892 -0.4904  0.2049
 4718SOL    HW125787   1.120   1.551   2.480  0.0787  0.3470  0.3006
 4718SOL    HW225788   1.223   1.645   2.539  0.3677 -0.1151  1.8572
 4719SOL     OW25789   2.546   4.354   2.367 -0.2585 -0.3971  0.3895
 4719SOL    HW125790   2.490   4.399   2.304  0.8942 -0.3171 -0.5888
 4719SOL    HW225791   2.604   4.310   2.304 -0.3110  1.3541 -0.8911
 4720SOL     OW25792   3.336   3.348  12.006 -0.0596  0.5590 -0.3896
 4720SOL    HW125793   3.328   3.371  12.099 -0.3867 -2.1043  0.2447
 4720SOL    HW225794   3.415   3.295  12.001  0.2501  1.1019 -1.2533
 4721SOL     OW25795   2.514   4.031   4.706  0.4928 -0.7459 -0.0624
 4721SOL    HW125796   2.449   4.029   4.635  0.1542  1.6230  0.1631
 4721SOL    HW225797   2.500   4.123   4.730  1.1600 -0.5220 -0.5021
 4722SOL     OW25798   2.025   1.190   1.158 -0.7344 -0.8257  0.4576
 4722SOL    HW125799   2.055   1.109   1.198  0.0972  0.0650  1.6193
 4722SOL    HW225800   2.076   1.186   1.076  1.2654  3.0408  1.5233
 4723SOL     OW25801   3.409   4.162   7.964 -0.6839  0.0356  0.3373
 4723SOL    HW125802   3.413   4.067   7.977 -2.9787  0.1492  1.7109
 4723SOL    HW225803   3.502   4.179   7.983 -0.4878 -1.8645  1.0527
 4724SOL     OW25804   0.622   0.902   4.605 -0.2188  0.1624  0.1240
 4724SOL    HW125805   0.691   0.865   4.551 -1.0111  0.0132 -0.7754
 4724SOL    HW225806   0.546   0.852   4.575  1.2284 -1.1629 -1.3421
 4725SOL     OW25807   0.365   4.266  14.947  0.0247  0.1670 -0.0298
 4725SOL    HW125808   0.369   4.219  14.864  1.3427  1.7074 -0.8471
 4725SOL    HW225809   0.284   4.316  14.933 -0.0363 -0.7927 -2.9899
 4726SOL     OW25810   1.002   1.897   2.758  0.1469  0.3468  0.6273
 4726SOL    HW125811   0.916   1.893   2.800 -0.3519  0.1452 -0.4025
 4726SOL    HW225812   0.964   1.926   2.675 -1.0673  0.8773  1.3795
 4727SOL     OW25813   1.361   4.222   7.823 -0.4360 -0.3176  0.2958
 4727SOL    HW125814   1.384   4.218   7.916 -0.9941 -0.7033  0.4119
 4727SOL    HW225815   1.341   4.130   7.807  3.2913 -1.1843  0.5420
 4728SOL     OW25816   3.320   2.713   2.134  0.1442  0.1871  0.0591
 4728SOL    HW125817   3.303   2.807   2.132  0.4883  0.1983 -2.2037
 4728SOL    HW225818   3.279   2.692   2.050 -1.5911  2.1790  0.4121
 4729SOL     OW25819   3.593   1.997   2.977  0.1165 -0.0158  0.1590
 4729SOL    HW125820   3.651   2.055   3.027  0.9745 -1.0880  0.4081
 4729SOL    HW225821   3.664   1.950   2.932  0.0594  0.4546 -0.4289
 4730SOL     OW25822   2.590   4.101   5.687 -0.2022  0.2606  0.1146
 4730SOL    HW125823   2.626   4.065   5.606 -0.1711  1.4720 -0.4053
 4730SOL    HW225824   2.654   4.170   5.702  1.6492 -1.1091 -1.4913
 4731SOL     OW25825   0.427   2.094   9.510 -0.6424  0.1771 -0.5646
 4731SOL    HW125826   0.415   2.188   9.498 -0.2702  0.5798  2.3718
 4731SOL    HW225827   0.517   2.094   9.478  0.2356  0.7267  1.9968
 4732SOL     OW25828   3.313   0.193   1.585  0.2727 -0.0339  1.1146
 4732SOL    HW125829   3.398   0.167   1.551  0.1067  1.0074 -0.0677
 4732SOL    HW225830   3.315   0.287   1.570  1.7706 -0.0994  0.9819
 4733SOL     OW25831   2.947   1.018   6.959  0.3605  0.0045  0.1838
 4733SOL    HW125832   3.020   0.961   6.934  0.7175  1.1653 -1.4463
 4733SOL    HW225833   2.982   1.106   6.977  1.4023 -0.7444  1.8547
 4734SOL     OW25834   1.323   0.767   1.593  0.0161 -0.3973 -0.2240
 4734SOL    HW125835   1.283   0.708   1.656 -1.3104  0.1323 -0.5760
 4734SOL    HW225836   1.323   0.734   1.503  2.1584 -1.4957  0.1911
 4735SOL     OW25837   3.761   2.951   2.318  0.1002 -0.2844  0.4302
 4735SOL    HW125838   3.676   2.908   2.314  0.0938 -0.1818 -0.7500
 4735SOL    HW225839   3.720   3.037   2.322  0.2589 -0.1602 -0.4571
 4736SOL     OW25840   3.885   3.581   2.177 -0.2749  0.0018  0.1619
 4736SOL    HW125841   3.963   3.623   2.140 -0.7904  1.2198  0.4284
 4736SOL    HW225842   3.914   3.525   2.248  0.5282 -1.1437 -1.0850
 4737SOL     OW25843   2.280   3.730   7.823 -0.5413 -0.2085 -0.2376
 4737SOL    HW125844   2.218   3.672   7.867 -0.0132 -0.1823  0.5280
 4737SOL    HW225845   2.357   3.673   7.832 -0.8837 -0.7333 -0.6077
 4738SOL     OW25846   0.663   0.426   7.888  0.0969  0.3624 -0.2285
 4738SOL    HW125847   0.571   0.454   7.893 -0.3092 -0.6917 -1.5668
 4738SOL    HW225848   0.699   0.433   7.976  2.0468  3.3480 -1.2660
 4739SOL     OW25849   3.686   0.025   6.237 -0.5436 -0.5071  0.3114
 4739SOL    HW125850   3.717   0.112   6.260 -3.1542  0.2397  1.0491
 4739SOL    HW225851   3.601   0.024   6.280 -0.3930 -3.0336  0.5284
 4740SOL     OW25852   3.100   1.851   3.898 -0.3298 -0.0864  0.3151
 4740SOL    HW125853   3.173   1.824   3.843 -0.2844  0.4342  0.1202
 4740SOL    HW225854   3.080   1.768   3.941  1.3239  0.4478  2.1073
 4741SOL     OW25855   1.576   0.338   5.144  0.3889  0.0198  0.3417
 4741SOL    HW125856   1.634   0.292   5.205  1.9105  1.8425  0.2850
 4741SOL    HW225857   1.510   0.270   5.128  1.9111 -1.0507 -1.4644
 4742SOL     OW25858   2.143   2.370   3.106 -0.2574  0.1882 -0.2168
 4742SOL    HW125859   2.050   2.371   3.129 -0.4318 -0.4284 -0.8794
 4742SOL    HW225860   2.127   2.329   3.021 -0.8256 -2.2043  1.0345
 4743SOL     OW25861   0.772   0.861   3.596 -0.4116 -0.6713  0.3590
 4743SOL    HW125862   0.688   0.904   3.577  1.2679  3.2915  2.0608
 4743SOL    HW225863   0.743   0.775   3.628 -1.3804 -1.8268 -3.5259
 4744SOL     OW25864   4.198   3.847   7.855  0.5215  0.2631 -0.3182
 4744SOL    HW125865   4.266   3.788   7.885 -0.6336 -0.7690  0.2934
 4744SOL    HW225866   4.220   3.872   7.766  1.7571  2.1080  0.5080
 4745SOL     OW25867   0.350   0.426   7.075 -0.3460  0.2323  0.4135
 4745SOL    HW125868   0.330   0.362   7.143  0.0713  1.2738  1.5398
 4745SOL    HW225869   0.302   0.500   7.113  0.4945  1.2577 -0.5210
 4746SOL     OW25870   1.753   2.145   9.835  0.1509 -0.2029  0.4223
 4746SOL    HW125871   1.817   2.128   9.765  0.2675 -0.9105  0.6982
 4746SOL    HW225872   1.777   2.079   9.900 -2.1545 -0.4201  1.0259
 4747SOL     OW25873   2.434   1.343   9.485 -0.0597 -0.5345  0.0651
 4747SOL    HW125874   2.387   1.279   9.538 -0.8128  0.1319  0.2099
 4747SOL    HW225875   2.517   1.350   9.532 -0.8691 -0.1015  1.4391
 4748SOL     OW25876   0.867   0.482  12.805 -0.4671 -0.9611 -0.3405
 4748SOL    HW125877   0.899   0.398  12.773 -0.2015 -1.8343  2.2079
 4748SOL    HW225878   0.782   0.485  12.759 -1.9114  0.2767  2.3975
 4749SOL     OW25879   1.536   3.348  16.548  0.3833  0.1715 -0.2623
 4749SOL    HW125880   1.473   3.291  16.592 -0.9788  2.1002  0.2859
 4749SOL    HW225881   1.573   3.388  16.627  0.3344  0.0807 -0.1928
 4750SOL     OW25882   0.627   2.394   4.166 -0.0233 -0.1716  0.3117
 4750SOL    HW125883   0.719   2.418   4.172  0.2916 -1.9726  2.6582
 4750SOL    HW225884   0.594   2.430   4.083  0.0045 -1.7275 -0.3795
 4751SOL     OW25885   0.640   1.211   6.025 -0.5560 -0.0508 -0.0059
 4751SOL    HW125886   0.626   1.138   6.085 -2.7180  0.3711 -0.0125
 4751SOL    HW225887   0.658   1.164   5.944 -1.5038  0.6699 -0.6391
 4752SOL     OW25888   1.356   0.349  12.883  0.0710  0.5155  0.6177
 4752SOL    HW125889   1.401   0.376  12.963  0.7494  0.0580  0.3891
 4752SOL    HW225890   1.316   0.267  12.913  1.3243 -0.7878 -1.2618
 4753SOL     OW25891   0.967   4.362   2.844  0.2124  0.4879  0.6777
 4753SOL    HW125892   0.975   4.272   2.812  0.6237  0.9729 -0.5532
 4753SOL    HW225893   0.993   4.345   2.934  1.0084 -1.9685 -0.0265
 4754SOL     OW25894   3.417   4.162   2.218 -0.4850 -0.2511 -0.5673
 4754SOL    HW125895   3.373   4.215   2.152  2.1612  0.4045 -1.8010
 4754SOL    HW225896   3.445   4.236   2.273  0.2391 -2.9833  2.7590
 4755SOL     OW25897   2.630   1.218   1.154 -0.6504 -0.0089 -0.1770
 4755SOL    HW125898   2.724   1.230   1.141 -0.7589  0.4302 -0.5471
 4755SOL    HW225899   2.587   1.247   1.074  0.7618 -1.5952 -1.5276
 4756SOL     OW25900   0.278   2.353  16.998 -0.1324  0.2446  0.0289
 4756SOL    HW125901   0.255   2.302  16.921 -0.7258 -0.2038  0.5082
 4756SOL    HW225902   0.258   2.296  17.072 -0.6479  0.1023 -0.2170
 4757SOL     OW25903   3.219   1.439  10.020  0.0868 -0.2100  0.0902
 4757SOL    HW125904   3.277   1.368  10.046 -0.8587 -0.1125  2.4606
 4757SOL    HW225905   3.192   1.400   9.937 -3.1443 -0.6564  1.3277
 4758SOL     OW25906   1.915   2.387   3.235 -0.4576 -0.3821 -0.3259
 4758SOL    HW125907   1.917   2.412   3.327 -2.6610  1.2513 -0.7389
 4758SOL    HW225908   1.860   2.460   3.207  1.4759  1.0222 -0.4841
 4759SOL     OW25909   4.008   1.974  11.571  0.1189 -0.0023 -0.0001
 4759SOL    HW125910   4.090   1.924  11.563  0.2175  0.1325  0.1533
 4759SOL    HW225911   3.960   1.914  11.514  1.8938 -1.2890 -0.1440
 4760SOL     OW25912   4.207   3.141  16.111  0.2133  0.2589  0.1893
 4760SOL    HW125913   4.254   3.143  16.194 -0.3763  0.9853  0.5019
 4760SOL    HW225914   4.258   3.085  16.052  1.4112  0.9056  0.6070
 4761SOL     OW25915   3.215   3.127   4.801 -0.2550 -0.0422 -0.2392
 4761SOL    HW125916   3.216   3.162   4.712 -0.5391 -1.5792 -0.8412
 4761SOL    HW225917   3.174   3.045   4.773 -3.5309  1.2528  0.8902
 4762SOL     OW25918   3.261   3.288   1.833  0.2052  0.5470 -0.8202
 4762SOL    HW125919   3.172   3.309   1.863  1.5939  0.8832  3.0375
 4762SOL    HW225920   3.271   3.328   1.746 -0.8482 -2.4704 -2.3317
 4763SOL     OW25921   3.159   3.848  10.470  0.0507 -0.1634  0.0319
 4763SOL    HW125922   3.121   3.833  10.557  1.3811 -2.3902  0.2229
 4763SOL    HW225923   3.228   3.906  10.502  0.9545 -2.1681  1.7431
 4764SOL     OW25924   4.067   4.676  14.279 -0.0722  0.2321  0.1251
 4764SOL    HW125925   4.078   0.018  14.222 -1.3534  0.0173 -0.4011
 4764SOL    HW225926   4.155   4.639  14.287 -0.0480  0.5303  1.1250
 4765SOL     OW25927   2.441   1.587   6.008 -0.3304 -0.2749  0.7058
 4765SOL    HW125928   2.465   1.496   6.020  1.1859  0.3335  2.3986
 4765SOL    HW225929   2.350   1.581   5.979  0.6695 -0.2900 -2.3419
 4766SOL     OW25930   4.340   4.253   6.149  0.0808 -0.0198 -0.5138
 4766SOL    HW125931   4.396   4.301   6.088  0.6914 -0.1751 -0.0692
 4766SOL    HW225932   4.258   4.266   6.100 -0.0443  1.1422  0.0073
 4767SOL     OW25933   0.191   2.252   4.575 -0.0088 -0.2618  0.3544
 4767SOL    HW125934   0.157   2.323   4.630 -1.9235 -1.1797  0.3569
 4767SOL    HW225935   0.174   2.174   4.628 -0.8819  1.0758  2.0575
 4768SOL     OW25936   3.619   3.046   5.951  0.1945 -0.0461 -0.6091
 4768SOL    HW125937   3.552   2.999   6.001 -0.9484  3.4037  1.0522
 4768SOL    HW225938   3.564   3.111   5.908  0.0210  0.3326  0.1928
 4769SOL     OW25939   4.598   4.614   8.966  0.0588 -0.2475  0.3484
 4769SOL    HW125940   4.575   4.636   8.876  1.0901 -3.6323 -0.7387
 4769SOL    HW225941   4.514   4.582   8.999 -0.3170  0.1961 -0.1813
 4770SOL     OW25942   0.467   2.472  16.818 -0.2661 -0.1676 -0.3621
 4770SOL    HW125943   0.399   2.516  16.767 -0.0134 -0.0531 -0.5974
 4770SOL    HW225944   0.421   2.389  16.830 -1.2504  0.4409  0.0739
 4771SOL     OW25945   3.334   3.426  14.920  0.1958 -0.1801  0.5356
 4771SOL    HW125946   3.251   3.412  14.967  0.0067 -1.4971 -0.2133
 4771SOL    HW225947   3.348   3.341  14.880  0.6997 -0.8259  2.0748
 4772SOL     OW25948   4.404   3.422   4.401 -0.2210  0.1113  0.4644
 4772SOL    HW125949   4.472   3.460   4.346  1.1911 -1.9021  0.8207
 4772SOL    HW225950   4.463   3.392   4.471 -1.0325 -0.4785  0.9022
 4773SOL     OW25951   1.414   0.338   2.611 -1.0954 -0.2809 -0.4170
 4773SOL    HW125952   1.403   0.278   2.684  3.2174 -0.7822 -0.1977
 4773SOL    HW225953   1.365   0.419   2.628  1.9156  1.4926 -0.1714
 4774SOL     OW25954   0.217   0.915   4.482 -0.2983 -0.1933  0.2769
 4774SOL    HW125955   0.263   0.990   4.520  0.0100 -1.0924  1.6580
 4774SOL    HW225956   0.291   0.857   4.466 -0.7382 -1.1842  1.9228
 4775SOL     OW25957   2.257   4.155   6.117 -0.5936 -0.8006 -0.2593
 4775SOL    HW125958   2.201   4.081   6.140 -0.7509 -0.6605 -0.1957
 4775SOL    HW225959   2.276   4.129   6.027  1.4107  1.2238 -0.4397
 4776SOL     OW25960   0.042   0.323  13.847 -0.3474 -0.2735  0.1083
 4776SOL    HW125961   0.090   0.251  13.889  1.5572  0.4744 -0.7840
 4776SOL    HW225962   0.109   0.384  13.817 -0.9403 -0.1278 -0.9056
 4777SOL     OW25963   2.366   1.050   0.956 -0.0232 -0.5295 -0.5195
 4777SOL    HW125964   2.417   1.029   0.878 -0.1618  0.4254 -0.8557
 4777SOL    HW225965   2.308   1.124   0.941  0.2552 -0.4962 -1.4272
 4778SOL     OW25966   4.470   4.693   0.171  0.1854 -0.1403 -0.1784
 4778SOL    HW125967   4.429   4.641   0.101 -0.4606 -0.7022  0.6199
 4778SOL    HW225968   4.410   0.032   0.172 -0.1842 -0.4499  0.1433
 4779SOL     OW25969   0.952   3.818   2.983 -0.0752 -0.0437 -0.5101
 4779SOL    HW125970   1.004   3.741   2.961 -0.1381 -0.3252  0.3594
 4779SOL    HW225971   0.862   3.790   2.968 -0.5018 -0.2542  2.5532
 4780SOL     OW25972   2.735   4.044   0.589  0.3658  0.7028 -0.1625
 4780SOL    HW125973   2.784   3.970   0.626  0.6767  0.6960 -0.5912
 4780SOL    HW225974   2.717   4.093   0.669 -0.4958 -0.5621  0.4166
 4781SOL     OW25975   0.864   3.223   8.145 -0.2453  0.2862  0.3088
 4781SOL    HW125976   0.819   3.281   8.207 -0.4602 -0.6203  0.9989
 4781SOL    HW225977   0.957   3.247   8.153 -0.0866  0.1864 -1.2855
 4782SOL     OW25978   0.083   1.879  14.551 -0.0987  0.2158  0.2534
 4782SOL    HW125979   0.001   1.834  14.529  0.7314 -1.3278  0.2998
 4782SOL    HW225980   0.067   1.963  14.509 -2.0016 -0.2136  0.1115
 4783SOL     OW25981   3.750   1.779   8.644  0.3940 -0.4919 -0.0284
 4783SOL    HW125982   3.726   1.735   8.562  2.4049 -1.9661  0.1633
 4783SOL    HW225983   3.783   1.863   8.612 -1.2664  0.7066  1.4173
 4784SOL     OW25984   0.815   4.208   3.729 -0.3875 -0.6918  0.2140
 4784SOL    HW125985   0.797   4.214   3.635 -1.7115  1.2380  0.6135
 4784SOL    HW225986   0.735   4.167   3.761 -1.1112  1.1025  0.6976
 4785SOL     OW25987   0.293   3.927   8.083  0.0660  0.0468 -0.3072
 4785SOL    HW125988   0.321   3.835   8.085  1.7238  0.5461 -0.9533
 4785SOL    HW225989   0.381   3.964   8.075  0.6326 -1.3254 -0.5857
 4786SOL     OW25990   3.592   4.320   8.743  0.1364 -0.8325 -0.6281
 4786SOL    HW125991   3.668   4.267   8.766  0.7661  1.1167  1.7688
 4786SOL    HW225992   3.516   4.278   8.783  0.5034  0.8096  1.8245
 4787SOL     OW25993   0.247   0.508   1.356  0.1789 -0.1112 -0.5381
 4787SOL    HW125994   0.320   0.458   1.393 -0.3739  0.3317  1.1566
 4787SOL    HW225995   0.297   0.555   1.289 -0.1500  1.6269  0.4269
 4788SOL     OW25996   3.113   1.762  12.656  0.5066  0.6072 -0.4887
 4788SOL    HW125997   3.052   1.831  12.684  0.8061  1.0861 -1.0104
 4788SOL    HW225998   3.116   1.769  12.560  0.2790  1.9945 -0.3967
 4789SOL     OW25999   4.521   2.666   3.056 -0.2741 -0.5520  0.1358
 4789SOL    HW126000   4.543   2.747   3.102 -2.8713  1.3028 -1.9039
 4789SOL    HW226001   4.539   2.696   2.967  0.8272  0.5815  0.7416
 4790SOL     OW26002   2.224   3.182   8.883  0.4258 -0.0727  0.3252
 4790SOL    HW126003   2.153   3.171   8.820 -0.5188  1.3315  1.1326
 4790SOL    HW226004   2.272   3.100   8.889 -0.2494 -0.4871  0.0318
 4791SOL     OW26005   0.539   2.876   3.574  0.1545  0.0433 -0.0902
 4791SOL    HW126006   0.525   2.784   3.596 -4.0895  1.0194  1.2217
 4791SOL    HW226007   0.632   2.859   3.560 -0.0250 -1.2165  0.2451
 4792SOL     OW26008   0.748   3.130   1.544  0.0244 -0.6255 -0.4121
 4792SOL    HW126009   0.786   3.217   1.531 -2.7191  0.6323  0.0154
 4792SOL    HW226010   0.711   3.131   1.632  0.7701  0.3653 -0.1038
 4793SOL     OW26011   1.770   4.666   3.920 -0.1837  0.4322 -0.2303
 4793SOL    HW126012   1.705   0.001   3.917 -0.4620  0.1763 -0.1199
 4793SOL    HW226013   1.743   4.635   4.006 -2.3330  0.7821 -0.7820
 4794SOL     OW26014   1.170   2.386   6.583  0.0082 -0.4123  0.1314
 4794SOL    HW126015   1.090   2.423   6.622 -0.3746 -1.8745  0.7348
 4794SOL    HW226016   1.216   2.460   6.544 -1.6505  0.0175 -1.0231
 4795SOL     OW26017   4.437   3.539  12.320 -0.1787  0.5019 -0.6295
 4795SOL    HW126018   4.520   3.502  12.288  0.5617  2.6999 -1.2307
 4795SOL    HW226019   4.441   3.518  12.413 -0.5596 -0.0217 -0.7320
 4796SOL     OW26020   0.054   3.184   0.050 -0.1525 -0.3920  0.1467
 4796SOL    HW126021   4.719   3.125   0.076  0.8957 -1.6799  0.0380
 4796SOL    HW226022   0.012   3.250  17.734 -1.5736 -1.9021 -0.5726
 4797SOL     OW26023   0.870   4.191   9.549 -0.2785 -0.0775  0.1225
 4797SOL    HW126024   0.809   4.239   9.604  1.1968  0.2453  1.4898
 4797SOL    HW226025   0.841   4.231   9.467 -2.4146 -2.5128 -0.2822
 4798SOL     OW26026   1.024   0.770   5.837  0.6147 -0.9250  0.3402
 4798SOL    HW126027   1.109   0.798   5.871  0.3751  0.2820 -0.0602
 4798SOL    HW226028   0.976   0.739   5.914 -0.4765 -1.8249 -0.7001
 4799SOL     OW26029   3.625   0.917  16.383  0.1159 -0.0948 -0.2504
 4799SOL    HW126030   3.635   0.910  16.478 -0.9764  0.6221 -0.0806
 4799SOL    HW226031   3.596   1.008  16.375  3.2455  0.7420 -2.0987
 4800SOL     OW26032   1.031   4.640   4.426 -1.1180 -0.5159  0.4044
 4800SOL    HW126033   1.084   4.635   4.506 -0.5260 -1.6410 -0.0526
 4800SOL    HW226034   0.995   4.551   4.421  0.3349 -0.9376 -2.4027
 4801SOL     OW26035   4.228   0.559   5.836  0.4266  0.6182 -0.4189
 4801SOL    HW126036   4.151   0.605   5.803 -2.3585 -3.6517  0.1517
 4801SOL    HW226037   4.201   0.468   5.827  0.5111  0.4677  0.8291
 4802SOL     OW26038   1.902   2.079   7.370 -1.1036 -0.0089 -0.5586
 4802SOL    HW126039   1.973   2.066   7.432 -0.4483 -1.5187 -1.6234
 4802SOL    HW226040   1.939   2.155   7.324 -1.8400  0.1626 -0.8822
 4803SOL     OW26041   1.806   1.542   1.924 -0.1195  0.6973 -0.2950
 4803SOL    HW126042   1.891   1.507   1.951 -0.8425 -0.1969  0.8238
 4803SOL    HW226043   1.826   1.624   1.879  2.4738 -0.1317 -0.6207
 4804SOL     OW26044   1.649   4.318   5.696  0.4950 -0.5785  0.4994
 4804SOL    HW126045   1.660   4.398   5.645 -5.7881  0.7025  1.1817
 4804SOL    HW226046   1.727   4.265   5.681  0.4894  0.1153 -1.9736
 4805SOL     OW26047   1.589   1.752   2.529  0.0379  0.1191 -0.2340
 4805SOL    HW126048   1.648   1.699   2.582 -0.3980 -0.2016 -0.0786
 4805SOL    HW226049   1.627   1.745   2.441 -3.3873  1.6479 -1.8447
 4806SOL     OW26050   3.802   2.412   9.334 -0.1467 -0.5300 -0.3683
 4806SOL    HW126051   3.882   2.463   9.328 -0.9301  0.3759 -3.2774
 4806SOL    HW226052   3.801   2.384   9.242  1.8632  2.7124 -1.3719
 4807SOL     OW26053   3.895   1.190   3.042 -0.1356 -0.2624  0.3803
 4807SOL    HW126054   3.975   1.236   3.017 -3.4858  5.0579 -0.3539
 4807SOL    HW226055   3.943   1.124   3.092  1.4541  0.0380 -0.7659
 4808SOL     OW26056   0.996   3.820   7.114  0.1679 -0.1121 -0.7217
 4808SOL    HW126057   0.937   3.771   7.056  0.3959 -0.1447 -0.9271
 4808SOL    HW226058   0.985   3.787   7.203 -2.8063 -0.3139 -1.1679
 4809SOL     OW26059   3.189   3.377   7.203 -0.1694 -0.2155  0.2362
 4809SOL    HW126060   3.240   3.296   7.201 -1.2292 -0.8936  0.6159
 4809SOL    HW226061   3.108   3.337   7.169 -0.9045  2.0021 -0.5771
 4810SOL     OW26062   0.667   3.385   7.422 -0.1575 -0.2128 -0.0595
 4810SOL    HW126063   0.648   3.297   7.390  2.7315 -1.6564  2.2426
 4810SOL    HW226064   0.583   3.419   7.391 -0.8120 -0.6382  1.2393
 4811SOL     OW26065   2.884   1.196  15.782 -1.0707  0.6405  0.0636
 4811SOL    HW126066   2.949   1.203  15.712 -0.2835 -1.4461  0.5729
 4811SOL    HW226067   2.932   1.235  15.854 -1.6470 -1.5109  1.6181
 4812SOL     OW26068   4.219   3.619   4.036  0.0248 -0.0701  0.2931
 4812SOL    HW126069   4.264   3.650   3.958  1.1130 -2.7927 -0.1609
 4812SOL    HW226070   4.135   3.597   3.996  0.5273 -1.6471  0.1193
 4813SOL     OW26071   0.771   1.065   3.073  0.1722  0.0036 -0.1750
 4813SOL    HW126072   0.757   1.151   3.114 -0.3243 -0.6737  1.0893
 4813SOL    HW226073   0.708   1.012   3.122  1.7268 -0.6926  1.0674
 4814SOL     OW26074   0.368   2.826  12.610 -0.0428  0.0908 -0.0131
 4814SOL    HW126075   0.299   2.775  12.568 -3.0097  1.0402  3.6252
 4814SOL    HW226076   0.351   2.918  12.593 -0.4282 -0.1666 -0.9916
 4815SOL     OW26077   4.415   4.035   6.300  0.0770  0.2855  0.7772
 4815SOL    HW126078   4.398   3.958   6.245 -1.5167  1.3513 -0.2235
 4815SOL    HW226079   4.408   4.097   6.227  0.8230  0.9393  1.2621
 4816SOL     OW26080   4.295   4.236   4.425  0.6439 -0.1790  0.7377
 4816SOL    HW126081   4.280   4.142   4.415  0.2011 -0.0265  0.0032
 4816SOL    HW226082   4.208   4.274   4.426 -0.0706 -1.8084 -0.8901
 4817SOL     OW26083   0.574   3.942   1.885 -0.0822  0.1840  0.0333
 4817SOL    HW126084   0.666   3.947   1.909 -0.2019  0.1318  0.4914
 4817SOL    HW226085   0.550   3.853   1.911  1.1314 -0.2835 -0.4710
 4818SOL     OW26086   4.248   0.016   2.053 -0.3427  0.2293  0.5880
 4818SOL    HW126087   4.190   4.734   1.979  1.1375  0.6039 -0.6575
 4818SOL    HW226088   4.272   0.108   2.044  1.1298  0.1142  3.2159
 4819SOL     OW26089   0.397   2.117   4.140 -0.2854 -0.9893 -0.0255
 4819SOL    HW126090   0.446   2.178   4.084 -0.4026 -0.7524  0.1290
 4819SOL    HW226091   0.321   2.171   4.164 -0.0503 -0.1802 -1.0547
 4820SOL     OW26092   2.935   3.385  11.274 -0.3809  0.0489  0.4424
 4820SOL    HW126093   3.010   3.439  11.298 -0.9190  1.1241 -0.3019
 4820SOL    HW226094   2.970   3.363  11.188 -2.3582  1.4609 -0.7295
 4821SOL     OW26095   4.045   2.137   9.087 -0.1105 -0.1752  0.3931
 4821SOL    HW126096   3.992   2.108   9.012  3.0936 -0.1802 -1.8746
 4821SOL    HW226097   4.028   2.062   9.144 -3.1745  1.2673  1.3804
 4822SOL     OW26098   2.674   1.039   3.938  0.0557  0.3093 -0.1401
 4822SOL    HW126099   2.604   1.100   3.961 -0.0821  0.0773  0.0511
 4822SOL    HW226100   2.635   0.954   3.958  0.7964 -0.1201 -0.5252
 4823SOL     OW26101   1.867   2.492  15.614 -0.4793 -0.1765  0.0347
 4823SOL    HW126102   1.835   2.542  15.690 -0.2509 -1.0231  0.6930
 4823SOL    HW226103   1.798   2.425  15.617 -0.9826  0.3200 -0.5781
 4824SOL     OW26104   4.008   1.035   5.608  0.2176  0.1378  0.7014
 4824SOL    HW126105   4.017   1.016   5.702 -1.4758 -0.8540  0.6527
 4824SOL    HW226106   3.930   1.089   5.596 -0.1587 -0.9812 -1.7716
 4825SOL     OW26107   2.069   1.707   0.141 -0.1905  0.5768  0.1345
 4825SOL    HW126108   2.003   1.769   0.171 -2.8656 -1.2005 -2.0816
 4825SOL    HW226109   2.146   1.764   0.141  0.1353  0.1698 -3.7243
 4826SOL     OW26110   2.545   0.135   0.644 -0.3813  0.5437  0.6525
 4826SOL    HW126111   2.558   0.214   0.592  0.1144 -1.0969 -1.6698
 4826SOL    HW226112   2.596   0.068   0.599 -0.2585  0.2611  1.2140
 4827SOL     OW26113   2.341   4.531   5.389 -0.3074 -0.5097 -0.1215
 4827SOL    HW126114   2.365   4.455   5.442  1.7669  0.2688  0.0804
 4827SOL    HW226115   2.249   4.538   5.414 -0.5015  1.1999 -1.2688
 4828SOL     OW26116   3.378   3.929   4.448  0.1978  0.6202  0.6931
 4828SOL    HW126117   3.304   3.884   4.410  1.8677 -1.4123 -0.1335
 4828SOL    HW226118   3.446   3.895   4.389  0.0551  2.3728 -0.4815
 4829SOL     OW26119   2.491   3.173  16.262  0.1507 -0.1182  0.4325
 4829SOL    HW126120   2.449   3.223  16.192  0.9997 -1.1280 -0.8249
 4829SOL    HW226121   2.554   3.118  16.215 -0.2217 -0.5122  0.3963
 4830SOL     OW26122   3.878   0.940   4.828  0.0908 -0.4642 -0.3376
 4830SOL    HW126123   3.886   0.845   4.834 -1.2372 -0.5788 -0.3702
 4830SOL    HW226124   3.784   0.951   4.840  0.0867  0.4216 -1.2321
 4831SOL     OW26125   3.595   3.358   8.903 -0.1926 -0.1876 -0.2303
 4831SOL    HW126126   3.517   3.407   8.876  1.8894  1.0070 -4.0176
 4831SOL    HW226127   3.614   3.315   8.820  0.8173  0.3747 -0.2899
 4832SOL     OW26128   2.189   0.458   3.218 -0.0625  0.0579 -0.0712
 4832SOL    HW126129   2.119   0.507   3.261 -1.5254 -0.5985 -1.7314
 4832SOL    HW226130   2.164   0.373   3.254 -1.0776  0.6651  0.6577
 4833SOL     OW26131   1.489   1.839  11.177  0.3303 -0.0220  0.3555
 4833SOL    HW126132   1.451   1.859  11.262  0.4413  0.2058  0.3522
 4833SOL    HW226133   1.496   1.932  11.153  0.0457  0.6396  2.8511
 4834SOL     OW26134   2.242   3.231   6.453  0.0292  0.0456  0.6883
 4834SOL    HW126135   2.257   3.248   6.546 -0.2773  0.0419  0.7383
 4834SOL    HW226136   2.149   3.254   6.456 -0.0167 -0.2007  1.0971
 4835SOL     OW26137   4.670   3.758   2.801 -0.3565 -0.7010  0.2884
 4835SOL    HW126138   4.713   3.809   2.869  0.7487  0.5330 -1.3389
 4835SOL    HW226139   4.714   3.797   2.726  1.3661 -0.7796  1.2685
 4836SOL     OW26140   3.145   4.063   4.169  0.3355 -0.5676 -0.2970
 4836SOL    HW126141   3.066   4.090   4.123 -0.8469  0.2369  2.2087
 4836SOL    HW226142   3.116   3.985   4.217  0.0122 -1.3966 -1.8166
 4837SOL     OW26143   0.177   0.292  17.707 -0.0650 -0.0967 -1.0810
 4837SOL    HW126144   0.108   0.238   0.006  0.2490  1.3850  1.5841
 4837SOL    HW226145   0.193   0.359   0.034 -1.9710 -1.4389  0.7496
 4838SOL     OW26146   0.255   4.050   0.288 -0.4928 -0.0576 -0.0509
 4838SOL    HW126147   0.262   3.955   0.293  1.3889  0.1735  1.9717
 4838SOL    HW226148   0.161   4.060   0.298 -0.3843 -0.9873  1.7917
 4839SOL     OW26149   3.843   1.087  16.767 -0.3311 -0.1985  0.5266
 4839SOL    HW126150   3.856   0.992  16.773 -1.0692 -0.3617 -0.4146
 4839SOL    HW226151   3.923   1.117  16.810  0.7892 -0.7508 -1.1801
 4840SOL     OW26152   0.981   2.919   7.913 -0.3870 -0.1256 -0.3787
 4840SOL    HW126153   0.950   3.009   7.922 -0.6835 -0.3211  0.5880
 4840SOL    HW226154   0.931   2.892   7.836 -1.6297 -0.2654  0.4670
 4841SOL     OW26155   1.229   0.818  11.674 -0.8120 -0.8146  0.1022
 4841SOL    HW126156   1.205   0.905  11.706 -1.4052 -1.1266  0.4932
 4841SOL    HW226157   1.276   0.782  11.749  2.2067  1.1328 -0.8062
 4842SOL     OW26158   0.398   0.496   2.009  0.0750  0.4232  0.1736
 4842SOL    HW126159   0.445   0.558   2.065  1.5425 -0.5981  0.0760
 4842SOL    HW226160   0.433   0.515   1.923  2.1123  1.0728  1.1606
 4843SOL     OW26161   1.224   2.641   3.749 -0.1261 -0.0762 -0.4100
 4843SOL    HW126162   1.166   2.714   3.773  1.2725 -0.2041  3.2247
 4843SOL    HW226163   1.184   2.604   3.670 -1.6002  2.0404 -0.6753
 4844SOL     OW26164   0.511   0.802   6.389 -0.1592  0.4637  0.1182
 4844SOL    HW126165   0.465   0.840   6.463 -2.2551 -0.9717 -0.4563
 4844SOL    HW226166   0.540   0.718   6.426 -0.2783 -0.2654 -1.4242
 4845SOL     OW26167   2.838   0.262   8.506  0.0371 -0.1003 -0.1022
 4845SOL    HW126168   2.883   0.211   8.439 -0.9015 -1.9968  0.7427
 4845SOL    HW226169   2.813   0.334   8.448 -1.7000  1.1792  2.1926
 4846SOL     OW26170   3.742   1.373   2.019 -0.2140  0.3893 -0.3057
 4846SOL    HW126171   3.722   1.464   1.997 -2.5512 -0.0991 -0.2491
 4846SOL    HW226172   3.761   1.335   1.933 -3.1308 -2.7188  0.4303
 4847SOL     OW26173   2.424   1.470  11.401 -0.0239  0.0322 -0.0801
 4847SOL    HW126174   2.495   1.529  11.372 -0.0284  0.7278  1.3343
 4847SOL    HW226175   2.477   1.395  11.429  1.0902  1.3419  1.2747
 4848SOL     OW26176   4.342   3.856   5.739 -0.1529 -0.2157 -0.5594
 4848SOL    HW126177   4.398   3.808   5.677  0.1523 -0.5075 -0.0519
 4848SOL    HW226178   4.366   3.947   5.720  0.3387 -0.4409 -1.0202
 4849SOL     OW26179   3.015   1.849   5.197 -0.7896 -0.5708  0.2679
 4849SOL    HW126180   3.062   1.840   5.279 -0.9756  1.2883  0.5844
 4849SOL    HW226181   3.048   1.935   5.168 -0.8784 -0.5497  0.2309
 4850SOL     OW26182   1.184   3.287   8.407 -0.4498  0.0071  0.2140
 4850SOL    HW126183   1.176   3.195   8.431 -0.6581  0.4006  1.6693
 4850SOL    HW226184   1.151   3.329   8.487  1.3642 -1.1600  1.5895
 4851SOL     OW26185   2.257   1.948   8.672 -0.0669  0.1653  0.3374
 4851SOL    HW126186   2.214   1.898   8.603 -0.6200 -1.4988  1.9051
 4851SOL    HW226187   2.345   1.910   8.674  0.3822  1.2601  1.6004
 4852SOL     OW26188   2.676   3.183   7.434 -0.1686  0.2982  0.3368
 4852SOL    HW126189   2.603   3.223   7.481  1.6403  0.8061  2.7015
 4852SOL    HW226190   2.675   3.094   7.469 -0.0532  0.3069  0.3623
 4853SOL     OW26191   2.074   0.107  11.660  0.1203  0.1843 -0.5007
 4853SOL    HW126192   2.144   0.137  11.717  0.5065  1.9376 -1.9069
 4853SOL    HW226193   2.000   0.100  11.721  1.0122 -1.3610  0.4008
 4854SOL     OW26194   1.782   2.793   9.243 -0.0951 -0.1635 -0.5498
 4854SOL    HW126195   1.690   2.816   9.262  0.2798  0.9617 -0.0866
 4854SOL    HW226196   1.783   2.698   9.248 -0.2300 -0.0143  2.5451
 4855SOL     OW26197   0.587   4.735   7.230 -0.2339  0.2804  0.3293
 4855SOL    HW126198   0.655   0.012   7.164 -0.0925  4.1617  1.2010
 4855SOL    HW226199   0.639   4.726   7.311  1.0106  1.1079 -0.3807
 4856SOL     OW26200   4.537   2.222   8.299 -0.1049 -0.2794  0.5614
 4856SOL    HW126201   4.539   2.313   8.330  0.7737 -0.2530  0.4295
 4856SOL    HW226202   4.442   2.216   8.292 -0.0460 -1.2770  0.6896
 4857SOL     OW26203   1.171   2.072   6.006  0.1521 -0.3521  0.3050
 4857SOL    HW126204   1.267   2.075   6.011  0.1741 -0.5559  0.0173
 4857SOL    HW226205   1.159   1.980   5.984  0.4024 -0.1758 -0.5633
 4858SOL     OW26206   3.835   3.409   8.135  0.2961  0.3087 -0.2693
 4858SOL    HW126207   3.747   3.429   8.102 -0.7436  1.1486  2.9986
 4858SOL    HW226208   3.859   3.334   8.081 -1.1465 -0.1840 -0.2194
 4859SOL     OW26209   1.344   1.884   9.112 -0.2070  0.2318 -0.1158
 4859SOL    HW126210   1.413   1.914   9.171 -0.6767  1.2701 -0.0962
 4859SOL    HW226211   1.287   1.840   9.175 -0.7464 -0.8372 -1.3281
 4860SOL     OW26212   0.007   0.986   3.996 -0.3712 -0.3795  0.1237
 4860SOL    HW126213   0.042   0.983   4.085 -1.2983 -0.2822  0.4889
 4860SOL    HW226214   4.649   1.001   4.011 -0.3900  1.4889 -1.8772
 4861SOL     OW26215   4.013   0.017   3.271 -0.1390  0.2026 -0.3422
 4861SOL    HW126216   4.098   0.047   3.304 -0.5341 -0.5582  1.3534
 4861SOL    HW226217   3.956   0.093   3.257  1.6542  1.5172 -0.5577
 4862SOL     OW26218   0.275   4.709   0.529 -0.2239  0.1957  0.5231
 4862SOL    HW126219   0.339   0.042   0.552  2.8584 -1.8738 -1.9592
 4862SOL    HW226220   0.249   0.003   0.441  2.5793  2.1230  0.3273
 4863SOL     OW26221   1.743   3.257  13.270 -0.6282 -0.5578 -0.4499
 4863SOL    HW126222   1.821   3.218  13.231  1.1210  1.5787  0.8997
 4863SOL    HW226223   1.767   3.349  13.282 -1.4115 -0.5656  1.3100
 4864SOL     OW26224   4.450   0.471   2.712 -0.0312 -0.0518  0.6100
 4864SOL    HW126225   4.530   0.523   2.706  0.0595 -0.2345  0.2152
 4864SOL    HW226226   4.484   0.391   2.671 -3.4299  0.0480 -2.3192
 4865SOL     OW26227   4.579   1.344   6.529 -0.3341  0.4361  0.2124
 4865SOL    HW126228   4.549   1.435   6.533  1.0003  0.9368 -1.0880
 4865SOL    HW226229   4.569   1.325   6.436  1.3784 -1.6013  0.4445
 4866SOL     OW26230   0.359   1.711   5.868 -0.0878  0.0489  0.2343
 4866SOL    HW126231   0.317   1.766   5.934 -0.7986  0.4677 -0.5669
 4866SOL    HW226232   0.347   1.627   5.912  0.9054 -0.6726 -0.8644
 4867SOL     OW26233   1.446   0.946   1.764  0.1221  1.0226 -0.2602
 4867SOL    HW126234   1.408   0.899   1.690  0.1966 -2.4507  1.9195
 4867SOL    HW226235   1.453   0.870   1.822  2.3125  0.4983 -1.2087
 4868SOL     OW26236   3.696   2.399   7.802  0.2330  0.4065  0.2963
 4868SOL    HW126237   3.650   2.472   7.843 -0.9132 -1.3954  2.2013
 4868SOL    HW226238   3.693   2.431   7.711  1.5451  0.3281  0.2174
 4869SOL     OW26239   2.651   4.100  12.321  0.3157  0.3142  0.3067
 4869SOL    HW126240   2.614   4.158  12.254  1.1152 -1.1447 -1.3799
 4869SOL    HW226241   2.656   4.154  12.400 -0.9343  0.5013  0.2592
 4870SOL     OW26242   3.891   4.159   4.061 -0.5668 -0.0547  0.4451
 4870SOL    HW126243   3.862   4.084   4.010  0.6820 -0.4826  0.3751
 4870SOL    HW226244   3.936   4.117   4.135  0.7442  1.5380  0.5676
 4871SOL     OW26245   1.217   2.183   3.729 -0.5004 -0.3597  0.0898
 4871SOL    HW126246   1.254   2.139   3.805 -1.0610 -0.7779  0.1174
 4871SOL    HW226247   1.179   2.266   3.758 -1.7663 -1.1318  0.6445
 4872SOL     OW26248   3.682   0.711   2.747 -0.5268  0.2314  0.3501
 4872SOL    HW126249   3.635   0.779   2.794 -0.8546  0.0435  0.2921
 4872SOL    HW226250   3.623   0.685   2.677 -0.4911  0.4030  0.2550
 4873SOL     OW26251   3.756   1.461  12.564 -0.2702  0.2829 -0.1970
 4873SOL    HW126252   3.831   1.418  12.606  0.3793  1.0137 -0.5932
 4873SOL    HW226253   3.771   1.551  12.595  1.5347  0.0880 -0.5230
 4874SOL     OW26254   1.698   2.404   2.821  0.2364  1.1091  0.1673
 4874SOL    HW126255   1.626   2.453   2.861  0.9341  2.1295  0.1763
 4874SOL    HW226256   1.707   2.457   2.742  3.3942  1.0949  0.5456
 4875SOL     OW26257   4.373   4.383   5.919 -0.5576 -0.0349  0.0129
 4875SOL    HW126258   4.359   4.339   5.835 -2.0199 -0.3473  0.4134
 4875SOL    HW226259   4.424   4.459   5.893 -0.7305 -0.5683 -1.8862
 4876SOL     OW26260   1.481   1.010   6.735 -0.3285  0.0143  0.7960
 4876SOL    HW126261   1.521   0.924   6.748 -1.8751 -0.9118 -0.5584
 4876SOL    HW226262   1.530   1.043   6.660 -0.0597 -0.4173  0.7809
 4877SOL     OW26263   3.759   0.910  11.111  0.2038  0.0096 -0.4959
 4877SOL    HW126264   3.758   0.995  11.069  0.6683 -0.3440 -1.2261
 4877SOL    HW226265   3.699   0.916  11.186 -0.2674  1.0262 -0.9679
 4878SOL     OW26266   3.668   3.475  17.199  0.4951  0.6681  0.3193
 4878SOL    HW126267   3.630   3.496  17.114  2.3123 -1.5463 -1.0322
 4878SOL    HW226268   3.651   3.382  17.207 -3.0168  1.1400 -1.9403
 4879SOL     OW26269   1.362   0.165   5.145  0.3669 -0.2775 -0.4997
 4879SOL    HW126270   1.270   0.142   5.135  0.4057 -0.3545 -0.6689
 4879SOL    HW226271   1.360   0.210   5.230 -0.4860  2.0595 -1.7561
 4880SOL     OW26272   2.466   2.659   1.793 -0.0945  0.6570  0.0933
 4880SOL    HW126273   2.468   2.753   1.777  2.4175 -0.1761 -4.7782
 4880SOL    HW226274   2.417   2.626   1.718  1.3371 -2.8229  0.6710
 4881SOL     OW26275   2.653   2.100   9.310  0.2916 -0.2683  0.1878
 4881SOL    HW126276   2.643   2.034   9.378 -0.4522  0.7414  1.0669
 4881SOL    HW226277   2.675   2.045   9.236 -2.5898 -0.8436 -0.2153
 4882SOL     OW26278   0.821   2.778   5.833  0.1065 -0.0890  0.0440
 4882SOL    HW126279   0.816   2.689   5.799 -0.1863 -0.4556  1.0507
 4882SOL    HW226280   0.875   2.822   5.767 -0.2321  2.6362  1.5734
 4883SOL     OW26281   1.192   2.522  13.796  0.1914  0.2487 -0.3409
 4883SOL    HW126282   1.230   2.437  13.818 -0.1009  0.1780 -0.1065
 4883SOL    HW226283   1.245   2.566  13.862  0.9340 -0.0910 -0.7189
 4884SOL     OW26284   0.945   0.619   7.010  0.5399  0.5393  0.3719
 4884SOL    HW126285   1.000   0.624   6.932  0.0876 -0.1500  0.0098
 4884SOL    HW226286   0.889   0.548   6.979  1.6285  0.4266 -1.3739
 4885SOL     OW26287   4.467   1.864   7.969  0.1216  0.1812 -0.0744
 4885SOL    HW126288   4.393   1.857   8.028 -1.0500  0.2060 -1.5375
 4885SOL    HW226289   4.457   1.800   7.898 -0.3057 -1.7053  1.6955
 4886SOL     OW26290   0.646   2.315   7.113  0.7782  0.1217  0.2277
 4886SOL    HW126291   0.602   2.230   7.110 -1.0565  0.9919  2.7684
 4886SOL    HW226292   0.722   2.292   7.059  0.9095  2.1682 -0.4647
 4887SOL     OW26293   4.481   2.593   4.268 -0.2662  0.5855  0.3559
 4887SOL    HW126294   4.471   2.687   4.282 -3.8689  0.4498 -1.0785
 4887SOL    HW226295   4.425   2.553   4.335  0.1502  2.1249  1.6309
 4888SOL     OW26296   2.843   3.675   9.788  0.2251  0.5849 -0.1046
 4888SOL    HW126297   2.758   3.694   9.828  0.1299  0.5307 -0.2800
 4888SOL    HW226298   2.896   3.677   9.868  1.7981  0.9987 -1.1756
 4889SOL     OW26299   3.344   4.730  12.149 -0.1927  0.0543 -0.0197
 4889SOL    HW126300   3.353   4.635  12.141  1.7709  0.1063  1.5985
 4889SOL    HW226301   3.249   0.004  12.139 -0.0026  0.1463 -1.8158
 4890SOL     OW26302   0.045   0.225   1.528  0.5248  0.0502  0.4216
 4890SOL    HW126303   0.073   0.148   1.578 -1.4306 -1.0825 -0.2162
 4890SOL    HW226304   0.083   0.293   1.584  2.2442 -0.5561 -0.0122
 4891SOL     OW26305   0.640   0.597   5.488  0.4141 -0.3263 -0.1218
 4891SOL    HW126306   0.555   0.641   5.491  0.1433 -0.6516 -3.4544
 4891SOL    HW226307   0.689   0.656   5.432 -0.5345  1.1865  0.6511
 4892SOL     OW26308   2.721   3.839  16.047  0.2604 -0.5440  0.0653
 4892SOL    HW126309   2.649   3.903  16.051  1.0852  0.4181 -0.2987
 4892SOL    HW226310   2.756   3.858  16.134 -0.4254 -0.3897  0.3072
 4893SOL     OW26311   3.713   2.279   3.321 -0.4669  0.2930  0.0126
 4893SOL    HW126312   3.684   2.369   3.338  0.8763  0.6022  0.7066
 4893SOL    HW226313   3.628   2.240   3.342 -0.6946  0.3624 -0.8085
 4894SOL     OW26314   0.762   3.702   7.018 -0.4147 -0.1603 -0.6137
 4894SOL    HW126315   0.735   3.644   6.947  1.7337 -1.2623 -0.5115
 4894SOL    HW226316   0.681   3.702   7.069 -0.0602  2.1882 -0.0541
 4895SOL     OW26317   3.340   4.444  12.192 -0.5979 -0.0417 -0.7676
 4895SOL    HW126318   3.337   4.387  12.116  1.3562 -0.2860 -0.6619
 4895SOL    HW226319   3.250   4.441  12.227  0.2476 -0.5226  1.3816
 4896SOL     OW26320   1.979   3.061  17.619  0.1374  0.3971  0.2577
 4896SOL    HW126321   1.957   3.014  17.700 -0.9879  0.7165  0.1276
 4896SOL    HW226322   2.073   3.044  17.616  0.4015  2.0246 -0.3701
 4897SOL     OW26323   1.071   4.392   0.594  0.3486  0.3206 -0.2015
 4897SOL    HW126324   1.094   4.347   0.675  0.9467  2.1202  0.6276
 4897SOL    HW226325   0.982   4.417   0.616  0.2385  1.7031 -2.1528
 4898SOL     OW26326   1.192   2.709   1.556 -0.0339  0.0687 -0.3620
 4898SOL    HW126327   1.113   2.763   1.560 -0.0531 -0.1437  2.1591
 4898SOL    HW226328   1.193   2.661   1.638  2.3750  0.4923 -0.1388
 4899SOL     OW26329   1.314   4.121  14.011 -0.3569  0.2787  0.4296
 4899SOL    HW126330   1.347   4.036  14.040  2.5480  1.2411 -0.0612
 4899SOL    HW226331   1.368   4.189  14.051  2.4519 -0.2233 -2.4462
 4900SOL     OW26332   0.813   1.546  10.268 -0.3195 -0.0503  0.1692
 4900SOL    HW126333   0.721   1.568  10.281 -0.5529 -1.1538  0.4446
 4900SOL    HW226334   0.843   1.581  10.351  2.4108 -1.3701 -0.2654
 4901SOL     OW26335   2.359   4.132   5.870  0.0026 -0.1852  0.1990
 4901SOL    HW126336   2.432   4.098   5.818  1.6398 -0.5311  2.7250
 4901SOL    HW226337   2.378   4.226   5.868 -0.6809 -0.0486  0.4136
 4902SOL     OW26338   1.250   3.506   2.455 -0.2594 -0.3928  0.0499
 4902SOL    HW126339   1.231   3.599   2.441 -0.0332 -0.2786  0.4974
 4902SOL    HW226340   1.243   3.500   2.551  0.8831  2.3268  0.3107
 4903SOL     OW26341   0.841   0.236   8.111  0.3992  0.3074  0.1267
 4903SOL    HW126342   0.786   0.158   8.105  0.7586 -0.0501  1.5259
 4903SOL    HW226343   0.824   0.251   8.203 -4.5401  0.8196 -0.9076
 4904SOL     OW26344   3.724   2.226   3.049 -0.0672 -0.5421 -0.8352
 4904SOL    HW126345   3.732   2.238   3.144 -0.9763 -0.0382 -0.8240
 4904SOL    HW226346   3.658   2.294   3.032  0.4160 -0.3876 -2.1156
 4905SOL     OW26347   2.991   4.224   5.927 -0.2606 -0.3630 -0.6032
 4905SOL    HW126348   3.027   4.196   6.012 -1.9116 -0.1081  0.1743
 4905SOL    HW226349   2.924   4.280   5.966  0.7472  1.4243 -1.4614
 4906SOL     OW26350   1.126   0.243  11.252 -0.6969 -0.0232 -0.1477
 4906SOL    HW126351   1.204   0.270  11.204 -0.9463 -0.8811 -1.0386
 4906SOL    HW226352   1.114   0.328  11.294  1.1633 -1.5094  3.3421
 4907SOL     OW26353   3.289   1.269   6.629 -0.1182 -0.7024 -0.3270
 4907SOL    HW126354   3.344   1.321   6.688 -1.3077 -0.4671  0.5671
 4907SOL    HW226355   3.317   1.304   6.544  0.5209  3.5899  1.6469
 4908SOL     OW26356   2.627   2.986   7.601 -0.1597 -0.1261 -0.0595
 4908SOL    HW126357   2.559   2.967   7.665  0.7417  0.5149  1.0778
 4908SOL    HW226358   2.616   2.925   7.527  0.8790 -0.3967  0.0171
 4909SOL     OW26359   0.165   3.422   8.654  0.3704 -0.0692  0.0384
 4909SOL    HW126360   0.230   3.373   8.603  0.2782  0.8989 -1.0151
 4909SOL    HW226361   0.105   3.349   8.670  0.1532  0.2230  0.5689
 4910SOL     OW26362   1.258   0.221   3.075  0.3654  0.0815  0.0966
 4910SOL    HW126363   1.312   0.290   3.114 -1.1056  0.6650  1.0700
 4910SOL    HW226364   1.247   0.270   2.993  1.2023 -1.0400 -0.6968
 4911SOL     OW26365   1.996   2.617  15.951 -0.3161  0.3411  0.1215
 4911SOL    HW126366   1.989   2.525  15.976 -1.0578  0.2847 -0.2982
 4911SOL    HW226367   1.916   2.630  15.900  0.7844 -1.5616 -2.0478
 4912SOL     OW26368   0.137   2.275   5.335  0.0774 -0.5599 -0.0790
 4912SOL    HW126369   0.140   2.345   5.271 -0.6330 -0.8260 -0.3962
 4912SOL    HW226370   0.060   2.223   5.312 -0.1401  0.5343 -1.7579
 4913SOL     OW26371   1.548   1.391   8.591  0.5878 -0.2511 -0.4105
 4913SOL    HW126372   1.484   1.417   8.525 -0.8146  0.1899  1.1049
 4913SOL    HW226373   1.602   1.321   8.554  0.1221 -0.8967  0.1205
 4914SOL     OW26374   3.197   4.439  15.231  0.0556  0.6243 -0.2746
 4914SOL    HW126375   3.182   4.388  15.151 -0.3784  3.2163 -1.8739
 4914SOL    HW226376   3.278   4.397  15.261 -1.6602 -1.4210  1.3867
 4915SOL     OW26377   0.271   4.002  15.470 -0.0456  0.1565 -0.4233
 4915SOL    HW126378   0.231   3.938  15.411  1.6331 -2.1151  0.8851
 4915SOL    HW226379   0.269   4.075  15.409 -0.4297  0.5216  0.0266
 4916SOL     OW26380   2.059   4.144   7.903 -0.2343  0.0214 -0.2239
 4916SOL    HW126381   2.133   4.091   7.873  0.0129  0.4174 -0.3274
 4916SOL    HW226382   2.009   4.155   7.822 -1.8135 -0.1298  0.7424
 4917SOL     OW26383   4.601   2.999  11.116  0.0451 -0.0812  0.2187
 4917SOL    HW126384   4.694   2.974  11.122  0.2024  0.9158  2.2138
 4917SOL    HW226385   4.588   3.051  11.195 -1.5935 -0.7083  0.3469
 4918SOL     OW26386   2.003   3.145  13.242 -0.2429  0.5364  0.6587
 4918SOL    HW126387   2.073   3.198  13.280 -0.9800  3.4109 -2.0289
 4918SOL    HW226388   2.011   3.158  13.148 -3.1431  0.8453  0.4395
 4919SOL     OW26389   1.122   3.220  13.176 -0.5399  0.4392  0.0102
 4919SOL    HW126390   1.096   3.138  13.135  0.6764 -0.1338  0.3642
 4919SOL    HW226391   1.141   3.279  13.103 -1.0127  1.5997  0.8235
 4920SOL     OW26392   1.755   0.799   1.735 -0.1693 -0.0410  0.0279
 4920SOL    HW126393   1.737   0.814   1.828 -0.7758 -0.1434 -0.0747
 4920SOL    HW226394   1.716   0.711   1.739 -1.1854  0.3354 -1.6576
 4921SOL     OW26395   3.187   3.025   2.527 -0.3829 -0.0662  0.5941
 4921SOL    HW126396   3.192   3.100   2.468 -4.5888  0.7730  1.3019
 4921SOL    HW226397   3.128   2.970   2.475  0.2167 -0.6335  0.5138
 4922SOL     OW26398   2.650   2.273   6.580 -0.0225 -1.0701 -0.0065
 4922SOL    HW126399   2.591   2.198   6.591 -1.1336  0.1330  2.2226
 4922SOL    HW226400   2.595   2.347   6.556  0.7521 -0.1493  1.0799
 4923SOL     OW26401   4.516   1.857   2.114  0.6030  0.3029 -0.0513
 4923SOL    HW126402   4.569   1.884   2.039 -0.7275  0.0345 -1.0853
 4923SOL    HW226403   4.459   1.933   2.125  0.7795  0.4434 -0.1058
 4924SOL     OW26404   2.956   1.254  16.219  0.2902  0.4426 -0.2218
 4924SOL    HW126405   2.943   1.333  16.167 -1.5572 -0.4393 -1.1082
 4924SOL    HW226406   2.955   1.291  16.308 -2.7900  0.1988 -0.1478
 4925SOL     OW26407   1.924   4.212   1.952  0.8624 -0.3128 -0.0104
 4925SOL    HW126408   1.921   4.222   2.047 -0.8890  1.2250 -0.2264
 4925SOL    HW226409   1.834   4.221   1.921  0.5362  0.3232  1.1376
 4926SOL     OW26410   0.397   2.649   3.300 -0.3227  0.7873  0.6425
 4926SOL    HW126411   0.367   2.666   3.389  0.8901  1.1774  0.9849
 4926SOL    HW226412   0.371   2.736   3.272  3.3958  1.7377  0.1190
 4927SOL     OW26413   3.435   3.353   6.334  0.1055 -0.2629 -0.0951
 4927SOL    HW126414   3.437   3.259   6.315  2.6521 -0.1183 -0.4995
 4927SOL    HW226415   3.353   3.383   6.294 -0.3271 -1.8111 -0.3885
 4928SOL     OW26416   4.115   3.151  11.286 -0.2775  0.1862  0.0956
 4928SOL    HW126417   4.090   3.109  11.204 -0.8655 -0.9544  0.8567
 4928SOL    HW226418   4.081   3.240  11.278 -4.5743 -1.8237 -3.8078
 4929SOL     OW26419   3.712   0.495   6.258  0.1676  0.0283 -0.0422
 4929SOL    HW126420   3.632   0.484   6.206 -0.5774  0.0334  1.0927
 4929SOL    HW226421   3.742   0.406   6.279  1.5844  1.0590  2.3406
 4930SOL     OW26422   4.437   2.610   7.406  0.0454  0.2415 -0.2153
 4930SOL    HW126423   4.445   2.582   7.498  0.5219 -1.1547 -0.6840
 4930SOL    HW226424   4.372   2.680   7.415 -2.5962 -2.4825  1.6526
 4931SOL     OW26425   0.151   0.193   8.188 -0.2533 -0.0256  0.0150
 4931SOL    HW126426   0.185   0.280   8.167 -0.8207 -0.0166 -0.8710
 4931SOL    HW226427   0.209   0.174   8.262  0.3141  0.1331 -0.3907
 4932SOL     OW26428   1.106   4.645   3.167 -0.2539  0.2659 -0.5834
 4932SOL    HW126429   1.189   4.652   3.214 -0.4753  2.2980 -0.4714
 4932SOL    HW226430   1.080   4.562   3.207 -1.3381  1.6202  1.5451
 4933SOL     OW26431   4.125   1.849   6.010  0.4942  0.0439 -0.0654
 4933SOL    HW126432   4.102   1.928   6.059 -1.2706  0.3798 -1.4335
 4933SOL    HW226433   4.036   1.824   5.988  0.8215  1.4113 -2.8854
 4934SOL     OW26434   2.827   4.606   6.178 -0.2563  0.2728  0.2719
 4934SOL    HW126435   2.799   4.550   6.105  0.1436 -0.4622  0.6812
 4934SOL    HW226436   2.922   4.615   6.166  0.1965 -1.6138  2.3194
 4935SOL     OW26437   1.817   2.810   4.640  0.3682 -0.1570 -0.2988
 4935SOL    HW126438   1.910   2.787   4.640 -0.0666 -1.9607 -1.3462
 4935SOL    HW226439   1.786   2.725   4.606 -1.5559  0.5733 -0.3643
 4936SOL     OW26440   0.019   0.478   6.748  0.1782 -0.7017  0.1116
 4936SOL    HW126441   4.689   0.494   6.680  0.7616  0.5040 -0.1693
 4936SOL    HW226442   4.709   0.433   6.820 -2.4693  2.6586  0.5387
 4937SOL     OW26443   4.322   1.443   4.984  0.0280  0.4061 -0.5809
 4937SOL    HW126444   4.255   1.394   5.033 -0.1576  0.8064 -0.4366
 4937SOL    HW226445   4.278   1.443   4.898  2.5752 -2.3155 -1.8986
 4938SOL     OW26446   0.811   0.792  16.949 -0.2520  0.1075  0.6026
 4938SOL    HW126447   0.763   0.714  16.977  0.2143 -0.1066  0.8138
 4938SOL    HW226448   0.749   0.861  16.973 -1.0071  0.4998 -2.4682
 4939SOL     OW26449   4.325   3.373   7.345 -0.0011 -0.8658  0.0738
 4939SOL    HW126450   4.340   3.438   7.413 -3.2597 -1.0776  0.9811
 4939SOL    HW226451   4.237   3.391   7.310  1.1099  0.4310 -2.0448
 4940SOL     OW26452   2.592   4.507  17.718  0.3883 -0.2258 -0.3824
 4940SOL    HW126453   2.528   4.439  17.739 -0.0129 -0.5423 -2.6534
 4940SOL    HW226454   2.549   4.546  17.643 -1.7178  0.9844  1.4574
 4941SOL     OW26455   0.361   4.661   9.263  0.0419 -0.4056 -0.0229
 4941SOL    HW126456   0.430   4.611   9.307  0.9594 -2.0665 -3.2503
 4941SOL    HW226457   0.288   4.605   9.288  0.3372 -0.8987 -0.2505
 4942SOL     OW26458   3.484   0.723  11.129  0.0244  0.9882 -0.3124
 4942SOL    HW126459   3.557   0.691  11.076 -1.0333  0.1751 -1.2696
 4942SOL    HW226460   3.418   0.758  11.070  1.0316  0.8644 -1.5125
 4943SOL     OW26461   4.152   3.596   4.573  0.0843 -0.3575 -0.5548
 4943SOL    HW126462   4.176   3.572   4.483 -1.3444 -0.6019 -0.8692
 4943SOL    HW226463   4.126   3.507   4.598  1.0178 -1.2629 -2.7904
 4944SOL     OW26464   0.575   1.888   3.440 -0.0998 -0.6985 -0.1305
 4944SOL    HW126465   0.487   1.923   3.426 -0.3681 -0.6929  1.6060
 4944SOL    HW226466   0.597   1.953   3.506 -2.4433 -1.4981  1.4156
 4945SOL     OW26467   1.425   1.661   8.186  0.6243  0.0655  0.3593
 4945SOL    HW126468   1.449   1.737   8.132  1.0533  0.7037  1.4593
 4945SOL    HW226469   1.503   1.654   8.242  0.4129 -0.1830  0.6217
 4946SOL     OW26470   2.637   1.341  11.477  0.2399  0.1082  0.2821
 4946SOL    HW126471   2.695   1.322  11.403 -0.9022  1.7759 -1.0618
 4946SOL    HW226472   2.696   1.311  11.546 -1.0088 -0.9062  0.9103
 4947SOL     OW26473   0.251   1.865  11.262 -0.5990 -0.8689 -0.2664
 4947SOL    HW126474   0.260   1.896  11.352  0.7812 -2.0014 -0.0034
 4947SOL    HW226475   0.174   1.903  11.220  0.7174  0.7926 -1.1648
 4948SOL     OW26476   0.200   2.636   3.515 -0.4039  0.0867 -0.1002
 4948SOL    HW126477   0.149   2.557   3.533 -1.0870  0.5310 -0.0803
 4948SOL    HW226478   0.128   2.699   3.506  1.2333  1.3890 -4.1293
 4949SOL     OW26479   2.493   1.372   2.929  0.9664 -0.0133  0.2606
 4949SOL    HW126480   2.539   1.290   2.915  0.0536 -0.0954 -2.3798
 4949SOL    HW226481   2.414   1.346   2.882 -1.1191  1.7366  2.8031
 4950SOL     OW26482   1.444   2.071   5.959  0.0391  0.5533  0.1312
 4950SOL    HW126483   1.484   2.120   5.888 -0.7980  0.5754 -0.3303
 4950SOL    HW226484   1.522   2.035   6.001 -1.1936 -2.1525  0.1766
 4951SOL     OW26485   4.428   2.351  15.088 -0.2308  0.4987 -0.3445
 4951SOL    HW126486   4.512   2.337  15.133  0.4022  1.0303 -1.3571
 4951SOL    HW226487   4.407   2.258  15.078 -1.3616  0.6738  0.3751
 4952SOL     OW26488   0.895   3.156   7.589 -0.1853  0.8085 -0.1355
 4952SOL    HW126489   0.819   3.192   7.634 -1.1477 -0.3280 -0.8484
 4952SOL    HW226490   0.885   3.193   7.501 -0.0635 -0.7614 -0.8112
 4953SOL     OW26491   2.975   4.113   6.535 -0.6795  0.8196  0.0362
 4953SOL    HW126492   2.903   4.154   6.582  1.4691  1.5689  2.6795
 4953SOL    HW226493   2.941   4.046   6.476  2.5380  0.6680 -1.6852
 4954SOL     OW26494   3.269   2.664   8.318 -0.4069 -0.1856 -0.8734
 4954SOL    HW126495   3.351   2.706   8.342  0.2255 -1.2442 -1.2009
 4954SOL    HW226496   3.266   2.579   8.361  0.5475 -0.4896 -1.4033
 4955SOL     OW26497   3.565   3.014   6.969 -0.1473 -0.5576 -0.0830
 4955SOL    HW126498   3.654   3.018   7.002 -0.7665  0.0139  1.5055
 4955SOL    HW226499   3.578   2.976   6.882  0.9886 -0.5080  0.0659
 4956SOL     OW26500   0.698   1.587   4.913 -0.4227  0.5151 -0.3036
 4956SOL    HW126501   0.621   1.605   4.966 -0.4661 -0.2117 -0.1311
 4956SOL    HW226502   0.658   1.599   4.827  1.3801 -0.4014 -1.2780
 4957SOL     OW26503   0.930   0.778  11.293  0.1746 -0.5415 -0.5378
 4957SOL    HW126504   0.908   0.839  11.363 -0.6411 -0.5039 -0.8279
 4957SOL    HW226505   0.967   0.833  11.224  1.9627 -1.4455 -0.2966
 4958SOL     OW26506   2.445   0.613   3.950 -0.1549  0.4627 -0.1648
 4958SOL    HW126507   2.367   0.557   3.952 -1.0709  1.7840  1.0307
 4958SOL    HW226508   2.461   0.623   3.856 -4.6550  1.7334 -0.7899
 4959SOL     OW26509   4.079   0.613   7.698  0.2352 -0.0749  0.0567
 4959SOL    HW126510   4.099   0.657   7.616  3.6414  0.2224  1.0691
 4959SOL    HW226511   4.078   0.522   7.669  2.0446 -0.1362  0.2190
 4960SOL     OW26512   2.828   1.687  12.441  0.1450  0.1456  0.4652
 4960SOL    HW126513   2.743   1.712  12.403  0.1571 -2.9910 -1.6412
 4960SOL    HW226514   2.849   1.612  12.385  1.3699  2.1834 -1.8087
 4961SOL     OW26515   4.526   2.900  12.113 -0.3035  0.0434  0.0012
 4961SOL    HW126516   4.484   2.964  12.170 -2.8653 -1.6739  0.0582
 4961SOL    HW226517   4.488   2.816  12.139  0.0014  0.2233  1.0527
 4962SOL     OW26518   1.031   2.541  15.048  0.1106 -0.2922  0.3733
 4962SOL    HW126519   0.981   2.465  15.019 -1.2737  0.7369  0.0907
 4962SOL    HW226520   1.063   2.581  14.967 -1.3684  0.4916  0.1796
 4963SOL     OW26521   2.300   0.826   9.049 -0.0141 -0.0787 -0.1289
 4963SOL    HW126522   2.281   0.875   8.969  1.6652  0.2137 -0.3467
 4963SOL    HW226523   2.361   0.763   9.011  0.4941  0.8680 -0.8944
 4964SOL     OW26524   3.616   3.640   7.667  0.1141 -0.4779  0.3681
 4964SOL    HW126525   3.649   3.682   7.747  0.0710 -0.8937  0.6056
 4964SOL    HW226526   3.697   3.643   7.616 -0.4464 -0.2178 -0.4887
 4965SOL     OW26527   1.241   4.217   6.336  0.2312  0.0570 -0.4107
 4965SOL    HW126528   1.228   4.267   6.417  1.1269  2.3405 -1.6979
 4965SOL    HW226529   1.300   4.270   6.283 -0.5568  1.1991 -0.1489
 4966SOL     OW26530   2.498   3.682   0.876  0.6167  0.0215 -0.3591
 4966SOL    HW126531   2.483   3.704   0.784  1.0885  3.0829  0.3046
 4966SOL    HW226532   2.504   3.586   0.869 -0.9692  0.0373 -1.9766
 4967SOL     OW26533   3.060   2.834   6.286 -0.0776 -0.1522 -0.2343
 4967SOL    HW126534   3.152   2.818   6.307  0.2169  1.9943  0.1663
 4967SOL    HW226535   3.045   2.927   6.302 -0.0858 -0.0464 -0.8582
 4968SOL     OW26536   1.327   3.995   3.029 -0.7540  0.6326 -0.2925
 4968SOL    HW126537   1.234   4.006   3.048 -0.8361 -1.0340  0.2516
 4968SOL    HW226538   1.359   4.069   3.080 -0.9581 -0.1709  0.9844
 4969SOL     OW26539   1.775   4.691   5.244  0.0169 -0.1398 -0.4190
 4969SOL    HW126540   1.687   4.691   5.206 -0.0885 -3.3451 -0.2228
 4969SOL    HW226541   1.819   4.708   5.161 -0.2958 -1.3305 -0.8276
 4970SOL     OW26542   4.494   1.284  15.988  0.3126  0.3105 -0.3149
 4970SOL    HW126543   4.577   1.246  15.958  0.3078 -0.5174  0.7020
 4970SOL    HW226544   4.490   1.249  16.078 -4.0063  1.1429 -0.2043
 4971SOL     OW26545   2.630   0.663   0.500 -0.6770  0.1159 -0.0267
 4971SOL    HW126546   2.579   0.693   0.576  0.6265 -0.8778  1.2368
 4971SOL    HW226547   2.634   0.741   0.444  0.3821 -1.6404 -2.3581
 4972SOL     OW26548   1.634   4.479   9.020 -0.3258  0.6888  0.2433
 4972SOL    HW126549   1.628   4.519   9.106 -1.5876 -1.8376  1.3278
 4972SOL    HW226550   1.542   4.453   9.012 -0.2834  0.6973 -0.2918
 4973SOL     OW26551   3.646   3.644   4.349  0.8319  0.0284  0.3925
 4973SOL    HW126552   3.668   3.691   4.430  2.7304  0.6130 -0.4647
 4973SOL    HW226553   3.733   3.632   4.312 -0.0175  0.0971 -1.5815
 4974SOL     OW26554   4.487   2.684  13.347  0.4916 -0.2396  0.5051
 4974SOL    HW126555   4.489   2.778  13.366  0.2452 -0.4076  1.3276
 4974SOL    HW226556   4.516   2.639  13.426 -0.1034  0.5787  1.1910
 4975SOL     OW26557   1.758   1.891   8.640  0.3697  0.1824  0.3919
 4975SOL    HW126558   1.831   1.954   8.639  0.6887 -0.1985 -0.2860
 4975SOL    HW226559   1.815   1.816   8.622 -1.0635 -0.4730 -1.4098
 4976SOL     OW26560   1.642   1.302   5.795 -0.2381  0.0589  0.0555
 4976SOL    HW126561   1.660   1.396   5.797  2.5911 -0.5299  1.6395
 4976SOL    HW226562   1.603   1.289   5.708 -1.5190 -0.0582  0.6391
 4977SOL     OW26563   1.023   2.506   4.837  0.2640 -0.3400 -0.1948
 4977SOL    HW126564   0.984   2.437   4.890  2.0590 -0.7335  0.6179
 4977SOL    HW226565   0.956   2.515   4.769 -0.4779 -1.4856  0.3839
 4978SOL     OW26566   0.430   1.416   1.357 -0.2618  0.3229  0.3900
 4978SOL    HW126567   0.462   1.332   1.390 -2.9035 -0.8049  0.0533
 4978SOL    HW226568   0.493   1.482   1.388 -1.9011  2.8726 -1.6948
 4979SOL     OW26569   3.806   4.537   5.778  0.2772  0.1045  0.2792
 4979SOL    HW126570   3.809   4.609   5.841  0.1550 -1.5003  2.1235
 4979SOL    HW226571   3.897   4.536   5.751  0.8874  2.0362  2.2073
 4980SOL     OW26572   4.467   0.213   2.256 -0.1991 -0.8935 -0.3256
 4980SOL    HW126573   4.413   0.210   2.177  0.7761 -1.6948 -0.9550
 4980SOL    HW226574   4.441   0.296   2.297 -0.7028 -1.5739  0.7153
 4981SOL     OW26575   4.563   0.208  13.589 -0.2974  0.1696 -0.2602
 4981SOL    HW126576   4.510   0.257  13.526 -0.2663 -0.2228 -0.5950
 4981SOL    HW226577   4.608   0.286  13.621  0.5809 -0.7018  0.6468
 4982SOL     OW26578   4.728   4.225   3.317  0.1662 -0.0581  0.2606
 4982SOL    HW126579   0.053   4.299   3.310  0.7440 -0.7162 -1.7612
 4982SOL    HW226580   4.646   4.247   3.274 -1.0586 -0.0606  2.5808
 4983SOL     OW26581   1.149   2.475   3.971 -0.4811 -0.7857  0.2794
 4983SOL    HW126582   1.182   2.556   4.010 -2.0383  0.2752 -0.6129
 4983SOL    HW226583   1.119   2.504   3.885 -0.6808  0.2236  0.6840
 4984SOL     OW26584   0.048   1.975   4.436 -0.1916  0.2761 -0.5842
 4984SOL    HW126585   0.000   1.893   4.421  0.2122  0.2924 -1.9120
 4984SOL    HW226586   4.722   2.043   4.411 -0.2702  0.3813 -0.1069
 4985SOL     OW26587   1.106   3.904   8.983 -0.1104 -0.6881  0.2363
 4985SOL    HW126588   1.127   3.826   8.932 -0.2740  1.9848 -3.9123
 4985SOL    HW226589   1.148   3.886   9.067  1.5367  0.2459 -0.3727
 4986SOL     OW26590   2.377   3.575   6.792  0.3736 -0.6158  0.6132
 4986SOL    HW126591   2.442   3.644   6.780  1.5073 -1.4329  2.0654
 4986SOL    HW226592   2.296   3.624   6.780  0.7511 -0.7005 -2.3970
 4987SOL     OW26593   4.218   3.871  11.641  0.1724  0.3327  0.2286
 4987SOL    HW126594   4.191   3.779  11.641 -1.7855  0.9303  2.0431
 4987SOL    HW226595   4.307   3.856  11.606 -0.3079 -0.0400 -0.8471
 4988SOL     OW26596   0.391   1.437   5.600  0.4602 -0.6217 -0.0822
 4988SOL    HW126597   0.468   1.494   5.594 -0.7511  1.0072 -0.0431
 4988SOL    HW226598   0.416   1.399   5.684  2.5996  2.4000  0.6511
 4989SOL     OW26599   4.284   4.568   5.255 -0.1228  0.0091  0.1740
 4989SOL    HW126600   4.313   4.582   5.345 -0.2287  1.3962 -0.0046
 4989SOL    HW226601   4.333   4.489   5.233  0.1148  0.1815  0.0762
 4990SOL     OW26602   2.339   0.460   4.914 -0.4573  0.0850 -0.1809
 4990SOL    HW126603   2.361   0.387   4.973 -1.7554  0.2232  0.4637
 4990SOL    HW226604   2.352   0.536   4.970  2.1107 -0.1475 -0.4458
 4991SOL     OW26605   2.730   3.550  11.265  0.2856 -0.6536 -0.0493
 4991SOL    HW126606   2.727   3.530  11.359  3.2955  1.7153  0.5455
 4991SOL    HW226607   2.790   3.478  11.243 -0.2653 -0.9442 -0.6066
 4992SOL     OW26608   2.157   3.054   2.918  0.0242 -0.3785 -0.0965
 4992SOL    HW126609   2.134   2.979   2.973  1.0201  0.5072  1.5262
 4992SOL    HW226610   2.224   3.014   2.863  0.3170  0.6685 -0.5077
 4993SOL     OW26611   0.061   1.439   1.823  0.0456 -0.3767  0.1204
 4993SOL    HW126612   4.715   1.465   1.866 -0.5591 -1.6232 -0.2815
 4993SOL    HW226613   0.019   1.406   1.744 -0.4299  0.7445 -0.0892
 4994SOL     OW26614   0.518   4.489  13.423 -0.0727 -0.5122  0.1012
 4994SOL    HW126615   0.576   4.545  13.371  1.9937 -0.3658  2.5189
 4994SOL    HW226616   0.433   4.507  13.383 -0.8261  1.5359  2.5516
 4995SOL     OW26617   2.426   3.178   2.094  0.3109  0.2578  0.0574
 4995SOL    HW126618   2.378   3.259   2.113 -1.0002  0.0736 -2.4056
 4995SOL    HW226619   2.490   3.217   2.034  0.0750  0.6448  0.0568
 4996SOL     OW26620   3.231   1.165  17.045 -0.3350 -0.4195  0.2530
 4996SOL    HW126621   3.192   1.130  16.965 -2.0060 -0.9042  1.2887
 4996SOL    HW226622   3.297   1.223  17.006 -0.6494 -1.9753 -2.6646
 4997SOL     OW26623   1.182   1.850   3.808  0.9876 -0.5631  0.2029
 4997SOL    HW126624   1.137   1.785   3.862 -1.1290  0.6776 -0.0810
 4997SOL    HW226625   1.211   1.912   3.876  0.2946 -1.4361  1.2955
 4998SOL     OW26626   4.104   0.344  16.699  0.2455 -0.1526  0.4345
 4998SOL    HW126627   4.049   0.359  16.777 -0.2720  0.5098 -0.0556
 4998SOL    HW226628   4.063   0.402  16.635 -0.5753  0.0244  1.1085
 4999SOL     OW26629   2.715   0.758   4.167  0.4741 -0.1809 -0.7028
 4999SOL    HW126630   2.633   0.758   4.118 -0.7769  0.0581  1.3968
 4999SOL    HW226631   2.761   0.685   4.126  0.0456 -0.4519 -0.7036
 5000SOL     OW26632   0.932   2.027  15.713  0.0441  0.3226  0.1311
 5000SOL    HW126633   0.900   2.114  15.735  1.0027  0.6324  0.3004
 5000SOL    HW226634   0.884   2.018  15.631  1.6315  0.9170 -0.8515
 5001SOL     OW26635   4.234   3.156  10.893 -0.3597  0.1227  0.6155
 5001SOL    HW126636   4.253   3.249  10.899 -1.4503  0.2516  2.0503
 5001SOL    HW226637   4.312   3.128  10.846 -2.3223 -1.1258 -1.9413
 5002SOL     OW26638   3.508   1.616   7.293  0.1760 -0.3279  0.0251
 5002SOL    HW126639   3.576   1.569   7.341 -0.3525 -3.6170 -2.4487
 5002SOL    HW226640   3.501   1.693   7.350  0.6039 -1.1953  1.2260
 5003SOL     OW26641   2.206   2.106   9.422 -0.6806  0.4238 -1.0316
 5003SOL    HW126642   2.228   2.166   9.351 -0.4525  0.6232 -0.7932
 5003SOL    HW226643   2.127   2.069   9.382  0.1486 -1.2425 -1.1328
 5004SOL     OW26644   2.258   3.477   8.824  0.3010 -0.4534  0.3000
 5004SOL    HW126645   2.292   3.388   8.828 -2.1627 -1.3891 -0.0165
 5004SOL    HW226646   2.171   3.448   8.800  0.5195  1.3398 -2.7863
 5005SOL     OW26647   2.021   3.194   7.962 -0.4068  0.1142 -0.7805
 5005SOL    HW126648   2.027   3.184   7.867 -2.2274  1.4572 -1.0385
 5005SOL    HW226649   1.943   3.139   7.973  0.8725 -1.7350 -1.0119
 5006SOL     OW26650   2.972   3.332   6.932 -0.1344 -0.0452 -0.0225
 5006SOL    HW126651   2.887   3.327   6.888 -0.5740  2.0948  0.6145
 5006SOL    HW226652   2.963   3.285   7.015  0.4911  0.2032  0.1866
 5007SOL     OW26653   4.051   0.448   4.308 -0.2437  0.0703 -0.0213
 5007SOL    HW126654   4.061   0.419   4.398  0.2913  2.3642  0.6493
 5007SOL    HW226655   4.142   0.475   4.297 -0.1022  0.8651  3.1386
 5008SOL     OW26656   1.676   3.647   8.222 -0.3174  0.1947 -0.9010
 5008SOL    HW126657   1.694   3.647   8.129  0.4013  0.9628 -0.7601
 5008SOL    HW226658   1.595   3.695   8.243 -0.5447  0.2511 -1.9391
 5009SOL     OW26659   0.733   1.651   2.465  0.2200 -0.0792 -0.2578
 5009SOL    HW126660   0.720   1.713   2.537  1.9755 -1.7218  1.5167
 5009SOL    HW226661   0.801   1.590   2.495  0.1758 -0.2276 -0.4653
 5010SOL     OW26662   1.892   0.088  13.619  0.0104 -0.2764  0.2236
 5010SOL    HW126663   1.840   0.138  13.682  1.9815  1.3297  0.6215
 5010SOL    HW226664   1.936   0.018  13.668 -2.2497 -0.9291  1.2809
 5011SOL     OW26665   1.467   0.524   7.751  0.5234  0.0571 -0.7676
 5011SOL    HW126666   1.392   0.501   7.696 -0.9997  2.9919  0.1249
 5011SOL    HW226667   1.442   0.464   7.822 -1.8279  0.3362 -1.3507
 5012SOL     OW26668   3.144   4.124   0.181 -0.3049  0.2351 -0.5563
 5012SOL    HW126669   3.185   4.038   0.180  1.9933  1.2760  1.5165
 5012SOL    HW226670   3.064   4.108   0.132 -0.0713 -0.5361 -0.6869
 5013SOL     OW26671   1.402   2.429  17.477 -0.2022  0.6804 -0.0913
 5013SOL    HW126672   1.434   2.359  17.534  0.7039  0.3389 -0.9957
 5013SOL    HW226673   1.350   2.470  17.546  1.9030 -1.1257  2.5425
 5014SOL     OW26674   3.415   4.060   0.179 -0.0757  0.4944  0.0715
 5014SOL    HW126675   3.474   4.052   0.104 -1.2956  1.7790 -1.0164
 5014SOL    HW226676   3.413   3.967   0.205  0.1832  0.3925 -0.2809
 5015SOL     OW26677   2.747   1.664   8.898  0.7488 -0.2011  0.0828
 5015SOL    HW126678   2.735   1.618   8.815  1.5676  1.5962 -1.0577
 5015SOL    HW226679   2.760   1.588   8.954 -0.9941 -0.0871  0.6368
 5016SOL     OW26680   2.302   1.248   0.019 -0.5196  0.1185  0.2131
 5016SOL    HW126681   2.211   1.272   0.001 -0.4698 -1.0501 -1.6238
 5016SOL    HW226682   2.284   1.159   0.049 -0.0803 -0.0166  0.0778
 5017SOL     OW26683   3.249   0.104   0.417 -0.3812 -0.4740  0.0989
 5017SOL    HW126684   3.214   0.174   0.362 -0.8188 -0.8709 -0.1209
 5017SOL    HW226685   3.197   0.029   0.389 -0.4457 -0.4855  0.2500
 5018SOL     OW26686   4.692   0.256   4.086 -0.2074  0.3251 -0.4547
 5018SOL    HW126687   4.709   0.163   4.098 -1.1721 -0.0068 -1.5905
 5018SOL    HW226688   0.042   0.296   4.067 -0.4328  0.2134 -1.7614
 5019SOL     OW26689   0.020   0.673   9.020  0.2046 -0.2173 -0.2081
 5019SOL    HW126690   4.661   0.661   9.001  0.1523 -2.7980  1.7194
 5019SOL    HW226691   0.057   0.683   8.932  0.3324  4.1970  0.3522
 5020SOL     OW26692   3.742   0.563   0.319  0.3677  0.1413  0.9005
 5020SOL    HW126693   3.802   0.504   0.273  1.0586  2.2004 -0.8614
 5020SOL    HW226694   3.702   0.516   0.392  1.8093  0.1211  1.6793
 5021SOL     OW26695   1.061   0.827  10.991 -0.0387 -0.4055 -0.1334
 5021SOL    HW126696   1.135   0.804  11.047 -0.2869 -0.9104 -0.0092
 5021SOL    HW226697   1.072   0.761  10.922 -1.2915 -0.8981  0.1324
 5022SOL     OW26698   3.701   0.166  10.076 -0.1654 -0.4643  0.0567
 5022SOL    HW126699   3.709   0.096  10.140 -0.5704 -1.1301 -0.6278
 5022SOL    HW226700   3.610   0.196  10.081  0.1509  0.3159  1.2620
 5023SOL     OW26701   1.326   0.120   9.238  0.0312  0.2612 -0.1002
 5023SOL    HW126702   1.383   0.104   9.163  1.4511 -1.8587  1.4295
 5023SOL    HW226703   1.385   0.165   9.297 -1.0663  1.2940  0.2164
 5024SOL     OW26704   0.238   3.806   4.186  0.4771  0.2456 -0.7281
 5024SOL    HW126705   0.204   3.767   4.105 -1.0546 -0.6037  0.3175
 5024SOL    HW226706   0.241   3.733   4.248  0.6168 -1.6023 -2.9338
 5025SOL     OW26707   4.050   2.451   4.702  0.2982 -0.2982  0.4993
 5025SOL    HW126708   4.003   2.514   4.757  1.5705  1.3223 -0.2752
 5025SOL    HW226709   4.014   2.472   4.616 -1.3535 -1.3044  0.9420
 5026SOL     OW26710   0.582   0.789   6.917 -0.7754 -0.4244 -0.0390
 5026SOL    HW126711   0.507   0.835   6.878  0.5382  0.4600 -1.5158
 5026SOL    HW226712   0.562   0.696   6.928  0.0315 -0.4756  1.0202
 5027SOL     OW26713   4.493   0.636  16.488 -0.0758  0.2081 -0.1493
 5027SOL    HW126714   4.423   0.596  16.540 -0.7970 -0.8831 -1.9771
 5027SOL    HW226715   4.448   0.684  16.418 -1.0797 -2.5937 -1.4341
 5028SOL     OW26716   2.292   2.368   7.837 -1.0890 -0.2795  0.4495
 5028SOL    HW126717   2.275   2.333   7.924  0.5183 -2.1818 -0.0115
 5028SOL    HW226718   2.284   2.463   7.835  2.0061 -0.0605 -1.8155
 5029SOL     OW26719   0.529   3.928  16.120 -0.2470  0.3077 -0.2688
 5029SOL    HW126720   0.479   3.946  16.041 -0.7729 -0.8634 -0.1994
 5029SOL    HW226721   0.475   3.980  16.179  0.4945  0.6382  0.1289
 5030SOL     OW26722   3.549   3.638   6.275  0.1082 -0.3614  0.1753
 5030SOL    HW126723   3.550   3.554   6.320  0.7884  0.1106  1.0444
 5030SOL    HW226724   3.621   3.627   6.213  1.6681  0.2156  1.8778
 5031SOL     OW26725   0.308   3.880   7.103  0.0064  0.1735 -0.0760
 5031SOL    HW126726   0.219   3.843   7.104  0.4889 -0.9848 -0.1048
 5031SOL    HW226727   0.326   3.895   7.196  1.0633 -1.4410 -0.0230
 5032SOL     OW26728   0.577   1.312   7.675 -0.2881  0.1235 -0.1061
 5032SOL    HW126729   0.564   1.390   7.621  1.3762  0.4853  0.0208
 5032SOL    HW226730   0.539   1.236   7.632 -1.0527  0.9050 -0.8165
 5033SOL     OW26731   3.139   1.745  15.866 -0.4112 -0.4639 -0.2244
 5033SOL    HW126732   3.227   1.731  15.902 -0.4489 -2.0769 -0.7737
 5033SOL    HW226733   3.117   1.664  15.822  1.0523 -1.2155  0.4179
 5034SOL     OW26734   1.641   2.062  15.268  0.4754  0.2530 -0.5744
 5034SOL    HW126735   1.700   2.133  15.294  1.2442  0.5004 -3.0032
 5034SOL    HW226736   1.657   2.002  15.341  0.5113  0.2217 -0.6080
 5035SOL     OW26737   3.579   0.143   5.801 -0.4643  0.1345 -0.2785
 5035SOL    HW126738   3.598   0.077   5.868 -0.0158 -0.5754 -1.1106
 5035SOL    HW226739   3.652   0.198   5.828  0.9063 -1.6584 -0.3348
 5036SOL     OW26740   0.666   1.296   7.088 -0.1283  0.3398 -0.0753
 5036SOL    HW126741   0.690   1.388   7.095 -0.2754  0.5934 -3.0187
 5036SOL    HW226742   0.668   1.291   7.184 -1.9689 -0.9135 -0.0972
 5037SOL     OW26743   1.533   2.604   7.078  0.1425 -0.3306  0.6726
 5037SOL    HW126744   1.531   2.526   7.022 -1.7864  0.3427 -0.1998
 5037SOL    HW226745   1.452   2.643   7.043 -0.4744  0.5008  3.0239
 5038SOL     OW26746   4.122   1.470   6.616  0.1911  0.8113 -0.1500
 5038SOL    HW126747   4.187   1.439   6.680 -0.7664  1.4277  1.1289
 5038SOL    HW226748   4.122   1.563   6.640 -0.6017  1.3319 -2.1344
 5039SOL     OW26749   0.826   2.880  12.875 -0.3549  0.7350  0.0438
 5039SOL    HW126750   0.764   2.856  12.806  0.7717  0.6882 -0.9531
 5039SOL    HW226751   0.777   2.850  12.951  0.3266 -2.5837 -0.8455
 5040SOL     OW26752   4.363   0.874   6.923  0.1936 -0.4056  0.1181
 5040SOL    HW126753   4.338   0.854   6.833 -1.4030 -0.2762  0.5384
 5040SOL    HW226754   4.294   0.936   6.947  1.3214  1.4816 -1.4370
 5041SOL     OW26755   1.971   4.323  16.716  0.0616 -0.4750 -0.4084
 5041SOL    HW126756   1.963   4.403  16.664 -1.3431  0.2055  0.8559
 5041SOL    HW226757   2.056   4.337  16.757 -0.5089 -0.6926  0.8214
 5042SOL     OW26758   1.110   3.217  15.054  0.0317  0.1925 -0.4985
 5042SOL    HW126759   1.066   3.132  15.054  0.9249 -0.2607 -1.2597
 5042SOL    HW226760   1.032   3.269  15.077 -0.8121 -2.3541  2.3143
 5043SOL     OW26761   3.605   4.303   7.073 -0.4113  0.2662 -0.3461
 5043SOL    HW126762   3.576   4.334   6.988  0.0750 -0.8519 -0.9226
 5043SOL    HW226763   3.563   4.217   7.075 -1.0404  0.5609 -1.0713
 5044SOL     OW26764   1.606   1.321  12.510  0.0523  0.2358  0.1876
 5044SOL    HW126765   1.530   1.282  12.554  0.1111 -0.1605 -0.0621
 5044SOL    HW226766   1.653   1.243  12.483  0.7732  0.2671  1.3493
 5045SOL     OW26767   1.103   1.840   8.034  0.0838 -0.1670  0.0296
 5045SOL    HW126768   1.126   1.923   7.992  2.4281 -0.1833  1.2894
 5045SOL    HW226769   1.105   1.854   8.129  1.4108 -0.2604  0.0138
 5046SOL     OW26770   1.657   1.579  14.073 -0.1181 -0.3066 -0.3126
 5046SOL    HW126771   1.566   1.609  14.067  0.4482  1.2877 -1.0767
 5046SOL    HW226772   1.663   1.559  14.166 -1.5121  0.1778 -0.1114
 5047SOL     OW26773   3.407   3.533  10.729  0.4852 -0.4381  0.2593
 5047SOL    HW126774   3.455   3.611  10.757  3.0496 -2.3558  1.2261
 5047SOL    HW226775   3.344   3.556  10.661 -0.4625 -2.1566  0.5396
 5048SOL     OW26776   1.088   0.700   7.536 -0.1140  0.4126 -0.0826
 5048SOL    HW126777   1.135   0.638   7.480 -0.0301  0.0510  0.3867
 5048SOL    HW226778   1.087   0.661   7.624 -0.2248  0.6581  0.0229
 5049SOL     OW26779   2.951   3.620   5.540 -0.1658  0.0083 -0.1725
 5049SOL    HW126780   2.906   3.686   5.487 -1.2967  0.2247  1.0730
 5049SOL    HW226781   2.881   3.606   5.604 -0.6573 -2.3117 -1.2400
 5050SOL     OW26782   0.033   3.609   1.967 -0.1510 -0.0209 -0.5595
 5050SOL    HW126783   0.071   3.530   2.005 -2.9336 -0.3702  1.3996
 5050SOL    HW226784   4.721   3.578   1.890  0.1727 -2.0042  0.0539
 5051SOL     OW26785   1.721   4.295   5.222  0.3836 -0.1363 -0.1895
 5051SOL    HW126786   1.767   4.356   5.279 -1.9750  1.8756 -0.4194
 5051SOL    HW226787   1.656   4.255   5.279 -2.6410  0.3503 -3.2748
 5052SOL     OW26788   0.923   1.734  10.026 -0.0288 -0.9875 -0.2447
 5052SOL    HW126789   0.861   1.710  10.094 -0.1019 -0.3577 -0.0860
 5052SOL    HW226790   0.863   1.759   9.955 -1.3105 -1.2597  0.7501
 5053SOL     OW26791   2.515   1.284   8.985  0.0036 -0.2252  0.1308
 5053SOL    HW126792   2.563   1.238   8.916 -0.0121  2.3166 -1.5842
 5053SOL    HW226793   2.529   1.229   9.062  0.1695  0.4575  0.5818
 5054SOL     OW26794   2.849   3.831  11.400  0.4032 -0.1814  0.3116
 5054SOL    HW126795   2.875   3.787  11.320  0.8218 -0.5695  0.6588
 5054SOL    HW226796   2.927   3.877  11.431 -1.9508  3.0623  1.4658
 5055SOL     OW26797   0.162   4.496  14.864 -0.2750 -0.0710 -0.9971
 5055SOL    HW126798   0.224   4.569  14.858 -1.7865  1.4662  2.2531
 5055SOL    HW226799   0.085   4.553  14.866 -0.5055 -0.2687 -4.3796
 5056SOL     OW26800   2.710   1.465   5.851 -0.4908 -0.6432  0.8083
 5056SOL    HW126801   2.756   1.521   5.788 -0.7115 -2.3281 -0.8293
 5056SOL    HW226802   2.633   1.433   5.805 -1.5321 -0.6384  2.5665
 5057SOL     OW26803   2.147   4.231   4.270 -0.0106 -0.2593 -0.5531
 5057SOL    HW126804   2.127   4.207   4.179 -1.0050 -2.7657  0.3160
 5057SOL    HW226805   2.237   4.201   4.278  1.4919  3.5245 -2.9613
 5058SOL     OW26806   3.099   0.549  11.377  0.6767  0.0995  0.5489
 5058SOL    HW126807   3.107   0.532  11.283  2.4978 -0.5691  0.8248
 5058SOL    HW226808   3.185   0.588  11.393  1.0789 -0.5173 -0.0818
 5059SOL     OW26809   1.197   0.641   0.025 -0.1387  0.3898  0.1507
 5059SOL    HW126810   1.109   0.666  17.738 -0.0598  0.7335  0.2042
 5059SOL    HW226811   1.181   0.654   0.119  2.9245 -0.2506  0.7786
 5060SOL     OW26812   2.487   2.163   2.836 -0.2793 -0.2706 -0.1137
 5060SOL    HW126813   2.527   2.248   2.852 -0.8129 -0.1183  0.4315
 5060SOL    HW226814   2.419   2.199   2.778  0.5337 -0.6494 -1.2904
 5061SOL     OW26815   1.878   0.522   7.558 -0.0933 -0.3098  0.3667
 5061SOL    HW126816   1.909   0.554   7.642  2.0168 -0.4350 -0.3751
 5061SOL    HW226817   1.841   0.603   7.523 -0.1105  0.1223  1.4178
 5062SOL     OW26818   1.758   2.426  11.713 -0.3692  0.5405  0.7471
 5062SOL    HW126819   1.683   2.469  11.672  1.0654 -0.3346 -2.8220
 5062SOL    HW226820   1.831   2.477  11.678 -1.5215  0.6301 -1.5388
 5063SOL     OW26821   1.317   3.230   3.683  0.1902  0.4363 -0.2765
 5063SOL    HW126822   1.406   3.215   3.649  0.5806  0.9649  0.5087
 5063SOL    HW226823   1.323   3.211   3.776 -1.2490 -1.6465 -0.6036
 5064SOL     OW26824   0.511   2.769  10.154  0.3366 -0.5034 -0.0662
 5064SOL    HW126825   0.442   2.830  10.128 -1.3468 -1.2727  2.5737
 5064SOL    HW226826   0.461   2.715  10.214 -1.0375 -1.6529 -2.2858
 5065SOL     OW26827   2.744   2.662   2.405 -0.5712 -0.4427 -0.3478
 5065SOL    HW126828   2.707   2.574   2.394 -0.7780 -0.6464  2.0057
 5065SOL    HW226829   2.715   2.697   2.320  0.7518  0.5716 -0.3680
 5066SOL     OW26830   2.208   2.071   5.322  0.5287 -0.3348 -0.0087
 5066SOL    HW126831   2.147   2.100   5.256 -1.9346 -0.9008  2.0090
 5066SOL    HW226832   2.257   2.148   5.350  0.6086  0.1814 -1.5850
 5067SOL     OW26833   2.268   0.669  14.518  0.4809  0.2199 -0.0832
 5067SOL    HW126834   2.217   0.652  14.597  0.8429  0.0583  0.1169
 5067SOL    HW226835   2.316   0.749  14.535 -1.2707  1.4919 -1.1080
 5068SOL     OW26836   4.048   4.594   2.777  0.2577  0.5864  0.0556
 5068SOL    HW126837   3.964   4.636   2.758  1.1657  2.1552 -0.4238
 5068SOL    HW226838   4.042   4.594   2.872  1.1556 -2.2356  0.1191
 5069SOL     OW26839   2.538   2.542  14.954 -0.1550  0.4843  0.6202
 5069SOL    HW126840   2.480   2.511  14.885 -0.8271  1.1640  0.8788
 5069SOL    HW226841   2.616   2.528  14.900 -1.2206  1.7444 -1.2556
 5070SOL     OW26842   4.032   4.295   7.802 -0.7136  0.0005  0.6291
 5070SOL    HW126843   4.070   4.309   7.888  0.8201 -1.5544  0.1890
 5070SOL    HW226844   4.102   4.244   7.763 -1.1317  0.0203 -0.1654
 5071SOL     OW26845   1.890   0.875   7.915 -0.1601  0.2252 -0.3122
 5071SOL    HW126846   1.975   0.905   7.946 -1.6036  2.2043  1.7450
 5071SOL    HW226847   1.824   0.908   7.976 -0.7764 -1.1796 -0.2081
 5072SOL     OW26848   1.554   4.507   9.901  0.4581  0.2772  0.2171
 5072SOL    HW126849   1.564   4.601   9.884  2.3060  0.0539  0.0251
 5072SOL    HW226850   1.594   4.465   9.825  1.2654  2.5900 -0.6484
 5073SOL     OW26851   3.055   0.893   5.356 -0.0025  0.1081  0.7487
 5073SOL    HW126852   3.081   0.979   5.323 -2.4925  1.3496  1.9892
 5073SOL    HW226853   3.082   0.899   5.448  2.3234  1.6996 -0.0305
 5074SOL     OW26854   2.327   1.783  13.090  0.0629  0.4300 -0.4974
 5074SOL    HW126855   2.391   1.848  13.119  0.4807 -0.4204  0.4666
 5074SOL    HW226856   2.262   1.835  13.044 -0.0053  0.7089 -0.0794
 5075SOL     OW26857   1.785   3.120   5.916  0.2087 -0.0853 -0.0282
 5075SOL    HW126858   1.791   3.080   5.830  0.5813 -1.5095  0.6495
 5075SOL    HW226859   1.831   3.054   5.968 -0.8108  0.2786  1.3487
 5076SOL     OW26860   2.681   1.225   2.420 -0.7387  0.6529 -0.7093
 5076SOL    HW126861   2.639   1.154   2.469  1.5443  0.2971  0.7896
 5076SOL    HW226862   2.671   1.292   2.488  1.2024  0.9564 -0.7069
 5077SOL     OW26863   3.177   0.020   9.311  0.0518 -0.3478  0.8444
 5077SOL    HW126864   3.243   0.088   9.299 -1.5923  1.5142  2.3455
 5077SOL    HW226865   3.224   4.672   9.298 -0.8509 -0.8098  0.5606
 5078SOL     OW26866   4.304   4.552  10.781  0.8027  0.3424 -0.2128
 5078SOL    HW126867   4.299   4.625  10.843 -1.7898  1.1299 -1.3704
 5078SOL    HW226868   4.273   4.484  10.841  1.5526  0.8012  0.6988
 5079SOL     OW26869   4.695   1.377   7.103 -0.5816  0.2031 -0.3069
 5079SOL    HW126870   4.671   1.385   7.011 -1.1802 -1.0834 -0.2606
 5079SOL    HW226871   4.613   1.394   7.150  0.3454  2.1034  0.6366
 5080SOL     OW26872   4.521   4.681   5.134 -0.0662 -0.2644 -0.2658
 5080SOL    HW126873   4.471   4.600   5.119  2.4952 -2.4990  3.2111
 5080SOL    HW226874   4.536   4.712   5.044  0.9869  3.2912  1.1528
 5081SOL     OW26875   2.108   4.143  14.629 -0.3997 -0.2638  0.3261
 5081SOL    HW126876   2.192   4.125  14.671 -1.9649 -1.5720  2.8341
 5081SOL    HW226877   2.119   4.098  14.545 -0.4497  0.9319 -0.3212
 5082SOL     OW26878   4.031   4.491   5.381  0.2332  0.0770  0.3039
 5082SOL    HW126879   4.026   4.400   5.352 -1.1438  0.2574 -0.0265
 5082SOL    HW226880   4.106   4.514   5.325  0.7376 -0.9313  0.5657
 5083SOL     OW26881   3.146   4.518   0.660  0.6968 -0.4386  0.6533
 5083SOL    HW126882   3.220   4.531   0.719  2.1065  0.4781 -1.2899
 5083SOL    HW226883   3.083   4.561   0.717 -0.5978 -2.9287  1.1101
 5084SOL     OW26884   3.729   2.105   6.011  0.0933 -0.3896  0.1290
 5084SOL    HW126885   3.756   2.188   6.050 -0.4644 -0.4449  0.6251
 5084SOL    HW226886   3.654   2.092   6.068  0.4544  0.5405  0.8145
 5085SOL     OW26887   4.367   0.902  13.481 -0.7692  0.0546 -0.1099
 5085SOL    HW126888   4.393   0.972  13.421 -0.4029 -0.5426 -0.6344
 5085SOL    HW226889   4.327   0.959  13.548  1.1564  0.8016  0.4134
 5086SOL     OW26890   0.660   4.527   1.465  0.3839 -0.0223  0.5034
 5086SOL    HW126891   0.634   4.485   1.383  0.6173 -0.0446  0.4409
 5086SOL    HW226892   0.573   4.528   1.504 -0.1181 -1.0852 -0.5888
 5087SOL     OW26893   3.260   3.430   1.152  0.2036  0.5101  0.3316
 5087SOL    HW126894   3.174   3.471   1.144 -0.1176 -0.0818  0.7928
 5087SOL    HW226895   3.288   3.450   1.242  1.2148 -4.2749  1.0481
 5088SOL     OW26896   0.912   1.791  12.761  0.3327 -0.3983  0.0861
 5088SOL    HW126897   0.963   1.711  12.774 -1.3341 -1.3903  0.3795
 5088SOL    HW226898   0.966   1.860  12.800 -0.0326 -0.8816  1.4138
 5089SOL     OW26899   0.494   2.352  16.402 -0.8691 -0.2694  0.1183
 5089SOL    HW126900   0.450   2.405  16.468 -0.0193  0.3279  0.2084
 5089SOL    HW226901   0.418   2.326  16.350 -0.2192  0.5476 -1.2481
 5090SOL     OW26902   2.003   0.081   0.555  0.1224  0.0777 -0.3015
 5090SOL    HW126903   1.940   0.012   0.535  2.3655 -2.6706  2.0892
 5090SOL    HW226904   2.066   0.035   0.611  0.6679  0.0850 -0.9183
 5091SOL     OW26905   0.286   2.891  10.064  0.7219 -0.1737  0.6325
 5091SOL    HW126906   0.241   2.940  10.133 -0.3429  0.8807 -0.8115
 5091SOL    HW226907   0.219   2.844  10.015  0.3530 -0.3333  1.2815
 5092SOL     OW26908   3.974   0.850   3.847 -0.4402 -0.0819 -1.2367
 5092SOL    HW126909   3.985   0.861   3.942 -2.0803  0.0486 -1.0662
 5092SOL    HW226910   4.041   0.911   3.816  3.3281 -3.5346  0.1415
 5093SOL     OW26911   1.557   3.448  16.802 -0.4228 -0.0552 -0.6584
 5093SOL    HW126912   1.612   3.513  16.846 -0.0505 -1.5307  1.0968
 5093SOL    HW226913   1.533   3.381  16.866  0.0812 -0.1055 -0.5166
 5094SOL     OW26914   0.458   4.229   2.031  0.0121 -0.5029  0.1182
 5094SOL    HW126915   0.399   4.288   2.077 -1.1711 -1.1373 -0.5680
 5094SOL    HW226916   0.398   4.180   1.975 -0.5593 -0.3457  0.5945
 5095SOL     OW26917   1.712   1.179   8.952 -0.1599  0.1109  0.3332
 5095SOL    HW126918   1.781   1.116   8.930 -0.5588 -0.3739  0.4820
 5095SOL    HW226919   1.718   1.184   9.047  0.5405 -0.4173  0.3246
 5096SOL     OW26920   1.562   3.965   9.051  0.5150 -0.3474 -0.3631
 5096SOL    HW126921   1.585   3.964   9.143 -2.0631 -0.6253  0.2867
 5096SOL    HW226922   1.493   3.898   9.052  0.1097  0.0616 -0.9314
 5097SOL     OW26923   1.654   3.958  12.222 -0.0872 -0.1257  0.9051
 5097SOL    HW126924   1.735   3.922  12.186 -1.0152  0.0096 -1.3068
 5097SOL    HW226925   1.684   3.932  12.309 -2.0436 -1.3913  1.1998
 5098SOL     OW26926   2.622   3.294   6.425 -0.0911 -0.5348 -0.6987
 5098SOL    HW126927   2.548   3.348   6.398  0.6415  1.3738  1.1053
 5098SOL    HW226928   2.608   3.290   6.520  0.2517  3.1420 -0.4935
 5099SOL     OW26929   1.534   1.428  16.622  0.3232  0.6246 -0.4668
 5099SOL    HW126930   1.608   1.473  16.580 -0.7688  1.6914 -1.2441
 5099SOL    HW226931   1.463   1.482  16.587  0.2992  0.5210 -0.5815
 5100SOL     OW26932   0.343   0.509   6.392  0.3466  0.0370 -0.3445
 5100SOL    HW126933   0.330   0.432   6.337  1.6192 -0.7542  0.4764
 5100SOL    HW226934   0.267   0.565   6.376 -0.3921 -0.4641  1.3759
 5101SOL     OW26935   4.532   1.576   2.472  0.5661 -0.2300 -0.4289
 5101SOL    HW126936   4.539   1.496   2.525  1.0154 -0.2358 -0.4906
 5101SOL    HW226937   4.439   1.577   2.450  0.0216 -2.6812  1.7391
 5102SOL     OW26938   1.698   4.360   8.395 -0.4244  0.1464  0.1819
 5102SOL    HW126939   1.641   4.437   8.386 -0.6767  0.0102  0.6067
 5102SOL    HW226940   1.717   4.354   8.302  1.4113  1.9156  0.4304
 5103SOL     OW26941   2.732   0.001   5.825  0.0334 -0.3034  0.2527
 5103SOL    HW126942   2.801   4.679   5.791  1.8179  1.8874  0.2522
 5103SOL    HW226943   2.769   0.088   5.810  1.5130 -0.5090  2.8836
 5104SOL     OW26944   2.397   2.445  10.961 -0.7211 -0.4259  0.7932
 5104SOL    HW126945   2.434   2.426  10.875 -3.0995 -0.6508 -0.1881
 5104SOL    HW226946   2.322   2.387  10.974  0.3232 -2.4104 -2.1831
 5105SOL     OW26947   1.308   0.182   4.101  1.1876 -0.0151 -0.7061
 5105SOL    HW126948   1.399   0.160   4.117  1.1254 -0.6611 -1.2502
 5105SOL    HW226949   1.314   0.176   4.006  1.3170 -1.7898 -0.5796
 5106SOL     OW26950   0.721   1.644  15.158 -0.1533  0.4830  0.3076
 5106SOL    HW126951   0.787   1.574  15.161  1.7360  2.3054  1.2948
 5106SOL    HW226952   0.778   1.715  15.189 -1.6327  1.7299  0.1374
 5107SOL     OW26953   3.097   4.380  16.498  0.3079 -0.3840  0.0252
 5107SOL    HW126954   3.089   4.440  16.424 -0.6610  0.8125  1.0966
 5107SOL    HW226955   3.012   4.337  16.500  1.0002 -1.7886 -0.7156
 5108SOL     OW26956   0.983   1.366   3.171  0.3883 -0.1019 -0.2534
 5108SOL    HW126957   0.996   1.455   3.204 -0.3712 -0.2673  0.4844
 5108SOL    HW226958   0.966   1.377   3.077  0.5480 -1.0575 -0.3928
 5109SOL     OW26959   0.915   3.018  16.467 -0.2580 -0.1605 -0.3994
 5109SOL    HW126960   0.823   3.039  16.450 -0.4527  1.3906  2.4937
 5109SOL    HW226961   0.946   3.053  16.384  0.2658  0.4637  0.0608
 5110SOL     OW26962   3.352   0.308   7.570 -0.1891 -0.4727  0.8745
 5110SOL    HW126963   3.341   0.341   7.659  0.1905 -0.1958  0.8220
 5110SOL    HW226964   3.445   0.287   7.569  0.1866  1.1887 -0.3089
 5111SOL     OW26965   0.153   2.977   3.211 -0.7906 -0.4182  0.3648
 5111SOL    HW126966   0.200   3.043   3.161  0.9798 -0.4844  1.9437
 5111SOL    HW226967   0.216   2.958   3.280  1.1826  2.3721 -0.6947
 5112SOL     OW26968   4.187   3.547   4.320 -0.2285 -0.5306 -0.1992
 5112SOL    HW126969   4.198   3.572   4.228 -1.4152 -0.4709 -0.3223
 5112SOL    HW226970   4.273   3.506   4.332  0.4169  0.7798 -0.3251
 5113SOL     OW26971   3.106   3.958   3.139 -0.0190 -0.2526 -0.1070
 5113SOL    HW126972   3.179   3.939   3.080 -0.3056 -2.2524  0.2009
 5113SOL    HW226973   3.065   4.027   3.087  0.5845  0.5285  0.4554
 5114SOL     OW26974   1.036   2.331   3.340  0.0990 -0.1745 -0.0915
 5114SOL    HW126975   0.961   2.333   3.281 -0.1929 -0.7500  0.2562
 5114SOL    HW226976   1.055   2.237   3.344  2.6662  0.2202 -3.2322
 5115SOL     OW26977   0.217   2.082   0.443  0.3837  0.7718 -0.2721
 5115SOL    HW126978   0.161   2.075   0.521 -0.7661 -1.0572 -1.2451
 5115SOL    HW226979   0.273   2.006   0.460 -1.8280 -0.6915  0.4384
 5116SOL     OW26980   2.642   3.322  10.178 -0.2814  0.0886 -0.4033
 5116SOL    HW126981   2.714   3.355  10.125 -0.9264  2.9670  0.5027
 5116SOL    HW226982   2.585   3.269  10.122  2.1185 -1.2310 -1.5619
 5117SOL     OW26983   3.907   0.475   3.120  0.2462  0.0717  0.2733
 5117SOL    HW126984   3.884   0.564   3.147  1.6728 -0.4799  3.3705
 5117SOL    HW226985   3.982   0.482   3.061  0.2753 -0.6808  0.2127
 5118SOL     OW26986   4.506   2.629   2.635  0.7045 -0.8615  0.0025
 5118SOL    HW126987   4.509   2.629   2.539  2.0385 -1.8079  0.0419
 5118SOL    HW226988   4.416   2.659   2.649  1.0461  0.1244  0.0817
 5119SOL     OW26989   3.730   1.618   1.895 -0.2247  0.6333 -0.4244
 5119SOL    HW126990   3.740   1.703   1.937 -2.0462 -0.0737  1.4310
 5119SOL    HW226991   3.747   1.639   1.803 -1.3842  1.5504 -0.4213
 5120SOL     OW26992   4.161   4.502   4.534  0.3781 -0.1691  0.3714
 5120SOL    HW126993   4.184   4.518   4.625  1.9265  0.5894 -0.1639
 5120SOL    HW226994   4.090   4.439   4.548  1.1235 -1.3615 -1.1902
 5121SOL     OW26995   2.943   4.523  13.954 -0.3149 -0.0423 -0.2738
 5121SOL    HW126996   2.979   4.581  14.021 -1.8391  0.3626  0.2084
 5121SOL    HW226997   3.017   4.475  13.917 -0.6329  0.9101 -2.1530
 5122SOL     OW26998   2.565   1.339   0.354  0.2702 -0.0086  0.0022
 5122SOL    HW126999   2.528   1.333   0.267  0.9288  1.9982 -0.4266
 5122SOL    HW227000   2.500   1.393   0.399  0.7670  0.7304 -0.1492
 5123SOL     OW27001   1.994   3.660   6.455  0.1069 -0.1948  0.1081
 5123SOL    HW127002   1.982   3.679   6.362  1.6799 -0.0862 -0.0643
 5123SOL    HW227003   1.908   3.679   6.493  0.3821  0.0507  0.6177
 5124SOL     OW27004   1.619   2.639   6.367 -0.3718 -0.2454  0.0297
 5124SOL    HW127005   1.595   2.562   6.418  0.3957 -0.4365  0.0952
 5124SOL    HW227006   1.542   2.636   6.310  0.9195  2.0836 -1.8152
 5125SOL     OW27007   0.149   4.315   7.324 -0.0821 -0.0835  0.3217
 5125SOL    HW127008   0.178   4.228   7.299 -0.5139  0.2880 -1.4193
 5125SOL    HW227009   0.060   4.308   7.359 -0.0029 -1.1158  0.3280
 5126SOL     OW27010   3.134   1.258  14.467 -0.1502  0.3159 -0.2169
 5126SOL    HW127011   3.193   1.255  14.392  0.4171 -0.1201  0.2457
 5126SOL    HW227012   3.180   1.192  14.520 -0.5892  0.7639  0.7163
 5127SOL     OW27013   2.392   1.850   6.506 -0.1273 -0.1069 -0.1970
 5127SOL    HW127014   2.411   1.790   6.435  0.9246 -0.4001  0.3230
 5127SOL    HW227015   2.308   1.816   6.536  0.0832 -0.4754 -0.0216
 5128SOL     OW27016   0.375   4.489   7.979  0.3578 -0.1143  0.0312
 5128SOL    HW127017   0.435   4.485   8.053  1.1093  1.6132 -0.4853
 5128SOL    HW227018   0.329   4.573   7.985  0.5673 -0.0860  1.2619
 5129SOL     OW27019   0.756   2.807  15.597  0.0950  0.6135  0.1700
 5129SOL    HW127020   0.672   2.844  15.622 -1.0769 -1.5938 -0.5181
 5129SOL    HW227021   0.804   2.796  15.679 -1.0089 -0.0316  0.7206
 5130SOL     OW27022   4.075   1.909   5.169 -0.2617  0.3576 -0.0845
 5130SOL    HW127023   4.042   1.845   5.105 -0.8429 -0.5400  1.1057
 5130SOL    HW227024   4.132   1.849   5.218  0.2095 -0.6400 -1.8294
 5131SOL     OW27025   2.438   3.747   3.800 -0.3241  0.0757  0.3679
 5131SOL    HW127026   2.528   3.756   3.834  0.3048 -2.3200 -0.6566
 5131SOL    HW227027   2.450   3.784   3.713  1.4408 -0.0881  0.5301
 5132SOL     OW27028   0.946   3.201   1.963 -0.2728  0.0398 -0.2351
 5132SOL    HW127029   0.942   3.231   2.053  0.9069 -1.9986  0.4904
 5132SOL    HW227030   0.979   3.114   1.984  3.0314  1.7626  1.4989
 5133SOL     OW27031   0.043   0.731   5.959  0.0615 -0.5473 -0.2828
 5133SOL    HW127032   0.026   0.649   5.913  0.1061 -0.3668 -0.6203
 5133SOL    HW227033   0.137   0.741   5.942  0.3295 -2.4794  0.0254
 5134SOL     OW27034   0.636   3.899   4.235  0.1805 -0.0866 -0.4883
 5134SOL    HW127035   0.627   3.849   4.154 -2.5015 -1.7561  0.8270
 5134SOL    HW227036   0.628   3.828   4.298  0.9811  2.3300  2.3619
 5135SOL     OW27037   2.215   0.404  10.759 -0.1057 -0.4117  0.6679
 5135SOL    HW127038   2.149   0.413  10.689 -0.5587 -0.7507  1.0474
 5135SOL    HW227039   2.246   0.495  10.758 -2.0236  0.2476  0.8088
 5136SOL     OW27040   4.083   2.994   3.553 -0.3041 -0.3600  0.2762
 5136SOL    HW127041   4.133   2.971   3.475 -0.8777  0.4005 -0.3040
 5136SOL    HW227042   4.117   2.933   3.619 -1.2247 -1.5924 -0.3947
 5137SOL     OW27043   2.091   4.039   9.513 -0.0982 -0.4425 -0.1902
 5137SOL    HW127044   2.020   4.102   9.502  0.1306 -0.1653 -0.0672
 5137SOL    HW227045   2.141   4.094   9.574 -0.5866 -1.4972  1.1718
 5138SOL     OW27046   1.770   4.521   1.049  0.2920 -0.4484  0.1895
 5138SOL    HW127047   1.728   4.594   1.095  0.3855 -0.5074  0.3707
 5138SOL    HW227048   1.805   4.577   0.980  0.2690  0.2932  0.7755
 5139SOL     OW27049   1.164   3.221  12.064  0.0658 -0.0147  0.0614
 5139SOL    HW127050   1.124   3.252  11.983  0.1332 -1.6246 -0.5908
 5139SOL    HW227051   1.244   3.273  12.065  0.8582 -1.1887 -2.6044
 5140SOL     OW27052   1.319   1.149  13.329 -0.3424  0.1870  0.3312
 5140SOL    HW127053   1.286   1.210  13.262 -0.7891  0.5397  0.8697
 5140SOL    HW227054   1.371   1.212  13.379  0.9603 -0.9154  0.3573
 5141SOL     OW27055   3.765   0.548   5.546 -0.5128  0.2197  0.4204
 5141SOL    HW127056   3.795   0.633   5.512  1.5754  0.3600  2.6361
 5141SOL    HW227057   3.768   0.489   5.471 -0.7453  0.6824  0.0489
 5142SOL     OW27058   1.559   0.630   9.000 -0.1590  0.0036 -0.1805
 5142SOL    HW127059   1.484   0.588   9.042 -0.1550  0.9149  0.7553
 5142SOL    HW227060   1.517   0.714   8.981 -0.5225 -0.1217  0.0731
 5143SOL     OW27061   4.306   3.974   3.790 -0.0729 -0.0632 -0.4049
 5143SOL    HW127062   4.211   3.973   3.785  0.0111  1.1516 -2.4179
 5143SOL    HW227063   4.319   4.056   3.838 -1.6188 -0.8716  1.3412
 5144SOL     OW27064   0.784   2.324   7.604 -0.0044 -0.5969  0.0431
 5144SOL    HW127065   0.727   2.266   7.553 -1.0206 -0.0082  0.5031
 5144SOL    HW227066   0.849   2.363   7.546 -0.6879 -1.0644 -1.0278
 5145SOL     OW27067   2.263   4.360  11.402 -0.3164 -0.6051  0.3376
 5145SOL    HW127068   2.312   4.282  11.375  3.1665  1.5626  0.4371
 5145SOL    HW227069   2.320   4.432  11.377 -0.2797 -0.7572 -0.0108
 5146SOL     OW27070   2.888   0.580  17.073  0.4473  0.2858 -0.2968
 5146SOL    HW127071   2.894   0.526  17.152 -1.0767  0.9375  0.2594
 5146SOL    HW227072   2.975   0.618  17.056  1.3049 -2.4368 -1.9274
 5147SOL     OW27073   2.058   3.947   6.073  1.0499  0.1055 -0.3845
 5147SOL    HW127074   2.005   3.900   6.138  1.4991  0.3638  0.1739
 5147SOL    HW227075   1.995   3.988   6.014  2.0163  1.8250 -0.2281
 5148SOL     OW27076   0.416   2.634  15.617  0.1730 -0.4817  0.0418
 5148SOL    HW127077   0.405   2.670  15.529  0.7202 -0.2833  0.0562
 5148SOL    HW227078   0.323   2.616  15.628  0.1034  1.2408  2.2199
 5149SOL     OW27079   4.364   4.339   0.161  0.0370  0.4590 -0.8402
 5149SOL    HW127080   4.381   4.351   0.068  1.0162 -1.8491 -0.9626
 5149SOL    HW227081   4.271   4.315   0.165  0.4037 -1.1241 -1.9248
 5150SOL     OW27082   2.223   3.117   4.407 -0.1808  0.6410  0.0057
 5150SOL    HW127083   2.232   3.177   4.333 -2.2792  1.8587  0.7460
 5150SOL    HW227084   2.143   3.143   4.453 -0.6459 -1.1640  0.2332
 5151SOL     OW27085   3.207   3.526   2.957 -0.5715  0.6501 -0.4097
 5151SOL    HW127086   3.204   3.431   2.948  0.6118  0.5991 -0.2425
 5151SOL    HW227087   3.235   3.535   3.048  0.2343  0.3980 -0.6305
 5152SOL     OW27088   2.484   0.420   1.085 -0.0237  0.1108  0.2500
 5152SOL    HW127089   2.486   0.386   0.995 -1.4301 -0.5493  0.4621
 5152SOL    HW227090   2.555   0.368   1.122  0.0843 -0.8481 -1.2845
 5153SOL     OW27091   0.527   3.316   8.451  0.4710  0.2312  0.4399
 5153SOL    HW127092   0.499   3.285   8.365  0.5578  0.0328  0.4842
 5153SOL    HW227093   0.454   3.291   8.509  0.5578 -0.4654  0.2479
 5154SOL     OW27094   1.352   0.569  15.793 -0.0087 -0.3457 -0.2554
 5154SOL    HW127095   1.306   0.595  15.714 -2.3658 -1.1636  0.8487
 5154SOL    HW227096   1.300   0.615  15.860  0.1737 -1.4823  0.6703
 5155SOL     OW27097   1.368   0.307   5.372  0.8890  0.1453  0.0198
 5155SOL    HW127098   1.322   0.387   5.397  2.0639  1.1354 -0.9694
 5155SOL    HW227099   1.430   0.304   5.445  0.9478 -0.1258 -0.0411
 5156SOL     OW27100   0.655   3.041  12.151 -0.3296  0.2190 -0.0459
 5156SOL    HW127101   0.649   2.960  12.202 -0.9945 -0.0833 -0.6003
 5156SOL    HW227102   0.745   3.068  12.167 -0.2521 -0.2816  0.3876
 5157SOL     OW27103   4.232   3.605   4.817 -0.5041 -0.2347  0.3445
 5157SOL    HW127104   4.141   3.613   4.846 -0.1373 -0.8749  1.6341
 5157SOL    HW227105   4.233   3.621   4.722  1.9243 -1.9701  0.0623
 5158SOL     OW27106   1.816   3.830   0.804  0.0949 -0.4156  0.6309
 5158SOL    HW127107   1.747   3.831   0.737 -0.4532  0.1307  1.2151
 5158SOL    HW227108   1.789   3.889   0.874  0.6030 -0.4064  0.8177
 5159SOL     OW27109   3.869   1.636   6.184 -0.3796  0.0849  0.0469
 5159SOL    HW127110   3.892   1.692   6.258  1.5434  1.2011 -1.3543
 5159SOL    HW227111   3.780   1.665   6.166 -0.5383 -0.6744 -0.4006
 5160SOL     OW27112   3.311   4.124   3.267 -0.7777  0.0421 -0.2418
 5160SOL    HW127113   3.347   4.112   3.355  0.2889 -0.1195 -0.6998
 5160SOL    HW227114   3.243   4.058   3.256 -1.5338  0.8065 -0.1610
 5161SOL     OW27115   3.298   1.706   3.801  0.2657 -0.6673  0.1855
 5161SOL    HW127116   3.375   1.674   3.754  1.4937 -0.1135  1.8438
 5161SOL    HW227117   3.292   1.631   3.861  0.1433 -1.1518 -0.4338
 5162SOL     OW27118   4.157   0.102  15.319  0.4585  0.5210  0.1394
 5162SOL    HW127119   4.249   0.079  15.332  0.0104 -2.2980 -1.6593
 5162SOL    HW227120   4.119   0.053  15.392 -0.3525 -1.2895 -1.5085
 5163SOL     OW27121   4.475   4.401   2.815 -0.6014  0.1343 -0.1940
 5163SOL    HW127122   4.449   4.427   2.904 -0.9220 -1.3090  0.1243
 5163SOL    HW227123   4.390   4.414   2.773 -1.1926 -0.1970  0.8993
 5164SOL     OW27124   0.281   0.111  13.592 -0.8391 -0.0336 -0.4388
 5164SOL    HW127125   0.340   0.177  13.627 -0.5201 -1.5765  1.9478
 5164SOL    HW227126   0.313   0.038  13.645 -2.2736  0.8744  1.6507
 5165SOL     OW27127   1.519   0.082   2.514  0.1737 -0.4135  0.5118
 5165SOL    HW127128   1.590   0.139   2.484  0.4179 -0.5685  0.7980
 5165SOL    HW227129   1.487   0.146   2.577  0.3013 -1.1133  1.2775
 5166SOL     OW27130   2.163   1.438   6.231 -0.0316 -0.2207 -0.1809
 5166SOL    HW127131   2.227   1.502   6.260  0.2268 -0.6013  0.1021
 5166SOL    HW227132   2.208   1.357   6.258  0.6768  0.1304 -0.3190
 5167SOL     OW27133   2.388   1.757   2.990 -0.0436  0.1949  0.0431
 5167SOL    HW127134   2.340   1.711   2.922 -1.2746 -0.7580  1.5359
 5167SOL    HW227135   2.432   1.822   2.936 -1.2744  1.9193  1.1087
 5168SOL     OW27136   2.305   3.912   8.711 -0.3408 -0.5285  0.2401
 5168SOL    HW127137   2.316   3.909   8.616 -0.4368 -0.1816  0.2184
 5168SOL    HW227138   2.210   3.923   8.718 -0.5771 -1.1914 -1.7523
 5169SOL     OW27139   0.315   3.201   8.585 -0.6516  0.5329 -0.2816
 5169SOL    HW127140   0.257   3.149   8.640  2.2662 -1.3696  1.0207
 5169SOL    HW227141   0.300   3.144   8.510  2.6859 -2.0099  0.9488
 5170SOL     OW27142   4.356   1.591   5.641 -0.2820 -0.0102 -0.4284
 5170SOL    HW127143   4.426   1.527   5.652  0.2151  0.9335  2.0037
 5170SOL    HW227144   4.353   1.628   5.729  0.1242  2.0469 -1.2836
 5171SOL     OW27145   2.929   2.751   1.846  0.1474  0.3594 -0.0800
 5171SOL    HW127146   2.913   2.663   1.879 -1.7641  0.2218 -1.4073
 5171SOL    HW227147   2.886   2.808   1.910 -2.3007  0.6618 -2.0034
 5172SOL     OW27148   2.512   4.289   4.753 -0.1154 -0.6167  0.3580
 5172SOL    HW127149   2.579   4.311   4.817  0.0579  0.4378 -0.1871
 5172SOL    HW227150   2.543   4.328   4.672  0.2386 -1.1484  0.2421
 5173SOL     OW27151   3.541   2.763   8.849  0.2009  0.5557 -0.3329
 5173SOL    HW127152   3.526   2.677   8.809  0.1066 -0.1743  1.2693
 5173SOL    HW227153   3.453   2.800   8.846  0.4944  1.2331 -0.5354
 5174SOL     OW27154   1.931   0.225   3.719  0.0340  0.4590  0.1489
 5174SOL    HW127155   2.001   0.191   3.774 -0.9612 -0.9346  0.5292
 5174SOL    HW227156   1.876   0.268   3.784 -0.5344  0.1427 -0.1238
 5175SOL     OW27157   3.813   4.263   9.466 -0.6083 -0.1550 -0.3222
 5175SOL    HW127158   3.781   4.181   9.427 -1.6415 -0.4328  1.0901
 5175SOL    HW227159   3.791   4.246   9.558  1.5861 -1.9865 -0.1327
 5176SOL     OW27160   2.618   2.745  16.754  0.4667  0.2640  0.4773
 5176SOL    HW127161   2.582   2.826  16.790  0.5145  0.7104 -0.4522
 5176SOL    HW227162   2.697   2.733  16.806 -0.2590  0.7619  1.6924
 5177SOL     OW27163   2.249   4.149   2.479  0.0531 -0.3905 -0.2402
 5177SOL    HW127164   2.187   4.217   2.501 -1.1694 -1.0645 -1.5782
 5177SOL    HW227165   2.315   4.151   2.549  1.8276  0.0721 -1.9013
 5178SOL     OW27166   0.526   4.259   0.691 -0.1087 -0.0257  0.7840
 5178SOL    HW127167   0.462   4.283   0.758  0.2518  0.2628  1.0271
 5178SOL    HW227168   0.489   4.312   0.620  1.4252  0.4431  0.3380
 5179SOL     OW27169   0.655   4.033   3.862 -0.2660  0.3618 -0.3985
 5179SOL    HW127170   0.706   3.959   3.829 -2.2762 -1.2156  0.0320
 5179SOL    HW227171   0.587   3.993   3.917 -0.2630  1.7641  0.6122
 5180SOL     OW27172   0.022   0.937   3.245 -0.4643 -0.5836 -0.3280
 5180SOL    HW127173   4.718   0.850   3.237 -1.8789 -0.1109  1.3015
 5180SOL    HW227174   0.030   0.946   3.340 -1.1686  2.3890 -0.5319
 5181SOL     OW27175   0.344   1.339   9.240 -0.1221  0.2028  0.0939
 5181SOL    HW127176   0.409   1.358   9.308 -1.1979  2.1229  0.5976
 5181SOL    HW227177   0.367   1.256   9.199  0.3913  0.8492 -0.9389
 5182SOL     OW27178   4.480   3.410   1.553  0.2487 -0.0648  0.4864
 5182SOL    HW127179   4.537   3.397   1.477 -0.2599  0.5182  0.0016
 5182SOL    HW227180   4.453   3.320   1.570  1.9063 -0.2063  2.2646
 5183SOL     OW27181   2.305   3.556   4.905 -0.3551  0.0053  0.2020
 5183SOL    HW127182   2.355   3.629   4.941 -0.2383  0.0465 -0.0475
 5183SOL    HW227183   2.243   3.546   4.977  0.7445  2.9397  1.5701
 5184SOL     OW27184   0.950   3.998   4.592 -0.8952  0.4058 -0.8915
 5184SOL    HW127185   0.943   4.027   4.501 -2.7448  1.1471 -0.5099
 5184SOL    HW227186   1.015   3.929   4.579 -0.6885  0.5107 -0.4289
 5185SOL     OW27187   0.369   4.733  10.136  0.1100 -0.0551  0.2221
 5185SOL    HW127188   0.459   4.722  10.166  0.5200 -1.0687 -1.4061
 5185SOL    HW227189   0.378   0.081  10.090  1.7611  0.2051  1.0307
 5186SOL     OW27190   1.804   3.698  15.992 -0.1566  0.5100 -0.4049
 5186SOL    HW127191   1.770   3.612  16.016  2.4267 -0.2063  0.7337
 5186SOL    HW227192   1.867   3.672  15.925 -0.4239 -0.7909 -0.1503
 5187SOL     OW27193   4.531   1.570  11.283 -0.3202  0.4338  0.7022
 5187SOL    HW127194   4.533   1.518  11.203 -1.5972  0.0897  0.8887
 5187SOL    HW227195   4.438   1.560  11.305 -0.4946  0.9357  0.1714
 5188SOL     OW27196   0.466   3.878  17.669  0.1141  0.0556 -0.3684
 5188SOL    HW127197   0.471   3.830   0.013  2.2699  0.4376 -0.2721
 5188SOL    HW227198   0.560   3.893  17.656  0.1868  2.3173  2.9363
 5189SOL     OW27199   4.354   2.788  10.323 -0.3818 -0.0575  0.2970
 5189SOL    HW127200   4.277   2.808  10.377 -0.7544  0.1313 -0.3015
 5189SOL    HW227201   4.322   2.742  10.245  0.1270 -1.6015  0.9973
 5190SOL     OW27202   1.456   0.647  11.568  0.1891 -0.1095 -0.1203
 5190SOL    HW127203   1.391   0.667  11.501  0.8755 -1.8235 -1.2914
 5190SOL    HW227204   1.417   0.676  11.651  2.2795  1.0883  0.4433
 5191SOL     OW27205   0.782   0.675   7.740  0.2541 -0.0101  0.0598
 5191SOL    HW127206   0.815   0.634   7.661 -0.1820 -1.0838  0.4372
 5191SOL    HW227207   0.756   0.604   7.799  1.7372 -2.1254 -1.8686
 5192SOL     OW27208   2.533   3.760   4.122 -0.1726 -0.3765  0.6450
 5192SOL    HW127209   2.597   3.734   4.056 -1.5518 -1.1318 -0.3792
 5192SOL    HW227210   2.450   3.716   4.105 -0.5150  0.3386  0.4463
 5193SOL     OW27211   0.471   1.809   6.652  0.0487 -0.5720  0.0330
 5193SOL    HW127212   0.536   1.872   6.684  1.1300 -0.5287 -2.2635
 5193SOL    HW227213   0.402   1.866   6.617  0.7775 -0.1768 -0.7569
 5194SOL     OW27214   3.351   2.411   4.560 -0.6757  0.0731 -0.0153
 5194SOL    HW127215   3.432   2.381   4.602 -0.6385 -0.7275 -0.6569
 5194SOL    HW227216   3.396   2.415   4.476 -0.8257 -0.6540 -0.1302
 5195SOL     OW27217   1.669   2.616   3.672 -0.1986  0.4799  0.3297
 5195SOL    HW127218   1.753   2.655   3.646  0.5522 -2.6087 -1.9272
 5195SOL    HW227219   1.695   2.587   3.759  0.1829  2.2458  0.8011
 5196SOL     OW27220   3.897   0.926  10.849  0.0729 -0.2518  0.2813
 5196SOL    HW127221   3.915   0.911  10.756 -0.4417  0.5840  0.0394
 5196SOL    HW227222   3.947   1.007  10.858  0.3294 -0.1123 -2.2686
 5197SOL     OW27223   2.229   0.024   5.550 -0.1081 -0.1296  0.2292
 5197SOL    HW127224   2.286   0.067   5.613  0.6960  1.3351 -1.5127
 5197SOL    HW227225   2.234   4.666   5.573  0.4109 -0.2668 -0.4481
 5198SOL     OW27226   1.169   3.988   7.247  0.2621 -0.6383  0.4420
 5198SOL    HW127227   1.213   3.918   7.295  2.2296  0.1820 -0.1789
 5198SOL    HW227228   1.143   3.938   7.170 -0.0044  1.7734 -1.0378
 5199SOL     OW27229   3.088   2.451   9.378  0.4369 -0.2225 -0.7308
 5199SOL    HW127230   3.028   2.381   9.352 -0.2921 -0.3668  1.3295
 5199SOL    HW227231   3.173   2.424   9.346  0.3841  0.2322 -1.2434
 5200SOL     OW27232   4.732   0.313   5.506  0.4508  0.3380 -0.6440
 5200SOL    HW127233   4.727   0.363   5.425 -2.5910 -1.1832 -1.3772
 5200SOL    HW227234   4.672   0.367   5.557  0.3516 -1.0650  0.7465
 5201SOL     OW27235   0.195   1.663   9.577 -0.6181 -0.5116  0.4616
 5201SOL    HW127236   0.146   1.726   9.629  0.3393  1.6335 -1.2144
 5201SOL    HW227237   0.120   1.613   9.542  0.1961 -0.4691 -1.3574
 5202SOL     OW27238   4.195   2.324   3.451 -0.1037  0.2042  0.0139
 5202SOL    HW127239   4.201   2.284   3.537 -2.0869  0.3164  0.2091
 5202SOL    HW227240   4.105   2.309   3.421  0.1646 -0.9472 -0.2145
 5203SOL     OW27241   3.811   0.133   6.554  0.5047  0.3031 -0.5880
 5203SOL    HW127242   3.741   0.112   6.616 -0.9685  1.2814 -1.8952
 5203SOL    HW227243   3.883   0.137   6.616 -0.4104  0.9076  0.4348
 5204SOL     OW27244   2.088   3.305  16.344 -0.2635 -0.0909  0.1367
 5204SOL    HW127245   2.153   3.340  16.283 -0.7883 -0.4122 -0.6054
 5204SOL    HW227246   2.080   3.374  16.410 -2.2408  0.1764 -0.3674
 5205SOL     OW27247   4.703   0.850  15.040 -0.4471  0.0200  0.3468
 5205SOL    HW127248   0.034   0.780  15.033 -0.7511 -0.0460 -1.7974
 5205SOL    HW227249   0.023   0.925  15.019 -1.7576  0.7267 -0.5374
 5206SOL     OW27250   3.715   4.593   2.930  0.7375  0.4121  0.0565
 5206SOL    HW127251   3.720   4.566   3.021 -0.6604 -1.5354 -0.4691
 5206SOL    HW227252   3.626   4.558   2.922  0.2943  1.7613 -1.0529
 5207SOL     OW27253   1.948   1.213   7.912 -0.2738  0.2335 -0.1743
 5207SOL    HW127254   1.956   1.198   7.818  0.5778 -2.0354  0.2774
 5207SOL    HW227255   2.041   1.216   7.931  0.2415 -0.8805 -2.5503
 5208SOL     OW27256   4.577   0.306   0.780  0.0249  0.3340  0.5300
 5208SOL    HW127257   4.527   0.231   0.814  1.4333 -0.8209  0.0300
 5208SOL    HW227258   4.611   0.346   0.860 -0.0225  0.6918  0.3688
 5209SOL     OW27259   0.077   2.749   2.223 -0.1076 -0.4130 -0.2198
 5209SOL    HW127260   4.735   2.770   2.170  0.3970  0.1384 -0.7473
 5209SOL    HW227261   0.139   2.806   2.177  0.2062 -0.8403 -0.3267
 5210SOL     OW27262   1.209   1.750  10.264  0.1432  0.2550  0.2091
 5210SOL    HW127263   1.197   1.834  10.220 -1.7804 -0.2875 -0.2970
 5210SOL    HW227264   1.269   1.775  10.334  1.7950  0.8382 -1.4251
 5211SOL     OW27265   0.938   0.724   6.400  0.2154 -0.1242 -0.2642
 5211SOL    HW127266   0.892   0.763   6.474  1.2089  2.0557 -0.8161
 5211SOL    HW227267   0.992   0.662   6.449  0.8215  1.9975  1.7478
 5212SOL     OW27268   4.428   2.740   8.867  0.4694 -0.5064 -0.3812
 5212SOL    HW127269   4.518   2.726   8.839  1.8775  1.6008  3.2262
 5212SOL    HW227270   4.424   2.684   8.944 -1.2876 -0.3057 -0.3252
 5213SOL     OW27271   1.646   4.567   9.269 -0.2454  0.5531  0.9074
 5213SOL    HW127272   1.663   4.659   9.249  1.9724 -0.7719 -3.3803
 5213SOL    HW227273   1.608   4.565   9.356 -0.0687 -1.5481  0.9344
 5214SOL     OW27274   2.844   0.645   5.701  1.2747 -0.5753 -0.3303
 5214SOL    HW127275   2.863   0.685   5.786 -3.1576  2.5710 -0.8116
 5214SOL    HW227276   2.844   0.717   5.638  0.7919  0.7148  1.1517
 5215SOL     OW27277   3.866   2.004  17.390  0.7280 -0.1757  0.3719
 5215SOL    HW127278   3.857   2.039  17.302  1.8550  2.4912  1.3390
 5215SOL    HW227279   3.827   2.075  17.441  2.5767  0.3330  1.0587
 5216SOL     OW27280   2.071   0.092  15.914 -0.6700  0.6393 -0.1866
 5216SOL    HW127281   2.001   0.039  15.951  0.8367 -1.6455 -0.5880
 5216SOL    HW227282   2.042   0.089  15.823 -1.2314  0.6955 -0.0064
 5217SOL     OW27283   3.081   3.493   0.225  0.1892  0.2533 -0.2925
 5217SOL    HW127284   3.129   3.482   0.308 -0.3824  0.3975  0.0545
 5217SOL    HW227285   2.992   3.481   0.258  0.6539  0.5458  1.1096
 5218SOL     OW27286   4.606   2.138   6.730  0.3104  0.4468  0.4765
 5218SOL    HW127287   4.644   2.198   6.666 -2.4185  0.3886 -1.1733
 5218SOL    HW227288   4.596   2.192   6.808  0.5414  0.5920  0.4061
 5219SOL     OW27289   2.327   4.392   9.859  0.0491 -0.2351  0.3295
 5219SOL    HW127290   2.309   4.381   9.952 -0.6250 -0.4784  0.1679
 5219SOL    HW227291   2.417   4.360   9.851  0.1667 -0.3005  1.9307
 5220SOL     OW27292   3.838   1.268   5.609  0.1804 -0.8386 -0.1173
 5220SOL    HW127293   3.773   1.337   5.593  1.2531  0.4258  0.9796
 5220SOL    HW227294   3.907   1.323   5.646 -0.2355 -0.4840  0.1401
 5221SOL     OW27295   0.439   4.432   7.703  0.3571 -0.3593  0.0791
 5221SOL    HW127296   0.409   4.458   7.791 -1.3850  2.4462 -1.3301
 5221SOL    HW227297   0.530   4.459   7.711  0.2693  0.0861 -0.4296
 5222SOL     OW27298   2.869   1.464   7.987 -0.5438  0.9133 -0.7425
 5222SOL    HW127299   2.816   1.538   7.960 -1.1897  0.6573 -0.1700
 5222SOL    HW227300   2.866   1.471   8.082  2.2588 -1.2669 -0.4695
 5223SOL     OW27301   1.638   1.039   5.091  0.7914 -0.0953 -0.3270
 5223SOL    HW127302   1.695   1.021   5.166  1.1376  0.0367 -0.5612
 5223SOL    HW227303   1.565   0.977   5.096  1.1115 -0.3388  1.3722
 5224SOL     OW27304   4.355   1.101   5.335  0.0240 -0.3966 -0.1238
 5224SOL    HW127305   4.349   1.197   5.334 -0.9605 -0.4379  1.7717
 5224SOL    HW227306   4.315   1.079   5.251  3.5673 -3.1895 -1.0774
 5225SOL     OW27307   1.779   2.287   4.348  0.4573  0.1851  0.2994
 5225SOL    HW127308   1.828   2.361   4.385 -1.7392  1.1129  1.3560
 5225SOL    HW227309   1.689   2.320   4.353  0.9626  0.8049  5.1082
 5226SOL     OW27310   0.857   3.184  11.700 -0.0124 -0.2234 -0.4591
 5226SOL    HW127311   0.906   3.115  11.655  0.0978 -0.1866 -0.3943
 5226SOL    HW227312   0.776   3.142  11.729  0.0451 -0.2049 -0.2746
 5227SOL     OW27313   0.324   3.996   1.807  0.6771 -0.5187 -0.2710
 5227SOL    HW127314   0.324   3.921   1.747  0.4776 -0.5651 -0.2146
 5227SOL    HW227315   0.418   3.992   1.823  0.9211 -0.4675 -1.6760
 5228SOL     OW27316   2.048   1.612   8.092 -0.1766 -0.3234 -0.1873
 5228SOL    HW127317   2.099   1.531   8.085 -1.1093 -0.9717  0.5485
 5228SOL    HW227318   2.075   1.663   8.017 -1.5800  1.5297  0.5782
 5229SOL     OW27319   1.301   3.484   3.745  0.1219 -0.0592  0.1325
 5229SOL    HW127320   1.346   3.525   3.671 -1.6954  0.0296 -0.9487
 5229SOL    HW227321   1.313   3.392   3.719  1.2020  0.0556  0.2456
 5230SOL     OW27322   2.533   3.140  16.536 -0.3781 -0.3357  0.1247
 5230SOL    HW127323   2.530   3.150  16.441 -1.1147  3.9351  0.6031
 5230SOL    HW227324   2.442   3.162  16.554 -0.9042 -1.7161 -0.8256
 5231SOL     OW27325   3.674   2.902  13.445 -0.1141  0.1910  0.2088
 5231SOL    HW127326   3.717   2.826  13.485  0.1288  1.3971  2.2625
 5231SOL    HW227327   3.589   2.859  13.432  0.8423 -1.2083 -1.3255
 5232SOL     OW27328   4.192   0.756   5.500  0.3919  0.3752 -0.1702
 5232SOL    HW127329   4.180   0.663   5.484 -0.6469  0.3433  0.7337
 5232SOL    HW227330   4.104   0.794   5.501  0.0265 -0.5205  1.2923
 5233SOL     OW27331   3.755   0.368   5.329  0.5179  0.0980  0.0026
 5233SOL    HW127332   3.843   0.372   5.291  0.9166  1.0357  1.0145
 5233SOL    HW227333   3.695   0.353   5.256 -0.3259  1.3576  0.4287
 5234SOL     OW27334   3.969   2.911   7.581 -0.0541 -0.0255  0.4592
 5234SOL    HW127335   4.032   2.913   7.508 -2.0761  0.6954 -1.2833
 5234SOL    HW227336   3.928   2.829   7.554  0.7935 -0.4227  0.3615
 5235SOL     OW27337   2.967   3.249   3.174 -0.3034  0.2352  0.3197
 5235SOL    HW127338   2.966   3.270   3.267 -2.4915  1.6146 -0.0204
 5235SOL    HW227339   2.875   3.228   3.157 -0.4213  1.1331 -0.1606
 5236SOL     OW27340   0.669   4.733  14.924 -0.5477 -0.1282 -0.2657
 5236SOL    HW127341   0.671   0.074  14.982  1.0148  0.8847 -1.6406
 5236SOL    HW227342   0.722   0.038  14.855 -1.7778  2.6216  0.3919
 5237SOL     OW27343   3.600   2.182   7.474  0.5237  0.7808 -0.0467
 5237SOL    HW127344   3.575   2.108   7.530 -0.0207  1.1525  0.2043
 5237SOL    HW227345   3.603   2.254   7.537 -1.0547 -0.1040  1.0482
 5238SOL     OW27346   2.822   4.051   8.323  0.4255 -0.5805  0.0792
 5238SOL    HW127347   2.745   4.077   8.375  0.5772  0.1582 -0.0684
 5238SOL    HW227348   2.783   4.002   8.250  0.1485  0.0472 -0.1954
 5239SOL     OW27349   2.530   1.912   1.552  0.1520  0.1151 -0.2334
 5239SOL    HW127350   2.608   1.932   1.499 -0.7950  0.3028 -1.5683
 5239SOL    HW227351   2.491   1.841   1.501  1.4037 -1.3713  0.8996
 5240SOL     OW27352   0.708   3.993  17.698  1.0994 -0.1489  0.1615
 5240SOL    HW127353   0.705   4.073   0.012  1.2102  1.1796 -1.8237
 5240SOL    HW227354   0.730   3.932   0.029 -2.5971 -1.2480  0.3264
 5241SOL     OW27355   2.138   2.835   3.074 -0.0608 -0.6154 -0.0238
 5241SOL    HW127356   2.114   2.778   3.147 -2.8630  0.0055 -0.4401
 5241SOL    HW227357   2.228   2.847   3.103 -0.1575 -1.6685  0.6896
 5242SOL     OW27358   4.557   1.146   2.719 -0.1900 -0.6238  0.9362
 5242SOL    HW127359   4.502   1.137   2.797 -1.4867 -3.8772 -0.3308
 5242SOL    HW227360   4.610   1.066   2.714  0.2668 -0.3738  1.7060
 5243SOL     OW27361   3.301   2.049   7.801 -0.1272  0.1497  0.3437
 5243SOL    HW127362   3.243   2.057   7.725  1.5504  1.5907 -0.7688
 5243SOL    HW227363   3.251   2.091   7.871 -0.3209  1.7825 -0.7724
 5244SOL     OW27364   2.509   1.228   8.171 -0.2345 -0.3853  0.1460
 5244SOL    HW127365   2.516   1.136   8.147 -1.6719 -0.5594  0.3889
 5244SOL    HW227366   2.598   1.258   8.149 -1.4022  1.0175 -2.7137
 5245SOL     OW27367   3.612   0.786  16.911  0.1014 -0.5737 -0.0892
 5245SOL    HW127368   3.517   0.799  16.915 -0.4119 -4.4039 -0.0456
 5245SOL    HW227369   3.643   0.813  16.997  2.9119 -2.0037 -0.6594
 5246SOL     OW27370   1.273   1.033   0.639 -0.2962  0.4207 -0.0013
 5246SOL    HW127371   1.188   1.004   0.605  0.0807  1.0650 -1.5228
 5246SOL    HW227372   1.279   1.120   0.599  1.0000  0.1310 -0.4590
 5247SOL     OW27373   0.401   0.283   9.476 -0.4469  1.0561 -0.3628
 5247SOL    HW127374   0.345   0.207   9.489  1.0202 -0.0776 -0.6983
 5247SOL    HW227375   0.471   0.253   9.417 -0.8376 -0.1123 -0.2169
 5248SOL     OW27376   3.555   2.139   7.882  0.1243 -0.1207 -0.3468
 5248SOL    HW127377   3.468   2.108   7.857  0.7460 -0.7341 -1.7813
 5248SOL    HW227378   3.553   2.228   7.847  1.7009  0.3699  0.8140
 5249SOL     OW27379   4.527   3.273   7.627  0.0369  0.3855 -0.4336
 5249SOL    HW127380   4.438   3.275   7.660  0.4584 -0.2259  0.7122
 5249SOL    HW227381   4.562   3.361   7.645  1.4793  0.1744 -2.1168
 5250SOL     OW27382   2.446   2.173  12.931  0.2838 -0.2075 -0.2380
 5250SOL    HW127383   2.510   2.233  12.893  1.0923  0.5102  2.1978
 5250SOL    HW227384   2.367   2.204  12.887 -0.2802 -2.1580 -0.6016
 5251SOL     OW27385   1.249   1.544   6.720  0.5262  0.2188 -0.0568
 5251SOL    HW127386   1.317   1.476   6.716 -0.7329 -1.0353 -0.2568
 5251SOL    HW227387   1.206   1.533   6.635  2.1885 -1.5319 -0.6915
 5252SOL     OW27388   3.221   0.361   5.258  0.5223 -0.3293 -0.1748
 5252SOL    HW127389   3.169   0.318   5.326 -1.5529 -1.8471 -2.7092
 5252SOL    HW227390   3.215   0.453   5.283 -0.2684 -0.5744  0.5217
 5253SOL     OW27391   1.035   3.130   5.749  0.1243  0.0699  0.2349
 5253SOL    HW127392   1.006   3.045   5.718 -1.0821  0.3921  0.4873
 5253SOL    HW227393   1.109   3.118   5.808  0.1606 -0.6677  0.0382
 5254SOL     OW27394   2.323   4.688   2.407 -0.2129  0.5374 -0.4263
 5254SOL    HW127395   2.409   4.665   2.443 -0.5319  0.4009  0.2485
 5254SOL    HW227396   2.341   4.707   2.315  5.2690 -1.1844  0.2750
 5255SOL     OW27397   1.990   2.114  10.926  0.4088 -0.0646 -0.1456
 5255SOL    HW127398   2.046   2.190  10.941  0.5341 -0.5439  1.8247
 5255SOL    HW227399   1.907   2.126  10.973  0.0789  1.1149 -1.0121
 5256SOL     OW27400   2.219   0.943   2.840 -0.0649 -0.0589  0.5081
 5256SOL    HW127401   2.234   0.892   2.919 -0.4131 -0.0077  0.6094
 5256SOL    HW227402   2.289   0.914   2.781 -0.4342  0.4719 -0.2025
 5257SOL     OW27403   1.941   0.877   6.467  0.0099  0.3649 -0.3482
 5257SOL    HW127404   1.931   0.783   6.482 -0.4508  0.3417 -0.8312
 5257SOL    HW227405   2.032   0.886   6.438  0.0414  0.0635 -0.3511
 5258SOL     OW27406   2.122   2.504   8.642 -0.0157 -0.3036  0.3994
 5258SOL    HW127407   2.051   2.565   8.663 -2.0871 -1.9230 -1.9588
 5258SOL    HW227408   2.092   2.465   8.560 -0.8424  2.9966 -0.8684
 5259SOL     OW27409   2.936   2.931   5.583  0.2847  0.0338  0.2811
 5259SOL    HW127410   3.004   2.867   5.560  1.3367  1.0413  0.5658
 5259SOL    HW227411   2.978   2.958   5.665  1.7783  1.6771 -1.0167
 5260SOL     OW27412   3.466   1.308  17.293 -0.7175  0.0153  0.1184
 5260SOL    HW127413   3.388   1.265  17.328 -1.6791  1.2579 -0.4959
 5260SOL    HW227414   3.492   1.234  17.238 -1.5044 -1.0231  1.1363
 5261SOL     OW27415   1.804   4.167   5.937  0.3192 -0.2576 -0.3028
 5261SOL    HW127416   1.814   4.167   5.842 -1.9023 -0.3344 -0.5448
 5261SOL    HW227417   1.772   4.078   5.951 -0.7428  0.1219 -0.3452
 5262SOL     OW27418   3.599   1.769   5.752 -0.4002 -0.7134 -0.5449
 5262SOL    HW127419   3.566   1.829   5.819  2.5714  0.2242  0.1073
 5262SOL    HW227420   3.576   1.685   5.791 -0.9901 -0.6904 -0.8477
 5263SOL     OW27421   1.145   1.314  13.568 -0.0684 -0.4317 -0.0096
 5263SOL    HW127422   1.071   1.262  13.536 -0.1634 -0.7698  0.7586
 5263SOL    HW227423   1.101   1.397  13.585 -1.4814 -1.0096 -0.8273
 5264SOL     OW27424   2.524   0.284   1.854  0.0517 -0.5246  0.7484
 5264SOL    HW127425   2.492   0.279   1.764 -0.7555 -0.6030  1.0435
 5264SOL    HW227426   2.556   0.194   1.855  0.5858 -0.3630 -1.8901
 5265SOL     OW27427   0.025   2.638  13.591 -0.1109  0.5382  0.4114
 5265SOL    HW127428   0.110   2.618  13.553 -0.0228 -0.0951  0.9264
 5265SOL    HW227429   0.024   2.732  13.576  1.6459  0.0767 -2.5526
 5266SOL     OW27430   1.085   4.322  13.917 -0.0000 -0.0444 -0.2674
 5266SOL    HW127431   1.126   4.235  13.919 -1.8880 -0.9012  1.0077
 5266SOL    HW227432   1.158   4.383  13.910  0.5955 -0.5492  1.3293
 5267SOL     OW27433   3.928   2.553   4.477 -0.2724  0.0094  0.0657
 5267SOL    HW127434   3.959   2.641   4.455 -0.3417  0.2048  0.7508
 5267SOL    HW227435   3.850   2.580   4.524 -1.5187 -3.2817 -0.1191
 5268SOL     OW27436   1.790   3.356   6.252 -0.3912 -0.2296  0.1730
 5268SOL    HW127437   1.735   3.285   6.286 -0.2199 -0.3358  0.2286
 5268SOL    HW227438   1.725   3.425   6.263 -2.4820 -2.2148  0.4114
 5269SOL     OW27439   4.223   1.454   1.943 -0.3429 -0.1752 -0.3724
 5269SOL    HW127440   4.278   1.481   2.017 -1.7321 -0.0365  0.6128
 5269SOL    HW227441   4.165   1.529   1.934 -0.5296 -0.1345  1.2648
 5270SOL     OW27442   1.439   1.744   6.549 -0.4994  0.0765  0.4893
 5270SOL    HW127443   1.360   1.772   6.595  0.1679  0.3375  1.4621
 5270SOL    HW227444   1.406   1.716   6.463 -0.0620  0.5081  0.1785
 5271SOL     OW27445   3.638   4.342   2.602 -0.0589 -0.2802  0.0914
 5271SOL    HW127446   3.552   4.385   2.610 -0.4837 -1.2867  0.8641
 5271SOL    HW227447   3.645   4.333   2.507  0.8083 -1.5157  0.2806
 5272SOL     OW27448   2.123   3.183   5.534 -0.2247  0.3397 -0.2304
 5272SOL    HW127449   2.079   3.186   5.449  0.0515 -0.6340 -0.4075
 5272SOL    HW227450   2.084   3.103   5.568  0.0085 -0.3201 -1.4943
 5273SOL     OW27451   2.849   0.737   5.963 -0.4849 -0.4090  0.3673
 5273SOL    HW127452   2.932   0.749   6.009 -0.8971 -0.7874  1.2044
 5273SOL    HW227453   2.796   0.708   6.037  0.1726  0.0436  1.0129
 5274SOL     OW27454   4.226   1.927   8.362 -0.7458 -0.6073 -0.0122
 5274SOL    HW127455   4.196   1.969   8.443  0.4525 -0.5726  0.4116
 5274SOL    HW227456   4.321   1.937   8.366 -0.8279  1.0725 -2.2930
 5275SOL     OW27457   3.876   1.991   8.272 -0.2157  0.3069  0.1569
 5275SOL    HW127458   3.826   1.993   8.191  0.6532 -0.8096 -0.4124
 5275SOL    HW227459   3.934   1.915   8.267 -0.9929 -0.1527 -2.0078
 5276SOL     OW27460   0.284   0.008   9.019 -0.0851 -0.2219 -0.0561
 5276SOL    HW127461   0.195   0.035   9.041  0.2601  0.0359  1.0142
 5276SOL    HW227462   0.317   4.728   9.107 -0.9055  0.9803  0.4663
 5277SOL     OW27463   2.578   3.506   5.790  0.2063  0.2066  0.3467
 5277SOL    HW127464   2.484   3.500   5.802  0.3345  0.1915  1.3509
 5277SOL    HW227465   2.601   3.584   5.841  2.1617 -1.5594  2.1862
 5278SOL     OW27466   1.900   1.015   8.877  0.1515 -0.3089  0.6163
 5278SOL    HW127467   1.902   0.948   8.810  1.3675  0.2894  0.0663
 5278SOL    HW227468   1.992   1.036   8.891 -0.1967  1.7114 -0.0194
 5279SOL     OW27469   3.913   2.981   5.500 -0.3918  0.6080  0.2209
 5279SOL    HW127470   3.890   2.999   5.592  2.0064  1.0890  0.7251
 5279SOL    HW227471   3.825   2.976   5.464 -0.4808  0.6116  0.4400
 5280SOL     OW27472   0.979   0.745   0.779  0.0631  0.1384 -0.5525
 5280SOL    HW127473   1.002   0.661   0.817 -0.3024  0.0381 -0.5511
 5280SOL    HW227474   0.972   0.805   0.854 -0.0550  0.8029 -1.0882
 5281SOL     OW27475   3.384   1.236  15.314 -0.6466  0.4142  0.3982
 5281SOL    HW127476   3.466   1.278  15.343  0.7814 -1.2134 -1.2612
 5281SOL    HW227477   3.374   1.277  15.228  0.9809 -0.1087 -0.0554
 5282SOL     OW27478   2.440   0.872   2.657  0.2959  1.0922  0.5762
 5282SOL    HW127479   2.407   0.785   2.635 -2.9129  2.5951 -0.5101
 5282SOL    HW227480   2.482   0.901   2.576  0.6728  0.5064  0.5576
 5283SOL     OW27481   4.032   1.139  11.778 -0.3746 -0.1078 -0.2453
 5283SOL    HW127482   3.961   1.094  11.823  0.0631 -0.2618  0.2950
 5283SOL    HW227483   3.977   1.162  11.703 -1.8103 -0.2368  0.7621
 5284SOL     OW27484   4.497   2.178   0.385 -0.3529 -0.0416  0.0685
 5284SOL    HW127485   4.508   2.201   0.477 -1.4239  0.5321  0.0546
 5284SOL    HW227486   4.510   2.262   0.341  1.1712 -1.9671 -3.1521
 5285SOL     OW27487   1.553   3.094   6.057 -0.3225  0.2256  0.0632
 5285SOL    HW127488   1.541   2.999   6.061  0.6394  0.1687  1.6653
 5285SOL    HW227489   1.614   3.100   5.984  0.0974 -3.3278  0.1117
 5286SOL     OW27490   0.265   0.535   7.831  0.3522 -0.5225 -0.0201
 5286SOL    HW127491   0.197   0.575   7.777  2.5852  0.3979 -2.1704
 5286SOL    HW227492   0.336   0.537   7.766  0.1600 -1.7872 -0.2640
 5287SOL     OW27493   4.324   1.172   2.927  0.2688 -0.7797 -0.6278
 5287SOL    HW127494   4.331   1.131   3.013  2.1426 -0.8782 -0.8357
 5287SOL    HW227495   4.244   1.133   2.893 -0.8788  2.1501 -1.3392
 5288SOL     OW27496   4.317   0.306   4.989  0.2153  0.2310  0.2632
 5288SOL    HW127497   4.291   0.276   5.077  1.6754  1.0125  0.9519
 5288SOL    HW227498   4.411   0.318   5.005  0.6520 -2.8227 -0.0874
 5289SOL     OW27499   2.040   3.357   4.117  0.1185  0.1499  0.2049
 5289SOL    HW127500   2.000   3.443   4.100 -1.1288 -0.2649  1.0793
 5289SOL    HW227501   1.979   3.313   4.177  0.0195  0.0294  0.0170
 5290SOL     OW27502   3.655   1.119   2.448  0.5533 -0.5435 -0.1766
 5290SOL    HW127503   3.572   1.167   2.446  1.7836  1.5906 -0.3786
 5290SOL    HW227504   3.678   1.113   2.356  0.1116 -4.6999 -0.0076
 5291SOL     OW27505   4.594   2.564   2.335  0.1483 -0.3831 -0.2948
 5291SOL    HW127506   4.626   2.565   2.245  0.0324  0.0968 -0.3298
 5291SOL    HW227507   4.572   2.657   2.344  1.4682 -0.1061  0.0913
 5292SOL     OW27508   4.474   4.241   6.512 -0.1101  0.0217 -0.6267
 5292SOL    HW127509   4.483   4.199   6.427 -1.2836 -2.0111  0.2547
 5292SOL    HW227510   4.440   4.166   6.559 -0.5155  0.2160 -0.6125
 5293SOL     OW27511   3.828   2.076  16.442  0.1657  0.3340 -0.0410
 5293SOL    HW127512   3.868   2.152  16.399  0.3360  0.8603  1.0505
 5293SOL    HW227513   3.873   2.072  16.526  1.8210  1.7928 -0.8398
 5294SOL     OW27514   2.864   0.986   2.997 -0.5001  0.6668 -0.3283
 5294SOL    HW127515   2.775   0.951   2.990 -0.3788  0.5458 -1.2217
 5294SOL    HW227516   2.877   1.011   2.906  2.4705 -0.2096 -0.1412
 5295SOL     OW27517   3.544   2.345   7.193  0.9829 -0.6146 -0.1680
 5295SOL    HW127518   3.561   2.308   7.280  1.1405  0.7645  0.3927
 5295SOL    HW227519   3.471   2.407   7.200  0.4087 -1.3543  0.3244
 5296SOL     OW27520   2.567   1.926   3.586 -0.4833 -0.0598 -0.0361
 5296SOL    HW127521   2.639   1.871   3.618  0.1267  0.8523  0.1728
 5296SOL    HW227522   2.613   2.010   3.578 -0.0660 -0.2463  0.4578
 5297SOL     OW27523   2.894   3.530   5.283  0.0638 -0.2813 -0.2063
 5297SOL    HW127524   2.936   3.521   5.368  1.9343  0.3533 -1.0674
 5297SOL    HW227525   2.801   3.518   5.302  0.2551 -2.0155 -0.4112
 5298SOL     OW27526   4.076   1.561   8.704 -0.6077  0.0614  0.9408
 5298SOL    HW127527   4.046   1.651   8.720 -2.9928 -0.3718 -1.0581
 5298SOL    HW227528   4.170   1.576   8.707 -0.4232 -0.4992 -1.5543
 5299SOL     OW27529   1.376   3.729   3.114  0.1972  0.0474  0.0383
 5299SOL    HW127530   1.350   3.808   3.067 -1.4754 -0.0641  0.7854
 5299SOL    HW227531   1.426   3.687   3.044 -0.3845 -0.5136 -0.0363
 5300SOL     OW27532   1.136   3.542   4.290 -0.1007 -0.1143 -0.3883
 5300SOL    HW127533   1.202   3.524   4.223  1.4070 -2.2068  1.6234
 5300SOL    HW227534   1.151   3.465   4.344  0.7189 -0.7071 -1.4591
 5301SOL     OW27535   2.558   0.576   5.675 -0.6598 -0.9006  0.2338
 5301SOL    HW127536   2.648   0.585   5.706 -1.2551  1.7599  1.1277
 5301SOL    HW227537   2.545   0.665   5.644  1.2284 -0.7867 -0.2123
 5302SOL     OW27538   0.529   3.289   5.152 -0.0274 -0.3227 -0.1357
 5302SOL    HW127539   0.449   3.285   5.204 -0.4747  0.7267 -0.7441
 5302SOL    HW227540   0.559   3.375   5.181  0.5252  0.1052 -2.0152
 5303SOL     OW27541   2.854   3.617   3.294 -0.1784 -0.0089  0.1808
 5303SOL    HW127542   2.842   3.549   3.360 -3.7825 -0.7865 -1.2455
 5303SOL    HW227543   2.804   3.577   3.223  1.6909  2.2507 -2.4311
 5304SOL     OW27544   1.678   3.181  17.461 -0.4404 -0.0822  0.0632
 5304SOL    HW127545   1.747   3.178  17.394  0.7308  1.1531  1.2314
 5304SOL    HW227546   1.601   3.191  17.405 -0.0408  1.6125 -0.1765
 5305SOL     OW27547   0.274   2.641   7.735  0.0669  0.1171 -0.1313
 5305SOL    HW127548   0.270   2.592   7.652  0.5798  2.3522 -1.4660
 5305SOL    HW227549   0.260   2.578   7.806 -0.7041  0.9375  0.4331
 5306SOL     OW27550   1.192   2.076   4.568  0.0815  0.4698 -0.4538
 5306SOL    HW127551   1.117   2.115   4.612  1.1488  3.4296 -1.3040
 5306SOL    HW227552   1.182   2.125   4.486  0.0231  1.5502  0.2057
 5307SOL     OW27553   1.253   1.258   7.356  0.3244  0.0821  0.3060
 5307SOL    HW127554   1.177   1.204   7.374  0.5718 -0.7054 -1.0144
 5307SOL    HW227555   1.246   1.261   7.261  1.7588 -1.4184  0.1431
 5308SOL     OW27556   3.607   3.704   4.813  0.3681  0.4259  0.2235
 5308SOL    HW127557   3.534   3.765   4.816  2.3800  2.7763  0.8741
 5308SOL    HW227558   3.655   3.731   4.891 -1.4592  1.3964  1.0078
 5309SOL     OW27559   3.692   4.014   4.841 -0.1043 -0.1164 -0.2087
 5309SOL    HW127560   3.601   3.987   4.853  0.1077 -1.1527 -0.9874
 5309SOL    HW227561   3.675   4.076   4.769  1.5352  0.9248  0.3118
 5310SOL     OW27562   2.985   3.037   5.189 -0.3389 -0.2818  0.1707
 5310SOL    HW127563   3.009   3.127   5.172  1.2290 -1.0687 -1.6888
 5310SOL    HW227564   2.911   3.040   5.251 -0.0296 -0.2751  0.5403
 5311SOL     OW27565   4.423   3.490  11.613  0.2685 -0.3108  0.7017
 5311SOL    HW127566   4.377   3.447  11.686  2.0734 -0.8111  1.5356
 5311SOL    HW227567   4.504   3.440  11.607  0.0669 -0.2025 -3.1618
 5312SOL     OW27568   1.124   2.430   2.230  0.0063  0.4794  0.0180
 5312SOL    HW127569   1.101   2.337   2.223  0.7238  0.2414  0.9019
 5312SOL    HW227570   1.084   2.473   2.155 -1.8067  1.1552  1.3581
 5313SOL     OW27571   0.298   0.366   9.183 -0.3235 -0.0831 -0.3838
 5313SOL    HW127572   0.204   0.379   9.189  0.0166  0.7323  3.3002
 5313SOL    HW227573   0.306   0.285   9.234  1.9327  0.1107 -0.4342
 5314SOL     OW27574   2.072   3.571   6.208  0.2989 -0.2721  0.2947
 5314SOL    HW127575   1.993   3.588   6.156  0.6587  0.6282  0.0474
 5314SOL    HW227576   2.089   3.478   6.192  0.9842  0.0301 -0.6963
 5315SOL     OW27577   3.348   1.173   5.967  0.5182 -0.0326  0.3614
 5315SOL    HW127578   3.440   1.194   5.955  0.3007  0.9494  0.3798
 5315SOL    HW227579   3.360   1.134   6.054  1.5823  1.5993  0.9450
 5316SOL     OW27580   0.574   3.753  11.746 -0.0922  0.1286 -0.3489
 5316SOL    HW127581   0.666   3.751  11.771 -0.0767 -0.9715 -0.5020
 5316SOL    HW227582   0.522   3.785  11.820 -0.9668 -0.4727 -0.6945
 5317SOL     OW27583   0.622   4.187   6.006  0.4229  0.4884 -0.7654
 5317SOL    HW127584   0.656   4.122   6.068 -2.5617  0.1900  0.6169
 5317SOL    HW227585   0.615   4.147   5.919 -0.2003 -1.7014  0.2685
 5318SOL     OW27586   2.231   2.646   7.891  0.4118 -0.0560 -0.4347
 5318SOL    HW127587   2.305   2.706   7.883 -0.6694  1.5249  1.3162
 5318SOL    HW227588   2.227   2.624   7.984 -0.5316 -1.3438 -0.7823
 5319SOL     OW27589   0.498   4.384  10.307  0.3713 -0.0680 -0.0091
 5319SOL    HW127590   0.454   4.426  10.381 -2.4902 -1.6301 -0.8188
 5319SOL    HW227591   0.429   4.319  10.290 -0.5394  1.0511 -0.5855
 5320SOL     OW27592   0.360   1.109   4.635  0.0269 -1.0013 -0.1967
 5320SOL    HW127593   0.413   1.056   4.694  0.7800 -0.3280 -0.2672
 5320SOL    HW227594   0.288   1.133   4.694  0.8328  1.0016 -0.0381
 5321SOL     OW27595   3.201   0.836  16.562  0.0378 -0.1532  0.1815
 5321SOL    HW127596   3.151   0.789  16.629  1.0313  1.4402  2.0520
 5321SOL    HW227597   3.188   0.930  16.578  0.3747 -0.4216  1.9873
 5322SOL     OW27598   1.724   2.686  12.212  0.1903 -0.1125  0.2034
 5322SOL    HW127599   1.725   2.644  12.126  1.2917  0.9785 -0.3259
 5322SOL    HW227600   1.812   2.722  12.214 -0.0671  0.4737  1.3794
 5323SOL     OW27601   2.198   0.908  17.577 -0.2104 -0.5944 -0.8619
 5323SOL    HW127602   2.231   0.828  17.619  0.9331  1.3849  2.0392
 5323SOL    HW227603   2.104   0.891  17.569 -0.6181  0.9859  0.3885
 5324SOL     OW27604   0.478   3.645  16.957 -0.2818 -0.2449  0.1457
 5324SOL    HW127605   0.504   3.666  16.868  0.5157 -0.1292  0.4048
 5324SOL    HW227606   0.397   3.695  16.961  0.3843  0.8209  0.3872
 5325SOL     OW27607   4.240   0.154   5.230  0.0172  0.1314  0.8647
 5325SOL    HW127608   4.217   0.064   5.207 -0.3084  0.4021  0.1314
 5325SOL    HW227609   4.329   0.142   5.262 -0.0214 -0.7984  0.6211
 5326SOL     OW27610   2.101   4.541   5.785 -0.2191  0.0032  0.6901
 5326SOL    HW127611   2.057   4.602   5.726  1.0061  0.8757  0.6874
 5326SOL    HW227612   2.069   4.458   5.749  0.8716  0.2719 -0.8677
 5327SOL     OW27613   3.151   2.062   5.067 -0.1208 -0.0018 -0.4750
 5327SOL    HW127614   3.136   2.051   4.973 -1.0918  2.1323 -0.5607
 5327SOL    HW227615   3.176   2.154   5.072  0.2550  0.0212 -2.8500
 5328SOL     OW27616   2.164   1.892   9.793  0.6391 -0.2121 -0.0267
 5328SOL    HW127617   2.216   1.924   9.719  1.8245 -4.5453 -1.0989
 5328SOL    HW227618   2.225   1.907   9.866  0.2229 -0.0030  0.2764
 5329SOL     OW27619   1.779   2.273   4.984  0.4801  0.0487 -0.6807
 5329SOL    HW127620   1.765   2.192   4.935  1.8000  0.1853 -1.2707
 5329SOL    HW227621   1.697   2.287   5.032  0.0683 -0.0208 -1.3640
 5330SOL     OW27622   2.242   4.049   3.750  0.0501 -0.0196  0.2090
 5330SOL    HW127623   2.212   4.115   3.688  0.4757 -1.7658 -1.8698
 5330SOL    HW227624   2.298   3.999   3.691  1.5292  2.0142 -0.0922
 5331SOL     OW27625   0.521   1.811   4.510  0.1903  0.3315 -0.3828
 5331SOL    HW127626   0.576   1.803   4.432 -1.4758 -1.6824 -1.3459
 5331SOL    HW227627   0.469   1.883   4.473 -1.4430 -1.3073 -1.2460
 5332SOL     OW27628   3.722   0.128   4.224  0.3176 -0.2039  0.1596
 5332SOL    HW127629   3.699   0.217   4.248  2.6125 -0.1276  2.0401
 5332SOL    HW227630   3.757   0.147   4.137 -0.2441  3.2800  0.7225
 5333SOL     OW27631   3.159   4.412   4.154  0.3585 -0.9933  0.1750
 5333SOL    HW127632   3.069   4.386   4.173  0.4452  0.7337  2.9439
 5333SOL    HW227633   3.200   4.425   4.239 -0.3093 -0.7963  0.4695
 5334SOL     OW27634   1.346   0.338   8.297 -0.2534 -0.2204  0.0570
 5334SOL    HW127635   1.301   0.315   8.216  0.9717 -1.2146 -0.3360
 5334SOL    HW227636   1.371   0.252   8.330 -0.8198  0.0604  1.2609
 5335SOL     OW27637   2.432   1.982   4.839 -0.6076  0.4167 -0.0217
 5335SOL    HW127638   2.418   2.066   4.883 -1.2803  0.3325 -0.0829
 5335SOL    HW227639   2.402   2.003   4.751  0.3863 -0.0709 -0.4707
 5336SOL     OW27640   1.995   0.094  17.315 -0.5745 -0.3116  0.2801
 5336SOL    HW127641   2.003   0.183  17.281 -0.6006 -0.3498  0.1742
 5336SOL    HW227642   2.040   0.045  17.246 -1.4415 -0.6218 -0.0712
 5337SOL     OW27643   2.266   3.843  17.731  0.2778 -0.2364 -0.1569
 5337SOL    HW127644   2.272   3.752   0.022 -0.2688 -1.1559 -2.7809
 5337SOL    HW227645   2.198   3.833  17.664 -0.0331 -1.3191  0.3142
 5338SOL     OW27646   4.047   3.598   8.781 -0.2158 -0.2052 -0.0542
 5338SOL    HW127647   3.971   3.587   8.838  0.8151 -0.6435  1.2076
 5338SOL    HW227648   4.013   3.656   8.713  1.0150  0.2598 -0.2722
 5339SOL     OW27649   2.089   4.480   4.844 -0.1353 -0.0710 -0.2478
 5339SOL    HW127650   2.102   4.511   4.933  3.0582 -0.4644 -0.5890
 5339SOL    HW227651   2.076   4.560   4.792  1.0962 -0.5967 -1.3783
 5340SOL     OW27652   4.068   3.339   6.727  0.3789  0.4078 -0.5722
 5340SOL    HW127653   4.101   3.317   6.640 -0.4700  0.2296 -0.8500
 5340SOL    HW227654   3.996   3.276   6.730  2.8608 -2.2673  1.5103
 5341SOL     OW27655   4.313   3.204   4.934 -0.3970  0.7451  0.2301
 5341SOL    HW127656   4.237   3.240   4.979 -0.4749  0.1522  0.5654
 5341SOL    HW227657   4.271   3.189   4.849  0.9744  1.0577 -0.5036
 5342SOL     OW27658   4.580   4.729   3.923  0.0040  0.0119 -0.4180
 5342SOL    HW127659   4.658   4.690   3.884 -0.5494 -0.5955 -0.9042
 5342SOL    HW227660   4.541   4.643   3.938  1.4510 -0.3566  1.2025
 5343SOL     OW27661   0.372   3.101   9.085 -0.6618  0.2855 -0.3747
 5343SOL    HW127662   0.462   3.107   9.055 -0.7392  0.9829 -0.4783
 5343SOL    HW227663   0.344   3.192   9.093 -0.3893  0.0756  2.9031
 5344SOL     OW27664   2.274   2.745   9.503 -0.4202 -0.6040  0.2941
 5344SOL    HW127665   2.212   2.771   9.435 -1.6672 -0.9445  1.2796
 5344SOL    HW227666   2.306   2.663   9.467  1.2984  0.8034 -1.3585
 5345SOL     OW27667   2.867   2.115   6.552 -0.2833 -0.2860 -0.4061
 5345SOL    HW127668   2.788   2.170   6.555  1.4478  2.1878  0.3663
 5345SOL    HW227669   2.909   2.124   6.638  1.1366 -3.3803 -0.7949
 5346SOL     OW27670   0.315   2.920  12.948  0.5391 -0.3062  0.1747
 5346SOL    HW127671   0.389   2.911  12.888  1.1800  0.7473  0.8170
 5346SOL    HW227672   0.368   2.957  13.018  0.0776 -1.6505  1.2465
 5347SOL     OW27673   1.043   3.757   8.333  0.0313  0.3543  0.4725
 5347SOL    HW127674   1.091   3.779   8.412 -1.2803 -0.5364  1.5292
 5347SOL    HW227675   0.968   3.811   8.359 -0.3440 -0.0972  0.3308
 5348SOL     OW27676   3.079   4.371   2.122  0.1891 -0.7310 -0.5013
 5348SOL    HW127677   3.051   4.428   2.193 -0.3104 -1.1177 -0.3890
 5348SOL    HW227678   2.997   4.343   2.081 -1.4030  1.8330  0.9639
 5349SOL     OW27679   4.015   0.348   7.608 -0.2462 -0.1776 -0.3471
 5349SOL    HW127680   3.972   0.305   7.683  0.1275 -1.2053 -0.7182
 5349SOL    HW227681   4.041   0.269   7.560 -0.0443 -1.7554  2.3320
 5350SOL     OW27682   0.519   2.349  10.972 -0.5907 -0.4972  0.4020
 5350SOL    HW127683   0.570   2.427  10.951  1.7138 -2.2088 -0.4728
 5350SOL    HW227684   0.452   2.389  11.026 -0.9974 -2.0344  1.0170
 5351SOL     OW27685   0.975   2.422   9.982  0.5512  0.1390 -0.6089
 5351SOL    HW127686   0.913   2.362   9.941  0.4348  0.6954 -1.2558
 5351SOL    HW227687   1.057   2.373   9.975  0.8292  0.0657  3.1550
 5352SOL     OW27688   0.228   3.969   1.343  0.2621  0.1226  0.0315
 5352SOL    HW127689   0.228   3.887   1.294 -0.2985 -0.0135  0.2600
 5352SOL    HW227690   0.322   3.985   1.351  0.2147  0.3271  0.1886
 5353SOL     OW27691   0.534   1.872   9.665  0.6240  0.2295 -0.0807
 5353SOL    HW127692   0.504   1.944   9.608  0.3661  0.6075  0.5272
 5353SOL    HW227693   0.469   1.882   9.735 -0.3205  1.2816 -1.0789
 5354SOL     OW27694   1.320   1.074   6.353 -0.0545  0.0398  0.1992
 5354SOL    HW127695   1.249   1.125   6.392  0.5236  2.3420 -1.7758
 5354SOL    HW227696   1.397   1.116   6.390  0.9641 -1.5281 -0.1229
 5355SOL     OW27697   0.321   2.295  14.836  0.3138  0.5476 -0.5613
 5355SOL    HW127698   0.336   2.269  14.927  0.9771  1.1026 -0.5157
 5355SOL    HW227699   0.303   2.210  14.797  2.8820  0.4339 -1.4797
 5356SOL     OW27700   2.461   0.080  17.326 -0.0855  0.3322 -0.2914
 5356SOL    HW127701   2.413   0.158  17.351 -0.3315 -0.6411  2.2620
 5356SOL    HW227702   2.516   0.103  17.251 -0.8927  1.0455 -0.6564
 5357SOL     OW27703   4.659   1.653   0.925 -0.1322 -0.1843  0.0314
 5357SOL    HW127704   4.706   1.573   0.948  0.4028  0.6438  1.7971
 5357SOL    HW227705   4.694   1.671   0.837 -1.7173 -3.3525 -1.2608
 5358SOL     OW27706   4.262   1.831   5.777  0.3672  0.5164 -0.2745
 5358SOL    HW127707   4.226   1.853   5.862  0.3709  2.4282 -0.7641
 5358SOL    HW227708   4.203   1.769   5.734  1.6125  1.9450 -4.0430
 5359SOL     OW27709   3.367   3.324   8.504  0.1907  0.2439  0.1513
 5359SOL    HW127710   3.366   3.377   8.584  0.7267 -3.0457  2.3502
 5359SOL    HW227711   3.280   3.284   8.511 -0.4952  1.3762 -1.6464
 5360SOL     OW27712   3.881   2.851   8.459 -0.3604  0.2459 -0.5034
 5360SOL    HW127713   3.842   2.925   8.413 -3.7597 -0.3910  1.4443
 5360SOL    HW227714   3.818   2.838   8.529 -0.8075  0.9136 -0.7798
 5361SOL     OW27715   1.056   4.166   6.745  0.1396 -0.1193 -0.0795
 5361SOL    HW127716   1.089   4.143   6.832 -0.0608 -3.3388 -0.8519
 5361SOL    HW227717   0.975   4.116   6.742 -0.7573  1.3243  0.1464
 5362SOL     OW27718   1.124   3.032   4.572  1.0077 -0.0040  0.5459
 5362SOL    HW127719   1.079   3.024   4.656  0.5763 -1.6096  0.1657
 5362SOL    HW227720   1.169   2.947   4.574 -2.6129 -1.9552  0.3064
 5363SOL     OW27721   0.538   2.001   2.479  0.6339 -0.2313 -0.3926
 5363SOL    HW127722   0.626   2.028   2.452  1.3600 -0.6684  1.5917
 5363SOL    HW227723   0.529   1.939   2.407  0.0638  0.2433 -0.7294
 5364SOL     OW27724   0.893   3.287   8.563 -0.4317 -0.0421 -0.2484
 5364SOL    HW127725   0.808   3.328   8.547 -0.3477  0.8520  1.7009
 5364SOL    HW227726   0.884   3.200   8.523 -1.4745 -0.5707  1.1248
 5365SOL     OW27727   2.249   2.142  10.185  0.3745 -0.1235  0.0230
 5365SOL    HW127728   2.161   2.123  10.151  0.2868 -0.7808  0.6253
 5365SOL    HW227729   2.289   2.166  10.101  2.4420 -2.5105  0.3251
 5366SOL     OW27730   3.250   0.527   1.250 -0.9513  0.3366 -0.3899
 5366SOL    HW127731   3.307   0.574   1.189  0.6928 -0.9801  0.1344
 5366SOL    HW227732   3.308   0.494   1.319  2.0344  0.1565 -2.9811
 5367SOL     OW27733   0.086   4.640   2.143 -0.5966 -0.4396 -0.0456
 5367SOL    HW127734   0.050   4.631   2.232 -2.2619 -0.8152 -0.7493
 5367SOL    HW227735   0.091   4.548   2.117 -0.3918 -0.4442  0.0138
 5368SOL     OW27736   3.176   1.510  12.782  0.6354 -0.2079 -0.7171
 5368SOL    HW127737   3.145   1.450  12.714 -1.2745 -0.8268  0.7090
 5368SOL    HW227738   3.181   1.598  12.744 -2.7658  0.3052  0.0219
 5369SOL     OW27739   2.105   1.551   9.720  0.2497  0.1218  0.2134
 5369SOL    HW127740   2.019   1.515   9.739 -0.4216  0.8523 -1.4108
 5369SOL    HW227741   2.129   1.585   9.806  2.1647 -1.0496  0.1510
 5370SOL     OW27742   0.750   0.647  17.315  1.0259  0.7196 -0.0664
 5370SOL    HW127743   0.789   0.562  17.295 -0.8516  0.4057 -2.4965
 5370SOL    HW227744   0.660   0.616  17.324  0.4306  2.2355 -0.8891
 5371SOL     OW27745   4.006   0.654   7.432  0.4494 -0.3216 -0.0008
 5371SOL    HW127746   3.953   0.710   7.375  0.7654  1.0101  1.0226
 5371SOL    HW227747   4.026   0.582   7.373  0.1924 -1.7026  1.5880
 5372SOL     OW27748   1.933   0.541   3.264  0.0900 -0.1397 -0.1255
 5372SOL    HW127749   1.891   0.628   3.267 -1.3581 -0.7674 -1.9937
 5372SOL    HW227750   1.892   0.505   3.185 -2.4086  0.9030  0.6880
 5373SOL     OW27751   2.670   2.746   4.452  0.4608 -0.4565  0.4835
 5373SOL    HW127752   2.624   2.826   4.425  2.3228  0.6944  0.7553
 5373SOL    HW227753   2.757   2.757   4.415 -0.0327  0.2737 -0.4552
 5374SOL     OW27754   4.233   0.687   5.113  0.2182 -0.0507  0.0843
 5374SOL    HW127755   4.321   0.664   5.142  0.6216  0.4849 -0.7072
 5374SOL    HW227756   4.244   0.675   5.019 -0.1004  1.2361 -0.1277
 5375SOL     OW27757   3.892   3.664   4.763  0.2793  0.3081  0.5505
 5375SOL    HW127758   3.936   3.735   4.716 -0.1110  0.7700  0.8817
 5375SOL    HW227759   3.800   3.663   4.737  0.9467  0.2956 -1.8338
 5376SOL     OW27760   1.388   1.606   7.790  0.0953 -0.3953  0.1037
 5376SOL    HW127761   1.347   1.535   7.740  2.4323  0.5460 -3.1472
 5376SOL    HW227762   1.337   1.685   7.773 -0.2874 -0.7542 -0.4010
 5377SOL     OW27763   3.449   4.163   4.577  0.2370 -0.0595 -0.1865
 5377SOL    HW127764   3.416   4.081   4.539 -0.2765 -0.1825  0.5140
 5377SOL    HW227765   3.413   4.218   4.507 -1.1940  2.1258  2.2521
 5378SOL     OW27766   0.084   4.070  16.818 -0.0113 -0.3875 -0.3987
 5378SOL    HW127767   0.072   4.012  16.894 -3.7986  1.4472  0.3736
 5378SOL    HW227768   0.113   4.156  16.848  0.7496 -0.6085 -0.4935
 5379SOL     OW27769   3.077   1.365   3.962 -0.4083 -0.1331 -0.0075
 5379SOL    HW127770   2.984   1.345   3.970 -0.4811  0.7958  1.6097
 5379SOL    HW227771   3.103   1.303   3.894 -0.5435  0.5915 -0.7239
 5380SOL     OW27772   0.205   3.121   7.478  0.0792  0.1591  0.3328
 5380SOL    HW127773   0.225   3.070   7.556  0.0351 -0.7899 -0.2701
 5380SOL    HW227774   0.210   3.048   7.416  0.3914 -0.7522  1.4420
 5381SOL     OW27775   1.401   3.146  12.697  0.3955  0.1586 -0.4008
 5381SOL    HW127776   1.430   3.167  12.786  1.6733  2.1500 -1.2681
 5381SOL    HW227777   1.389   3.051  12.698 -1.0424  0.3690  1.7988
 5382SOL     OW27778   1.570   1.664  14.808  0.7847  0.5849  0.4084
 5382SOL    HW127779   1.577   1.733  14.873 -0.9263  0.9738  0.1540
 5382SOL    HW227780   1.549   1.714  14.729 -1.9218  1.0018  1.4362
 5383SOL     OW27781   3.083   0.260   3.842  0.1111 -0.0362  0.5821
 5383SOL    HW127782   3.090   0.192   3.909 -5.0678  1.0159  2.1630
 5383SOL    HW227783   3.174   0.287   3.854  0.6731 -2.2349  1.3946
 5384SOL     OW27784   0.973   0.155  17.068 -0.3836  0.1731  0.2571
 5384SOL    HW127785   0.907   0.220  17.044 -0.4352  0.0998  0.2017
 5384SOL    HW227786   1.051   0.210  17.070 -0.4769  0.2892  0.8146
 5385SOL     OW27787   3.048   1.582  10.525  0.0626 -0.1781  0.1523
 5385SOL    HW127788   3.017   1.656  10.473  0.2924  0.1991  0.5501
 5385SOL    HW227789   3.144   1.581  10.521  0.1144  0.7443  1.2161
 5386SOL     OW27790   4.100   0.152  13.000  0.3511  0.1054  0.5827
 5386SOL    HW127791   4.095   0.059  12.979 -0.1359 -0.1708  1.9402
 5386SOL    HW227792   4.077   0.155  13.093  0.1953 -0.7143  0.5704
 5387SOL     OW27793   2.870   3.054   6.428  0.8108 -0.0647 -0.2120
 5387SOL    HW127794   2.794   3.075   6.374 -0.6863 -4.0392  0.4086
 5387SOL    HW227795   2.849   2.981   6.487  1.1855 -0.9672 -1.2044
 5388SOL     OW27796   0.156   4.266   3.025 -0.0919 -0.5582 -0.2053
 5388SOL    HW127797   0.240   4.297   2.990  0.2902 -0.4943  0.7798
 5388SOL    HW227798   0.140   4.316   3.105  1.2452 -1.0782  0.3859
 5389SOL     OW27799   3.616   1.538  16.203 -0.5635  0.1125  0.3478
 5389SOL    HW127800   3.562   1.483  16.146  2.9803  0.3930 -3.3497
 5389SOL    HW227801   3.699   1.491  16.193 -0.8583  0.0260 -1.6820
 5390SOL     OW27802   4.033   3.958   4.205 -0.0816 -0.0491  0.0988
 5390SOL    HW127803   4.128   3.951   4.192 -0.4538 -0.0489 -2.6995
 5390SOL    HW227804   3.999   3.892   4.144  0.7127 -0.3321 -0.0504
 5391SOL     OW27805   2.891   0.044   4.433  0.0782 -0.3690  0.4138
 5391SOL    HW127806   2.894   0.067   4.526 -1.1632 -0.8853  0.5714
 5391SOL    HW227807   2.833   4.703   4.427  1.0354 -1.3130  3.1459
 5392SOL     OW27808   1.695   3.314  16.330  0.8366  0.2896  0.2867
 5392SOL    HW127809   1.742   3.233  16.353 -0.0198 -0.7871 -1.7008
 5392SOL    HW227810   1.654   3.334  16.413  1.5825  0.5203  0.6053
 5393SOL     OW27811   3.260   4.623   0.141  0.6992  0.1827 -0.6093
 5393SOL    HW127812   3.184   4.605   0.195 -0.8949  3.0110 -1.9276
 5393SOL    HW227813   3.304   4.538   0.148  2.3969  1.2719  1.8399
 5394SOL     OW27814   4.433   3.661   4.572  0.6386  0.5852 -0.3842
 5394SOL    HW127815   4.345   3.626   4.555  0.0715  0.4347  2.9137
 5394SOL    HW227816   4.470   3.648   4.485 -0.5152  0.9425 -0.9362
 5395SOL     OW27817   3.624   0.968  15.562 -0.3579  0.3579 -0.0884
 5395SOL    HW127818   3.566   0.929  15.496  0.4791 -0.8473 -0.1107
 5395SOL    HW227819   3.557   0.981  15.629  0.4432 -0.7658  0.9357
 5396SOL     OW27820   4.337   4.685   2.311  0.3359 -0.0244 -0.1699
 5396SOL    HW127821   4.329   4.593   2.286  1.9459 -0.3685  0.5704
 5396SOL    HW227822   4.318   4.734   2.231 -0.4702 -0.3332 -0.1722
 5397SOL     OW27823   2.620   3.277   3.533 -0.0827 -0.0670 -0.0620
 5397SOL    HW127824   2.704   3.255   3.573  0.2838  1.0883 -0.2234
 5397SOL    HW227825   2.609   3.194   3.487  1.2952  0.6253 -1.6136
 5398SOL     OW27826   4.107   0.065   6.652 -0.2804 -0.0975 -0.2046
 5398SOL    HW127827   4.142   0.097   6.735 -1.5937 -0.9606  0.6774
 5398SOL    HW227828   4.139   0.135   6.594 -0.8957 -0.4597 -0.9874
 5399SOL     OW27829   0.806   0.829  12.549  0.0276 -0.2802 -0.4545
 5399SOL    HW127830   0.829   0.919  12.524 -1.0426  0.6156  1.7239
 5399SOL    HW227831   0.878   0.823  12.612  0.2759 -1.6301 -0.8705
 5400SOL     OW27832   2.900   3.566   7.108 -0.1569 -0.3465  0.0666
 5400SOL    HW127833   2.887   3.647   7.058 -1.3542 -0.3394  0.3752
 5400SOL    HW227834   2.948   3.505   7.053  2.7794  0.2421  2.0158
 5401SOL     OW27835   4.253   0.968   3.756 -0.4064  0.6873 -0.6763
 5401SOL    HW127836   4.325   0.999   3.700 -0.1624  0.7158 -0.3436
 5401SOL    HW227837   4.294   0.960   3.841  0.3101  0.0589 -1.0758
 5402SOL     OW27838   1.706   3.210   7.142  0.0797  0.0704 -0.2260
 5402SOL    HW127839   1.689   3.238   7.232 -1.0754  0.9206 -0.7179
 5402SOL    HW227840   1.797   3.241   7.137  0.0434  0.1541 -0.3745
 5403SOL     OW27841   2.403   3.480   3.555  0.8471 -0.0840  0.0765
 5403SOL    HW127842   2.464   3.407   3.555  0.3542 -0.4995 -1.1615
 5403SOL    HW227843   2.415   3.524   3.471  2.3890 -0.1004  0.3026
 5404SOL     OW27844   4.596   2.814   8.180 -0.2116 -0.4323  0.4399
 5404SOL    HW127845   4.540   2.885   8.150 -0.1644 -0.6981 -0.2854
 5404SOL    HW227846   4.629   2.841   8.266  2.0595 -0.0261 -0.5668
 5405SOL     OW27847   2.548   3.777   5.295 -0.5454 -0.3428  0.2012
 5405SOL    HW127848   2.610   3.764   5.223 -0.4548 -1.3215  0.4562
 5405SOL    HW227849   2.528   3.689   5.326  0.5322 -0.4793  0.4855
 5406SOL     OW27850   3.147   1.807   7.151  0.0330 -0.1929  0.7230
 5406SOL    HW127851   3.194   1.736   7.106  1.3428 -0.9500  3.3114
 5406SOL    HW227852   3.063   1.766   7.169 -0.3862  0.9333  1.3052
 5407SOL     OW27853   3.151   2.933   1.459 -0.2266 -0.2229 -0.5345
 5407SOL    HW127854   3.230   2.883   1.480 -0.7610  0.0203  2.0627
 5407SOL    HW227855   3.162   2.956   1.366 -1.2463  0.3966 -0.5040
 5408SOL     OW27856   4.352   0.219  17.093  0.3721 -0.1816 -0.3610
 5408SOL    HW127857   4.357   0.285  17.024  2.1354 -1.5173 -1.4816
 5408SOL    HW227858   4.260   0.193  17.094 -0.5873  3.1294 -1.7309
 5409SOL     OW27859   2.022   1.834   1.948  0.2978 -0.0036 -0.1644
 5409SOL    HW127860   2.006   1.925   1.923  2.8887  0.5773  0.3123
 5409SOL    HW227861   1.973   1.786   1.881 -0.0338 -0.6449  0.5217
 5410SOL     OW27862   4.287   0.636   3.215 -0.4406  0.2237 -0.2866
 5410SOL    HW127863   4.214   0.684   3.256  0.3292  3.0526 -2.2142
 5410SOL    HW227864   4.355   0.673   3.271  0.1605  0.6694 -1.3186
 5411SOL     OW27865   1.384   0.157   2.831  0.6280  0.1709  0.8791
 5411SOL    HW127866   1.399   0.096   2.903 -0.9103 -0.1862  0.9020
 5411SOL    HW227867   1.288   0.147   2.828  0.6177  0.4153  0.2904
 5412SOL     OW27868   0.789   0.038  12.015 -0.2022 -0.2732  0.3071
 5412SOL    HW127869   0.716   0.086  12.053 -2.7335 -1.7529 -2.7599
 5412SOL    HW227870   0.737   4.727  11.950  0.6553 -0.7054 -0.0705
 5413SOL     OW27871   4.322   4.484   3.362 -0.4015 -0.0182  0.1649
 5413SOL    HW127872   4.227   4.480   3.372 -0.2813 -0.3727  1.2436
 5413SOL    HW227873   4.349   4.571   3.392 -2.5697  0.9703 -0.7934
 5414SOL     OW27874   2.185   3.387  15.773  0.6657 -0.3106  0.1621
 5414SOL    HW127875   2.126   3.431  15.712 -0.8956 -1.5043  0.7872
 5414SOL    HW227876   2.219   3.465  15.816 -0.1039 -0.7731  1.6051
 5415SOL     OW27877   1.753   4.320   8.063  0.0923  0.6332 -0.1812
 5415SOL    HW127878   1.664   4.334   8.033 -0.4702 -1.0139  0.7381
 5415SOL    HW227879   1.806   4.380   8.011  0.6807 -1.3000 -1.7791
 5416SOL     OW27880   3.724   2.463  14.403 -0.1360  0.0781 -0.0344
 5416SOL    HW127881   3.650   2.406  14.382  0.6494 -1.2520  0.7241
 5416SOL    HW227882   3.704   2.514  14.481  1.1183  1.1150 -0.4016
 5417SOL     OW27883   1.509   4.350   3.850  0.2270  0.3941 -0.0446
 5417SOL    HW127884   1.429   4.308   3.882 -0.0073  1.1002  0.2876
 5417SOL    HW227885   1.578   4.292   3.882  0.2965 -0.0860 -1.0450
 5418SOL     OW27886   2.250   3.259   3.220 -0.2035  0.5449 -0.0864
 5418SOL    HW127887   2.205   3.324   3.167 -0.1776  1.5194  1.0850
 5418SOL    HW227888   2.178   3.209   3.259  0.1124 -0.2161 -0.4749
 5419SOL     OW27889   3.627   2.763   5.807 -0.5263  0.4803 -0.0335
 5419SOL    HW127890   3.585   2.752   5.893 -1.2820 -0.5005 -0.5245
 5419SOL    HW227891   3.712   2.790   5.841 -1.3612 -0.7470  3.1067
 5420SOL     OW27892   3.268   0.761  17.553  0.1152  0.3937 -0.2546
 5420SOL    HW127893   3.208   0.833  17.536  0.1038  0.9769  2.2184
 5420SOL    HW227894   3.300   0.791  17.638 -0.3699 -0.1000  0.1019
 5421SOL     OW27895   4.048   4.041   1.277 -0.2480  0.9170 -0.5130
 5421SOL    HW127896   4.104   3.984   1.330  0.3247 -0.2969 -2.4038
 5421SOL    HW227897   4.067   4.009   1.189 -1.1687 -1.2253  0.0507
 5422SOL     OW27898   4.054   3.755   5.853  0.4357 -0.5480  0.2287
 5422SOL    HW127899   4.027   3.679   5.904 -1.7304  1.0056  1.3790
 5422SOL    HW227900   4.145   3.730   5.837  0.4499 -0.0504 -0.4458
 5423SOL     OW27901   2.876   4.481   0.920 -0.9081  0.4150 -0.2399
 5423SOL    HW127902   2.970   4.467   0.934 -1.1248  1.5255  2.3706
 5423SOL    HW227903   2.888   4.552   0.857 -0.2176 -0.0455 -0.6276
 5424SOL     OW27904   3.297   1.440  15.143 -0.1581 -0.6440  0.1140
 5424SOL    HW127905   3.277   1.491  15.065 -0.0467 -0.2366  0.3534
 5424SOL    HW227906   3.364   1.493  15.185 -1.4335  2.3049 -1.6224
 5425SOL     OW27907   4.652   3.093   5.882  0.2355 -0.1689 -0.3561
 5425SOL    HW127908   4.656   3.155   5.809 -1.3044  0.0201 -0.2824
 5425SOL    HW227909   0.006   3.082   5.913  0.8847  1.6390 -1.6145
 5426SOL     OW27910   1.382   2.537  15.068  0.3106 -0.0773  0.4405
 5426SOL    HW127911   1.424   2.622  15.055 -1.3918  0.5335 -1.0136
 5426SOL    HW227912   1.438   2.504  15.139  2.1997 -1.5019 -1.7153
 5427SOL     OW27913   3.879   2.030   3.615  0.4513  0.3157 -0.0826
 5427SOL    HW127914   3.898   2.105   3.558  2.3404 -1.3842 -1.6796
 5427SOL    HW227915   3.841   2.080   3.687 -1.4222  0.2005 -0.9827
 5428SOL     OW27916   2.303   2.868   5.055 -0.1253 -0.2405  0.2776
 5428SOL    HW127917   2.261   2.929   5.115  0.7441 -0.0073  0.6494
 5428SOL    HW227918   2.383   2.914   5.029  0.0789 -0.1771  1.0380
 5429SOL     OW27919   2.617   3.162  15.676  0.0001 -0.0289  0.4121
 5429SOL    HW127920   2.616   3.067  15.682 -2.8913  0.0343  0.6348
 5429SOL    HW227921   2.539   3.181  15.728  0.5905  0.6088  1.0706
 5430SOL     OW27922   2.320   0.008   1.227 -0.4164  0.2583  0.2641
 5430SOL    HW127923   2.364   4.735   1.142 -0.8037 -0.5841  0.1473
 5430SOL    HW227924   2.301   0.101   1.218 -0.1373  0.4028  1.1295
 5431SOL     OW27925   3.438   0.427   1.438 -0.1479 -0.3634 -0.3396
 5431SOL    HW127926   3.495   0.502   1.458 -1.5366 -0.0218  2.3286
 5431SOL    HW227927   3.501   0.365   1.402  1.0833  0.8738 -0.3296
 5432SOL     OW27928   1.965   2.221   2.127  0.0027  0.0457 -0.0363
 5432SOL    HW127929   1.920   2.296   2.088  2.5145  0.8827 -1.3300
 5432SOL    HW227930   2.042   2.221   2.070  0.6261  2.2000  0.7870
 5433SOL     OW27931   1.680   3.374   5.957 -0.0472  0.3277 -0.1341
 5433SOL    HW127932   1.735   3.301   5.929  1.1894  1.4263 -0.5635
 5433SOL    HW227933   1.610   3.326   6.003 -0.3195  0.7567 -0.1050
 5434SOL     OW27934   0.611   0.580   5.801 -0.1980  0.2641  0.0429
 5434SOL    HW127935   0.586   0.673   5.805 -0.5235  0.2582 -1.8369
 5434SOL    HW227936   0.653   0.577   5.715  2.2984 -0.0694  1.2727
 5435SOL     OW27937   2.142   0.192   7.024 -0.0281  0.0432 -0.1291
 5435SOL    HW127938   2.151   0.210   7.118  0.7474 -0.3696 -0.1201
 5435SOL    HW227939   2.117   0.100   7.028  1.8397 -0.4632  0.2747
 5436SOL     OW27940   1.600   0.948   4.487  0.3888  0.3225  0.1776
 5436SOL    HW127941   1.534   0.995   4.435 -1.1516 -1.0610  0.8517
 5436SOL    HW227942   1.553   0.869   4.514  0.8442  0.0540  0.1891
 5437SOL     OW27943   1.750   2.141  11.771 -0.6402  0.0697 -0.3156
 5437SOL    HW127944   1.764   2.223  11.723 -0.7829  0.6738  0.6654
 5437SOL    HW227945   1.772   2.160  11.863  0.2662 -0.1145 -0.4929
 5438SOL     OW27946   1.300   1.596   5.421 -0.4009 -0.5794  0.1585
 5438SOL    HW127947   1.222   1.579   5.367 -0.3833 -0.3148  0.0524
 5438SOL    HW227948   1.282   1.547   5.502  0.5428 -0.3471  0.5097
 5439SOL     OW27949   0.585   0.840   5.858 -0.2666  0.1324 -0.6375
 5439SOL    HW127950   0.621   0.861   5.944 -2.9229 -0.1169  0.5105
 5439SOL    HW227951   0.612   0.920   5.812 -2.5914  0.8577 -0.7170
 5440SOL     OW27952   1.869   1.174   1.951 -0.3817 -0.0662 -0.3308
 5440SOL    HW127953   1.783   1.188   1.910 -2.0804  1.8101  3.9093
 5440SOL    HW227954   1.852   1.199   2.042  1.3467  0.4533 -0.1506
 5441SOL     OW27955   2.861   3.372   6.297 -0.4315  0.2752 -0.2555
 5441SOL    HW127956   2.797   3.328   6.354  0.2045 -0.1764  0.1110
 5441SOL    HW227957   2.812   3.431   6.239  0.1605 -0.4948 -1.5452
 5442SOL     OW27958   0.555   4.533   9.403  0.0536  0.3698  0.4591
 5442SOL    HW127959   0.639   4.561   9.439  0.7899 -1.3761  0.1046
 5442SOL    HW227960   0.501   4.527   9.481 -0.1615  1.3379  0.3919
 5443SOL     OW27961   0.999   2.544   6.749 -0.0125 -0.5993  0.2678
 5443SOL    HW127962   1.049   2.608   6.800  2.1960 -0.4734 -2.0792
 5443SOL    HW227963   0.947   2.606   6.698 -1.6005 -0.6493  1.7961
 5444SOL     OW27964   4.291   2.818   3.506 -0.1049  0.0204  0.0506
 5444SOL    HW127965   4.247   2.743   3.467 -0.8012 -0.8467  2.4779
 5444SOL    HW227966   4.338   2.767   3.572 -1.8904  0.4356  1.6462
 5445SOL     OW27967   1.252   1.182   9.868 -0.3150 -0.6769  0.2078
 5445SOL    HW127968   1.206   1.108   9.907  0.5904 -1.5876 -0.4736
 5445SOL    HW227969   1.217   1.261   9.910  0.3045  0.7923 -2.0622
 5446SOL     OW27970   0.301   0.804   4.868 -0.6231 -0.0822 -0.1811
 5446SOL    HW127971   0.380   0.751   4.877 -0.7171 -0.0040  1.1953
 5446SOL    HW227972   0.287   0.842   4.955 -1.5365  1.2931 -0.9257
 5447SOL     OW27973   2.446   4.702   4.044 -0.2682  0.0368 -0.0545
 5447SOL    HW127974   2.445   4.721   4.138  0.2224  0.5328 -0.1513
 5447SOL    HW227975   2.472   0.055   4.019 -3.7091  1.1809  0.4246
 5448SOL     OW27976   0.652   4.634  11.430 -0.1867  0.0223  0.0299
 5448SOL    HW127977   0.696   4.718  11.420 -0.3200  0.2020  0.9887
 5448SOL    HW227978   0.679   4.590  11.349 -0.5396  1.3152 -0.7874
 5449SOL     OW27979   2.561   4.072  17.446 -0.1781  0.7081  0.7275
 5449SOL    HW127980   2.549   4.167  17.454  3.1669  1.1835  0.0355
 5449SOL    HW227981   2.470   4.051  17.469  0.5040 -1.9674  0.9280
 5450SOL     OW27982   1.409   3.811   4.464 -0.2211 -0.2001  0.2297
 5450SOL    HW127983   1.492   3.845   4.431 -0.7339 -0.1147 -0.9594
 5450SOL    HW227984   1.350   3.835   4.393  1.0981  0.8208 -0.5196
 5451SOL     OW27985   1.506   3.003  11.089 -0.0912 -0.0180 -0.3706
 5451SOL    HW127986   1.505   3.055  11.170  2.3882  1.0397 -1.0264
 5451SOL    HW227987   1.417   3.020  11.058 -0.1646 -1.1023 -0.7550
 5452SOL     OW27988   2.987   4.396   9.345  0.2161  0.1554 -0.3820
 5452SOL    HW127989   2.936   4.336   9.399  0.0504  0.4627 -0.1917
 5452SOL    HW227990   3.076   4.372   9.371  0.4665 -1.1073 -2.4406
 5453SOL     OW27991   1.106   0.705   0.278 -0.9840 -0.4163  0.3906
 5453SOL    HW127992   1.100   0.795   0.247 -1.0173  0.0156  1.6432
 5453SOL    HW227993   1.123   0.712   0.372  0.0626  0.4259  0.1431
 5454SOL     OW27994   4.341   0.037   0.486  0.2268  0.3125 -0.4075
 5454SOL    HW127995   4.263   0.012   0.436 -1.1126 -3.4963  3.5951
 5454SOL    HW227996   4.305   0.043   0.574 -5.1102  4.2303 -2.8458
 5455SOL     OW27997   2.844   4.578   5.169 -0.2900 -0.6173  0.5101
 5455SOL    HW127998   2.816   4.658   5.123  1.8997 -0.4694 -0.5708
 5455SOL    HW227999   2.896   4.609   5.243 -0.9740 -0.3880  0.8877
 5456SOL     OW28000   0.691   2.957   5.530  0.4106 -0.1980  0.2871
 5456SOL    HW128001   0.786   2.969   5.526  0.3131 -0.3169 -2.4926
 5456SOL    HW228002   0.659   3.047   5.519 -2.7819 -1.3123  0.4082
 5457SOL     OW28003   3.609   4.538   8.885 -0.3238  0.5343  0.0762
 5457SOL    HW128004   3.611   4.454   8.840 -1.5802  0.4815  0.1346
 5457SOL    HW228005   3.702   4.558   8.872 -0.5320  0.5827 -1.3641
 5458SOL     OW28006   3.012   0.828  12.460 -0.1183  0.4291  0.0440
 5458SOL    HW128007   3.077   0.861  12.522  0.6409 -0.6566 -0.1917
 5458SOL    HW228008   3.013   0.903  12.400 -1.0274  1.2689  1.0514
 5459SOL     OW28009   0.065   1.392   3.414 -0.1412 -0.1430  0.3369
 5459SOL    HW128010   0.039   1.470   3.464  0.5701 -0.6928  1.5634
 5459SOL    HW228011   0.142   1.429   3.370  0.6577 -0.1645  1.7297
 5460SOL     OW28012   4.188   1.311   7.881 -0.1523  0.1817  0.1148
 5460SOL    HW128013   4.282   1.327   7.889 -0.0030  0.0486 -1.3937
 5460SOL    HW228014   4.170   1.240   7.943 -0.3416  2.3437  2.5240
 5461SOL     OW28015   4.174   3.215   6.476 -0.2195  0.2582  0.7361
 5461SOL    HW128016   4.220   3.284   6.427 -0.0369 -1.5858 -1.7056
 5461SOL    HW228017   4.250   3.173   6.516 -0.7925 -1.8062 -0.3560
 5462SOL     OW28018   3.478   2.985   0.440  0.1647  0.0791  0.5504
 5462SOL    HW128019   3.443   2.941   0.363 -0.8846  1.6373  0.1264
 5462SOL    HW228020   3.527   2.916   0.485  0.0771  0.3453  1.0599
 5463SOL     OW28021   3.597   0.747   1.918 -0.8652  0.1589 -0.0462
 5463SOL    HW128022   3.537   0.697   1.862 -0.6842 -0.3770  0.2463
 5463SOL    HW228023   3.549   0.745   2.001 -0.8709  0.8496 -0.0320
 5464SOL     OW28024   4.503   1.438   4.253 -0.0162 -0.1207 -0.4965
 5464SOL    HW128025   4.417   1.403   4.230 -0.4866  0.5300  0.2638
 5464SOL    HW228026   4.560   1.362   4.264 -1.3874 -1.0780  0.0154
 5465SOL     OW28027   3.386   0.326   2.487 -0.0083 -0.4595  0.2151
 5465SOL    HW128028   3.468   0.325   2.535  0.9565  2.5767 -1.3699
 5465SOL    HW228029   3.418   0.333   2.397  3.2413  2.1812  1.5895
 5466SOL     OW28030   1.931   0.725   5.719  0.3231 -0.3424  0.0953
 5466SOL    HW128031   1.986   0.770   5.655  0.7533 -0.2624  0.5198
 5466SOL    HW228032   1.979   0.740   5.801 -2.2757  0.8085  1.4098
 5467SOL     OW28033   2.796   0.982   4.470  0.4007  0.1356 -0.0068
 5467SOL    HW128034   2.759   1.069   4.482 -1.0206 -0.4309 -0.3578
 5467SOL    HW228035   2.848   0.987   4.390 -1.1863 -0.1637 -1.0465
 5468SOL     OW28036   2.199   3.289  13.361 -0.0072  0.5124  0.0537
 5468SOL    HW128037   2.286   3.319  13.335  0.9433  0.2880  3.0452
 5468SOL    HW228038   2.151   3.371  13.368 -0.1765  0.5284 -1.3321
 5469SOL     OW28039   3.979   1.143  13.465 -0.0474  0.7438  0.3145
 5469SOL    HW128040   3.957   1.069  13.408 -0.2328  1.1642 -0.1571
 5469SOL    HW228041   4.075   1.139  13.457 -0.3704 -3.9307 -1.3819
 5470SOL     OW28042   1.803   1.600   3.087 -0.1279 -0.2107  0.4616
 5470SOL    HW128043   1.718   1.623   3.049 -0.2698  0.2282  1.0455
 5470SOL    HW228044   1.779   1.566   3.174  0.4281 -2.8733 -0.4076
 5471SOL     OW28045   2.325   0.202   5.368 -0.1629 -0.1965  0.5111
 5471SOL    HW128046   2.277   0.146   5.428 -0.5186 -0.8355 -0.3733
 5471SOL    HW228047   2.390   0.235   5.430 -1.4692  1.4202  1.0465
 5472SOL     OW28048   2.238   3.942   6.582  0.5075 -0.3180  0.0122
 5472SOL    HW128049   2.315   3.898   6.546  0.9434  0.7377 -0.3593
 5472SOL    HW228050   2.277   4.014   6.632 -0.9773  1.4896 -1.4305
 5473SOL     OW28051   4.661   3.727   8.778  0.5526 -0.7689  0.2071
 5473SOL    HW128052   4.578   3.774   8.775  1.8730  1.5000 -1.0920
 5473SOL    HW228053   4.660   3.699   8.870  0.9231  1.4782  0.8990
 5474SOL     OW28054   0.879   2.721   0.900  0.1516 -0.3821  0.0215
 5474SOL    HW128055   0.900   2.808   0.868 -1.9100  0.7490  1.7527
 5474SOL    HW228056   0.843   2.682   0.820  0.2643  0.0731 -0.2498
 5475SOL     OW28057   2.553   3.394  15.586  0.0437 -0.3584 -0.6411
 5475SOL    HW128058   2.509   3.373  15.503 -0.5955 -0.9611 -0.1459
 5475SOL    HW228059   2.594   3.309  15.600 -0.2362 -0.3433  0.2498
 5476SOL     OW28060   2.961   1.940  12.255  0.3987 -0.1271 -0.3219
 5476SOL    HW128061   2.926   1.912  12.171 -1.8828  0.4139  0.4282
 5476SOL    HW228062   2.953   1.861  12.309 -0.9491  1.6917  2.1353
 5477SOL     OW28063   2.087   1.034   3.169 -0.2576  0.4076  0.1665
 5477SOL    HW128064   2.161   1.077   3.128  0.2668 -0.3208  0.3483
 5477SOL    HW228065   2.056   1.090   3.241 -1.1102 -0.9492  0.8528
 5478SOL     OW28066   1.463   3.908   8.022  0.1061  0.7498  0.4996
 5478SOL    HW128067   1.387   3.909   7.964  0.1727  2.8206  0.4408
 5478SOL    HW228068   1.422   3.922   8.108 -0.1767  4.0936 -0.1773
 5479SOL     OW28069   4.248   1.101   7.067 -0.1292 -0.0527 -0.0486
 5479SOL    HW128070   4.269   1.153   7.145  0.4285 -1.1804  0.5558
 5479SOL    HW228071   4.184   1.042   7.108 -2.2118  1.5212 -1.0143
 5480SOL     OW28072   3.462   0.903  11.975 -0.4543 -0.2229  0.2845
 5480SOL    HW128073   3.373   0.875  11.996  0.3322 -1.6963  1.6652
 5480SOL    HW228074   3.509   0.819  11.964 -0.9469 -0.5715  0.8458
 5481SOL     OW28075   4.655   4.329   5.291 -0.2257 -0.1822 -0.0649
 5481SOL    HW128076   4.567   4.330   5.256 -0.0804 -1.8655 -0.4929
 5481SOL    HW228077   4.675   4.238   5.314  1.4054 -0.1823 -1.4995
 5482SOL     OW28078   4.490   4.012   2.965  0.3646  0.0412 -0.5424
 5482SOL    HW128079   4.528   4.078   2.907 -0.6119  0.4053 -0.7696
 5482SOL    HW228080   4.496   3.932   2.912  0.1189 -0.1242 -0.3218
 5483SOL     OW28081   1.016   4.502  13.681  0.2326  0.6392 -0.4161
 5483SOL    HW128082   1.063   4.419  13.671  0.4763  0.6879  0.3336
 5483SOL    HW228083   1.088   4.564  13.682  1.1373 -0.4028 -1.1623
 5484SOL     OW28084   1.744   1.182   6.784 -0.0944  0.3292  0.5833
 5484SOL    HW128085   1.759   1.088   6.777  1.8832  0.9464 -3.4056
 5484SOL    HW228086   1.650   1.181   6.766 -0.1799  0.0923  1.0491
 5485SOL     OW28087   0.375   1.865   9.906 -0.2321 -0.0067  0.4990
 5485SOL    HW128088   0.376   1.771   9.919 -1.6870 -0.1214 -0.2696
 5485SOL    HW228089   0.299   1.901   9.953  0.9561  2.2992  0.6898
 5486SOL     OW28090   2.226   0.182   8.358  0.4997 -0.0930  0.5368
 5486SOL    HW128091   2.200   0.273   8.344 -3.0487 -0.8447  2.2697
 5486SOL    HW228092   2.198   0.143   8.276 -0.2588  1.9234 -0.1660
 5487SOL     OW28093   3.472   2.232  10.015 -0.3603  0.3605  0.6946
 5487SOL    HW128094   3.513   2.153   9.978  2.3089  1.5936  1.0061
 5487SOL    HW228095   3.392   2.226   9.963  1.2205 -0.2305 -1.6786
 5488SOL     OW28096   2.429   2.366   2.512 -0.2519  0.1495 -0.4511
 5488SOL    HW128097   2.417   2.458   2.492  1.9013  1.4197  4.1559
 5488SOL    HW228098   2.411   2.368   2.606 -4.6538  1.1239 -1.3234
 5489SOL     OW28099   3.090   4.212  10.025 -0.5705 -0.0639 -0.3237
 5489SOL    HW128100   3.028   4.278  10.057 -3.1539 -1.8554 -1.6170
 5489SOL    HW228101   3.062   4.131  10.066 -1.0045 -0.0604 -0.6084
 5490SOL     OW28102   0.900   0.156   5.633  0.0111  0.2391 -0.7914
 5490SOL    HW128103   0.841   0.081   5.617  0.4214 -0.2089 -0.1881
 5490SOL    HW228104   0.868   0.219   5.569 -0.3148 -1.4823 -2.3507
 5491SOL     OW28105   3.836   0.048  17.256  0.1305  0.1429  0.1145
 5491SOL    HW128106   3.890   4.733  17.316 -0.7025 -0.8536  0.0466
 5491SOL    HW228107   3.784   0.095  17.321 -0.4174 -0.7369  0.3124
 5492SOL     OW28108   2.352   3.976   6.926  0.0150 -0.5557 -0.4418
 5492SOL    HW128109   2.318   4.017   7.006  0.0632  0.6391 -1.0321
 5492SOL    HW228110   2.343   3.883   6.947  0.7998  0.0026  2.2941
 5493SOL     OW28111   2.536   2.789  11.263  0.1282 -0.0070 -0.1694
 5493SOL    HW128112   2.601   2.748  11.206  0.7963 -0.5172  0.9610
 5493SOL    HW228113   2.590   2.817  11.337  2.4932  3.5827 -3.2908
 5494SOL     OW28114   0.162   4.436   1.702  0.2822 -0.9122 -0.0605
 5494SOL    HW128115   0.089   4.417   1.761  1.3090  0.0735  1.5500
 5494SOL    HW228116   0.186   4.345   1.686 -0.8993 -1.3769  0.8827
 5495SOL     OW28117   1.238   3.935  11.920  0.4273  0.1274  0.0525
 5495SOL    HW128118   1.178   3.867  11.952 -0.0588 -0.1591 -1.4924
 5495SOL    HW228119   1.232   3.988  12.000  0.5997 -0.6473  0.5824
 5496SOL     OW28120   2.688   4.256   5.346  0.2899  0.1111 -0.0244
 5496SOL    HW128121   2.632   4.202   5.290  1.7317 -1.5288  0.1083
 5496SOL    HW228122   2.732   4.185   5.391 -0.1490  1.1178  1.9843
 5497SOL     OW28123   2.461   1.272   5.069 -0.0042 -0.3006  0.1633
 5497SOL    HW128124   2.418   1.356   5.050  0.7529 -0.0127 -0.2927
 5497SOL    HW228125   2.421   1.248   5.152  1.7382 -1.1822  0.7472
 5498SOL     OW28126   4.234   3.424  16.149 -0.0486 -0.3995 -0.3598
 5498SOL    HW128127   4.272   3.423  16.237  2.1548  2.4627 -1.2782
 5498SOL    HW228128   4.230   3.328  16.143 -0.6317 -0.3927 -0.0236
 5499SOL     OW28129   2.961   1.650  16.288 -0.3037 -0.3438  0.9628
 5499SOL    HW128130   2.891   1.706  16.323 -0.1466  0.5929 -0.2158
 5499SOL    HW228131   2.924   1.618  16.206  0.9546 -0.2073  0.3331
 5500SOL     OW28132   4.549   4.680   4.844  0.6581 -0.3077 -0.4894
 5500SOL    HW128133   4.568   0.027   4.797  0.1849 -0.5039 -1.0162
 5500SOL    HW228134   4.629   4.628   4.833  2.2140  1.0206  4.7708
 5501SOL     OW28135   3.674   1.756   2.786 -0.5172  0.3247  0.4268
 5501SOL    HW128136   3.629   1.673   2.771 -2.6797  1.0890  2.7661
 5501SOL    HW228137   3.740   1.761   2.716 -0.7853  0.5718  0.1917
 5502SOL     OW28138   2.838   2.826   5.065 -0.0064 -0.2198  0.3604
 5502SOL    HW128139   2.821   2.871   4.982  1.1353  1.1939  0.8991
 5502SOL    HW228140   2.890   2.898   5.101  0.6601 -0.7644  0.4989
 5503SOL     OW28141   0.496   3.331  16.472  0.3008  0.5657 -0.1186
 5503SOL    HW128142   0.461   3.419  16.466 -0.8304  0.0993 -0.2883
 5503SOL    HW228143   0.583   3.347  16.509  0.4428 -0.3059 -0.0733
 5504SOL     OW28144   1.700   2.433   6.750  0.0830 -0.4148  0.0708
 5504SOL    HW128145   1.740   2.346   6.743  2.4797  0.7447 -0.4617
 5504SOL    HW228146   1.723   2.462   6.838 -1.9577  0.9523  0.1704
 5505SOL     OW28147   4.554   3.443  12.580  0.2411  0.1058 -0.3644
 5505SOL    HW128148   4.606   3.389  12.640  1.9813  0.9049 -1.1547
 5505SOL    HW228149   4.592   3.528  12.600  0.5823 -0.6539  2.1353
 5506SOL     OW28150   0.754   0.876   9.042 -0.2396 -0.0760  0.5440
 5506SOL    HW128151   0.767   0.782   9.047  1.4372  0.1050 -0.1434
 5506SOL    HW228152   0.771   0.896   8.950  0.0018 -0.3655  0.5279
 5507SOL     OW28153   4.277   3.435   7.972  0.4889 -0.0245 -0.1087
 5507SOL    HW128154   4.237   3.389   7.898  0.5152  1.8750 -1.2814
 5507SOL    HW228155   4.203   3.477   8.014 -0.1909  0.0637 -1.3956
 5508SOL     OW28156   3.231   4.680   3.254 -0.3505 -0.2461  0.2765
 5508SOL    HW128157   3.302   4.681   3.191 -0.3130  0.9624  0.3368
 5508SOL    HW228158   3.218   4.591   3.286  0.0787 -0.8547 -1.2762
 5509SOL     OW28159   3.502   1.513   8.194  0.0020  0.0290  0.7095
 5509SOL    HW128160   3.513   1.438   8.253  2.5852 -1.5877 -1.8021
 5509SOL    HW228161   3.437   1.552   8.253 -1.1451  0.1888 -0.6704
 5510SOL     OW28162   4.020   0.861   7.027 -0.3998  0.4824  0.4485
 5510SOL    HW128163   4.028   0.903   7.112 -3.8918  0.1395  0.9771
 5510SOL    HW228164   3.973   0.935   6.989 -2.6940 -0.8325  0.6820
 5511SOL     OW28165   3.484   1.839   7.465 -0.2079  0.5900  0.5465
 5511SOL    HW128166   3.446   1.807   7.547 -1.8865  0.3916 -0.3128
 5511SOL    HW228167   3.573   1.848   7.499 -0.2156 -0.4176  0.8233
 5512SOL     OW28168   0.567   1.760  14.430 -0.0163  0.0201  0.2834
 5512SOL    HW128169   0.559   1.849  14.397  1.4465 -0.6077 -1.7547
 5512SOL    HW228170   0.479   1.749  14.467 -0.2430 -0.2134 -0.3119
 5513SOL     OW28171   2.007   1.010   0.756  1.0927  0.2063  0.4832
 5513SOL    HW128172   2.058   1.066   0.699 -0.2430 -0.7885 -1.6701
 5513SOL    HW228173   1.977   1.075   0.819 -1.1411  0.5470 -0.9547
 5514SOL     OW28174   3.737   4.165  14.211 -0.0746  0.5300 -0.0250
 5514SOL    HW128175   3.798   4.110  14.162 -0.6898  0.0071 -0.2072
 5514SOL    HW228176   3.662   4.180  14.153 -0.2146  0.7293  0.2052
 5515SOL     OW28177   3.020   4.692  11.378  0.1901  0.6516  0.2293
 5515SOL    HW128178   2.976   4.615  11.414  3.6269 -0.2326  2.6389
 5515SOL    HW228179   3.106   4.651  11.364 -0.6415 -0.0226 -2.9019
 5516SOL     OW28180   4.216   0.602   6.598 -0.1184  0.2830 -0.1352
 5516SOL    HW128181   4.234   0.695   6.605 -1.6679  0.6334 -0.7136
 5516SOL    HW228182   4.141   0.602   6.658 -0.9175 -0.0212 -1.1522
 5517SOL     OW28183   0.881   3.026   6.296  0.4095  0.4477 -0.1101
 5517SOL    HW128184   0.969   3.057   6.318  0.7161 -1.1403  0.8530
 5517SOL    HW228185   0.905   3.009   6.205 -0.5116  2.0061 -0.6475
 5518SOL     OW28186   4.139   2.860   1.277 -0.0131  0.3291 -0.7192
 5518SOL    HW128187   4.052   2.820   1.287  0.7636 -0.9089  1.1467
 5518SOL    HW228188   4.164   2.878   1.367  0.5028 -0.4924 -0.6984
 5519SOL     OW28189   4.596   3.196   3.251  0.2851  0.2456 -0.0136
 5519SOL    HW128190   4.654   3.165   3.181  1.4836  0.1990  1.0102
 5519SOL    HW228191   4.515   3.211   3.202  0.1366  0.4236  0.2870
 5520SOL     OW28192   2.003   2.611  15.423  0.5118 -0.3415 -0.0706
 5520SOL    HW128193   1.942   2.566  15.482  0.2851  1.6407  1.1827
 5520SOL    HW228194   1.985   2.569  15.338  1.8516 -1.4629  0.1979
 5521SOL     OW28195   4.703   4.256   8.930  0.1149 -0.4269 -0.7160
 5521SOL    HW128196   4.669   4.290   9.012 -1.6853  1.6955 -2.3300
 5521SOL    HW228197   0.002   4.168   8.946 -0.2430 -0.0030  2.2433
 5522SOL     OW28198   4.261   1.150  15.942 -0.2169 -0.5305 -0.1518
 5522SOL    HW128199   4.310   1.232  15.948 -0.1654 -0.6731  1.2838
 5522SOL    HW228200   4.225   1.165  15.855  0.2626  2.3140  0.1301
 5523SOL     OW28201   4.685   1.021   6.806 -0.1831 -0.3583  0.0772
 5523SOL    HW128202   4.599   1.052   6.777  0.2436  1.7343  1.0678
 5523SOL    HW228203   4.655   0.995   6.893  0.7571  0.9856  0.8026
 5524SOL     OW28204   3.606   3.659   0.857 -0.0058  0.2015 -0.3938
 5524SOL    HW128205   3.513   3.654   0.880 -0.3491 -1.6763 -2.1712
 5524SOL    HW228206   3.637   3.576   0.894 -0.4684  0.2331  0.0652
 5525SOL     OW28207   4.403   3.270   8.770  0.6989 -0.0460 -0.3783
 5525SOL    HW128208   4.399   3.178   8.795 -1.2335 -0.0676 -0.7064
 5525SOL    HW228209   4.336   3.264   8.702  0.9708  0.2783 -0.6790
 5526SOL     OW28210   0.462   0.687   2.178  0.5920 -0.2532  0.2569
 5526SOL    HW128211   0.490   0.741   2.253  0.1173  1.0544 -0.5146
 5526SOL    HW228212   0.367   0.676   2.186  0.2958  2.0803  0.0956
 5527SOL     OW28213   1.314   1.642   3.057 -0.0494 -0.3007 -0.0278
 5527SOL    HW128214   1.293   1.615   3.146  0.9411  0.3310  0.3967
 5527SOL    HW228215   1.251   1.712   3.040  0.1277  0.2041  1.4002
 5528SOL     OW28216   2.739   1.082   8.095  0.8598 -0.5655  0.0328
 5528SOL    HW128217   2.770   1.067   8.184 -1.1659 -0.0532  0.8333
 5528SOL    HW228218   2.693   1.000   8.077 -1.3665  0.5515  0.6303
 5529SOL     OW28219   4.129   1.794  11.230 -0.8885  0.6481 -0.5154
 5529SOL    HW128220   4.181   1.740  11.289 -0.8745 -0.5878 -1.6532
 5529SOL    HW228221   4.134   1.736  11.154 -0.7092 -0.1135  0.0760
 5530SOL     OW28222   3.958   3.417   2.370  0.1366 -0.3347  0.3156
 5530SOL    HW128223   4.048   3.385   2.379 -0.1275 -1.1742 -0.0451
 5530SOL    HW228224   3.930   3.436   2.459  0.5604 -1.0860  0.5997
 5531SOL     OW28225   3.893   1.773  11.437  0.4547 -0.9260 -0.1721
 5531SOL    HW128226   3.837   1.710  11.482  0.1072 -0.2865  0.2760
 5531SOL    HW228227   3.842   1.788  11.358  0.7079  1.6607  0.1708
 5532SOL     OW28228   1.821   3.592  10.045 -0.4871  0.1099 -0.2410
 5532SOL    HW128229   1.750   3.648  10.012 -3.0301 -2.0889  1.4925
 5532SOL    HW228230   1.765   3.534  10.097  0.5997  0.8481  1.7167
 5533SOL     OW28231   2.039   2.143   4.463 -0.3118  0.3511  0.0697
 5533SOL    HW128232   2.015   2.077   4.528  1.1170 -1.1131 -0.8927
 5533SOL    HW228233   1.951   2.167   4.434 -0.8581  0.1312  1.5574
 5534SOL     OW28234   3.298   1.094   0.293 -0.2904  0.1813  0.1807
 5534SOL    HW128235   3.391   1.116   0.291 -0.3141  0.2373 -0.4337
 5534SOL    HW228236   3.272   1.106   0.384  0.2696  2.4100  0.0601
 5535SOL     OW28237   3.132   0.136   6.262 -0.1140 -0.4300  0.1224
 5535SOL    HW128238   3.212   0.189   6.258 -0.7161  0.6664  2.6413
 5535SOL    HW228239   3.156   0.064   6.320 -0.1098 -1.9303 -1.7344
 5536SOL     OW28240   1.063   3.110   1.252 -0.5591 -0.0421  0.2335
 5536SOL    HW128241   1.018   3.064   1.323 -0.7002 -0.7592 -0.3199
 5536SOL    HW228242   1.154   3.097   1.278 -1.1833 -1.2701  1.7717
 5537SOL     OW28243   0.353   3.567   2.160 -0.1695  0.5437  0.1575
 5537SOL    HW128244   0.371   3.543   2.251  2.0807 -0.2563 -0.4983
 5537SOL    HW228245   0.278   3.509   2.149  0.5576  0.0697 -2.3434
 5538SOL     OW28246   4.052   0.027   4.034  0.2133  0.0521 -0.2746
 5538SOL    HW128247   4.116   0.089   4.070  0.2286  0.0381 -0.2778
 5538SOL    HW228248   4.049   0.052   3.941 -3.5285 -2.7473 -0.9088
 5539SOL     OW28249   0.826   1.345   1.817 -0.4638  0.0651  0.0154
 5539SOL    HW128250   0.775   1.419   1.850  1.5425  0.9256  1.1780
 5539SOL    HW228251   0.913   1.370   1.849  0.5159 -1.2808 -1.6585
 5540SOL     OW28252   3.517   2.262  15.814  0.3622 -0.0353 -0.0719
 5540SOL    HW128253   3.448   2.202  15.788 -1.5657  1.2965  2.0204
 5540SOL    HW228254   3.489   2.351  15.794  0.9862  1.2546  4.7401
 5541SOL     OW28255   2.263   0.022   6.249  0.3650 -0.0676  0.2895
 5541SOL    HW128256   2.353   0.034   6.279  0.1597  0.0381  0.8590
 5541SOL    HW228257   2.263   4.729   6.157  0.7235 -0.3630  0.3790
 5542SOL     OW28258   1.642   3.138   0.901  0.2788 -0.1816 -0.1862
 5542SOL    HW128259   1.669   3.144   0.810  1.5542 -1.2098  0.1265
 5542SOL    HW228260   1.690   3.061   0.930  2.0936  0.9542 -0.1558
 5543SOL     OW28261   1.813   2.228   2.978  0.5022  0.3944  0.4713
 5543SOL    HW128262   1.749   2.286   2.938 -0.8910 -1.9474 -0.6900
 5543SOL    HW228263   1.891   2.252   2.928 -1.1805 -0.7439 -2.6438
 5544SOL     OW28264   3.995   2.228   6.170  0.1805 -0.1866 -0.1541
 5544SOL    HW128265   3.914   2.194   6.206 -0.9659  0.2578 -2.2817
 5544SOL    HW228266   4.042   2.218   6.252 -2.1091 -1.2243  1.0226
 5545SOL     OW28267   1.825   0.551   2.118  0.2612  0.4458  0.4803
 5545SOL    HW128268   1.908   0.583   2.153  0.9833 -0.2448 -0.5896
 5545SOL    HW228269   1.850   0.465   2.085 -2.4301 -1.0511  2.4261
 5546SOL     OW28270   1.643   4.184   2.990  0.1995 -0.3813 -0.0399
 5546SOL    HW128271   1.581   4.198   3.061 -0.0875 -0.4722 -0.2715
 5546SOL    HW228272   1.594   4.218   2.915 -0.1418  0.2058  0.4494
 5547SOL     OW28273   2.611   2.668   3.199 -0.1129  0.2771  0.9601
 5547SOL    HW128274   2.697   2.685   3.239  1.7256  1.6096 -3.5441
 5547SOL    HW228275   2.623   2.577   3.173  3.3608  0.5301  1.6088
 5548SOL     OW28276   4.466   1.468   7.277  0.1399 -0.3985 -0.8089
 5548SOL    HW128277   4.511   1.488   7.358 -1.5408 -0.9560  0.2661
 5548SOL    HW228278   4.399   1.536   7.272  0.6470  0.1119 -0.5923
 5549SOL     OW28279   1.423   2.683   2.516 -0.8927  0.4643  0.4313
 5549SOL    HW128280   1.392   2.599   2.551 -1.3345  0.1901 -0.6054
 5549SOL    HW228281   1.395   2.672   2.425 -0.2352  1.3810  0.1276
 5550SOL     OW28282   2.184   4.393   6.474 -0.4875  0.3335 -0.1792
 5550SOL    HW128283   2.180   4.486   6.497  0.0775  0.5724 -1.0524
 5550SOL    HW228284   2.164   4.405   6.382 -1.6581 -1.2425 -0.1268
 5551SOL     OW28285   0.162   0.033   8.665 -0.0925  0.2205 -0.0154
 5551SOL    HW128286   0.148   0.103   8.728  0.3219 -1.2196  1.6625
 5551SOL    HW228287   0.172   4.686   8.713 -1.4230  0.2170  0.2596
 5552SOL     OW28288   1.210   3.512   9.187 -0.2906 -0.1393 -0.5467
 5552SOL    HW128289   1.235   3.491   9.277  1.8949  0.7494 -0.9543
 5552SOL    HW228290   1.116   3.511   9.206  0.1301 -0.9347  1.4687
 5553SOL     OW28291   0.542   3.447  11.690 -0.9405  0.1478  0.0805
 5553SOL    HW128292   0.518   3.531  11.727 -0.6687  1.0816 -1.8981
 5553SOL    HW228293   0.575   3.396  11.765 -1.6788 -1.2562 -0.5582
 5554SOL     OW28294   0.189   1.542   6.702 -0.9347  1.1183 -0.2563
 5554SOL    HW128295   0.217   1.624   6.743  0.5883  0.0101  0.8962
 5554SOL    HW228296   0.108   1.524   6.750 -0.5140 -0.7973 -0.2657
 5555SOL     OW28297   4.116   3.744   8.286 -0.2115 -0.2050  0.0317
 5555SOL    HW128298   4.169   3.695   8.349 -0.0410  0.0540  0.0898
 5555SOL    HW228299   4.093   3.822   8.336  1.2759  0.2855 -0.0656
 5556SOL     OW28300   4.000   0.372  17.399  0.0420  0.2842  0.4445
 5556SOL    HW128301   4.055   0.297  17.421  0.4417  0.5324  0.2835
 5556SOL    HW228302   3.912   0.337  17.411 -0.8944  1.7454 -2.1379
 5557SOL     OW28303   0.184   1.294  16.969 -0.0913 -0.4112 -0.4226
 5557SOL    HW128304   0.151   1.206  16.988  0.8234 -1.4715 -3.7706
 5557SOL    HW228305   0.258   1.275  16.911 -0.4620 -0.4757 -0.8795
 5558SOL     OW28306   3.074   3.231   4.318 -0.4421 -0.4915 -0.5311
 5558SOL    HW128307   3.035   3.241   4.231  1.0388  0.8729 -1.0402
 5558SOL    HW228308   3.013   3.166   4.354  1.0925 -0.4067  2.1487
 5559SOL     OW28309   0.205   2.488   1.400 -0.1316  0.2514  0.1669
 5559SOL    HW128310   0.283   2.448   1.361  0.3990 -0.0248  1.5250
 5559SOL    HW228311   0.151   2.477   1.321 -1.0595  0.3252  0.7837
 5560SOL     OW28312   1.434   2.159   9.013 -0.0232  0.6406  0.8850
 5560SOL    HW128313   1.455   2.118   8.929  0.9963  0.6228  1.1526
 5560SOL    HW228314   1.481   2.100   9.072  0.3053  1.1907  1.1760
 5561SOL     OW28315   3.329   1.791   7.696 -0.1172  0.2208 -0.9808
 5561SOL    HW128316   3.327   1.872   7.746 -3.3527  1.2209 -2.6742
 5561SOL    HW228317   3.299   1.724   7.757 -1.6637  2.0611  0.2882
 5562SOL     OW28318   2.547   4.709  15.642 -0.3496  0.4031  0.4232
 5562SOL    HW128319   2.545   4.717  15.738 -1.1178 -0.6284  0.4935
 5562SOL    HW228320   2.523   0.062  15.614 -2.9364  0.0469  1.5033
 5563SOL     OW28321   1.516   3.560   9.228  0.0023  0.1581  0.2089
 5563SOL    HW128322   1.603   3.560   9.189 -0.4967  2.9305 -0.9000
 5563SOL    HW228323   1.523   3.495   9.298 -1.7863 -0.8728 -0.5505
 5564SOL     OW28324   1.892   3.588   5.024  0.0772 -0.4168 -0.3736
 5564SOL    HW128325   1.974   3.627   5.055 -0.5624  1.0284 -0.4809
 5564SOL    HW228326   1.911   3.495   5.029  1.1981 -0.1187  0.8351
 5565SOL     OW28327   0.821   2.637   9.183 -0.0254 -0.2739 -0.5415
 5565SOL    HW128328   0.866   2.709   9.139  0.2761 -0.3323 -0.3273
 5565SOL    HW228329   0.733   2.662   9.154 -0.6063 -1.5591  0.1089
 5566SOL     OW28330   1.409   1.713  14.102 -0.4911  0.6821 -0.5680
 5566SOL    HW128331   1.351   1.700  14.177 -0.1813  1.0021 -0.2755
 5566SOL    HW228332   1.358   1.779  14.055 -1.7674 -0.9409 -1.4421
 5567SOL     OW28333   3.286   4.656  17.548 -0.5833 -0.0694  0.7610
 5567SOL    HW128334   3.286   4.675  17.642  2.8408 -2.2042  1.1877
 5567SOL    HW228335   3.194   4.665  17.521 -1.0335  0.3757  2.4617
 5568SOL     OW28336   0.255   2.030   5.488 -0.0266  0.0127  0.0390
 5568SOL    HW128337   0.294   2.112   5.458  1.5319 -1.1894 -1.2011
 5568SOL    HW228338   0.205   2.013   5.409 -0.4869 -2.6066  0.9195
 5569SOL     OW28339   0.983   2.063   5.637  0.3109 -0.2200 -0.0068
 5569SOL    HW128340   1.055   2.087   5.578  1.3785  0.0202  1.3912
 5569SOL    HW228341   0.913   2.119   5.603  0.0771 -0.4920  0.0312
 5570SOL     OW28342   4.387   0.740   9.444 -0.0650 -0.1181 -0.3140
 5570SOL    HW128343   4.442   0.667   9.471 -0.3001  0.1775  0.9838
 5570SOL    HW228344   4.310   0.737   9.502 -0.1711 -0.3812 -0.4693
 5571SOL     OW28345   0.389   4.468   8.816 -0.6884  0.0197  0.0710
 5571SOL    HW128346   0.313   4.493   8.868 -1.0656  2.6185 -1.7262
 5571SOL    HW228347   0.381   4.374   8.799 -2.9271  0.3319 -0.5262
 5572SOL     OW28348   1.917   3.627   6.899 -0.5746  0.2093 -0.0707
 5572SOL    HW128349   1.989   3.661   6.845 -1.2129  1.3345 -0.2297
 5572SOL    HW228350   1.880   3.711   6.928 -1.2874  1.0011 -3.2345
 5573SOL     OW28351   0.261   0.585   6.689 -0.6803 -0.6437  0.0613
 5573SOL    HW128352   0.285   0.521   6.622  0.4517 -2.1610  1.9119
 5573SOL    HW228353   0.174   0.558   6.718 -0.3348  0.2908  1.9660
 5574SOL     OW28354   0.742   0.471   4.874  0.2941 -0.0848 -0.0698
 5574SOL    HW128355   0.784   0.388   4.896 -1.1236 -0.7448  0.1818
 5574SOL    HW228356   0.771   0.478   4.783  2.2408 -0.2423  0.5521
 5575SOL     OW28357   1.338   1.276   2.816  0.4545 -0.0532  0.2164
 5575SOL    HW128358   1.389   1.284   2.736  2.2512 -3.6903  0.9613
 5575SOL    HW228359   1.310   1.365   2.835  0.0068 -0.4728  1.4964
 5576SOL     OW28360   1.299   3.402  15.066 -0.3345 -0.4518  0.0812
 5576SOL    HW128361   1.217   3.353  15.057 -1.3793  1.4984 -1.0069
 5576SOL    HW228362   1.297   3.458  14.989  1.2900 -0.1561  0.2750
 5577SOL     OW28363   4.632   3.521   0.482 -0.4044 -0.0473 -0.0137
 5577SOL    HW128364   4.612   3.606   0.443  0.8924 -0.2308 -1.0773
 5577SOL    HW228365   4.658   3.471   0.405 -3.1678 -3.1253  1.0827
 5578SOL     OW28366   1.075   0.604   3.798  0.5477  0.0794 -0.5150
 5578SOL    HW128367   1.075   0.575   3.707  0.1995  1.0651 -0.8336
 5578SOL    HW228368   0.982   0.620   3.813  1.0002 -0.2418  2.5918
 5579SOL     OW28369   4.296   0.032   2.795 -0.3948 -0.4587 -0.3586
 5579SOL    HW128370   4.240   4.689   2.795 -1.1931  0.1244  3.2776
 5579SOL    HW228371   4.355   0.011   2.723 -1.4387 -0.0061 -1.3445
 5580SOL     OW28372   0.188   3.133   8.314 -1.1035 -0.2359  0.3114
 5580SOL    HW128373   0.192   3.156   8.222 -0.0544 -0.8371  0.2011
 5580SOL    HW228374   0.123   3.190   8.356 -0.9287 -0.0357  0.3078
 5581SOL     OW28375   3.980   4.009   5.972  0.3735  0.0133 -0.6955
 5581SOL    HW128376   3.917   4.040   5.906 -1.4521  0.2691  1.1806
 5581SOL    HW228377   4.026   3.946   5.916  0.4014 -1.7478  1.3167
 5582SOL     OW28378   0.225   0.612   7.206  0.3554 -0.3995  0.3626
 5582SOL    HW128379   0.145   0.591   7.254 -0.3315 -0.3874 -0.7748
 5582SOL    HW228380   0.273   0.671   7.264 -1.9675 -0.3467  2.2060
 5583SOL     OW28381   0.422   1.795   2.630 -0.2276 -0.5485  0.0277
 5583SOL    HW128382   0.458   1.883   2.618 -0.6931 -0.2411  0.8643
 5583SOL    HW228383   0.342   1.790   2.577 -1.9862 -1.1410  2.7340
 5584SOL     OW28384   3.047   3.811   6.124  0.4942  0.4483  0.4304
 5584SOL    HW128385   3.141   3.796   6.130 -0.1191 -2.6817  2.0525
 5584SOL    HW228386   3.051   3.870   6.048  1.5606  0.4947  0.5235
 5585SOL     OW28387   1.101   4.654  12.836 -0.0131  0.4208 -0.5408
 5585SOL    HW128388   1.018   4.617  12.864  1.0772 -2.7245 -1.4512
 5585SOL    HW228389   1.096   4.639  12.742  1.9160 -1.4168 -0.3566
 5586SOL     OW28390   4.565   3.526   5.223 -0.7566  0.4797  0.9170
 5586SOL    HW128391   4.534   3.542   5.134  0.6924  0.1516  0.3654
 5586SOL    HW228392   4.534   3.437   5.234  1.8804 -0.7072 -1.3610
 5587SOL     OW28393   1.437   4.205   3.170 -0.1826 -0.2919 -0.5428
 5587SOL    HW128394   1.472   4.136   3.227 -0.4217  1.0301  1.2093
 5587SOL    HW228395   1.406   4.257   3.245 -1.3362  0.8033 -1.7873
 5588SOL     OW28396   1.319   0.848   6.215 -0.5680 -0.4290  0.1447
 5588SOL    HW128397   1.303   0.932   6.258 -1.6913 -0.6475  0.1513
 5588SOL    HW228398   1.414   0.839   6.224 -0.5865  0.3778  1.0844
 5589SOL     OW28399   2.957   3.585  15.694 -0.5616 -0.3910  0.3429
 5589SOL    HW128400   2.926   3.669  15.728 -0.4100 -0.7033  1.2668
 5589SOL    HW228401   3.053   3.592  15.696 -0.7400  2.5259 -1.3746
 5590SOL     OW28402   1.860   1.376   4.294  0.0697  0.3950 -0.4352
 5590SOL    HW128403   1.889   1.298   4.247  1.3348  2.1772 -2.5862
 5590SOL    HW228404   1.922   1.384   4.366 -1.2709  2.6597  0.4763
 5591SOL     OW28405   0.641   1.487   6.330  0.0732  0.3875  0.2544
 5591SOL    HW128406   0.718   1.460   6.379  0.4392  1.1255  0.0835
 5591SOL    HW228407   0.582   1.413   6.339 -2.8284  2.6221 -0.0636
 5592SOL     OW28408   0.075   4.531   8.153 -0.1675 -0.2128 -0.0872
 5592SOL    HW128409   0.162   4.541   8.114 -0.8477 -1.2501 -1.8695
 5592SOL    HW228410   0.093   4.452   8.203 -0.0580 -0.1090  0.0348
 5593SOL     OW28411   3.180   1.141  11.932 -0.2789 -0.6847 -0.3314
 5593SOL    HW128412   3.221   1.152  11.846 -0.2712  0.4085 -0.1860
 5593SOL    HW228413   3.116   1.069  11.928 -0.2646 -0.8183  1.7223
 5594SOL     OW28414   3.516   1.494   2.797 -0.1750 -0.3091 -0.2345
 5594SOL    HW128415   3.431   1.497   2.842 -0.5043 -1.2272 -0.7747
 5594SOL    HW228416   3.568   1.465   2.872 -0.7830  2.6613  1.3384
 5595SOL     OW28417   4.706   0.379   0.999 -0.0959 -0.0958 -0.0949
 5595SOL    HW128418   4.709   0.331   1.081  0.1421  2.0699  1.1791
 5595SOL    HW228419   0.004   0.463   1.032  0.4080 -0.5837  0.6537
 5596SOL     OW28420   0.393   2.249   2.209 -0.2001 -0.2921  0.0855
 5596SOL    HW128421   0.487   2.264   2.205 -0.2559 -0.3712 -1.5586
 5596SOL    HW228422   0.396   2.157   2.182  0.5312 -0.0784 -0.5473
 5597SOL     OW28423   2.050   4.377   4.514 -0.8434  0.4685  0.2398
 5597SOL    HW128424   2.087   4.308   4.459  1.5107  0.8035  1.4250
 5597SOL    HW228425   2.070   4.359   4.606  1.4828  2.7425  0.1651
 5598SOL     OW28426   3.509   3.677   3.895  0.4363  0.1547  0.2148
 5598SOL    HW128427   3.507   3.623   3.974 -0.0092  2.1493  1.5876
 5598SOL    HW228428   3.523   3.606   3.832 -1.4923  0.9373 -1.0870
 5599SOL     OW28429   2.199   3.994   7.203  0.1277  0.4568 -0.1326
 5599SOL    HW128430   2.116   4.010   7.248  0.6052  1.3938  0.4153
 5599SOL    HW228431   2.214   3.900   7.211 -2.1142  0.1552  0.5859
 5600SOL     OW28432   1.928   4.301  10.690  0.2210  0.1258  0.2793
 5600SOL    HW128433   1.968   4.369  10.637  4.0952 -1.8666  0.6763
 5600SOL    HW228434   1.851   4.284  10.636 -1.3535 -1.3298  2.9963
 5601SOL     OW28435   0.596   3.409   6.334 -0.3471  0.3495 -0.3062
 5601SOL    HW128436   0.636   3.332   6.374 -0.3988  0.7018  0.4328
 5601SOL    HW228437   0.507   3.384   6.311 -0.9427  0.7074  1.6169
 5602SOL     OW28438   0.116   0.116   0.326 -0.6508 -0.2264  0.5122
 5602SOL    HW128439   0.043   0.160   0.369  0.0693 -0.9782  2.4968
 5602SOL    HW228440   0.070   0.080   0.250  0.1984 -0.5540  0.1496
 5603SOL     OW28441   0.157   3.686  12.152  0.0236 -1.0141 -0.2026
 5603SOL    HW128442   0.204   3.718  12.075  3.1391 -1.5783  1.4921
 5603SOL    HW228443   0.099   3.760  12.171  1.1617  0.3338 -1.9816
 5604SOL     OW28444   4.196   3.885  13.211  0.3917  0.0494  0.1630
 5604SOL    HW128445   4.177   3.937  13.290 -0.7064  0.1879 -0.1873
 5604SOL    HW228446   4.214   3.802  13.255  1.9543 -0.5620 -1.6383
 5605SOL     OW28447   3.758   3.351   6.873  0.3808 -0.3799  0.7759
 5605SOL    HW128448   3.680   3.390   6.835  0.7141 -0.0209  0.4697
 5605SOL    HW228449   3.757   3.380   6.965  0.4911 -0.8906  0.9387
 5606SOL     OW28450   1.366   2.602   2.268 -0.0015 -0.0229  0.7385
 5606SOL    HW128451   1.438   2.540   2.259 -1.8593 -1.8579 -1.3266
 5606SOL    HW228452   1.298   2.536   2.255  1.1742 -1.1614  0.3847
 5607SOL     OW28453   0.259   2.583   1.855 -0.3460  0.5298  0.2887
 5607SOL    HW128454   0.268   2.675   1.880 -1.1949  0.4103  1.0520
 5607SOL    HW228455   0.214   2.596   1.772  0.5329  1.4221 -0.0516
 5608SOL     OW28456   3.286   1.805  10.580  0.1953 -0.0821 -0.0388
 5608SOL    HW128457   3.374   1.767  10.582 -0.8801 -2.4315  1.5875
 5608SOL    HW228458   3.304   1.881  10.524 -0.4211  0.6459  0.7747
 5609SOL     OW28459   1.883   4.225   7.720  0.6372 -0.6140  0.1456
 5609SOL    HW128460   1.914   4.285   7.653  1.4002 -0.2220  0.8404
 5609SOL    HW228461   1.792   4.251   7.732  0.4989 -0.5498 -1.0884
 5610SOL     OW28462   1.252   0.200   2.387 -0.0437  0.5888 -0.6117
 5610SOL    HW128463   1.213   0.242   2.464 -1.2055 -0.2174 -0.7576
 5610SOL    HW228464   1.321   0.145   2.425  0.9120  0.8788 -1.9457
 5611SOL     OW28465   4.701   3.752   2.293 -0.2427 -0.5828 -0.3321
 5611SOL    HW128466   0.027   3.824   2.313 -0.1871 -0.7227 -0.0027
 5611SOL    HW228467   4.685   3.761   2.199  1.2837 -2.2530 -0.7536
 5612SOL     OW28468   3.868   3.507  17.383  0.0899 -0.2064 -0.0717
 5612SOL    HW128469   3.830   3.491  17.469  0.0069 -0.6753 -0.1948
 5612SOL    HW228470   3.807   3.465  17.322  0.7858 -1.3104 -0.0138
 5613SOL     OW28471   2.045   2.262   9.920  0.0340 -0.3093  0.3233
 5613SOL    HW128472   2.054   2.280   9.826 -0.2508 -1.9885 -0.0282
 5613SOL    HW228473   2.117   2.317   9.952 -1.1865  0.8368  1.0811
 5614SOL     OW28474   1.001   1.652   7.493  0.3247  0.4104 -0.6589
 5614SOL    HW128475   0.986   1.586   7.426  0.7090  0.4563 -0.7939
 5614SOL    HW228476   0.972   1.607   7.572 -0.3718  1.6022 -0.2406
 5615SOL     OW28477   0.843   2.560   5.625 -0.5634  0.3284  0.2182
 5615SOL    HW128478   0.931   2.593   5.608 -0.8653  1.0827  0.1376
 5615SOL    HW228479   0.859   2.475   5.666  0.9007  0.4366 -0.1217
 5616SOL     OW28480   1.355   1.749   5.048 -0.0244 -0.1212 -0.0063
 5616SOL    HW128481   1.394   1.792   4.971 -1.2841 -0.4931 -0.8350
 5616SOL    HW228482   1.385   1.660   5.029  1.0633  0.5453 -1.4291
 5617SOL     OW28483   4.652   0.026   6.430  0.2883  0.2755 -0.2152
 5617SOL    HW128484   4.700   0.094   6.478  1.3911  0.5988 -1.7921
 5617SOL    HW228485   4.597   0.001   6.505  0.4596 -1.9093 -0.7983
 5618SOL     OW28486   3.871   3.363   7.431 -0.0060  0.0833 -0.5806
 5618SOL    HW128487   3.838   3.452   7.440  0.7943  0.3084  0.1386
 5618SOL    HW228488   3.902   3.347   7.520 -1.8161 -0.3164 -0.0212
 5619SOL     OW28489   3.828   0.078   7.227 -0.3330 -0.5771 -0.2665
 5619SOL    HW128490   3.829   0.040   7.139  1.8343 -1.7688  0.2617
 5619SOL    HW228491   3.876   0.016   7.283 -1.3380 -0.8761  0.2657
 5620SOL     OW28492   3.338   0.342   3.844  0.7512 -0.1682 -0.2954
 5620SOL    HW128493   3.391   0.307   3.773  3.9984  0.3750  1.8296
 5620SOL    HW228494   3.400   0.342   3.917 -0.7108  1.0225  0.9434
 5621SOL     OW28495   2.368   0.446   6.596 -0.1108 -0.6110  0.1327
 5621SOL    HW128496   2.341   0.403   6.677  2.4257  0.0677  1.3271
 5621SOL    HW228497   2.447   0.494   6.622  0.6779 -1.3826 -0.8188
 5622SOL     OW28498   2.576   1.204  10.079  0.3421 -0.0484 -0.1188
 5622SOL    HW128499   2.488   1.186  10.111  1.0397 -1.5838  0.9738
 5622SOL    HW228500   2.609   1.121  10.044  1.0034  1.2515 -2.5548
 5623SOL     OW28501   3.959   1.981  15.444 -0.3597  0.1419  0.4824
 5623SOL    HW128502   4.007   1.942  15.371 -0.2165  0.3521  0.4622
 5623SOL    HW228503   3.880   1.927  15.444 -1.1807  1.3423  2.0687
 5624SOL     OW28504   0.169   2.200   4.301  1.3704  0.1192 -0.1952
 5624SOL    HW128505   0.074   2.190   4.309  1.5832 -0.9825  0.8188
 5624SOL    HW228506   0.195   2.235   4.386  1.2433 -0.5217  0.1048
 5625SOL     OW28507   2.083   1.009   2.475 -0.3188 -0.0173 -0.0783
 5625SOL    HW128508   2.141   1.074   2.436 -0.5153 -0.0398 -0.4172
 5625SOL    HW228509   2.127   0.927   2.453  1.1265  0.5383  0.7352
 5626SOL     OW28510   2.318   4.227   7.130  0.3559  0.3127  0.4942
 5626SOL    HW128511   2.396   4.205   7.180  1.3931  1.2624 -0.6834
 5626SOL    HW228512   2.241   4.178   7.158  0.4058  0.4373  0.8486
 5627SOL     OW28513   0.285   4.356   9.233  0.0924  0.1401 -0.3506
 5627SOL    HW128514   0.270   4.275   9.185  0.1109 -0.0245 -0.0783
 5627SOL    HW228515   0.271   4.424   9.167  1.3731  1.6676  0.9501
 5628SOL     OW28516   4.130   2.270   3.127  0.0525 -0.6952 -0.2208
 5628SOL    HW128517   4.156   2.295   3.215  0.6156 -1.4240 -0.1862
 5628SOL    HW228518   4.207   2.256   3.072 -0.5328 -2.4430 -0.6298
 5629SOL     OW28519   1.353   3.527  15.312 -0.4504  0.0228 -0.2636
 5629SOL    HW128520   1.281   3.492  15.259 -0.3311 -0.2448 -0.2477
 5629SOL    HW228521   1.416   3.498  15.246 -1.3228 -1.5531 -0.3930
 5630SOL     OW28522   2.972   2.159   6.796  0.4013 -0.1780 -0.4029
 5630SOL    HW128523   3.065   2.137   6.802  0.9230  1.9838 -0.5413
 5630SOL    HW228524   2.943   2.080   6.840  0.9411  0.8670  1.8256
 5631SOL     OW28525   1.577   3.496   6.321  0.1403 -0.2691  0.0498
 5631SOL    HW128526   1.508   3.443   6.361 -0.0003  0.7853  1.2058
 5631SOL    HW228527   1.544   3.485   6.232  2.6520 -2.2576 -0.6376
 5632SOL     OW28528   1.919   0.226  11.430 -0.4726  0.6059  0.2843
 5632SOL    HW128529   1.968   0.309  11.426  0.7948  0.0681  3.9659
 5632SOL    HW228530   1.974   0.174  11.489 -0.1127 -0.5918 -1.1119
 5633SOL     OW28531   0.311   1.989  15.210  0.4986 -0.3466 -0.0616
 5633SOL    HW128532   0.312   2.043  15.130 -2.0107  0.3798  0.3904
 5633SOL    HW228533   0.225   1.949  15.197  0.1498  0.5250 -0.4555
 5634SOL     OW28534   4.264   1.454   1.120  0.0517  1.1067 -0.5883
 5634SOL    HW128535   4.197   1.521   1.101 -1.2399  0.3338  1.2046
 5634SOL    HW228536   4.228   1.380   1.072 -0.0116  0.4071  0.5460
 5635SOL     OW28537   2.492   0.177   7.349 -0.3774  0.9873 -0.1197
 5635SOL    HW128538   2.554   0.177   7.277 -0.2588 -0.1780 -0.0127
 5635SOL    HW228539   2.492   0.089   7.387 -2.5896 -0.6649 -3.8826
 5636SOL     OW28540   1.102   2.150   2.258 -0.2306  0.1294 -0.4532
 5636SOL    HW128541   1.169   2.083   2.246  0.9531  1.3600 -0.6630
 5636SOL    HW228542   1.030   2.100   2.221  0.6924 -0.7274 -1.0646
 5637SOL     OW28543   1.568   3.728   4.930 -0.2061 -0.1142  0.2397
 5637SOL    HW128544   1.522   3.759   4.851 -1.1947  2.8002  1.9393
 5637SOL    HW228545   1.540   3.637   4.945 -2.4496  0.3354 -1.1703
 5638SOL     OW28546   4.224   4.217   8.349  0.6236 -0.1149 -0.0436
 5638SOL    HW128547   4.315   4.212   8.319  0.5124  4.2703 -1.1811
 5638SOL    HW228548   4.235   4.266   8.431 -2.0602 -1.3862  1.0499
 5639SOL     OW28549   0.875   4.347   4.506  0.1554  0.3550 -0.3375
 5639SOL    HW128550   0.961   4.311   4.529  0.0313 -0.9975 -1.9164
 5639SOL    HW228551   0.880   4.336   4.411  1.0305 -1.5491 -0.0804
 5640SOL     OW28552   1.124   1.128   4.023  0.2001  0.2159 -0.2898
 5640SOL    HW128553   1.100   1.196   3.961  0.1860 -0.9627 -1.5846
 5640SOL    HW228554   1.072   1.054   3.991 -1.2782  1.3892 -0.6097
 5641SOL     OW28555   1.957   1.939   4.635  0.4040 -0.5947  0.6727
 5641SOL    HW128556   1.971   1.952   4.729 -0.0094  1.5426  0.4270
 5641SOL    HW228557   1.876   1.889   4.644 -0.9485  1.4052 -0.5112
 5642SOL     OW28558   0.859   1.488   8.416  0.4438  0.1133 -0.1562
 5642SOL    HW128559   0.858   1.536   8.334  0.6618 -3.1978 -2.0797
 5642SOL    HW228560   0.794   1.530   8.472 -0.8132 -0.4516 -1.2201
 5643SOL     OW28561   2.445   0.060   8.474  0.1406  0.6677 -0.6087
 5643SOL    HW128562   2.440   4.701   8.489  2.4005  0.4118 -1.4160
 5643SOL    HW228563   2.365   0.082   8.428  0.6292  0.0684 -1.7486
 5644SOL     OW28564   3.880   4.329   7.056 -0.3315  0.2631  0.6059
 5644SOL    HW128565   3.792   4.337   7.092  0.0360  0.5186  1.4517
 5644SOL    HW228566   3.885   4.233   7.049 -0.4879  0.3268 -0.2447
 5645SOL     OW28567   1.536   0.791   8.108 -0.2515  0.8214 -0.3385
 5645SOL    HW128568   1.585   0.871   8.090  1.1466  0.3334  1.2638
 5645SOL    HW228569   1.528   0.794   8.203 -1.0371  1.3408 -0.4216
 5646SOL     OW28570   3.150   3.568   5.705  0.3359  0.6746  0.3158
 5646SOL    HW128571   3.156   3.486   5.656  0.8397  0.9482 -0.0696
 5646SOL    HW228572   3.081   3.617   5.660  0.9205  0.2968 -0.9685
 5647SOL     OW28573   4.382   0.362   5.462 -0.1793 -0.2586  0.3881
 5647SOL    HW128574   4.416   0.312   5.388 -1.7398  2.2286 -2.0133
 5647SOL    HW228575   4.447   0.433   5.463  0.2248 -0.6027 -1.9736
 5648SOL     OW28576   4.089   2.164   7.848 -0.0900 -0.1937 -0.1133
 5648SOL    HW128577   4.034   2.164   7.926  0.0493  1.0068 -0.0105
 5648SOL    HW228578   4.079   2.259   7.833 -1.0919 -0.0813  1.2909
 5649SOL     OW28579   0.701   1.810   3.667 -0.3434  0.1361 -0.4829
 5649SOL    HW128580   0.671   1.860   3.590  0.2264  0.3704 -0.5549
 5649SOL    HW228581   0.793   1.791   3.648 -0.1926 -1.4760  1.9141
 5650SOL     OW28582   3.230   2.828   7.122  0.5469 -0.9143 -0.4279
 5650SOL    HW128583   3.156   2.842   7.064  0.6377  2.6239  0.2849
 5650SOL    HW228584   3.294   2.805   7.055  0.0372 -0.6244 -1.0122
 5651SOL     OW28585   2.460   3.419  12.348  0.2034 -0.4227 -0.1196
 5651SOL    HW128586   2.497   3.391  12.431  1.5685 -1.0711 -0.9605
 5651SOL    HW228587   2.427   3.332  12.324 -2.7973  0.3938  0.9915
 5652SOL     OW28588   0.351   2.964   3.388 -0.1525 -0.1708 -0.5557
 5652SOL    HW128589   0.401   2.933   3.463 -2.0671  0.5471  1.0074
 5652SOL    HW228590   0.423   2.980   3.328  0.0044  0.8913 -0.0830
 5653SOL     OW28591   2.088   4.270   9.281 -0.1030  0.4526  0.3914
 5653SOL    HW128592   2.043   4.348   9.249  1.1670  2.1513  2.7643
 5653SOL    HW228593   2.161   4.308   9.329  0.0099  0.9706 -0.1958
 5654SOL     OW28594   2.850   3.590   6.105  0.3889 -0.1208 -0.0745
 5654SOL    HW128595   2.792   3.650   6.151 -0.0226  0.5685 -1.5132
 5654SOL    HW228596   2.926   3.645   6.087 -0.2742  0.6844 -0.3729
 5655SOL     OW28597   1.336   4.387   5.812 -0.3694 -0.0041 -0.4382
 5655SOL    HW128598   1.429   4.409   5.803  0.2509 -3.2696 -1.8788
 5655SOL    HW228599   1.308   4.452   5.877 -0.4799 -0.8041  0.3125
 5656SOL     OW28600   4.252   2.389  16.174 -0.1189  0.0549  0.1448
 5656SOL    HW128601   4.188   2.325  16.201 -1.5675  0.7710 -1.5936
 5656SOL    HW228602   4.227   2.404  16.083 -1.6025 -0.8342  0.4095
 5657SOL     OW28603   3.553   0.387   6.894  0.0626 -0.4350  0.5961
 5657SOL    HW128604   3.544   0.299   6.856  0.4560 -0.1614 -0.1396
 5657SOL    HW228605   3.518   0.433   6.818  2.3598  0.5811  0.1416
 5658SOL     OW28606   2.493   2.436  10.710 -0.0796  0.0911  0.3804
 5658SOL    HW128607   2.579   2.473  10.732 -0.2284  1.3165 -1.1483
 5658SOL    HW228608   2.464   2.488  10.635 -1.0380 -0.0492  0.6521
 5659SOL     OW28609   1.797   3.190   3.461  0.1064  0.3399  0.0209
 5659SOL    HW128610   1.891   3.208   3.456  0.4242 -1.3765  0.1407
 5659SOL    HW228611   1.801   3.096   3.475  1.2887  0.4420  0.3617
 5660SOL     OW28612   0.735   1.128  15.826  0.2637  0.0515  0.0395
 5660SOL    HW128613   0.791   1.199  15.794 -0.1705  0.2904 -0.2033
 5660SOL    HW228614   0.759   1.115  15.918 -2.3668 -1.9942  0.4453
 5661SOL     OW28615   4.342   4.291   1.790  0.0765  1.0198  0.0402
 5661SOL    HW128616   4.404   4.288   1.862 -0.9642  2.9012  0.9979
 5661SOL    HW228617   4.291   4.370   1.806 -0.8178  0.1202  1.5677
 5662SOL     OW28618   4.730   1.721  11.382  0.4334  0.1383  0.2912
 5662SOL    HW128619   0.021   1.779  11.310 -1.1629 -1.4397 -1.5520
 5662SOL    HW228620   4.670   1.657  11.346  1.2896 -0.2380 -0.4692
 5663SOL     OW28621   1.336   4.422   0.081 -0.1727 -0.4466 -0.0413
 5663SOL    HW128622   1.345   4.470  17.738 -1.4742 -1.0796 -0.5568
 5663SOL    HW228623   1.263   4.365   0.058  0.1104 -0.9368  0.2496
 5664SOL     OW28624   2.958   4.495   2.332 -0.4257  0.5059  0.6412
 5664SOL    HW128625   3.012   4.454   2.399 -1.9344 -0.3307  1.3460
 5664SOL    HW228626   2.889   4.542   2.379 -1.6016  0.6103 -1.1829
 5665SOL     OW28627   4.650   4.168  11.775  0.0916 -0.5285  0.1176
 5665SOL    HW128628   4.650   4.235  11.707  0.0975 -1.1617 -0.5102
 5665SOL    HW228629   4.734   4.192  11.813 -0.7247  2.8846 -0.2616
 5666SOL     OW28630   4.347   3.322   8.371 -0.0564  0.1400  0.1315
 5666SOL    HW128631   4.273   3.277   8.331 -1.0079  0.5062  1.5044
 5666SOL    HW228632   4.313   3.321   8.460 -1.2084  2.3998 -0.3049
 5667SOL     OW28633   1.980   0.570   0.525 -0.1517 -0.0318 -0.0375
 5667SOL    HW128634   1.945   0.493   0.481  0.4326  1.6134 -3.4051
 5667SOL    HW228635   1.960   0.569   0.619  3.0839  2.9016  0.6932
 5668SOL     OW28636   0.770   2.209   5.986  0.3598 -0.2621 -0.3187
 5668SOL    HW128637   0.689   2.197   5.938 -1.1284 -1.1546  2.4588
 5668SOL    HW228638   0.764   2.131   6.041 -0.3486 -0.6778 -0.9882
 5669SOL     OW28639   2.760   3.413  10.684 -0.1164  0.0838 -0.2055
 5669SOL    HW128640   2.702   3.488  10.670 -0.5436 -0.3518 -0.7468
 5669SOL    HW228641   2.821   3.447  10.750 -2.7846  1.1229  1.7420
 5670SOL     OW28642   3.283   1.049  15.485 -0.4792 -0.3648  0.6613
 5670SOL    HW128643   3.317   1.110  15.419  1.8373 -1.1630  1.1031
 5670SOL    HW228644   3.340   0.975  15.463 -1.0894 -0.8065  0.5755
 5671SOL     OW28645   0.323   4.126  14.735  0.0241  0.2449 -0.2447
 5671SOL    HW128646   0.362   4.044  14.766  1.0106  1.8398  2.6657
 5671SOL    HW228647   0.345   4.128  14.642  1.7347  0.0447  0.1703
 5672SOL     OW28648   0.914   2.753   7.119 -0.5496 -0.1040  0.7265
 5672SOL    HW128649   1.000   2.767   7.077 -0.8216  0.1480  0.2564
 5672SOL    HW228650   0.865   2.716   7.046  1.2297 -1.9420  0.4560
 5673SOL     OW28651   2.370   2.838   6.847 -0.4503 -0.1863 -0.0877
 5673SOL    HW128652   2.369   2.750   6.810  1.6790  0.0460 -0.7136
 5673SOL    HW228653   2.401   2.871   6.763 -1.1104 -2.3954 -1.1948
 5674SOL     OW28654   0.483   4.206   9.375  0.4445 -0.2743 -0.0078
 5674SOL    HW128655   0.454   4.221   9.465  0.2696 -0.2782 -0.0640
 5674SOL    HW228656   0.424   4.270   9.334 -1.3023  0.2368  3.3139
 5675SOL     OW28657   0.394   2.237   1.185 -0.0176 -0.5549  0.0863
 5675SOL    HW128658   0.306   2.261   1.155 -0.2613  0.1043  1.3323
 5675SOL    HW228659   0.441   2.319   1.174 -2.7439  0.9227 -0.4890
 5676SOL     OW28660   1.644   0.911   7.294  0.4329  0.1978 -0.0168
 5676SOL    HW128661   1.568   0.969   7.294  0.5252  0.2832 -2.5545
 5676SOL    HW228662   1.664   0.900   7.201 -1.0371  0.7117 -0.3874
 5677SOL     OW28663   2.116   2.622   3.933 -0.0612 -0.0604  0.6149
 5677SOL    HW128664   2.105   2.547   3.991  0.8494 -0.5963  0.0862
 5677SOL    HW228665   2.055   2.683   3.975 -0.6257  0.7371 -1.3872
 5678SOL     OW28666   3.346   3.846   8.232  0.5058 -0.0436 -0.1739
 5678SOL    HW128667   3.255   3.816   8.234  0.5883 -0.4233 -2.1210
 5678SOL    HW228668   3.332   3.935   8.265 -2.2142 -1.0148  1.3233
 5679SOL     OW28669   3.815   4.398   6.072 -0.0271  0.8069  0.6229
 5679SOL    HW128670   3.908   4.381   6.061 -0.0012  0.2329  1.7095
 5679SOL    HW228671   3.766   4.404   5.990  0.2640 -0.8131  0.3242
 5680SOL     OW28672   1.447   2.270  10.871 -0.1095 -0.5188  0.0985
 5680SOL    HW128673   1.449   2.267  10.775  0.4317  0.5817  0.0788
 5680SOL    HW228674   1.404   2.355  10.882  0.7931  0.0710 -0.9061
 5681SOL     OW28675   4.185   0.721   3.671 -0.2404  1.0639  0.6737
 5681SOL    HW128676   4.180   0.811   3.703 -0.8238  1.4803 -0.5878
 5681SOL    HW228677   4.265   0.684   3.709 -1.2941 -2.1759 -0.2903
 5682SOL     OW28678   0.833   3.948   1.991  0.0989 -0.2628  0.1742
 5682SOL    HW128679   0.909   3.914   1.944 -0.9414 -0.2634 -1.5066
 5682SOL    HW228680   0.868   3.998   2.065  0.6800  1.0660 -0.9842
 5683SOL     OW28681   4.702   0.325  17.318  0.0492  0.4563 -0.3032
 5683SOL    HW128682   0.056   0.298  17.340  0.5724  1.8635 -0.6613
 5683SOL    HW228683   4.727   0.348  17.228  1.6374 -3.5146 -0.8552
 5684SOL     OW28684   2.924   2.614   0.502 -0.0331  0.0362 -0.1396
 5684SOL    HW128685   2.861   2.600   0.572  1.1452  1.4745  1.2090
 5684SOL    HW228686   2.996   2.553   0.517  0.9958  1.3692  0.4327
 5685SOL     OW28687   2.533   4.030   1.832 -0.1004  0.1626  0.0146
 5685SOL    HW128688   2.486   3.994   1.757  0.5644 -0.4842 -0.0960
 5685SOL    HW228689   2.623   3.998   1.827  0.1943  0.7046  1.8154
 5686SOL     OW28690   3.425   4.385   2.394  0.1919 -0.1325 -0.1990
 5686SOL    HW128691   3.347   4.370   2.447  0.1457  1.3208  0.1422
 5686SOL    HW228692   3.421   4.477   2.369  1.0395  0.4313  1.7589
 5687SOL     OW28693   2.176   3.641  16.248 -0.2228  0.0737 -0.2722
 5687SOL    HW128694   2.151   3.698  16.175 -0.0700 -0.9690 -1.1424
 5687SOL    HW228695   2.133   3.693  16.316  0.2103 -0.6987  0.5942
 5688SOL     OW28696   1.049   0.273   6.228  0.5848 -0.0788 -0.1918
 5688SOL    HW128697   1.054   0.356   6.181 -1.5936 -1.0545 -2.1381
 5688SOL    HW228698   1.091   0.217   6.162  0.8287  2.5491 -2.2394
 5689SOL     OW28699   3.094   1.140   2.174  0.0109  0.3919 -0.4512
 5689SOL    HW128700   3.132   1.185   2.098 -1.5283  0.8645 -0.9426
 5689SOL    HW228701   3.000   1.147   2.156 -0.0299 -0.1488 -0.4474
 5690SOL     OW28702   0.657   2.320   6.769 -0.0962  0.0685  0.2095
 5690SOL    HW128703   0.732   2.314   6.828 -0.1071  0.3051  0.2478
 5690SOL    HW228704   0.693   2.347   6.685 -2.3209 -2.8512 -1.6523
 5691SOL     OW28705   0.469   2.036  11.224  0.2151  0.2006 -0.3511
 5691SOL    HW128706   0.429   1.949  11.232  0.7162 -0.0734 -0.7805
 5691SOL    HW228707   0.528   2.018  11.151 -3.2352  0.1602 -3.1381
 5692SOL     OW28708   1.861   1.603   6.058 -0.3339 -0.6442 -0.1816
 5692SOL    HW128709   1.845   1.537   6.126  1.4324 -1.2767 -0.3839
 5692SOL    HW228710   1.813   1.670   6.107 -0.9705 -0.9929 -0.3270
 5693SOL     OW28711   0.229   2.840   5.793 -0.7649 -0.5536  0.1128
 5693SOL    HW128712   0.155   2.837   5.732 -0.3365  1.2250 -0.4949
 5693SOL    HW228713   0.228   2.931   5.824 -2.2520 -0.2167 -0.9018
 5694SOL     OW28714   4.591   1.693   2.720  0.0894  0.0885  0.2891
 5694SOL    HW128715   4.675   1.648   2.716  0.5640  1.2031 -2.5394
 5694SOL    HW228716   4.566   1.694   2.627 -1.8305 -0.3058  0.8111
 5695SOL     OW28717   2.539   0.488  11.759  0.6015  0.0830  0.2191
 5695SOL    HW128718   2.495   0.444  11.832 -0.4860  0.3295 -0.2851
 5695SOL    HW228719   2.464   0.495  11.700  2.5511  0.8227 -2.1835
 5696SOL     OW28720   0.606   3.502   1.756  0.4125  0.4139 -0.1790
 5696SOL    HW128721   0.668   3.464   1.819  1.2763 -2.3599 -2.7031
 5696SOL    HW228722   0.656   3.531   1.680 -0.2501  1.9954 -0.0050
 5697SOL     OW28723   0.104   2.612   1.628 -0.6390 -0.3511 -0.0299
 5697SOL    HW128724   0.133   2.697   1.594  1.6397 -0.1977  2.2812
 5697SOL    HW228725   0.130   2.556   1.556  2.6768  1.9617 -0.6249
 5698SOL     OW28726   4.413   3.696   9.485  0.2222 -0.3789 -0.3658
 5698SOL    HW128727   4.351   3.766   9.463 -1.6872 -1.7905  0.5508
 5698SOL    HW228728   4.357   3.625   9.454  0.6390 -0.9226  0.1292
 5699SOL     OW28729   2.877   1.684   8.550 -0.3139 -0.0644 -0.1437
 5699SOL    HW128730   2.784   1.673   8.569 -0.1862  1.8003  1.6162
 5699SOL    HW228731   2.912   1.610   8.599 -2.5440 -1.2096 -0.3302
 5700SOL     OW28732   0.356   3.044   3.717 -0.1070  0.3924 -0.4554
 5700SOL    HW128733   0.272   3.026   3.758  0.3447  2.7779  1.4992
 5700SOL    HW228734   0.363   2.963   3.666 -1.4139  1.0091 -1.6095
 5701SOL     OW28735   3.629   3.754   2.129  0.0295 -0.1973 -0.4230
 5701SOL    HW128736   3.652   3.847   2.130 -1.1801  0.0886  0.2426
 5701SOL    HW228737   3.702   3.699   2.158  1.8680  2.4888  0.0960
 5702SOL     OW28738   4.515   4.551   4.567 -0.4194  0.1431 -0.5561
 5702SOL    HW128739   4.463   4.502   4.503 -2.6224  0.7617  0.7892
 5702SOL    HW228740   4.449   4.606   4.608  2.2834  0.2011  3.7672
 5703SOL     OW28741   4.491   1.031   4.214 -0.3802  0.6111 -0.2088
 5703SOL    HW128742   4.562   1.031   4.278 -0.6553  0.3815  0.0963
 5703SOL    HW228743   4.435   1.100   4.248 -0.2143 -0.3284  1.9920
 5704SOL     OW28744   0.802   0.291   3.266  0.0164 -0.3599 -0.2515
 5704SOL    HW128745   0.877   0.236   3.243  0.1513 -1.4778  2.8281
 5704SOL    HW228746   0.772   0.307   3.177 -2.4578 -0.1608  0.6269
 5705SOL     OW28747   3.418   0.391   6.645 -0.4116  0.4575 -0.1202
 5705SOL    HW128748   3.364   0.319   6.613  2.1090 -1.6601  0.3902
 5705SOL    HW228749   3.385   0.460   6.587  0.8080  1.4169  0.3157
 5706SOL     OW28750   0.339   1.331   2.413  0.1147 -0.3358  0.0729
 5706SOL    HW128751   0.402   1.258   2.408  0.4811  0.0125 -0.3602
 5706SOL    HW228752   0.375   1.367   2.494  0.5174  1.7309 -1.0455
 5707SOL     OW28753   3.852   2.232  13.542 -0.3063 -0.4322 -0.7714
 5707SOL    HW128754   3.820   2.142  13.551  2.7533 -1.4434 -0.2309
 5707SOL    HW228755   3.832   2.239  13.449  0.8062 -4.1620 -1.2973
 5708SOL     OW28756   3.044   1.619   4.734 -0.0903  0.1650  0.3199
 5708SOL    HW128757   2.970   1.677   4.718  0.9805  0.4752 -3.5641
 5708SOL    HW228758   3.038   1.612   4.829 -0.3674 -1.1983  0.1950
 5709SOL     OW28759   2.819   1.726   9.352  0.0034 -0.1603  0.2750
 5709SOL    HW128760   2.782   1.638   9.348 -3.0687  1.0074  2.4268
 5709SOL    HW228761   2.858   1.736   9.265  0.0810  2.4662  0.5907
 5710SOL     OW28762   3.857   0.453   5.775 -0.3770 -0.5083 -0.3921
 5710SOL    HW128763   3.847   0.372   5.726  0.2070 -0.2219 -0.9674
 5710SOL    HW228764   3.836   0.512   5.703  1.5602  1.1027  0.3572
 5711SOL     OW28765   2.749   2.513   6.268  0.2957 -0.0999 -0.2126
 5711SOL    HW128766   2.682   2.551   6.324  0.0407  0.5300 -0.9308
 5711SOL    HW228767   2.794   2.459   6.332  2.0529 -0.3266 -1.6141
 5712SOL     OW28768   2.319   0.841   5.364  0.2425  0.0187 -0.2540
 5712SOL    HW128769   2.319   0.935   5.352 -0.7604  0.0806  0.2182
 5712SOL    HW228770   2.410   0.821   5.386  0.4868  0.0801 -1.2184
 5713SOL     OW28771   1.349   1.157   7.743  0.0288  0.1501  0.5973
 5713SOL    HW128772   1.307   1.129   7.825  0.8412 -1.4411  0.4715
 5713SOL    HW228773   1.322   1.091   7.679 -1.7364  2.4756 -1.0496
 5714SOL     OW28774   3.888   4.376   8.459  0.0830  0.0591  0.3215
 5714SOL    HW128775   3.836   4.456   8.462 -0.5621 -0.3276 -0.7821
 5714SOL    HW228776   3.882   4.342   8.549 -2.2371 -1.3025 -0.3578
 5715SOL     OW28777   2.008   2.442  13.057 -0.3552 -0.3482 -0.1454
 5715SOL    HW128778   2.096   2.405  13.060 -1.2035 -2.3143  0.3831
 5715SOL    HW228779   2.024   2.533  13.084  1.2015 -0.9750  0.9804
 5716SOL     OW28780   0.331   1.761  14.545 -0.4457  0.3086  0.2413
 5716SOL    HW128781   0.341   1.766  14.640  0.5224  0.6484  0.1276
 5716SOL    HW228782   0.241   1.794  14.544 -1.1515 -1.6246  1.7582
 5717SOL     OW28783   2.784   1.794   3.655  0.5126 -0.1911  0.0120
 5717SOL    HW128784   2.865   1.772   3.608  0.4712  0.8901 -0.5539
 5717SOL    HW228785   2.773   1.714   3.707 -0.4617 -0.7091 -0.9907
 5718SOL     OW28786   1.323   0.520   9.962  0.3633  0.6750  0.3949
 5718SOL    HW128787   1.286   0.484   9.881 -3.8352  2.2656  1.6043
 5718SOL    HW228788   1.346   0.608   9.934  0.8033 -0.4698 -2.8607
 5719SOL     OW28789   2.526   0.910   3.649 -0.3423  0.4979  0.0253
 5719SOL    HW128790   2.500   0.818   3.661  1.4180  0.4019  3.1680
 5719SOL    HW228791   2.465   0.941   3.716 -0.9904  0.8393 -0.7274
 5720SOL     OW28792   4.544   4.372  11.585 -0.3968  0.5428  0.4537
 5720SOL    HW128793   4.577   4.461  11.586 -1.9299  1.1196  0.1639
 5720SOL    HW228794   4.461   4.392  11.629  0.0682 -1.3869  2.2248
 5721SOL     OW28795   2.702   2.691   5.932 -0.2274 -0.7479  0.7232
 5721SOL    HW128796   2.629   2.751   5.941  0.5850  0.6265 -1.6099
 5721SOL    HW228797   2.764   2.726   5.996  2.0334  0.4908 -2.1015
 5722SOL     OW28798   2.223   1.124   0.607 -0.6187 -0.0075 -0.6550
 5722SOL    HW128799   2.214   1.084   0.521 -2.7323  0.0575 -0.4768
 5722SOL    HW228800   2.317   1.111   0.619 -0.5846  1.7949  0.9378
 5723SOL     OW28801   2.832   0.391   3.891  0.4317 -0.5187  0.4196
 5723SOL    HW128802   2.905   0.336   3.864  1.7492  1.8067 -0.7403
 5723SOL    HW228803   2.779   0.393   3.811  0.6462  0.1408  0.2910
 5724SOL     OW28804   4.445   3.582   7.697 -0.2850  0.6588 -0.5847
 5724SOL    HW128805   4.505   3.652   7.670  1.2138 -0.4878 -0.2611
 5724SOL    HW228806   4.434   3.606   7.789  0.0151 -0.6380 -0.2017
 5725SOL     OW28807   2.152   3.746   8.898  0.0264  0.5318 -0.1662
 5725SOL    HW128808   2.110   3.677   8.847 -1.3121  1.0261  0.2774
 5725SOL    HW228809   2.225   3.779   8.845  0.3820 -0.0403 -0.0288
 5726SOL     OW28810   0.285   1.586   2.334  0.1376 -0.1868  0.1142
 5726SOL    HW128811   0.284   1.495   2.364  1.1830 -0.5483 -0.9780
 5726SOL    HW228812   0.192   1.591   2.313  0.4063 -1.1090 -1.2665
 5727SOL     OW28813   1.823   0.034   9.722 -0.0321  0.4521  0.5084
 5727SOL    HW128814   1.848   0.124   9.701  0.9479 -0.1263 -0.8170
 5727SOL    HW228815   1.767   0.043   9.799 -0.1348  0.6066  0.4162
 5728SOL     OW28816   1.499   1.228   9.724 -0.1708 -0.0623 -0.2322
 5728SOL    HW128817   1.544   1.268   9.798  1.3327 -0.8043 -0.7430
 5728SOL    HW228818   1.415   1.205   9.763  0.3871  0.9011  1.5137
 5729SOL     OW28819   1.353   3.749  12.200 -0.7649  0.2521  0.5898
 5729SOL    HW128820   1.304   3.831  12.193 -1.3151 -0.2414 -1.3476
 5729SOL    HW228821   1.286   3.681  12.197 -0.2270 -0.2168 -0.8120
 5730SOL     OW28822   2.257   1.797  13.830 -0.4069 -0.4683  0.1174
 5730SOL    HW128823   2.185   1.737  13.849  0.2621 -0.6877  2.0381
 5730SOL    HW228824   2.215   1.840  13.755  4.1065 -0.1375 -2.2098
 5731SOL     OW28825   1.839   2.917   3.071 -0.1939 -0.0864  0.6137
 5731SOL    HW128826   1.773   2.898   3.004  2.3341  0.5309 -2.0254
 5731SOL    HW228827   1.915   2.866   3.044 -0.9115  0.3979 -2.3965
 5732SOL     OW28828   4.494   3.310   8.140 -0.1426  0.1679  0.1937
 5732SOL    HW128829   4.426   3.341   8.080 -0.3630  0.3689  0.5439
 5732SOL    HW228830   4.468   3.358   8.219  1.0682  2.6183 -0.9484
 5733SOL     OW28831   1.925   2.029   9.327 -0.1415 -0.0416  0.9081
 5733SOL    HW128832   1.874   1.970   9.272  0.1585  0.2413  0.3212
 5733SOL    HW228833   1.881   2.024   9.412 -2.8804  0.4660 -0.5028
 5734SOL     OW28834   3.596   1.067   6.511 -0.0597 -0.1574  0.0560
 5734SOL    HW128835   3.538   1.046   6.584  0.8276  0.0619  0.8292
 5734SOL    HW228836   3.652   0.989   6.504 -0.7340 -0.3467 -3.0467
 5735SOL     OW28837   2.134   1.448  12.771 -0.1949  0.0843 -0.1895
 5735SOL    HW128838   2.112   1.357  12.750 -1.4960  0.7729 -1.9181
 5735SOL    HW228839   2.223   1.427  12.797 -0.0255 -0.9531 -1.5977
 5736SOL     OW28840   2.195   2.870   5.505 -0.1099 -0.2764  0.7924
 5736SOL    HW128841   2.253   2.797   5.529  0.0245 -0.5871 -0.4904
 5736SOL    HW228842   2.235   2.942   5.553  1.5287 -1.5764  1.3730
 5737SOL     OW28843   4.260   4.710   6.392  0.0364 -0.1079  0.0694
 5737SOL    HW128844   4.181   4.683   6.439 -1.2800 -0.0765 -2.1315
 5737SOL    HW228845   4.299   4.623   6.378  2.1855  0.7968  0.5353
 5738SOL     OW28846   1.944   2.753  10.276 -0.7198  0.3334  0.3592
 5738SOL    HW128847   1.908   2.829  10.230  1.0751 -0.7372 -2.8512
 5738SOL    HW228848   1.998   2.799  10.341  0.9350 -0.9320 -0.1252
 5739SOL     OW28849   3.728   1.592   4.362  0.1054 -0.1352  0.4700
 5739SOL    HW128850   3.779   1.514   4.382  1.4911  0.6631  0.0181
 5739SOL    HW228851   3.694   1.574   4.275 -0.2588 -0.0392  0.5904
 5740SOL     OW28852   2.906   2.110   7.797  0.7613  0.4092  0.2370
 5740SOL    HW128853   2.979   2.124   7.738  0.8084  1.6627  0.5898
 5740SOL    HW228854   2.847   2.184   7.780 -1.6478 -2.0584 -2.2225
 5741SOL     OW28855   0.474   4.459   5.469 -0.0652 -0.4586 -0.1654
 5741SOL    HW128856   0.418   4.446   5.392 -0.6322  1.4219 -0.0840
 5741SOL    HW228857   0.513   4.540   5.435  0.4466 -0.2624  0.9221
 5742SOL     OW28858   1.240   4.557   6.881  0.5476  0.0829  0.0014
 5742SOL    HW128859   1.146   4.545   6.864  0.5931  0.0107 -0.1928
 5742SOL    HW228860   1.273   4.530   6.796  1.2176 -3.0875  1.2642
 5743SOL     OW28861   3.842   2.907  13.734 -0.0093  0.5108 -0.3489
 5743SOL    HW128862   3.784   2.853  13.680 -0.0347  2.1954 -2.0434
 5743SOL    HW228863   3.813   2.887  13.822  1.1696  0.5309  0.0385
 5744SOL     OW28864   2.372   3.807   5.635 -0.4092 -0.4875 -0.0998
 5744SOL    HW128865   2.355   3.872   5.568 -0.1689  0.1907  0.4969
 5744SOL    HW228866   2.308   3.839   5.698 -1.9553 -0.3175 -1.7507
 5745SOL     OW28867   0.110   3.504   4.885  0.0287  0.1043  0.2107
 5745SOL    HW128868   0.118   3.495   4.980  1.2160 -0.1075  0.0961
 5745SOL    HW228869   0.151   3.590   4.872 -0.4119  0.1978 -0.5247
 5746SOL     OW28870   3.108   4.542  16.295  0.2280  0.0944  0.5316
 5746SOL    HW128871   3.133   4.631  16.269  2.3018 -0.5572  0.2883
 5746SOL    HW228872   3.155   4.487  16.232  0.9153 -2.3055  3.1198
 5747SOL     OW28873   2.192   0.919   2.066  0.0899  0.3982 -0.3602
 5747SOL    HW128874   2.265   0.871   2.026  0.2046  0.3393 -0.0751
 5747SOL    HW228875   2.214   0.910   2.158 -0.8551  0.8282 -0.0948
 5748SOL     OW28876   3.742   3.373  13.446 -0.1623  0.2544 -0.2805
 5748SOL    HW128877   3.745   3.284  13.480 -2.2002  0.2839 -0.0509
 5748SOL    HW228878   3.697   3.376  13.362 -0.8654  4.2511  0.2227
 5749SOL     OW28879   0.585   4.302   2.895 -0.5661 -0.0017  0.0627
 5749SOL    HW128880   0.516   4.369   2.902  0.4651  1.1526 -0.8146
 5749SOL    HW228881   0.634   4.338   2.821 -0.9588 -2.2582 -1.2930
 5750SOL     OW28882   2.304   0.702   6.493  0.0543  0.2145  0.4061
 5750SOL    HW128883   2.327   0.610   6.500  0.3217  0.0282 -2.7407
 5750SOL    HW228884   2.248   0.708   6.570  0.2373  2.3818  0.3754
 5751SOL     OW28885   1.365   0.818   8.862 -0.0942  0.0748 -0.0942
 5751SOL    HW128886   1.341   0.742   8.810 -0.6093  0.7247 -0.7984
 5751SOL    HW228887   1.281   0.862   8.848  0.1573  0.1644 -1.3393
 5752SOL     OW28888   3.491   2.118   3.984 -0.7254 -0.0141 -0.8376
 5752SOL    HW128889   3.434   2.048   4.016  0.4411  0.2905  2.0029
 5752SOL    HW228890   3.516   2.081   3.899 -1.3275  0.7516 -1.3403
 5753SOL     OW28891   0.067   1.938   3.207 -0.0692 -0.1489  0.2865
 5753SOL    HW128892   4.712   1.919   3.234  0.2303 -1.2949  0.4389
 5753SOL    HW228893   0.058   2.022   3.160 -1.3102  0.3834  1.4827
 5754SOL     OW28894   2.340   0.309   6.887 -0.1543  0.0435 -0.0511
 5754SOL    HW128895   2.276   0.247   6.921  0.0902  1.3410  2.8120
 5754SOL    HW228896   2.311   0.390   6.930 -2.3370  0.1032 -1.6686
 5755SOL     OW28897   2.303   0.112   4.811 -0.5213  0.1671 -0.6301
 5755SOL    HW128898   2.342   0.027   4.830 -1.4505  0.1304  1.0880
 5755SOL    HW228899   2.274   0.140   4.898  0.0344  0.4251 -0.5213
 5756SOL     OW28900   3.132   4.242   2.772 -0.1000 -0.0576 -0.1373
 5756SOL    HW128901   3.116   4.159   2.817 -3.7875  0.1377 -1.0492
 5756SOL    HW228902   3.187   4.306   2.818 -1.9219  0.2072  1.6615
 5757SOL     OW28903   1.123   3.533   3.095  0.6579 -0.5410 -0.0385
 5757SOL    HW128904   1.113   3.574   3.009  0.8865 -1.2139 -0.3834
 5757SOL    HW228905   1.208   3.569   3.121  0.8693 -0.3515 -1.0077
 5758SOL     OW28906   3.389   3.824   7.088 -0.2659  0.1874 -0.5310
 5758SOL    HW128907   3.386   3.917   7.109  3.7646  0.0112  0.7224
 5758SOL    HW228908   3.425   3.780   7.165  0.3972  1.5015 -0.0924
 5759SOL     OW28909   2.365   4.482   4.359 -0.2634  0.2817 -0.4585
 5759SOL    HW128910   2.311   4.543   4.410  1.6225 -0.4751  2.4183
 5759SOL    HW228911   2.320   4.495   4.275 -2.1244 -0.3074  0.4511
 5760SOL     OW28912   4.126   3.076   2.455 -0.5279  0.2488 -0.0042
 5760SOL    HW128913   4.188   3.104   2.523 -1.4247 -1.1727  1.3862
 5760SOL    HW228914   4.141   3.137   2.382  0.8393 -1.4120 -1.0856
 5761SOL     OW28915   0.590   0.445   6.421  0.1629 -0.0182 -0.2597
 5761SOL    HW128916   0.500   0.475   6.414  0.6968  1.7908  0.5693
 5761SOL    HW228917   0.625   0.508   6.485  1.5240 -0.0598 -0.9567
 5762SOL     OW28918   1.799   0.177   6.850 -0.5883 -0.0289  0.2282
 5762SOL    HW128919   1.844   0.255   6.880 -0.3056 -0.3233  0.5605
 5762SOL    HW228920   1.797   0.200   6.757 -0.2662  0.2731  0.2986
 5763SOL     OW28921   2.719   0.936   5.858 -0.3022  0.0666 -0.4973
 5763SOL    HW128922   2.797   0.991   5.870  0.6128 -1.1450 -0.8548
 5763SOL    HW228923   2.769   0.856   5.874 -0.4590  0.3990  1.6541
 5764SOL     OW28924   1.368   3.540   8.178 -0.3614  0.8359  0.2066
 5764SOL    HW128925   1.356   3.624   8.222 -1.7178 -1.3278  3.8863
 5764SOL    HW228926   1.416   3.492   8.245  1.3184  1.4474 -0.5569
 5765SOL     OW28927   3.864   4.546   0.655 -0.2360  0.2424 -0.0473
 5765SOL    HW128928   3.813   4.474   0.618 -2.0397  1.0133  0.9274
 5765SOL    HW228929   3.903   4.582   0.576  2.2461  1.1291  1.5779
 5766SOL     OW28930   2.233   0.596   5.253 -0.3423 -0.1803 -0.2847
 5766SOL    HW128931   2.281   0.646   5.319 -0.4481  1.8872 -1.7731
 5766SOL    HW228932   2.286   0.629   5.180 -1.0555  2.2937  0.3272
 5767SOL     OW28933   1.099   4.368   6.556  0.0503  0.2478  0.2963
 5767SOL    HW128934   1.078   4.301   6.621  1.8315  0.0689  0.6819
 5767SOL    HW228935   1.016   4.369   6.509 -0.2355 -1.5284  0.7605
 5768SOL     OW28936   0.426   4.545  13.085  0.1061 -0.1505  0.0274
 5768SOL    HW128937   0.354   4.535  13.148 -1.2773  0.1020 -1.5076
 5768SOL    HW228938   0.497   4.578  13.140  1.8785 -2.9346 -0.5916
 5769SOL     OW28939   0.468   2.878   9.817  0.1610 -0.2962 -0.8748
 5769SOL    HW128940   0.440   2.907   9.904  2.8221 -0.0718 -0.1070
 5769SOL    HW228941   0.464   2.965   9.777 -1.7280  0.4483  0.9169
 5770SOL     OW28942   3.163   4.367   8.633 -0.3756  0.0893 -1.1258
 5770SOL    HW128943   3.092   4.358   8.571 -1.3244 -0.0207 -0.0268
 5770SOL    HW228944   3.145   4.460   8.650  1.1552 -0.1698  1.9188
 5771SOL     OW28945   0.280   3.843   2.150  0.8579 -0.6232 -0.3569
 5771SOL    HW128946   0.355   3.846   2.210  1.6086  2.3242 -1.4038
 5771SOL    HW228947   0.272   3.748   2.143 -1.5989 -0.5359  1.5891
 5772SOL     OW28948   0.324   0.535  14.440 -0.0776  0.1387  0.6203
 5772SOL    HW128949   0.338   0.520  14.533  0.8045 -1.4053  0.2353
 5772SOL    HW228950   0.329   0.443  14.416 -0.8108  0.7552 -1.9275
 5773SOL     OW28951   0.898   4.144   9.162 -0.3423 -0.2508 -0.0039
 5773SOL    HW128952   0.840   4.071   9.140  0.4753 -1.3479  1.4903
 5773SOL    HW228953   0.854   4.193   9.231  1.2551  1.9273 -0.5012
 5774SOL     OW28954   1.902   4.579   6.873  0.3020  0.4880 -0.3878
 5774SOL    HW128955   1.938   4.588   6.784 -1.0105  2.9196 -0.6713
 5774SOL    HW228956   1.813   4.610   6.859  0.1609  0.8276  1.3105
 5775SOL     OW28957   0.854   4.044   2.357  0.1952 -0.1019  0.4116
 5775SOL    HW128958   0.792   4.109   2.324 -1.3275 -1.7531  0.0106
 5775SOL    HW228959   0.808   4.013   2.435  1.1502 -1.4601  0.4401
 5776SOL     OW28960   2.283   2.362  12.793 -0.4732  0.1298  0.6506
 5776SOL    HW128961   2.260   2.451  12.820 -0.3689  0.6663 -1.0285
 5776SOL    HW228962   2.239   2.349  12.709  2.0470  0.6116 -0.7512
 5777SOL     OW28963   3.785   2.703   7.543  0.6032  0.4725 -0.0561
 5777SOL    HW128964   3.752   2.731   7.628 -1.9188  2.7764 -1.7899
 5777SOL    HW228965   3.727   2.628   7.530 -0.1195  1.3131 -1.6663
 5778SOL     OW28966   3.423   1.794   8.929 -0.3063  0.1144  0.1942
 5778SOL    HW128967   3.415   1.741   9.008  0.4917 -0.8947 -0.4024
 5778SOL    HW228968   3.340   1.842   8.935  0.8952  2.3429 -0.9364
 5779SOL     OW28969   4.036   2.927   3.214 -0.4921 -0.2286 -0.0777
 5779SOL    HW128970   4.005   3.016   3.197 -0.0193 -0.4179 -1.9820
 5779SOL    HW228971   3.970   2.885   3.268 -1.9710  0.5275 -1.2876
 5780SOL     OW28972   0.425   1.236  14.402  0.2961 -0.2671 -0.0775
 5780SOL    HW128973   0.382   1.319  14.383  0.4035  0.2270  1.7670
 5780SOL    HW228974   0.371   1.171  14.358  0.8695 -0.7454 -0.0727
 5781SOL     OW28975   2.187   0.722   6.227  0.3835 -0.0615  0.2002
 5781SOL    HW128976   2.202   0.707   6.321  2.7954  0.3075 -0.1162
 5781SOL    HW228977   2.201   0.817   6.220  1.6141 -0.3443 -1.2113
 5782SOL     OW28978   4.386   3.842   6.117  1.1632 -0.1226  0.3313
 5782SOL    HW128979   4.365   3.758   6.074  0.5860  0.2235 -0.0601
 5782SOL    HW228980   4.477   3.844   6.088  0.9605 -0.8950 -0.3577
 5783SOL     OW28981   1.307   3.796   5.472 -0.7300 -0.2552  0.2758
 5783SOL    HW128982   1.401   3.780   5.465 -0.9238 -1.6153  0.9790
 5783SOL    HW228983   1.272   3.708   5.477  1.5535 -1.2199 -0.6289
 5784SOL     OW28984   4.621   1.174   5.782 -0.1957 -0.3618  0.2290
 5784SOL    HW128985   4.554   1.166   5.850 -1.0279  5.6357  0.1692
 5784SOL    HW228986   4.669   1.096   5.807 -1.6308 -1.6918 -1.1594
 5785SOL     OW28987   2.725   3.705   3.932  0.1060  0.4621 -0.6762
 5785SOL    HW128988   2.772   3.772   3.882 -2.4767  0.6295 -2.8672
 5785SOL    HW228989   2.772   3.622   3.924 -1.3587 -0.2559 -1.7181
 5786SOL     OW28990   0.158   4.496   1.145 -0.7333 -0.3020  0.4302
 5786SOL    HW128991   0.147   4.494   1.240  1.8170  2.7106  0.8039
 5786SOL    HW228992   0.208   4.415   1.140 -0.5498 -0.2067  0.7308
 5787SOL     OW28993   2.388   3.332   4.779  0.2990  0.9937  0.0245
 5787SOL    HW128994   2.386   3.356   4.687  1.3238  1.2358  0.0628
 5787SOL    HW228995   2.342   3.405   4.820  0.9222  1.5084 -0.1894
 5788SOL     OW28996   4.172   0.901   7.906 -0.9680  0.0474  0.0970
 5788SOL    HW128997   4.109   0.840   7.866  0.4781  1.4976 -4.4531
 5788SOL    HW228998   4.243   0.836   7.905 -1.1120 -0.0891 -1.3294
 5789SOL     OW28999   4.523   3.776   5.332 -0.1018 -0.0717 -0.4080
 5789SOL    HW129000   4.452   3.791   5.270  0.6340 -4.3344 -2.2609
 5789SOL    HW229001   4.547   3.687   5.306  1.8106  0.3404 -0.1102
 5790SOL     OW29002   0.693   4.537   6.852 -0.3868 -0.0555  0.3208
 5790SOL    HW129003   0.631   4.589   6.801 -1.5205 -0.0956  1.6538
 5790SOL    HW229004   0.642   4.461   6.879 -0.1654  0.1539  1.3317
 5791SOL     OW29005   0.889   4.674   7.303 -0.3282 -0.2749 -0.3954
 5791SOL    HW129006   0.833   4.599   7.321  0.6219 -1.1639 -1.1732
 5791SOL    HW229007   0.970   4.628   7.284 -0.5924  0.1490 -2.5113
 5792SOL     OW29008   1.002   2.976   1.555  0.1003 -0.1347 -0.0787
 5792SOL    HW129009   0.924   3.030   1.556  1.3990  1.7485 -1.6455
 5792SOL    HW229010   0.984   2.912   1.486 -0.1160 -0.6922  0.4882
 5793SOL     OW29011   1.619   3.690   7.580 -0.1435 -0.0750 -0.1776
 5793SOL    HW129012   1.540   3.638   7.583 -1.6684  2.2686  0.4286
 5793SOL    HW229013   1.600   3.758   7.644 -0.9919 -0.5085  0.0197
 5794SOL     OW29014   4.711   0.257   6.259  1.0686 -0.1134 -0.6844
 5794SOL    HW129015   4.668   0.247   6.344 -0.0824  0.1389 -1.2399
 5794SOL    HW229016   4.713   0.164   6.236  3.3998 -0.4714  0.8891
 5795SOL     OW29017   2.228   1.783   9.346  0.8421 -0.1749  0.0041
 5795SOL    HW129018   2.223   1.698   9.390  2.0906  0.4999  1.4199
 5795SOL    HW229019   2.163   1.835   9.392  1.0429  1.6081 -1.6960
 5796SOL     OW29020   1.780   1.854   9.180 -0.3742  0.3279  0.5068
 5796SOL    HW129021   1.809   1.766   9.205 -0.8660 -0.2984 -1.1199
 5796SOL    HW229022   1.758   1.822   9.093  1.4717 -0.1776  0.2286
 5797SOL     OW29023   3.428   2.939   3.542  0.2584  0.1106 -0.4353
 5797SOL    HW129024   3.420   2.845   3.525  0.2662  0.7301 -3.9708
 5797SOL    HW229025   3.338   2.967   3.525  0.9682  2.2770 -0.6519
 5798SOL     OW29026   0.663   2.626  15.851 -0.3149 -0.3260 -0.1505
 5798SOL    HW129027   0.600   2.666  15.792 -0.7132 -1.7720 -0.7086
 5798SOL    HW229028   0.725   2.699  15.856  0.0836 -0.7027  0.3888
 5799SOL     OW29029   3.382   0.208   5.094  0.3914 -0.1670 -0.0977
 5799SOL    HW129030   3.327   0.273   5.138  0.9541  1.3625 -1.6513
 5799SOL    HW229031   3.325   0.131   5.097 -0.2791  0.3141 -0.8479
 5800SOL     OW29032   1.519   2.820   5.989 -0.0761  0.5468  0.0519
 5800SOL    HW129033   1.568   2.737   5.990 -2.2697 -0.7352  0.3521
 5800SOL    HW229034   1.428   2.797   5.971 -0.1950  0.4641  0.7723
 5801SOL     OW29035   3.051   1.445  15.233  0.0701  0.7021  0.0466
 5801SOL    HW129036   3.051   1.541  15.237 -1.1957  0.7672 -1.9454
 5801SOL    HW229037   3.139   1.420  15.203 -0.7415 -3.6468  1.2669
 5802SOL     OW29038   2.844   2.441  11.658  0.4952 -0.1862  0.1023
 5802SOL    HW129039   2.795   2.462  11.578 -1.2821 -0.6441  1.0571
 5802SOL    HW229040   2.803   2.506  11.714 -0.3626  0.0844 -0.8260
 5803SOL     OW29041   1.852   1.152  10.067 -0.0636 -0.2935 -0.2293
 5803SOL    HW129042   1.910   1.197  10.129 -1.7924 -0.0033  1.1900
 5803SOL    HW229043   1.774   1.205  10.052 -1.4778 -1.9722  1.2093
 5804SOL     OW29044   2.598   0.806   6.929  0.1618 -0.1101  0.1220
 5804SOL    HW129045   2.628   0.831   7.017 -0.2577  0.6332  0.0605
 5804SOL    HW229046   2.653   0.731   6.910  0.2731  0.0751 -0.2969
 5805SOL     OW29047   0.974   2.960  15.044 -0.0990 -0.4458 -0.4942
 5805SOL    HW129048   1.018   2.883  15.078 -1.2969  0.5540  3.2982
 5805SOL    HW229049   0.882   2.932  15.044 -0.0203 -0.7015  0.1255
 5806SOL     OW29050   0.520   4.095  14.206 -0.1790 -0.3023 -0.3959
 5806SOL    HW129051   0.453   4.159  14.186  0.6536  0.7463  0.1718
 5806SOL    HW229052   0.556   4.078  14.119  0.9208  1.0600 -0.2066
 5807SOL     OW29053   0.015   0.809  16.535  0.0284 -0.0995  0.1463
 5807SOL    HW129054   4.701   0.727  16.537 -1.1419  0.5704 -1.4870
 5807SOL    HW229055   0.102   0.781  16.507 -0.4721 -0.8846 -0.6087
 5808SOL     OW29056   3.391   2.411   9.679  0.4744  0.0631 -0.0663
 5808SOL    HW129057   3.485   2.392   9.682  0.1753 -1.1805  1.6603
 5808SOL    HW229058   3.359   2.332   9.723 -1.4142  0.9307  0.0784
 5809SOL     OW29059   1.988   0.695   3.564 -0.1501 -0.2735 -0.7610
 5809SOL    HW129060   2.036   0.613   3.557 -0.1948 -0.3312 -0.3750
 5809SOL    HW229061   1.898   0.667   3.582 -1.1720  3.2983 -0.1387
 5810SOL     OW29062   3.164   3.590   4.904  0.4003 -0.1864 -0.0309
 5810SOL    HW129063   3.175   3.497   4.923  1.1832  0.1717  1.2448
 5810SOL    HW229064   3.071   3.591   4.881  0.9107  2.5988 -1.9571
 5811SOL     OW29065   0.178   1.047   2.646 -0.5007  0.3111 -0.2021
 5811SOL    HW129066   0.246   1.045   2.713 -1.3544 -0.2201  0.6287
 5811SOL    HW229067   0.107   1.013   2.700 -1.7636  0.5567 -1.7121
 5812SOL     OW29068   2.613   0.163  17.126 -0.4873  0.7624 -0.0074
 5812SOL    HW129069   2.668   0.207  17.061 -1.1776  1.1134 -0.3442
 5812SOL    HW229070   2.539   0.144  17.069  0.0910  0.8497 -0.7907
 5813SOL     OW29071   2.259   0.762   2.331  1.3319  0.5493 -0.1865
 5813SOL    HW129072   2.330   0.754   2.268  1.0973  0.7496 -0.4777
 5813SOL    HW229073   2.304   0.704   2.392  0.4699  0.4296  0.3283
 5814SOL     OW29074   4.327   2.729  10.031 -0.0154  0.4961 -0.1303
 5814SOL    HW129075   4.273   2.691   9.962 -1.3131 -0.0155  1.1592
 5814SOL    HW229076   4.259   2.785  10.069 -0.0366 -0.9002  1.9002
 5815SOL     OW29077   0.049   0.179   6.647  0.8086 -0.6128 -0.1557
 5815SOL    HW129078   0.109   0.252   6.638  0.6277 -0.3415  0.7809
 5815SOL    HW229079   0.038   0.175   6.742  3.6709  2.9168  0.3119
 5816SOL     OW29080   2.582   4.395   9.359  0.2511  0.5865  0.0607
 5816SOL    HW129081   2.572   4.365   9.449 -0.6679  1.8962  0.3952
 5816SOL    HW229082   2.490   4.412   9.342 -0.2396 -0.6458  1.4843
 5817SOL     OW29083   0.514   4.096  12.166 -0.2492 -0.5248  0.3689
 5817SOL    HW129084   0.540   4.180  12.204 -1.3906 -0.0075  0.0245
 5817SOL    HW229085   0.458   4.059  12.234  1.6761 -1.9085  1.1984
 5818SOL     OW29086   2.275   2.498   9.390  0.7254  0.0882 -0.4601
 5818SOL    HW129087   2.369   2.483   9.382  0.3269 -1.4665 -2.0617
 5818SOL    HW229088   2.244   2.411   9.414  2.2957 -0.1803  0.5637
 5819SOL     OW29089   3.398   0.578   9.258 -0.0840  0.0054 -0.4634
 5819SOL    HW129090   3.485   0.553   9.289  0.1883 -1.4601 -2.4099
 5819SOL    HW229091   3.347   0.521   9.317  0.4435 -0.0671 -0.0745
 5820SOL     OW29092   2.510   1.148   1.865  0.0735 -0.3103 -0.2368
 5820SOL    HW129093   2.589   1.125   1.816  0.8262 -1.0002  1.2864
 5820SOL    HW229094   2.448   1.182   1.801 -0.0898  1.6916  0.9980
 5821SOL     OW29095   0.094   1.501  17.100 -0.1785  0.1207  0.1831
 5821SOL    HW129096   0.157   1.441  17.059  0.2802  1.0828 -0.5466
 5821SOL    HW229097   0.019   1.489  17.042  1.4450  0.6635 -2.0632
 5822SOL     OW29098   4.242   2.788   4.909  0.1216 -0.2937 -0.4910
 5822SOL    HW129099   4.241   2.693   4.905 -1.0568 -0.1534 -3.6604
 5822SOL    HW229100   4.200   2.813   4.826  0.5661 -1.7380 -1.1465
 5823SOL     OW29101   4.568   3.202  11.315  0.0710 -0.3237  0.5087
 5823SOL    HW129102   4.523   3.281  11.286 -0.3473 -0.2063  1.4628
 5823SOL    HW229103   4.639   3.230  11.372  1.5104  0.0796 -1.5035
 5824SOL     OW29104   1.128   3.591   1.540 -0.4560  0.1355  0.2414
 5824SOL    HW129105   1.135   3.527   1.470 -0.7320 -1.9628  2.1495
 5824SOL    HW229106   1.041   3.627   1.522  0.4069  0.7089 -2.8407
 5825SOL     OW29107   0.496   3.638   4.142  0.2505 -0.0754 -0.6706
 5825SOL    HW129108   0.518   3.593   4.223  1.0194 -1.3752 -1.5978
 5825SOL    HW229109   0.424   3.696   4.166  0.5469 -1.2139  2.9823
 5826SOL     OW29110   4.264   4.158   7.686  0.1198  0.5951  0.4835
 5826SOL    HW129111   4.219   4.179   7.604 -1.9918 -0.7120  1.3113
 5826SOL    HW229112   4.290   4.068   7.663  1.3850  0.8807  0.7811
 5827SOL     OW29113   0.276   3.876   7.388 -0.2314  0.1639 -0.2554
 5827SOL    HW129114   0.293   3.788   7.423  0.7696  0.1632 -0.7182
 5827SOL    HW229115   0.188   3.894   7.420 -0.9015 -2.4685 -0.6052
 5828SOL     OW29116   2.233   3.175   2.406 -0.4038  0.1432  0.0467
 5828SOL    HW129117   2.144   3.164   2.440  0.3022  2.1043  2.5353
 5828SOL    HW229118   2.261   3.252   2.456  0.9542  0.4263 -1.1451
 5829SOL     OW29119   4.265   3.524  11.405  0.0076  0.1107  0.0325
 5829SOL    HW129120   4.317   3.498  11.481  0.3087 -0.5207 -0.3895
 5829SOL    HW229121   4.194   3.572  11.447 -1.6779 -1.1533 -1.3400
 5830SOL     OW29122   4.314   0.208   7.692 -0.5705 -0.0306 -0.0345
 5830SOL    HW129123   4.330   0.186   7.783 -1.7328  0.6627  0.3337
 5830SOL    HW229124   4.275   0.128   7.657 -0.1131  0.7586 -2.4208
 5831SOL     OW29125   0.864   2.159   4.129 -0.3054  0.9495 -0.5845
 5831SOL    HW129126   0.910   2.243   4.136  1.0098  0.0617  1.5496
 5831SOL    HW229127   0.892   2.128   4.043  0.1901 -0.0484 -0.0638
 5832SOL     OW29128   0.035   1.922   7.671 -0.2836 -0.1501 -1.1636
 5832SOL    HW129129   0.064   1.975   7.745 -2.2292 -2.0337  0.9524
 5832SOL    HW229130   0.096   1.955   7.606 -0.6484  2.1281 -0.3450
 5833SOL     OW29131   3.522   2.331   9.074  0.2600  0.7116 -0.0577
 5833SOL    HW129132   3.547   2.422   9.087  0.8039  0.3221  1.7148
 5833SOL    HW229133   3.608   2.297   9.100 -0.3739 -0.5140  0.4644
 5834SOL     OW29134   3.854   4.718  11.637  0.4222 -0.5027  0.1240
 5834SOL    HW129135   3.895   4.688  11.556 -0.6539  0.5242 -0.7892
 5834SOL    HW229136   3.888   0.071  11.628  2.5937 -1.2281  1.2090
 5835SOL     OW29137   2.421   2.012   9.931 -0.3129 -0.6945  0.0916
 5835SOL    HW129138   2.467   2.096   9.946  0.9921 -1.8452  2.5701
 5835SOL    HW229139   2.389   2.022   9.842  1.1374  2.7301 -0.0639
 5836SOL     OW29140   4.632   4.190   4.952  0.2883  0.1462 -0.3803
 5836SOL    HW129141   4.634   4.228   4.864 -1.4880 -0.2379 -0.6017
 5836SOL    HW229142   4.727   4.188   4.962  0.2652 -0.8771 -0.3843
 5837SOL     OW29143   3.810   0.919   2.551  0.7516 -0.4026  0.2189
 5837SOL    HW129144   3.760   0.995   2.522  0.9180  1.3950  4.6243
 5837SOL    HW229145   3.793   0.925   2.645 -1.4093  0.0873 -0.2048
 5838SOL     OW29146   1.320   2.390   9.114 -0.5818  0.0776  0.2225
 5838SOL    HW129147   1.228   2.405   9.089 -0.2328  2.2228  0.2295
 5838SOL    HW229148   1.351   2.324   9.052 -1.1382  2.1897 -2.3697
 5839SOL     OW29149   0.650   1.552   5.671  0.4216  0.5242  0.2554
 5839SOL    HW129150   0.598   1.505   5.736 -2.6222 -0.2549 -2.7210
 5839SOL    HW229151   0.710   1.480   5.652 -2.0362 -1.1415 -1.3138
 5840SOL     OW29152   0.168   4.073   2.068 -0.1713  0.2395 -0.1161
 5840SOL    HW129153   0.150   4.038   1.981  0.8896  2.2902 -1.1762
 5840SOL    HW229154   0.216   4.002   2.111 -0.5932 -0.4961 -0.8674
 5841SOL     OW29155   0.512   1.412   5.860 -0.5703 -0.0786  0.0461
 5841SOL    HW129156   0.545   1.353   5.928  2.0870  0.8542 -0.4372
 5841SOL    HW229157   0.425   1.408   5.898 -0.2792 -2.7478  0.4307
 5842SOL     OW29158   3.227   2.183   8.027  0.2324 -0.1859 -0.0115
 5842SOL    HW129159   3.179   2.189   8.109 -0.1708 -0.2273 -0.2472
 5842SOL    HW229160   3.314   2.181   8.067 -0.0763 -0.4426  0.6354
 5843SOL     OW29161   0.620   0.828  11.855 -0.5431 -0.1724  0.3947
 5843SOL    HW129162   0.534   0.787  11.844  0.2660 -1.7903  0.1002
 5843SOL    HW229163   0.617   0.890  11.782  0.2322  0.9252  1.2870
 5844SOL     OW29164   4.064   2.248  11.620 -0.2837 -0.1314  0.7567
 5844SOL    HW129165   3.985   2.288  11.656 -1.2604 -0.0920 -1.4728
 5844SOL    HW229166   4.028   2.167  11.582  2.5705 -0.5420 -1.0588
 5845SOL     OW29167   4.538   3.341   7.185 -0.1842 -0.4016 -0.1452
 5845SOL    HW129168   4.578   3.382   7.262 -1.5846  2.8066 -1.1406
 5845SOL    HW229169   4.454   3.322   7.225  0.1822 -0.0111  0.8222
 5846SOL     OW29170   4.144   0.145   5.996  0.0011  0.2672 -0.4012
 5846SOL    HW129171   4.089   0.069   6.014 -0.6755  1.4638  2.6319
 5846SOL    HW229172   4.094   0.209   6.046  1.7409  0.3518  1.2300
 5847SOL     OW29173   2.305   1.410  10.941  0.4348  0.2148 -0.3380
 5847SOL    HW129174   2.252   1.427  11.018 -1.7403 -2.2605 -1.3084
 5847SOL    HW229175   2.290   1.483  10.881 -2.2117  0.0763  0.1842
 5848SOL     OW29176   0.979   4.380   8.142 -0.0913  0.3692 -0.4081
 5848SOL    HW129177   1.029   4.452   8.103 -0.0785  0.6415  0.1162
 5848SOL    HW229178   0.894   4.414   8.113  0.1569 -0.2954 -1.9289
 5849SOL     OW29179   2.391   4.410   2.136 -0.1115  0.0005 -0.3529
 5849SOL    HW129180   2.300   4.429   2.157  0.2639  2.6436 -1.0576
 5849SOL    HW229181   2.373   4.367   2.053 -0.1779 -0.0064 -0.3349
 5850SOL     OW29182   0.754   2.836  11.821  0.7976 -0.7475  0.1352
 5850SOL    HW129183   0.745   2.870  11.732 -0.1821  2.9175  1.6385
 5850SOL    HW229184   0.765   2.748  11.787  0.6176 -0.1754 -1.3819
 5851SOL     OW29185   2.867   4.687   7.022 -0.0730  0.9215  0.1190
 5851SOL    HW129186   2.838   4.607   7.065  1.0292 -0.4983 -1.8002
 5851SOL    HW229187   2.961   4.685   7.042 -0.1374 -1.6087  0.1358
 5852SOL     OW29188   0.343   2.456  12.377 -0.8012 -0.2729  0.0458
 5852SOL    HW129189   0.393   2.437  12.298 -0.7970  0.4877 -0.1317
 5852SOL    HW229190   0.300   2.536  12.347  1.4656  0.7111 -0.5824
 5853SOL     OW29191   4.247   0.814   3.003  0.3720 -0.3521  0.1729
 5853SOL    HW129192   4.204   0.752   2.944  2.9418 -0.5211 -1.4978
 5853SOL    HW229193   4.264   0.760   3.080 -0.5050 -0.5396  0.2415
 5854SOL     OW29194   4.362   0.774   1.147  0.5118 -0.4636 -0.3580
 5854SOL    HW129195   4.307   0.834   1.198  0.5722 -0.4020 -0.3654
 5854SOL    HW229196   4.342   0.798   1.056 -2.2334 -0.3777  0.2720
 5855SOL     OW29197   1.518   2.228  13.614 -0.6212  0.0357  0.3407
 5855SOL    HW129198   1.595   2.275  13.581 -0.2553 -0.2890  0.7435
 5855SOL    HW229199   1.513   2.293  13.685 -1.0637  0.4989 -0.1117
 5856SOL     OW29200   0.649   0.054   8.120 -0.3066 -0.0623  0.0215
 5856SOL    HW129201   0.574   0.007   8.156 -0.4971  0.4035  0.2442
 5856SOL    HW229202   0.619   0.084   8.034  1.4041  0.9660 -0.2227
 5857SOL     OW29203   3.840   4.420  17.612 -0.0815 -0.1381  0.2012
 5857SOL    HW129204   3.807   4.510  17.607 -0.7842 -0.4507 -0.9498
 5857SOL    HW229205   3.857   4.408  17.705 -1.7153  0.8162  0.6242
 5858SOL     OW29206   1.600   2.044   8.108 -0.0610  0.3482 -0.5444
 5858SOL    HW129207   1.668   2.007   8.051 -0.2509 -1.0826  0.1653
 5858SOL    HW229208   1.519   1.993   8.103 -0.4741  0.9925 -0.4162
 5859SOL     OW29209   4.275   3.086  14.036  0.1627 -0.0539 -0.5850
 5859SOL    HW129210   4.288   3.025  14.109  0.5015  0.7551  0.0434
 5859SOL    HW229211   4.355   3.137  14.046  1.0917 -2.2118  3.0944
 5860SOL     OW29212   0.857   4.632   5.392 -0.3583  0.0815 -0.0766
 5860SOL    HW129213   0.887   4.720   5.368 -2.2728  0.5067 -0.8453
 5860SOL    HW229214   0.804   4.658   5.468  0.8257  0.4369  0.6269
 5861SOL     OW29215   1.857   2.769   8.942  0.4523 -0.5344 -1.0956
 5861SOL    HW129216   1.895   2.795   9.026 -0.3796  1.0758 -1.2247
 5861SOL    HW229217   1.774   2.817   8.941  0.1329 -1.0779  0.1163
 5862SOL     OW29218   0.616   2.935   9.494 -0.3199  0.1156  0.5181
 5862SOL    HW129219   0.543   2.930   9.431 -0.1181  0.1897  0.2798
 5862SOL    HW229220   0.654   3.017   9.463  2.8474 -1.3981  0.4312
 5863SOL     OW29221   1.430   0.826   5.017  0.2147 -0.3951 -0.2888
 5863SOL    HW129222   1.375   0.868   4.950  0.7808 -1.4753 -1.4461
 5863SOL    HW229223   1.470   0.757   4.962  0.4293 -2.0027  1.8907
 5864SOL     OW29224   1.664   1.155   1.778  0.2466 -0.4429  0.0924
 5864SOL    HW129225   1.713   1.189   1.703 -1.5384  0.0688 -0.8502
 5864SOL    HW229226   1.607   1.086   1.743  0.4277 -0.8091  0.5152
 5865SOL     OW29227   0.958   1.970  10.481 -0.4488  0.2703  0.2994
 5865SOL    HW129228   0.872   1.976  10.523 -0.8691  2.9337 -1.0196
 5865SOL    HW229229   1.009   2.017  10.547 -0.5343  0.2923  0.3509
 5866SOL     OW29230   0.115   0.634   1.051  0.3128  0.6794  0.4531
 5866SOL    HW129231   0.036   0.685   1.066 -0.2154  0.0143 -0.0550
 5866SOL    HW229232   0.172   0.685   1.108 -0.9729 -0.1759  2.4713
 5867SOL     OW29233   3.778   0.430  15.282  0.4612 -0.0602 -0.1237
 5867SOL    HW129234   3.820   0.498  15.230  1.2084  2.6391  4.0572
 5867SOL    HW229235   3.850   0.394  15.333  2.0804  1.4517 -1.3348
 5868SOL     OW29236   2.594   1.475   4.346  0.3041  0.0955 -0.6915
 5868SOL    HW129237   2.621   1.467   4.255  1.5115 -1.9548 -0.1526
 5868SOL    HW229238   2.683   1.488   4.379 -0.0279 -0.8311  0.5550
 5869SOL     OW29239   3.692   0.796   6.514  0.6825  0.3784  0.2351
 5869SOL    HW129240   3.701   0.743   6.593  1.6967 -1.5890 -1.1823
 5869SOL    HW229241   3.769   0.762   6.467 -0.0927 -0.1510 -0.6474
 5870SOL     OW29242   4.553   0.387   0.531  0.3036  0.0674 -0.0079
 5870SOL    HW129243   4.559   0.367   0.625 -1.5346  2.1986  0.5738
 5870SOL    HW229244   4.553   0.296   0.502 -0.6414  0.3179 -0.7982
 5871SOL     OW29245   0.534   2.413   6.327  0.4183  0.0181 -0.0574
 5871SOL    HW129246   0.512   2.324   6.301 -0.3634  0.5318 -1.1094
 5871SOL    HW229247   0.514   2.464   6.249 -1.6923 -0.8041 -0.0367
 5872SOL     OW29248   1.832   3.611   6.067  0.0683  0.4469  0.5354
 5872SOL    HW129249   1.785   3.528   6.076 -1.0269  1.0056  0.0120
 5872SOL    HW229250   1.792   3.631   5.983  0.5491  2.5513  0.7963
 5873SOL     OW29251   2.448   3.827   6.463 -0.1412  0.0566 -0.0663
 5873SOL    HW129252   2.520   3.777   6.423 -0.5857  0.4130 -1.3281
 5873SOL    HW229253   2.387   3.813   6.391 -1.8991 -3.6208  2.1029
 5874SOL     OW29254   0.932   1.869  12.500 -0.0733  0.7968 -0.2335
 5874SOL    HW129255   0.926   1.959  12.531  0.5793  0.7187  0.1315
 5874SOL    HW229256   0.907   1.827  12.582  1.4117  1.0223  0.3442
 5875SOL     OW29257   3.878   2.853   5.921  0.1347  0.0404  0.0343
 5875SOL    HW129258   3.915   2.799   5.990 -2.5835 -1.8969  0.0102
 5875SOL    HW229259   3.833   2.918   5.976 -0.1349 -0.3148  0.2354
 5876SOL     OW29260   4.238   2.843   2.317 -0.1835  0.3784  0.1567
 5876SOL    HW129261   4.158   2.790   2.317 -0.4308  0.7577 -1.4052
 5876SOL    HW229262   4.191   2.920   2.349  0.5205  0.0438  1.9893
 5877SOL     OW29263   1.125   2.825  16.521 -0.2745  0.1560  0.2090
 5877SOL    HW129264   1.034   2.810  16.547  0.2179 -1.5935  0.9199
 5877SOL    HW229265   1.129   2.921  16.523 -2.3011  0.2361  0.2647
 5878SOL     OW29266   2.834   3.128  12.566 -0.4741  0.4402  0.7014
 5878SOL    HW129267   2.917   3.086  12.543 -2.0854 -3.4067  2.0333
 5878SOL    HW229268   2.862   3.165  12.650 -1.5189 -0.4890  1.4613
 5879SOL     OW29269   3.386   3.812   2.330 -0.4354 -0.1410  0.1698
 5879SOL    HW129270   3.457   3.755   2.360 -1.1762 -1.9471 -1.4721
 5879SOL    HW229271   3.427   3.857   2.256 -0.5552 -0.6930 -0.2273
 5880SOL     OW29272   0.065   0.553   5.023 -0.1745  0.0268 -0.4943
 5880SOL    HW129273   0.129   0.502   4.975  1.1894  0.0861  1.2772
 5880SOL    HW229274   0.110   0.631   5.056 -1.6284  0.0469  1.4945
 5881SOL     OW29275   0.677   0.231   9.043  0.0631  0.2290 -0.2921
 5881SOL    HW129276   0.716   0.176   8.976  0.5676 -1.4648  1.3972
 5881SOL    HW229277   0.620   0.288   8.991  0.7167  1.7538  0.6727
 5882SOL     OW29278   0.204   0.119   3.619  0.0563  0.4831 -0.1906
 5882SOL    HW129279   0.122   0.150   3.580  0.1637  0.1044 -0.7293
 5882SOL    HW229280   0.182   0.027   3.634  1.5794 -0.0339 -1.1774
 5883SOL     OW29281   1.336   1.350   4.728  0.2158 -0.0246 -0.4067
 5883SOL    HW129282   1.366   1.403   4.655 -2.4694 -0.6881 -1.9793
 5883SOL    HW229283   1.368   1.410   4.796  0.6694 -0.6959 -0.0307
 5884SOL     OW29284   3.241   3.623   5.276  0.3611 -0.0057  0.2041
 5884SOL    HW129285   3.235   3.542   5.327 -1.3685 -0.5354 -0.8254
 5884SOL    HW229286   3.315   3.669   5.316 -0.7715  1.4720  0.6033
 5885SOL     OW29287   2.149   1.137  13.595 -0.1396 -0.8163  0.1165
 5885SOL    HW129288   2.183   1.120  13.683 -0.3684  0.1914  0.3977
 5885SOL    HW229289   2.071   1.192  13.599  0.3688 -0.1357  0.6884
 5886SOL     OW29290   2.214   2.916   5.868 -0.0173  0.5486  0.9471
 5886SOL    HW129291   2.280   2.919   5.798  0.2940  0.1037  1.2146
 5886SOL    HW229292   2.220   2.823   5.893 -1.1340  0.3322  0.3996
 5887SOL     OW29293   1.336   2.984  15.053  0.3485 -0.3538  0.7628
 5887SOL    HW129294   1.405   2.918  15.042  0.6760  0.4472 -1.7520
 5887SOL    HW229295   1.272   2.930  15.100 -2.2935  1.4453 -0.8542
 5888SOL     OW29296   1.149   1.148  15.731  0.3928 -0.0547  0.0865
 5888SOL    HW129297   1.066   1.175  15.690  0.9779  0.3359 -0.8403
 5888SOL    HW229298   1.216   1.193  15.681  0.5148  0.5147  0.7700
 5889SOL     OW29299   4.167   1.454   9.734  0.1520  0.1347 -0.2282
 5889SOL    HW129300   4.078   1.417   9.736  0.6322 -1.0044  0.1049
 5889SOL    HW229301   4.222   1.379   9.756  0.5561  0.3510 -0.4884
 5890SOL     OW29302   2.810   3.251  14.064  0.2553 -0.0165  0.6774
 5890SOL    HW129303   2.849   3.164  14.077  1.3073  0.2565 -0.6722
 5890SOL    HW229304   2.824   3.286  14.152  0.1910  0.4893  0.4820
 5891SOL     OW29305   0.916   3.540   3.952  0.3303  0.3785  0.0601
 5891SOL    HW129306   0.904   3.607   4.019  1.3429 -0.0531  0.6839
 5891SOL    HW229307   0.831   3.497   3.941 -0.2166  0.3634  4.1645
 5892SOL     OW29308   2.913   2.751   4.279  0.3587 -0.0002  0.2990
 5892SOL    HW129309   2.935   2.787   4.194  0.8907  0.6824  0.7261
 5892SOL    HW229310   2.903   2.660   4.251 -0.5864  0.0895  0.3287
 5893SOL     OW29311   1.871   1.698   3.977 -0.3545  0.6826  0.1211
 5893SOL    HW129312   1.925   1.734   4.047  0.0965 -0.5293  0.4086
 5893SOL    HW229313   1.803   1.765   3.972 -2.0770 -1.2656 -2.6627
 5894SOL     OW29314   4.639   0.068  16.449  0.2133 -0.1093  0.1172
 5894SOL    HW129315   4.581   0.030  16.383  0.0441  1.9368 -0.9041
 5894SOL    HW229316   4.597   0.150  16.476 -1.0219 -0.4520 -0.7534
 5895SOL     OW29317   0.306   4.684   7.475 -0.3818 -0.5058 -0.0553
 5895SOL    HW129318   0.347   4.598   7.469  1.6068  0.6182 -2.5714
 5895SOL    HW229319   0.380   0.008   7.458  0.2452 -1.1914  0.2969
 5896SOL     OW29320   1.495   2.620   6.799  0.2623 -0.1600  0.2100
 5896SOL    HW129321   1.566   2.556   6.792 -0.6746 -1.0906 -0.6736
 5896SOL    HW229322   1.551   2.691   6.833  1.4499 -0.7687 -0.4809
 5897SOL     OW29323   4.131   4.504   6.034  0.1660  0.0589 -0.0791
 5897SOL    HW129324   4.227   4.513   6.037 -0.1554  3.2857  0.2805
 5897SOL    HW229325   4.125   4.408   6.041 -0.7814  0.2389  1.4309
 5898SOL     OW29326   4.029   3.186   3.101 -0.3939  0.3132  0.1426
 5898SOL    HW129327   4.087   3.174   3.025 -0.2462  0.5330  0.2209
 5898SOL    HW229328   3.952   3.137   3.069  1.0128  0.0532 -2.8731
 5899SOL     OW29329   1.759   2.676   2.709 -0.2237  0.0499 -0.1598
 5899SOL    HW129330   1.677   2.660   2.754  0.9738  0.3722  2.1246
 5899SOL    HW229331   1.817   2.704   2.779  0.5586 -2.0786  0.0615
 5900SOL     OW29332   2.860   4.680  14.615  0.4505 -0.2409 -0.1518
 5900SOL    HW129333   2.949   4.660  14.587 -0.5820 -1.4719 -2.5884
 5900SOL    HW229334   2.848   0.037  14.589  0.3945 -0.2891 -0.2979
 5901SOL     OW29335   3.582   3.463   3.656 -0.0967  0.2054 -0.0859
 5901SOL    HW129336   3.602   3.374   3.685 -1.9268  0.4734  2.0735
 5901SOL    HW229337   3.616   3.461   3.567  0.0986 -1.1531  0.0195
 5902SOL     OW29338   2.488   2.342   8.084  0.3540 -0.2055 -0.6267
 5902SOL    HW129339   2.515   2.405   8.151 -0.6063  0.2423 -0.6621
 5902SOL    HW229340   2.394   2.345   8.101  0.3854 -0.7232 -0.3807
 5903SOL     OW29341   1.034   0.837  10.635  0.4593  0.1703  0.5604
 5903SOL    HW129342   1.048   0.766  10.699 -3.3030 -2.2866 -1.3422
 5903SOL    HW229343   1.022   0.795  10.550  0.4784  0.2708  0.5087
 5904SOL     OW29344   2.266   3.277  12.847 -0.0412 -0.4435 -0.0138
 5904SOL    HW129345   2.351   3.254  12.809 -0.6697 -0.4458 -1.4220
 5904SOL    HW229346   2.216   3.324  12.781 -0.9867  1.2274  1.8763
 5905SOL     OW29347   4.153   1.962  14.057 -0.1204  0.5530  0.2122
 5905SOL    HW129348   4.152   2.042  14.109  0.0954 -0.6940  2.1449
 5905SOL    HW229349   4.065   1.964  14.019 -0.0397  0.4951  0.0215
 5906SOL     OW29350   0.667   2.142  12.764  0.3069  0.6996  0.5559
 5906SOL    HW129351   0.703   2.191  12.838  1.7398  0.7547 -0.1782
 5906SOL    HW229352   0.575   2.168  12.765  0.0738 -0.1024 -0.9540
 5907SOL     OW29353   3.099   1.559  13.968  0.0701 -0.2036 -0.5185
 5907SOL    HW129354   3.189   1.528  13.959  0.9054  2.3162 -0.7807
 5907SOL    HW229355   3.046   1.482  13.946  0.1892 -0.6938  0.8574
 5908SOL     OW29356   0.525   3.923  15.096  0.3106 -0.5348  0.1681
 5908SOL    HW129357   0.520   3.911  15.191  2.6760  5.1432  0.9839
 5908SOL    HW229358   0.555   4.014  15.091 -0.1739 -0.2747  1.9610
 5909SOL     OW29359   3.963   2.344   6.618 -0.3064  0.8422  0.3060
 5909SOL    HW129360   4.048   2.388   6.611 -0.3529  0.3274 -3.8334
 5909SOL    HW229361   3.988   2.252   6.619 -0.0032  0.9466  1.6876
 5910SOL     OW29362   1.281   1.281   9.207 -0.0996  0.2643 -0.3921
 5910SOL    HW129363   1.328   1.248   9.131 -2.7021 -2.3317 -0.8372
 5910SOL    HW229364   1.338   1.267   9.283  0.2519  1.9835 -0.3322
 5911SOL     OW29365   3.041   1.926  10.579 -0.0637  0.5574  0.0797
 5911SOL    HW129366   3.130   1.893  10.593 -0.6892 -0.3892  1.8013
 5911SOL    HW229367   2.995   1.889  10.654 -1.6119 -0.6465 -1.4778
 5912SOL     OW29368   4.437   1.984   3.008  0.1486  0.4758 -0.0028
 5912SOL    HW129369   4.476   1.955   3.090 -0.4496 -1.4821 -0.4270
 5912SOL    HW229370   4.501   1.966   2.939 -2.5598 -0.0428 -2.3876
 5913SOL     OW29371   1.542   2.404   3.272 -1.1179  0.0112 -0.1024
 5913SOL    HW129372   1.493   2.479   3.239  0.1710  1.6416  1.7033
 5913SOL    HW229373   1.494   2.343   3.216  0.6452 -0.2313 -1.3397
 5914SOL     OW29374   2.965   0.432   5.570 -0.4174 -0.4281 -0.1911
 5914SOL    HW129375   2.895   0.478   5.616  1.0464  1.3039  0.2840
 5914SOL    HW229376   2.953   0.462   5.480  0.7155 -1.4292 -0.6692
 5915SOL     OW29377   0.590   3.627  15.014 -0.0143 -0.0592 -0.0318
 5915SOL    HW129378   0.680   3.619  14.983  0.8761  1.9717  2.0214
 5915SOL    HW229379   0.584   3.717  15.045  2.0951  0.8107 -2.1543
 5916SOL     OW29380   1.533   0.123   7.275 -0.0472  0.7756 -0.0543
 5916SOL    HW129381   1.448   0.107   7.235 -1.4601  1.3334  2.7511
 5916SOL    HW229382   1.585   0.079   7.207  0.2971 -0.3588  0.9514
 5917SOL     OW29383   3.039   0.245   4.993  0.4161  0.2046  0.4220
 5917SOL    HW129384   2.956   0.284   5.022 -1.1215 -1.5371 -1.6580
 5917SOL    HW229385   3.100   0.318   5.005  2.9527 -2.1066  1.5318
 5918SOL     OW29386   2.922   4.104   7.833  0.5383  0.4269  0.3274
 5918SOL    HW129387   2.994   4.047   7.804  1.4703  2.9624 -2.2961
 5918SOL    HW229388   2.953   4.128   7.921 -0.4286  1.9957  0.2360
 5919SOL     OW29389   2.604   1.118   2.781 -0.2157 -0.3441  0.1336
 5919SOL    HW129390   2.545   1.076   2.719  0.1761 -1.9905  0.8888
 5919SOL    HW229391   2.625   1.037   2.826  0.0500 -1.0801 -1.3323
 5920SOL     OW29392   2.715   1.931   2.573 -0.0971 -0.5732  0.9205
 5920SOL    HW129393   2.623   1.921   2.595 -0.5400  2.9761  0.6546
 5920SOL    HW229394   2.758   1.851   2.605  1.0827  0.2169  1.3112
 5921SOL     OW29395   3.807   4.186   1.261 -0.3345  0.1082 -0.2682
 5921SOL    HW129396   3.729   4.134   1.246 -1.2034  1.1998  0.5049
 5921SOL    HW229397   3.870   4.121   1.292  0.1842  1.7265  2.0532
 5922SOL     OW29398   0.176   2.802   6.227 -0.4859  0.5176  0.7923
 5922SOL    HW129399   0.121   2.735   6.268 -0.2827  0.4088  0.8876
 5922SOL    HW229400   0.216   2.760   6.150 -0.3237 -1.1035  1.7481
 5923SOL     OW29401   4.616   3.304   1.868  0.9667 -0.3600  0.0774
 5923SOL    HW129402   4.662   3.273   1.791  1.3174 -0.5661  0.3726
 5923SOL    HW229403   4.616   3.225   1.923 -0.8108 -0.4920 -0.1043
 5924SOL     OW29404   0.672   4.227   2.233  0.2834  0.2436  0.0745
 5924SOL    HW129405   0.665   4.321   2.219 -0.3035 -0.2167 -2.6440
 5924SOL    HW229406   0.614   4.184   2.170  1.8261 -1.3916 -0.2229
 5925SOL     OW29407   0.737   0.935   9.317 -0.4939 -0.3248  0.3421
 5925SOL    HW129408   0.733   0.904   9.227  0.1584  0.6269 -0.0071
 5925SOL    HW229409   0.776   0.855   9.354 -0.2875 -0.7739 -0.8555
 5926SOL     OW29410   1.757   3.741   9.309  0.1405 -0.1031  0.0723
 5926SOL    HW129411   1.740   3.704   9.222  1.3233  2.6470 -1.3447
 5926SOL    HW229412   1.709   3.677   9.361 -0.5254 -1.0154 -1.6541
 5927SOL     OW29413   2.245   0.992   8.816  0.1970 -0.1390  0.1751
 5927SOL    HW129414   2.319   0.950   8.772 -1.2727  0.0713 -2.5655
 5927SOL    HW229415   2.255   1.081   8.782  0.1535  0.5656  2.0045
 5928SOL     OW29416   0.426   1.238   3.267 -0.4685 -0.0088 -0.0387
 5928SOL    HW129417   0.416   1.176   3.339  1.1458 -0.9649 -0.6400
 5928SOL    HW229418   0.511   1.278   3.286  0.1124 -0.7941 -1.0076
 5929SOL     OW29419   2.308   3.576  15.906  0.9261  0.2011 -0.2017
 5929SOL    HW129420   2.309   3.653  15.849 -1.3751 -1.7949 -2.9154
 5929SOL    HW229421   2.357   3.606  15.983  2.1623  2.9864 -2.0982
 5930SOL     OW29422   1.821   0.209   7.460  0.6044  0.8079  0.7339
 5930SOL    HW129423   1.871   0.127   7.464 -1.1350 -0.2401  0.8635
 5930SOL    HW229424   1.877   0.279   7.494  0.6841  1.0259  0.1396
 5931SOL     OW29425   0.601   1.292   8.799  0.0281  0.4466  0.1884
 5931SOL    HW129426   0.617   1.385   8.784 -0.9836  0.6389  0.2845
 5931SOL    HW229427   0.642   1.291   8.886 -0.6280  0.1907  0.4975
 5932SOL     OW29428   0.193   4.277  13.064  0.3171  0.0695  0.4210
 5932SOL    HW129429   0.113   4.309  13.022  1.4307  0.9220 -1.0440
 5932SOL    HW229430   0.193   4.323  13.147 -1.3199 -0.7807  0.8994
 5933SOL     OW29431   4.599   2.231   9.012  0.4470 -0.0564  0.3156
 5933SOL    HW129432   4.506   2.212   9.021  0.6087 -1.8912 -1.9513
 5933SOL    HW229433   4.634   2.249   9.099 -1.4341 -2.1858  1.5109
 5934SOL     OW29434   3.629   3.436   3.993 -0.5739 -0.2223 -0.3383
 5934SOL    HW129435   3.554   3.386   4.024 -0.6915 -0.0058 -0.2737
 5934SOL    HW229436   3.699   3.406   4.050 -2.0670 -3.0445  0.0371
 5935SOL     OW29437   1.573   1.199  16.465 -0.5225 -0.0239 -0.0029
 5935SOL    HW129438   1.483   1.172  16.447 -0.4511  0.9356 -1.8371
 5935SOL    HW229439   1.543   1.268  16.524 -0.4871 -0.2694  0.3022
 5936SOL     OW29440   2.665   3.192  16.857 -0.5010  0.5412 -0.2833
 5936SOL    HW129441   2.669   3.166  16.949 -0.4001  1.6320  0.0210
 5936SOL    HW229442   2.735   3.257  16.861  0.8003 -0.8080 -1.0681
 5937SOL     OW29443   0.306   3.253   5.320  0.1465  0.2282  0.7263
 5937SOL    HW129444   0.223   3.209   5.303  0.8779 -1.0263  0.4189
 5937SOL    HW229445   0.327   3.236   5.412  2.4471  1.5989  0.4783
 5938SOL     OW29446   1.335   4.655  17.630 -0.3737  0.3020  0.5030
 5938SOL    HW129447   1.427   4.665  17.606 -0.5288  1.0990  0.2475
 5938SOL    HW229448   1.298   0.004  17.604 -0.4243  0.0156 -0.3498
 5939SOL     OW29449   0.104   0.541  10.269  0.2227  0.0717  0.1900
 5939SOL    HW129450   0.089   0.601  10.196  3.1627 -0.4884 -0.8767
 5939SOL    HW229451   0.121   0.604  10.338 -0.0923  1.3034 -0.8465
 5940SOL     OW29452   0.211   1.773   5.643  0.3677  0.6984  0.2486
 5940SOL    HW129453   0.285   1.748   5.698  0.2547  0.7033  0.4022
 5940SOL    HW229454   0.173   1.840   5.699  0.7460  2.6015 -1.7750
 5941SOL     OW29455   0.150   1.658   3.692  0.5369 -0.3304 -0.1328
 5941SOL    HW129456   0.073   1.661   3.749  0.6860 -2.5840  0.2152
 5941SOL    HW229457   0.213   1.621   3.754 -0.0987 -1.1892  0.0079
 5942SOL     OW29458   2.624   1.714  13.318 -0.3569 -0.0602 -0.3151
 5942SOL    HW129459   2.535   1.737  13.342 -0.2267 -0.7573  0.7793
 5942SOL    HW229460   2.662   1.802  13.309  2.6111 -1.1609  1.5753
 5943SOL     OW29461   1.638   0.458   7.119 -0.2862 -0.4129  0.2204
 5943SOL    HW129462   1.566   0.506   7.160  0.6445  0.9133  0.2888
 5943SOL    HW229463   1.597   0.433   7.036  1.4781  0.4849 -0.9236
 5944SOL     OW29464   3.761   3.645  11.560 -0.1774  0.7080  0.1132
 5944SOL    HW129465   3.684   3.677  11.513 -0.9912 -1.1654  0.1564
 5944SOL    HW229466   3.718   3.574  11.608  1.4105  0.5987  1.3862
 5945SOL     OW29467   1.266   3.432   9.452  0.4201  0.1823 -0.3412
 5945SOL    HW129468   1.329   3.369   9.487 -0.7915 -0.5820  0.4507
 5945SOL    HW229469   1.227   3.469   9.531  2.0459  1.2421 -0.0225
 5946SOL     OW29470   1.796   1.761  12.322 -0.1268  0.0501 -0.2376
 5946SOL    HW129471   1.838   1.814  12.389 -0.0600 -0.7811  0.3745
 5946SOL    HW229472   1.798   1.671  12.356 -0.2227 -0.3096 -1.1767
 5947SOL     OW29473   2.878   4.441  12.702 -0.2568 -0.0912  0.4269
 5947SOL    HW129474   2.902   4.349  12.707 -1.2910 -0.3269  0.8961
 5947SOL    HW229475   2.956   4.477  12.659  0.6888  1.0761  3.1036
 5948SOL     OW29476   3.034   2.159   5.991 -0.3808  0.4345  0.5814
 5948SOL    HW129477   3.088   2.174   5.913  0.8524 -1.2480  1.1127
 5948SOL    HW229478   3.032   2.254   6.003 -0.4440  0.5554 -0.3803
 5949SOL     OW29479   1.405   2.290  15.413 -0.0281 -0.4194 -0.3095
 5949SOL    HW129480   1.322   2.305  15.367 -0.3363  0.7833  0.6378
 5949SOL    HW229481   1.388   2.207  15.458  1.5504 -0.4691  0.1901
 5950SOL     OW29482   1.470   3.926  16.190  0.1883 -0.2804  0.0390
 5950SOL    HW129483   1.500   3.836  16.199  1.7465  0.3540  1.0054
 5950SOL    HW229484   1.534   3.959  16.127 -1.6909  1.3106 -1.0868
 5951SOL     OW29485   2.647   2.361   5.354 -0.3729 -0.4964 -0.2209
 5951SOL    HW129486   2.713   2.380   5.421 -2.0415 -0.8250  1.5238
 5951SOL    HW229487   2.692   2.399   5.279 -0.8109  1.1925  0.3486
 5952SOL     OW29488   0.037   0.442   7.364  0.0424  0.4513 -0.2376
 5952SOL    HW129489   0.052   0.375   7.297 -0.5025 -0.7635  0.8433
 5952SOL    HW229490   4.695   0.490   7.333  0.3169  1.3248  0.4439
 5953SOL     OW29491   1.924   4.268   3.508  0.0928  0.0144  0.5077
 5953SOL    HW129492   1.949   4.356   3.480 -1.0520  1.1348  3.0114
 5953SOL    HW229493   1.901   4.240   3.419  0.3138 -0.1226  0.4952
 5954SOL     OW29494   0.861   3.374   1.554 -0.0994 -0.1075  0.2647
 5954SOL    HW129495   0.890   3.465   1.546 -0.6092 -0.1081 -1.6266
 5954SOL    HW229496   0.847   3.373   1.649 -0.2739 -1.0696  0.2257
 5955SOL     OW29497   2.408   3.332  10.628  0.5143 -0.4130 -0.1992
 5955SOL    HW129498   2.321   3.372  10.628  0.7574  0.1172 -0.3005
 5955SOL    HW229499   2.458   3.413  10.616 -1.4756  0.6858 -1.1371
 5956SOL     OW29500   3.120   2.300   5.763  0.0124 -0.2240 -0.0463
 5956SOL    HW129501   3.192   2.329   5.707  0.0806  1.2065  0.7572
 5956SOL    HW229502   3.083   2.388   5.775 -1.1186 -1.0498  2.6630
 5957SOL     OW29503   2.750   2.572   2.749  0.3242  0.5106  0.4971
 5957SOL    HW129504   2.735   2.560   2.656  0.2093  1.2928  0.4131
 5957SOL    HW229505   2.661   2.579   2.781 -0.1631 -2.3155 -0.2698
 5958SOL     OW29506   0.190   0.480   8.089 -0.2661 -0.0386  0.3542
 5958SOL    HW129507   0.230   0.549   8.142  0.2685  1.0981 -1.5177
 5958SOL    HW229508   0.228   0.497   8.003 -2.0100  0.4874 -0.3112
 5959SOL     OW29509   3.628   3.455   5.029 -0.0298  1.1394  0.4464
 5959SOL    HW129510   3.563   3.522   5.009 -1.5160 -0.0602  1.2940
 5959SOL    HW229511   3.705   3.512   5.022  1.2814 -0.2671  3.3347
 5960SOL     OW29512   2.654   3.057   1.888 -0.9248 -0.4923  0.2342
 5960SOL    HW129513   2.665   3.059   1.792  1.6865 -0.8821  0.5165
 5960SOL    HW229514   2.612   3.140   1.910  2.0380  1.4375 -1.2692
 5961SOL     OW29515   3.371   2.656   3.515 -0.1220 -0.0005 -0.7440
 5961SOL    HW129516   3.276   2.653   3.502 -0.1057 -2.4306 -0.1553
 5961SOL    HW229517   3.385   2.595   3.587  2.9077 -0.3790 -1.6422
 5962SOL     OW29518   4.613   2.888   9.532 -0.6583 -0.0196 -0.0973
 5962SOL    HW129519   4.658   2.841   9.603  1.2723 -1.1407 -2.0666
 5962SOL    HW229520   4.523   2.869   9.559 -0.2381  0.5102  1.6775
 5963SOL     OW29521   0.508   4.541  12.660 -0.0171  0.4127  0.3230
 5963SOL    HW129522   0.492   4.482  12.586 -0.8197  0.5440  0.3933
 5963SOL    HW229523   0.435   4.504  12.710  0.0848 -0.4421 -0.1666
 5964SOL     OW29524   4.224   3.548   6.776  0.6595 -0.2138  0.7582
 5964SOL    HW129525   4.134   3.518   6.765 -0.3613  2.4901  1.7890
 5964SOL    HW229526   4.272   3.512   6.701 -2.1808 -1.3414 -0.4814
 5965SOL     OW29527   0.319   2.086   7.892 -0.0461  0.2908 -0.0851
 5965SOL    HW129528   0.383   2.108   7.825 -0.1923 -0.0104 -0.3267
 5965SOL    HW229529   0.365   2.064   7.972  0.5617  2.9579  0.2728
 5966SOL     OW29530   3.351   3.479   4.446  0.5214 -0.3399 -0.1585
 5966SOL    HW129531   3.376   3.523   4.527 -1.5758 -2.2294  1.5325
 5966SOL    HW229532   3.332   3.556   4.393  0.9253  0.8387  1.4159
 5967SOL     OW29533   0.499   3.764   0.618  0.4821  0.4627 -0.6393
 5967SOL    HW129534   0.510   3.776   0.523 -1.4015  1.9995 -0.6723
 5967SOL    HW229535   0.452   3.846   0.635 -0.5130 -0.2790  0.1973
 5968SOL     OW29536   2.099   4.652   7.023 -0.4460  0.3237  0.4724
 5968SOL    HW129537   2.025   4.613   6.976 -0.5837  2.3576 -0.9506
 5968SOL    HW229538   2.177   4.605   6.994  0.3701  2.0282 -0.0551
 5969SOL     OW29539   0.906   3.439   9.754 -0.5461 -0.5790 -1.0139
 5969SOL    HW129540   0.986   3.464   9.709  0.0809 -1.3550 -0.3067
 5969SOL    HW229541   0.940   3.439   9.844 -1.1164 -0.6601 -0.7941
 5970SOL     OW29542   2.536   1.746   4.385  0.1737  0.0710 -0.1366
 5970SOL    HW129543   2.446   1.716   4.377 -0.0887  0.6117  0.8615
 5970SOL    HW229544   2.580   1.661   4.384  1.3031  0.6758 -1.5316
 5971SOL     OW29545   3.442   2.814  13.325 -0.3252  0.1079 -0.0985
 5971SOL    HW129546   3.456   2.758  13.249  2.0838  0.5425  0.0136
 5971SOL    HW229547   3.408   2.754  13.391 -0.8835 -0.1641 -0.6391
 5972SOL     OW29548   0.573   3.738   7.278 -0.2243 -0.6195 -0.1913
 5972SOL    HW129549   0.641   3.746   7.344 -0.1847  1.0562 -0.4306
 5972SOL    HW229550   0.514   3.675   7.318  0.2875  0.5870  2.4135
 5973SOL     OW29551   0.696   1.596  16.043  0.1306  0.2771 -0.8879
 5973SOL    HW129552   0.699   1.686  16.011  2.1082  0.1839 -1.0130
 5973SOL    HW229553   0.790   1.599  16.060 -0.0557 -2.7264  0.6040
 5974SOL     OW29554   4.297   1.985   8.853 -0.3044  0.7129  0.5120
 5974SOL    HW129555   4.350   2.046   8.802  0.1467 -0.3038 -0.2287
 5974SOL    HW229556   4.259   2.055   8.907 -0.0219  1.8261 -0.7405
 5975SOL     OW29557   4.497   3.145  10.507 -0.0074 -0.5968 -0.3190
 5975SOL    HW129558   4.459   3.232  10.521 -3.0019 -1.8630 -0.7246
 5975SOL    HW229559   4.497   3.115  10.598 -1.3037  0.1089 -0.0807
 5976SOL     OW29560   3.898   3.231  17.555 -0.5936 -0.1112 -0.2141
 5976SOL    HW129561   3.958   3.160  17.532  0.5155  1.2762 -1.6347
 5976SOL    HW229562   3.814   3.187  17.556 -0.2831 -0.7043 -0.0749
 5977SOL     OW29563   2.645   2.422   3.132  0.0193 -0.7000  0.6251
 5977SOL    HW129564   2.683   2.404   3.046 -0.5834  4.3314 -0.7379
 5977SOL    HW229565   2.726   2.409   3.181  0.4496 -0.4619 -0.0161
 5978SOL     OW29566   4.586   1.793   6.247  0.0979 -0.0745 -0.1437
 5978SOL    HW129567   4.554   1.790   6.337  0.0771  0.4990 -0.1337
 5978SOL    HW229568   4.508   1.760   6.202  1.4011 -2.1003 -0.9292
 5979SOL     OW29569   1.508   3.177   6.975  0.3396  0.5769  0.9613
 5979SOL    HW129570   1.454   3.249   7.007 -0.6191  0.9048 -1.3538
 5979SOL    HW229571   1.579   3.188   7.038  1.8159 -0.3943 -0.5118
 5980SOL     OW29572   1.977   3.337   5.077  0.7975  0.0123  0.4447
 5980SOL    HW129573   1.951   3.287   5.154  0.3341 -0.7538 -0.2047
 5980SOL    HW229574   1.910   3.314   5.013  1.2820  1.3991 -0.5597
 5981SOL     OW29575   1.169   1.749   5.627 -0.3678 -0.0904 -0.1300
 5981SOL    HW129576   1.108   1.731   5.555 -0.3813  0.1650 -0.1838
 5981SOL    HW229577   1.112   1.744   5.704 -2.2962  1.7479 -1.4119
 5982SOL     OW29578   3.799   4.618   8.381 -0.4591  0.1945 -0.1390
 5982SOL    HW129579   3.705   4.631   8.365 -0.8411 -1.3116  0.9276
 5982SOL    HW229580   3.834   4.678   8.315 -0.7285 -0.1896 -0.6230
 5983SOL     OW29581   0.364   4.520  16.095  0.1130  0.7387 -0.4075
 5983SOL    HW129582   0.453   4.532  16.126  0.7799 -2.1011 -1.2367
 5983SOL    HW229583   0.341   4.430  16.121  2.9647 -0.2109 -1.1606
 5984SOL     OW29584   0.102   0.265   8.886 -0.2577  0.0892  0.1918
 5984SOL    HW129585   0.011   0.236   8.880 -0.6082  1.3595 -0.6198
 5984SOL    HW229586   0.109   0.325   8.960 -0.3666 -0.8056  0.9408
 5985SOL     OW29587   3.703   2.571   0.704  0.0818  0.6886  0.1984
 5985SOL    HW129588   3.759   2.513   0.653 -1.8102 -1.9430  1.1412
 5985SOL    HW229589   3.724   2.557   0.797 -0.2748  1.1968  0.3596
 5986SOL     OW29590   0.850   0.794  11.659  0.1886  0.2607 -0.3983
 5986SOL    HW129591   0.901   0.874  11.653  2.2679 -1.0999 -1.1296
 5986SOL    HW229592   0.762   0.830  11.662  0.2596  0.4143 -0.2229
 5987SOL     OW29593   4.112   4.356  13.837  0.1356 -0.4651  0.4917
 5987SOL    HW129594   4.091   4.367  13.930  1.3399 -0.4297  0.7563
 5987SOL    HW229595   4.178   4.425  13.827 -0.8830  0.0994 -2.3024
 5988SOL     OW29596   1.695   3.122  15.894 -0.0753  0.1895 -0.1602
 5988SOL    HW129597   1.769   3.091  15.841  0.4101 -3.1407  2.4765
 5988SOL    HW229598   1.743   3.139  15.975  0.7293  1.0187 -0.8156
 5989SOL     OW29599   2.451   2.934  11.562  0.1782 -0.1170  0.4165
 5989SOL    HW129600   2.426   2.998  11.495  1.6871  0.7512  0.6898
 5989SOL    HW229601   2.368   2.885  11.564 -0.4039  0.7896 -1.2118
 5990SOL     OW29602   0.740   3.416   4.231 -0.2775  0.5689 -0.4170
 5990SOL    HW129603   0.714   3.374   4.313  2.7882  0.1852  0.3517
 5990SOL    HW229604   0.762   3.503   4.264  1.1309  0.1841 -0.3217
 5991SOL     OW29605   2.780   0.040   2.520  0.2016  0.0544 -0.6223
 5991SOL    HW129606   2.816   0.120   2.481  2.4369 -1.4286 -1.6189
 5991SOL    HW229607   2.852   0.005   2.572 -0.7550 -2.0630 -0.7420
 5992SOL     OW29608   4.559   1.213   8.911 -0.1657 -0.6206 -0.3082
 5992SOL    HW129609   4.585   1.263   8.989  2.8111  1.2374 -2.5163
 5992SOL    HW229610   4.486   1.162   8.948 -0.7106  1.0314  0.9077
 5993SOL     OW29611   2.197   2.336   8.116 -0.2098 -0.4352  0.2547
 5993SOL    HW129612   2.120   2.393   8.114 -0.6055 -0.9091  1.5764
 5993SOL    HW229613   2.164   2.248   8.101  0.3576 -0.5243 -0.4538
 5994SOL     OW29614   1.805   3.691   2.647  0.3502  0.0463 -0.0907
 5994SOL    HW129615   1.845   3.615   2.605 -0.0831 -0.7486  0.9208
 5994SOL    HW229616   1.820   3.759   2.582  2.1044  0.4680  0.7474
 5995SOL     OW29617   1.491   1.314   5.065 -0.1502  0.0240  0.1528
 5995SOL    HW129618   1.565   1.348   5.116 -1.4453 -0.1296  2.1480
 5995SOL    HW229619   1.508   1.222   5.081  2.2718  0.1644 -1.6725
 5996SOL     OW29620   3.418   0.458   5.935 -0.0483  0.7353 -0.1355
 5996SOL    HW129621   3.420   0.401   6.013 -0.2492 -1.6718 -1.8820
 5996SOL    HW229622   3.496   0.513   5.939  0.1631  0.3033  2.1069
 5997SOL     OW29623   3.454   3.058   2.865  0.0920 -0.2630 -0.4306
 5997SOL    HW129624   3.498   2.990   2.916  1.2003  0.9438  0.2131
 5997SOL    HW229625   3.520   3.097   2.807  1.4443  0.4980  1.6394
 5998SOL     OW29626   0.910   3.457   4.938  0.0341  0.4048 -0.4680
 5998SOL    HW129627   0.815   3.446   4.933  0.0283  0.1633  0.1663
 5998SOL    HW229628   0.914   3.424   5.028  1.1106 -0.8604 -0.9896
 5999SOL     OW29629   0.878   2.751  16.169 -0.5065 -0.0754  0.3662
 5999SOL    HW129630   0.838   2.730  16.253 -0.6630  0.0459  0.3222
 5999SOL    HW229631   0.802   2.773  16.114  0.3405 -1.1904 -1.2472
 6000SOL     OW29632   1.009   4.515   3.440 -0.2993  0.0576 -0.1260
 6000SOL    HW129633   1.063   4.529   3.518 -0.6677  1.1398 -0.0637
 6000SOL    HW229634   1.027   4.422   3.423 -0.4443 -0.3139  1.7856
 6001SOL     OW29635   1.776   1.634  15.073  0.4071  0.1526 -0.0850
 6001SOL    HW129636   1.835   1.574  15.028  0.0166 -0.3661  0.0901
 6001SOL    HW229637   1.705   1.570  15.081  1.6380 -1.2669 -0.4734
 6002SOL     OW29638   4.405   4.125   8.701  0.3038 -0.0305  0.6258
 6002SOL    HW129639   4.381   4.201   8.647  0.3455  0.0262  0.6856
 6002SOL    HW229640   4.496   4.149   8.684 -0.2683  2.1853  0.5638
 6003SOL     OW29641   4.540   4.644   9.963 -0.6012  0.5564 -0.8530
 6003SOL    HW129642   4.534   4.722   9.908  0.7628 -0.0529 -1.8614
 6003SOL    HW229643   4.447   4.625   9.977 -0.2115  0.7146  1.7871
 6004SOL     OW29644   3.995   2.752   5.700 -0.1187 -0.0642  0.1205
 6004SOL    HW129645   4.033   2.823   5.648 -1.8863  0.9554  0.2070
 6004SOL    HW229646   3.958   2.794   5.778  0.8878  2.8356 -0.9445
 6005SOL     OW29647   2.513   3.706   2.995 -0.0420 -0.0379  0.3918
 6005SOL    HW129648   2.575   3.645   3.034 -0.9780 -2.0113 -1.1951
 6005SOL    HW229649   2.529   3.778   3.057  0.3903  1.4458 -1.4221
 6006SOL     OW29650   4.441   2.487   6.783 -0.1020 -0.2680  0.1433
 6006SOL    HW129651   4.490   2.446   6.854  0.5008 -2.4751 -1.5630
 6006SOL    HW229652   4.463   2.580   6.787 -1.0140 -0.0515  0.1057
 6007SOL     OW29653   1.493   2.221  12.304 -0.2092  0.4178 -0.2511
 6007SOL    HW129654   1.424   2.180  12.252  0.0601  0.1476 -0.3936
 6007SOL    HW229655   1.467   2.311  12.324  0.5849  0.5653  0.1336
 6008SOL     OW29656   0.356   4.204   5.577 -0.2725  0.2094  0.1624
 6008SOL    HW129657   0.312   4.282   5.542  1.5011  1.6181  1.0582
 6008SOL    HW229658   0.335   4.199   5.670  1.2160 -0.4481  0.4475
 6009SOL     OW29659   2.132   2.344   7.600  0.3229  0.2294  0.4141
 6009SOL    HW129660   2.186   2.350   7.679  1.3282 -0.3747 -0.2331
 6009SOL    HW229661   2.191   2.364   7.527 -0.8932 -0.5703 -0.7700
 6010SOL     OW29662   2.550   3.601  17.329 -0.5893 -0.2206  0.0610
 6010SOL    HW129663   2.486   3.670  17.345  0.7842  0.5534  2.2136
 6010SOL    HW229664   2.627   3.640  17.370 -1.0032  1.1239 -0.4651
 6011SOL     OW29665   3.305   0.252   8.498 -0.0730  0.0719 -0.5356
 6011SOL    HW129666   3.284   0.201   8.420 -0.7076  1.1267 -1.0431
 6011SOL    HW229667   3.392   0.217   8.514 -0.6146 -1.1219 -0.1376
 6012SOL     OW29668   2.745   2.310   7.904  0.0704  0.5795  0.1423
 6012SOL    HW129669   2.660   2.352   7.916  0.2237  0.8838  0.1563
 6012SOL    HW229670   2.772   2.292   7.994 -0.2398  1.0901  0.3349
 6013SOL     OW29671   3.142   4.403  11.668  0.4816 -0.4049 -0.2079
 6013SOL    HW129672   3.103   4.406  11.581  0.3285  0.1488 -0.1185
 6013SOL    HW229673   3.226   4.376  11.631  0.7018 -2.1393  1.5877
 6014SOL     OW29674   3.645   1.307   4.169 -0.5701  0.7711 -0.1123
 6014SOL    HW129675   3.673   1.220   4.196 -0.9868  0.5213 -0.4961
 6014SOL    HW229676   3.617   1.342   4.254 -0.7807  0.5312 -0.0855
 6015SOL     OW29677   1.463   0.823   4.219  0.1005 -0.0277 -0.3522
 6015SOL    HW129678   1.435   0.870   4.298 -1.2206  2.0205 -2.0684
 6015SOL    HW229679   1.424   0.863   4.142  1.7851  1.2279 -0.5510
 6016SOL     OW29680   0.284   1.293   6.736 -0.5294  0.0517  0.0758
 6016SOL    HW129681   0.245   1.367   6.689 -2.4541 -0.7773  0.3747
 6016SOL    HW229682   0.273   1.333   6.823  0.4733  1.3480 -0.3863
 6017SOL     OW29683   0.103   1.344   5.775  0.4276 -0.3870  0.0140
 6017SOL    HW129684   0.017   1.307   5.752 -0.2894  1.7705 -0.7291
 6017SOL    HW229685   0.096   1.421   5.719  3.0764  1.4717  2.3060
 6018SOL     OW29686   2.669   1.144   3.676 -0.0362  0.5257 -0.1439
 6018SOL    HW129687   2.617   1.065   3.693 -2.1989  1.6755 -1.4646
 6018SOL    HW229688   2.731   1.137   3.750 -0.2163  2.0891  0.1474
 6019SOL     OW29689   4.353   3.532  15.462  0.5252  0.0404 -0.1986
 6019SOL    HW129690   4.357   3.626  15.445 -0.5415 -0.2725 -2.2247
 6019SOL    HW229691   4.266   3.516  15.500  0.6053 -0.0368 -0.0448
 6020SOL     OW29692   3.375   3.081   5.014  0.0100 -0.5976 -0.3420
 6020SOL    HW129693   3.303   3.033   5.055 -0.5496 -0.6208 -1.3452
 6020SOL    HW229694   3.339   3.094   4.926  2.2425 -1.9917 -1.4838
 6021SOL     OW29695   2.606   1.713   3.178 -0.5120 -0.0271  0.0929
 6021SOL    HW129696   2.528   1.725   3.123 -0.7346  0.5885  0.5455
 6021SOL    HW229697   2.576   1.655   3.248 -1.3482  0.2420 -0.0502
 6022SOL     OW29698   3.667   4.445  14.706  0.1746  0.3787  0.2773
 6022SOL    HW129699   3.697   4.483  14.624  3.0213 -2.0490  0.1978
 6022SOL    HW229700   3.583   4.407  14.679 -0.2118  1.1115  0.4490
 6023SOL     OW29701   2.781   1.728   5.125  0.6924  0.1525 -0.3824
 6023SOL    HW129702   2.762   1.780   5.047 -0.2930 -0.9057 -0.8366
 6023SOL    HW229703   2.851   1.782   5.161 -0.1201  1.3052 -0.5340
 6024SOL     OW29704   0.506   2.458   2.949 -0.0611  0.1200 -0.2415
 6024SOL    HW129705   0.597   2.432   2.933  0.2774  0.6172  0.9011
 6024SOL    HW229706   0.465   2.457   2.862  0.7961  0.3846 -0.6524
 6025SOL     OW29707   2.423   3.492   5.215 -0.5700 -0.1208  0.0627
 6025SOL    HW129708   2.438   3.441   5.295  1.5818  1.6564  0.7944
 6025SOL    HW229709   2.499   3.483   5.157 -1.0410  0.4235 -0.6428
 6026SOL     OW29710   3.873   2.178   7.657 -0.2626 -0.1436  0.0615
 6026SOL    HW129711   3.945   2.152   7.715  0.6281  0.0266 -0.9655
 6026SOL    HW229712   3.807   2.216   7.715 -1.6374 -1.0325 -0.9187
 6027SOL     OW29713   1.470   1.128   7.130 -0.2477  0.4455  0.2471
 6027SOL    HW129714   1.543   1.082   7.090 -1.4036 -1.0191 -0.1870
 6027SOL    HW229715   1.506   1.213   7.156  0.1724 -0.1103  1.4656
 6028SOL     OW29716   3.976   0.822   2.216  0.2649  0.0299  0.4861
 6028SOL    HW129717   3.963   0.884   2.144 -0.4274  0.7310  1.2158
 6028SOL    HW229718   4.058   0.853   2.254  0.9511  0.6147 -1.4686
 6029SOL     OW29719   2.849   2.348   8.194 -0.4262  0.3002 -0.1834
 6029SOL    HW129720   2.798   2.305   8.262  1.6795  0.0348  1.2410
 6029SOL    HW229721   2.936   2.354   8.234 -0.4247  3.7363 -0.6593
 6030SOL     OW29722   0.524   2.950   3.159  0.6923  0.4207 -0.4210
 6030SOL    HW129723   0.507   2.872   3.106  0.2265 -1.0474  1.9070
 6030SOL    HW229724   0.571   3.008   3.098 -1.1346 -0.0267 -2.2397
 6031SOL     OW29725   4.219   4.001  15.207  0.2330  0.1767  0.6346
 6031SOL    HW129726   4.230   3.948  15.128 -1.5023  1.2003 -0.2800
 6031SOL    HW229727   4.221   3.930  15.270  1.3858 -0.0593  0.3366
 6032SOL     OW29728   1.357   3.553   8.588 -0.6305 -0.4037 -0.2225
 6032SOL    HW129729   1.369   3.554   8.683  2.3474  0.5913 -0.6269
 6032SOL    HW229730   1.261   3.555   8.584 -0.6797  0.1955  1.2826
 6033SOL     OW29731   3.304   2.129  16.544  0.3769  0.0642  0.4667
 6033SOL    HW129732   3.377   2.188  16.566  2.4132 -2.1127 -0.4744
 6033SOL    HW229733   3.231   2.187  16.522  0.0452 -0.2878  0.6391
 6034SOL     OW29734   4.658   0.267   8.255 -0.3777  0.1843  0.4779
 6034SOL    HW129735   4.703   0.345   8.286 -0.6556 -0.0086  1.3725
 6034SOL    HW229736   4.724   0.214   8.210 -1.8994  1.2531 -3.0241
 6035SOL     OW29737   3.038   1.719  15.247 -0.3268  0.2753  0.7902
 6035SOL    HW129738   3.037   1.782  15.175 -2.7550  0.5003  1.0202
 6035SOL    HW229739   3.094   1.764  15.311  0.4488  0.0487  0.2773
 6036SOL     OW29740   1.052   3.661   7.367  0.1599  0.3104  0.2606
 6036SOL    HW129741   1.117   3.590   7.363  0.1200  0.3743 -1.6066
 6036SOL    HW229742   1.108   3.734   7.390 -1.0491  1.0775  0.7580
 6037SOL     OW29743   4.605   4.431   6.655 -0.3773 -0.1139 -0.2697
 6037SOL    HW129744   4.564   4.517   6.644 -1.6419 -0.8184 -1.0983
 6037SOL    HW229745   4.529   4.380   6.625 -0.6678 -0.2578  0.6974
 6038SOL     OW29746   3.982   0.366  11.775  0.0148  0.0265  0.1977
 6038SOL    HW129747   4.028   0.318  11.844  2.0546  1.3421 -0.2513
 6038SOL    HW229748   3.902   0.368  11.827  1.2052  1.2526  1.9606
 6039SOL     OW29749   2.348   2.223  14.291  0.2194 -0.2607 -0.0972
 6039SOL    HW129750   2.278   2.190  14.235 -0.2235  0.8053 -0.1718
 6039SOL    HW229751   2.319   2.314  14.296 -1.0231 -0.6128 -1.0029
 6040SOL     OW29752   0.725   2.041  16.080  0.2402 -0.0598 -0.0724
 6040SOL    HW129753   0.656   2.001  16.133 -1.1939 -0.3080 -2.0986
 6040SOL    HW229754   0.742   2.126  16.122  0.5909 -1.0107  1.6966
 6041SOL     OW29755   3.520   0.601   5.262  0.5500  0.2869  0.1213
 6041SOL    HW129756   3.526   0.508   5.245 -1.5128 -0.0397  1.1341
 6041SOL    HW229757   3.442   0.591   5.318 -0.2121 -0.4321 -1.0622
 6042SOL     OW29758   2.070   1.440   9.271  0.0436  0.2978 -0.3829
 6042SOL    HW129759   2.153   1.470   9.309 -1.2366  2.6711  0.6031
 6042SOL    HW229760   2.092   1.389   9.193 -1.9275 -0.0711 -0.6931
 6043SOL     OW29761   3.412   4.672   8.759  0.3754  0.2572  0.4691
 6043SOL    HW129762   3.490   4.636   8.801  0.2920 -0.5188 -0.0427
 6043SOL    HW229763   3.356   4.664   8.836  0.8735  0.9357  0.9019
 6044SOL     OW29764   3.590   3.901  17.739 -0.5775 -0.5711  0.0595
 6044SOL    HW129765   3.608   3.939  17.653 -0.9158  0.1839  0.3227
 6044SOL    HW229766   3.582   3.814  17.700 -2.0203  0.9922 -3.1465
 6045SOL     OW29767   3.701   3.871   8.095  0.0996 -0.5954 -0.6318
 6045SOL    HW129768   3.690   3.847   8.187  3.2402 -0.8309 -0.3116
 6045SOL    HW229769   3.769   3.938   8.104  1.0068 -1.3886 -1.5592
 6046SOL     OW29770   0.756   3.317   8.871 -0.2471  0.4015  0.5395
 6046SOL    HW129771   0.736   3.351   8.784 -2.6157 -1.6534  0.2811
 6046SOL    HW229772   0.665   3.292   8.885 -0.4762  1.3446  0.7351
 6047SOL     OW29773   2.186   1.354   3.961 -0.5247  0.0512  0.1315
 6047SOL    HW129774   2.113   1.392   3.912 -0.7666  1.2481  1.4327
 6047SOL    HW229775   2.149   1.268   3.982  0.9724 -0.8549 -0.9631
 6048SOL     OW29776   2.272   3.151  12.485 -0.4756 -0.4961  0.1323
 6048SOL    HW129777   2.188   3.172  12.526 -1.2926  0.1676 -1.8673
 6048SOL    HW229778   2.294   3.069  12.528  1.4210  1.0988  2.1817
 6049SOL     OW29779   4.258   1.332   8.281  0.6880  0.1960  0.0122
 6049SOL    HW129780   4.254   1.406   8.220 -0.5389 -1.2629 -1.6864
 6049SOL    HW229781   4.253   1.260   8.218 -3.0134 -1.8806  2.7333
 6050SOL     OW29782   0.730   2.237  16.256 -0.1262 -0.0152 -0.0377
 6050SOL    HW129783   0.659   2.266  16.312 -0.6781 -1.6348  0.0918
 6050SOL    HW229784   0.716   2.305  16.190  1.7024 -0.3226 -0.7521
 6051SOL     OW29785   1.457   2.932   2.991  0.4129 -0.4064  0.2068
 6051SOL    HW129786   1.521   2.989   2.950  0.3869 -0.5267 -0.0052
 6051SOL    HW229787   1.487   2.843   2.970  0.4331 -0.1929 -0.6557
 6052SOL     OW29788   1.896   1.470   2.234  0.0892 -0.1655  0.2998
 6052SOL    HW129789   1.937   1.455   2.319  0.2255  3.3162  0.8554
 6052SOL    HW229790   1.972   1.492   2.179  0.7453 -0.5592  1.0561
 6053SOL     OW29791   0.837   1.850   5.433 -0.2378  0.3805 -0.4338
 6053SOL    HW129792   0.895   1.911   5.479 -2.5356  0.6820  2.0275
 6053SOL    HW229793   0.896   1.775   5.424  1.4074  1.2958  2.6502
 6054SOL     OW29794   4.278   0.163   8.452 -0.7637 -0.1069  0.2912
 6054SOL    HW129795   4.228   0.166   8.370 -2.3818  0.5360  1.3036
 6054SOL    HW229796   4.362   0.124   8.426 -0.3679  0.7722  0.2473
 6055SOL     OW29797   4.148   2.507   0.214 -0.0731 -0.0701  0.2813
 6055SOL    HW129798   4.107   2.541   0.294 -2.3620 -0.4349 -0.7365
 6055SOL    HW229799   4.233   2.481   0.250 -0.3813 -1.9257 -0.3079
 6056SOL     OW29800   0.895   2.540   7.330  0.2181 -0.0210  0.6871
 6056SOL    HW129801   0.848   2.481   7.271  0.4232 -0.6692  1.1762
 6056SOL    HW229802   0.909   2.619   7.278  0.2167 -0.1903  0.4347
 6057SOL     OW29803   0.597   2.945   5.269 -0.4939 -0.4536  0.1848
 6057SOL    HW129804   0.629   2.958   5.358 -0.2851 -1.2834  0.2250
 6057SOL    HW229805   0.669   2.985   5.221 -1.3550  2.2066  1.0600
 6058SOL     OW29806   4.530   0.448   1.344 -0.2829  0.8070  0.1145
 6058SOL    HW129807   4.481   0.531   1.347 -0.6431  0.6184 -0.5912
 6058SOL    HW229808   4.607   0.481   1.389 -1.4711  0.4056  2.4656
 6059SOL     OW29809   2.412   3.155  10.395  0.1686  0.5827  0.2180
 6059SOL    HW129810   2.391   3.192  10.480 -1.1260 -0.1640  0.2214
 6059SOL    HW229811   2.435   3.228  10.338 -0.1090 -0.3295 -1.0708
 6060SOL     OW29812   0.317   0.112   8.398  0.1642 -0.4817  0.2708
 6060SOL    HW129813   0.260   0.108   8.474 -0.0671  0.6279  0.1627
 6060SOL    HW229814   0.375   0.039   8.418  0.5232 -0.2090  0.2275
 6061SOL     OW29815   1.198   2.404   3.058 -0.7097 -0.3188 -0.4378
 6061SOL    HW129816   1.128   2.470   3.056 -0.4844 -0.0512  0.5535
 6061SOL    HW229817   1.151   2.323   3.040 -0.1122 -0.6980 -0.3094
 6062SOL     OW29818   2.774   3.754  15.793  0.2992  0.1172  0.0067
 6062SOL    HW129819   2.735   3.785  15.875  0.9154 -1.6610  0.9584
 6062SOL    HW229820   2.719   3.677  15.781 -0.5165  0.5194  1.2478
 6063SOL     OW29821   1.190   1.900  15.635 -0.2107  0.2967  0.0540
 6063SOL    HW129822   1.239   1.981  15.648  1.1876 -0.7521  1.3324
 6063SOL    HW229823   1.103   1.925  15.668 -0.5710 -1.8113  0.7198
 6064SOL     OW29824   3.964   2.197   3.386  0.5445 -0.3632 -0.2520
 6064SOL    HW129825   3.975   2.110   3.348 -0.3751  0.1952 -1.8109
 6064SOL    HW229826   3.886   2.225   3.339  0.7840  0.6946 -0.0139
 6065SOL     OW29827   1.253   4.606   7.673  0.3886  0.1068  0.4780
 6065SOL    HW129828   1.305   4.579   7.598 -1.9726  0.0205 -1.1059
 6065SOL    HW229829   1.200   4.529   7.692  3.6184 -1.3769  3.6501
 6066SOL     OW29830   3.707   0.472   1.185 -0.2447  0.0958  0.4242
 6066SOL    HW129831   3.645   0.425   1.130  0.4959 -1.9205  1.3169
 6066SOL    HW229832   3.786   0.434   1.145 -1.0315 -0.5303 -0.5341
 6067SOL     OW29833   4.577   0.052  17.122 -0.3320  0.2765 -0.0008
 6067SOL    HW129834   4.506   0.114  17.109  0.1450  1.3308  2.2717
 6067SOL    HW229835   4.621   0.060  17.038 -0.2591  0.5763  0.0631
 6068SOL     OW29836   4.447   0.901   4.886  0.3036  0.5015  0.1632
 6068SOL    HW129837   4.480   0.968   4.827 -0.7630  0.9532  0.1009
 6068SOL    HW229838   4.528   0.858   4.914  0.9853  1.7743  0.1430
 6069SOL     OW29839   0.226   4.413  10.765 -0.9286 -0.5461 -0.2863
 6069SOL    HW129840   0.303   4.423  10.821 -0.3831 -4.1686 -0.3949
 6069SOL    HW229841   0.161   4.401  10.833 -0.7612  0.0903 -0.0132
 6070SOL     OW29842   0.176   2.107   6.968 -0.1467  0.3777 -0.4286
 6070SOL    HW129843   0.242   2.121   7.037 -0.6902 -0.7630  0.3168
 6070SOL    HW229844   0.224   2.140   6.892  0.0574 -1.0425 -0.9074
 6071SOL     OW29845   2.918   2.174   2.960 -0.0397 -0.1271 -0.1799
 6071SOL    HW129846   2.841   2.201   2.911 -1.0797  0.1828  1.6208
 6071SOL    HW229847   2.989   2.220   2.914 -0.9896  2.0564  0.5388
 6072SOL     OW29848   3.133   3.020   8.017  0.4394  0.2686  0.4416
 6072SOL    HW129849   3.100   3.075   7.946 -2.1351 -0.5389  1.0153
 6072SOL    HW229850   3.107   2.938   7.977 -2.4424  2.5031 -2.2877
 6073SOL     OW29851   1.152   3.052   3.564  0.3140 -0.1896  0.0486
 6073SOL    HW129852   1.186   3.067   3.475  0.1932 -0.4728 -0.0463
 6073SOL    HW229853   1.201   3.102   3.629  1.4017 -1.7325  0.4121
 6074SOL     OW29854   3.538   0.621   8.330  0.2162 -0.1060  0.1296
 6074SOL    HW129855   3.482   0.637   8.406 -0.2840 -0.5660 -0.1434
 6074SOL    HW229856   3.571   0.706   8.301 -0.6943  0.6270  1.2596
 6075SOL     OW29857   1.431   4.157   8.586  0.5086  0.2437 -0.2713
 6075SOL    HW129858   1.405   4.066   8.600 -1.2505  0.7502 -0.1293
 6075SOL    HW229859   1.521   4.156   8.617  1.4126 -0.3560 -2.8861
 6076SOL     OW29860   1.495   2.420  12.526 -0.0754  0.3032 -0.7045
 6076SOL    HW129861   1.548   2.463  12.593 -2.5387  1.4457  0.4888
 6076SOL    HW229862   1.407   2.438  12.558  0.5389 -0.9378  1.6911
 6077SOL     OW29863   3.865   4.031   4.420 -0.2206 -0.3015  0.6676
 6077SOL    HW129864   3.884   3.943   4.454 -0.6484 -0.4666  0.4792
 6077SOL    HW229865   3.919   4.035   4.341 -2.3261 -0.7917 -0.7986
 6078SOL     OW29866   3.249   1.274  16.398 -0.4063 -0.0811  0.1728
 6078SOL    HW129867   3.153   1.281  16.392 -0.7852 -4.0018  1.6834
 6078SOL    HW229868   3.257   1.329  16.477 -1.4224 -0.0888  0.2842
 6079SOL     OW29869   1.416   0.969  17.062 -0.1257 -0.2196  0.0860
 6079SOL    HW129870   1.482   0.900  17.057 -3.4699 -3.4263  0.9324
 6079SOL    HW229871   1.407   0.992  16.969  1.9899  0.9236  0.1458
 6080SOL     OW29872   2.460   2.496   5.740  0.2253 -0.4269  1.1576
 6080SOL    HW129873   2.447   2.514   5.833  2.9853 -1.1145  1.6864
 6080SOL    HW229874   2.510   2.414   5.743  1.3729  0.2700  1.0057
 6081SOL     OW29875   3.014   1.321  14.996 -0.1810  0.4548  0.5160
 6081SOL    HW129876   3.015   1.367  15.080 -1.5954  2.9367 -0.8275
 6081SOL    HW229877   3.025   1.397  14.938  0.5554  1.5598  2.0924
 6082SOL     OW29878   0.369   3.313   5.669  0.8496  0.6120  0.0590
 6082SOL    HW129879   0.362   3.313   5.764 -0.5321 -1.6874 -0.0257
 6082SOL    HW229880   0.285   3.356   5.650  0.7580 -0.3175 -1.5985
 6083SOL     OW29881   2.570   0.163   2.953 -0.2714  0.5666 -0.8585
 6083SOL    HW129882   2.658   0.128   2.936  0.0023  1.6230 -1.6102
 6083SOL    HW229883   2.585   0.208   3.036  1.1846 -0.7583 -0.4017
 6084SOL     OW29884   3.305   1.694   3.341 -0.4924 -0.2632 -0.1709
 6084SOL    HW129885   3.383   1.644   3.316 -0.6374  0.0145 -1.1824
 6084SOL    HW229886   3.243   1.657   3.279 -3.0401 -1.2060  2.9884
 6085SOL     OW29887   2.057   1.134   4.496  0.2902  1.1996 -0.1793
 6085SOL    HW129888   2.061   1.083   4.414  1.9600  2.2120 -0.7090
 6085SOL    HW229889   1.967   1.120   4.525  0.9163 -1.5292  0.4346
 6086SOL     OW29890   2.031   0.574   4.442  0.0265 -0.6297  0.5391
 6086SOL    HW129891   2.087   0.649   4.465  0.7431 -1.0247  0.0898
 6086SOL    HW229892   1.942   0.587   4.474  0.1986 -1.0939  1.2200
 6087SOL     OW29893   1.486   3.256   2.681 -0.2716  0.2614  0.0391
 6087SOL    HW129894   1.542   3.183   2.706 -0.8587  0.2149  1.2353
 6087SOL    HW229895   1.460   3.293   2.765 -1.8034  1.4754 -0.9738
 6088SOL     OW29896   2.831   3.864  15.537 -0.1464 -0.2643 -0.6383
 6088SOL    HW129897   2.820   3.834  15.628 -0.2213  0.0958 -0.5316
 6088SOL    HW229898   2.926   3.874  15.533  0.1487 -1.9023  1.9494
 6089SOL     OW29899   0.761   1.006   7.242  0.2353 -0.0858  0.7244
 6089SOL    HW129900   0.754   1.095   7.276 -0.6380  0.1120  0.0429
 6089SOL    HW229901   0.830   0.968   7.296  2.1608  2.6494  0.1947
 6090SOL     OW29902   3.320   1.195  16.151  0.0341 -0.1842 -0.8113
 6090SOL    HW129903   3.244   1.139  16.166  0.5881 -0.3553  1.2482
 6090SOL    HW229904   3.300   1.265  16.214 -0.6748 -0.5441 -0.6370
 6091SOL     OW29905   3.372   3.360   4.131  0.2370 -0.5615  0.0610
 6091SOL    HW129906   3.378   3.448   4.166 -3.6421  0.2214 -1.2847
 6091SOL    HW229907   3.306   3.320   4.187 -0.0891 -0.0764  0.0177
 6092SOL     OW29908   2.246   2.220   5.056  0.1250  0.2659 -0.1733
 6092SOL    HW129909   2.161   2.262   5.037  1.2757  1.3101 -3.0208
 6092SOL    HW229910   2.300   2.286   5.099  0.1866  0.8161 -1.0850
 6093SOL     OW29911   1.463   3.387  16.210 -0.6242  0.4886  0.3214
 6093SOL    HW129912   1.558   3.374  16.214 -0.6205  0.7291  1.1530
 6093SOL    HW229913   1.445   3.375  16.117  1.2117  0.4332 -0.0352
 6094SOL     OW29914   3.010   0.471  12.360 -0.2341  0.2280 -0.1109
 6094SOL    HW129915   2.925   0.434  12.384  1.0077 -2.0058  0.8302
 6094SOL    HW229916   3.054   0.468  12.445  0.5075  0.2774 -0.4890
 6095SOL     OW29917   3.799   4.572   2.583 -0.0681 -0.1431 -0.1143
 6095SOL    HW129918   3.877   4.532   2.546  0.4769 -2.1354  3.1314
 6095SOL    HW229919   3.757   4.499   2.629 -2.0173  1.4945  0.7068
 6096SOL     OW29920   3.256   3.682   2.742  0.4442 -0.0094 -0.0513
 6096SOL    HW129921   3.235   3.621   2.813  0.6187  1.1969  1.0371
 6096SOL    HW229922   3.349   3.702   2.753  0.6879 -1.4280  0.3888
 6097SOL     OW29923   3.311   3.256   2.425  0.0248  0.2365  0.3245
 6097SOL    HW129924   3.372   3.273   2.496 -0.2524 -1.7390  1.0315
 6097SOL    HW229925   3.312   3.339   2.378 -0.6039 -1.0564 -1.9768
 6098SOL     OW29926   3.609   4.612   4.517 -0.0495  0.1666 -0.2411
 6098SOL    HW129927   3.643   4.565   4.593 -2.0826  0.9824  1.1605
 6098SOL    HW229928   3.684   4.666   4.489  1.2047 -1.7208 -0.5158
 6099SOL     OW29929   0.320   0.848  14.820  0.0857 -0.1594  0.2557
 6099SOL    HW129930   0.275   0.933  14.820 -1.7096 -1.0981 -1.2352
 6099SOL    HW229931   0.368   0.871  14.740 -1.0074  2.6521  0.3868
 6100SOL     OW29932   3.837   3.926   0.436  0.4499 -0.2295  0.1022
 6100SOL    HW129933   3.903   3.897   0.373  0.3570  0.1360 -0.1629
 6100SOL    HW229934   3.863   3.889   0.521 -1.5049 -0.3473  0.6613
 6101SOL     OW29935   2.709   1.471   8.401  0.1972 -0.6841 -0.4454
 6101SOL    HW129936   2.797   1.437   8.381  1.3258 -0.2587  3.8024
 6101SOL    HW229937   2.688   1.401   8.463 -4.1424  0.2911 -0.8218
 6102SOL     OW29938   3.350   0.060   5.404  0.1268  0.2555 -0.1756
 6102SOL    HW129939   3.272   0.112   5.421  0.3428  0.2617  0.8306
 6102SOL    HW229940   3.408   0.127   5.440  0.3316  0.7325 -1.3963
 6103SOL     OW29941   2.298   3.850   3.322  0.7609  0.0074  0.0472
 6103SOL    HW129942   2.230   3.783   3.332  1.9722 -1.2123  0.1202
 6103SOL    HW229943   2.369   3.786   3.319  0.2789 -0.5482  0.5343
 6104SOL     OW29944   1.794   3.966  16.047  0.1728 -0.3969  0.3876
 6104SOL    HW129945   1.725   4.002  15.991  2.4423  0.3583 -1.9311
 6104SOL    HW229946   1.784   3.872  16.032 -0.2486 -0.2685 -0.1272
 6105SOL     OW29947   2.501   1.833   5.931 -0.0725  0.0629  0.0487
 6105SOL    HW129948   2.455   1.752   5.953  2.3881 -1.4082 -0.2314
 6105SOL    HW229949   2.572   1.826   5.995  0.4374 -0.2487 -0.5513
 6106SOL     OW29950   3.258   1.286   7.001 -0.1153 -0.4451  0.3103
 6106SOL    HW129951   3.258   1.378   7.025 -0.0724 -0.6051  0.9169
 6106SOL    HW229952   3.351   1.271   6.983 -0.6926 -0.8590 -2.3662
 6107SOL     OW29953   2.769   2.416   5.757 -0.9257  0.0712 -0.2498
 6107SOL    HW129954   2.775   2.501   5.800 -0.7526 -0.1544  0.1761
 6107SOL    HW229955   2.788   2.446   5.668 -0.0865 -2.0380 -0.8020
 6108SOL     OW29956   0.887   3.319   5.588  0.3749  0.4810  1.0646
 6108SOL    HW129957   0.806   3.349   5.630  0.9190  2.1176  0.9262
 6108SOL    HW229958   0.932   3.274   5.660 -0.1126  0.3014  1.2567
 6109SOL     OW29959   1.188   3.909   6.204  0.2940  0.2064  0.1258
 6109SOL    HW129960   1.195   4.003   6.186  2.6904  0.0996  0.5345
 6109SOL    HW229961   1.279   3.896   6.232  0.6412  1.2654 -0.4860
 6110SOL     OW29962   1.542   4.669  10.587 -0.0702  0.0037  0.1684
 6110SOL    HW129963   1.542   4.708  10.674  0.1557 -1.9050  1.0296
 6110SOL    HW229964   1.624   4.620  10.595 -0.4421 -0.9174 -1.4896
 6111SOL     OW29965   4.470   3.567  14.030  0.3084 -0.0120  0.3767
 6111SOL    HW129966   4.509   3.637  13.979 -2.4344 -0.3453 -2.1927
 6111SOL    HW229967   4.452   3.618  14.109  1.3752  0.9644 -0.0086
 6112SOL     OW29968   0.409   0.289   8.048  0.0718  0.1236  0.3132
 6112SOL    HW129969   0.430   0.299   8.141  0.6549 -0.4145  0.2420
 6112SOL    HW229970   0.318   0.314   8.062 -0.4130 -1.0169 -0.8452
 6113SOL     OW29971   2.065   0.031   4.262 -0.1217  0.2398  0.0757
 6113SOL    HW129972   2.107   4.717   4.332  0.1262  2.4388  1.4643
 6113SOL    HW229973   2.064   0.117   4.304  3.0616  0.7930 -0.9867
 6114SOL     OW29974   2.379   0.053  16.973 -0.2972  0.1375 -0.3219
 6114SOL    HW129975   2.431   0.063  16.893 -1.5124 -1.2621 -1.2685
 6114SOL    HW229976   2.288   0.063  16.946 -0.1561  0.2483 -0.7409
 6115SOL     OW29977   2.403   0.924   1.606  1.0479  0.3943  0.4588
 6115SOL    HW129978   2.478   0.945   1.549  0.9370 -1.4618 -0.3559
 6115SOL    HW229979   2.400   0.829   1.601 -1.9448  0.5886 -1.5523
 6116SOL     OW29980   1.504   2.744  11.191  0.0994  0.2819  0.0394
 6116SOL    HW129981   1.547   2.708  11.114  2.5666  1.2305  0.9911
 6116SOL    HW229982   1.521   2.838  11.186 -1.1943  0.5046 -0.1374
 6117SOL     OW29983   2.950   0.917   4.246  0.2257 -0.3175  0.0756
 6117SOL    HW129984   2.974   0.890   4.157  1.3503 -2.9369  1.1811
 6117SOL    HW229985   2.866   0.871   4.241  0.1986 -0.1524 -1.0174
 6118SOL     OW29986   2.856   1.753  12.948 -0.2349  0.3961 -0.0741
 6118SOL    HW129987   2.830   1.713  12.865  1.7716  2.2966 -1.6255
 6118SOL    HW229988   2.830   1.843  12.929 -0.0403  0.1888 -1.2893
 6119SOL     OW29989   0.317   0.488   3.008 -0.1356 -0.2686 -0.0026
 6119SOL    HW129990   0.375   0.539   3.066  2.0039  1.6276 -3.8549
 6119SOL    HW229991   0.262   0.562   2.981 -0.4298 -0.5588 -0.1878
 6120SOL     OW29992   4.101   4.560  17.063 -0.2052 -0.0077  0.1957
 6120SOL    HW129993   4.163   4.552  16.991  1.3802  0.1456  1.5395
 6120SOL    HW229994   4.086   4.654  17.054  1.2791  0.3413  1.3843
 6121SOL     OW29995   2.960   4.307   9.072 -0.3337 -0.2702 -0.4968
 6121SOL    HW129996   3.025   4.327   9.140 -0.6885 -0.0304 -0.2252
 6121SOL    HW229997   2.881   4.286   9.122 -0.7407 -0.3078 -1.1549
 6122SOL     OW29998   1.068   0.967   3.322  0.3198 -0.1097 -0.0517
 6122SOL    HW129999   1.105   1.019   3.393  1.5131  0.5073 -1.1383
 6122SOL    HW230000   1.099   1.015   3.245 -0.1387  1.5621  0.8115
 6123SOL     OW30001   3.209   4.547   2.951 -0.0959  0.4317 -0.2470
 6123SOL    HW130002   3.280   4.554   2.886  0.6049 -0.9921  0.3807
 6123SOL    HW230003   3.209   4.458   2.987  0.9442  0.4682 -0.1483
 6124SOL     OW30004   1.893   3.867   1.097 -0.4832 -0.1902  0.6025
 6124SOL    HW130005   1.945   3.810   1.041 -0.3697 -1.1363  1.6915
 6124SOL    HW230006   1.940   3.951   1.102  0.0113 -0.2877 -2.0222
 6125SOL     OW30007   3.785   0.108   4.497  0.3301  0.9203  0.3598
 6125SOL    HW130008   3.877   0.088   4.480  0.0390  0.7906 -1.0124
 6125SOL    HW230009   3.758   0.115   4.406  1.0721 -0.4420  0.0383
 6126SOL     OW30010   4.013   0.337   2.007  0.3548  0.9097  0.3685
 6126SOL    HW130011   3.964   0.414   2.038 -3.7922 -1.4780 -0.2286
 6126SOL    HW230012   4.104   0.355   2.029  1.1780  0.6561 -2.8375
 6127SOL     OW30013   1.057   2.915   7.369 -0.1471 -0.2968  0.4595
 6127SOL    HW130014   1.118   2.889   7.437  0.1924  0.3544  0.4059
 6127SOL    HW230015   1.087   2.858   7.298 -1.1075  0.3211 -0.4537
 6128SOL     OW30016   3.957   2.555   2.638 -0.6797 -0.2402 -0.0119
 6128SOL    HW130017   4.004   2.475   2.615  0.1772 -0.3686  2.1519
 6128SOL    HW230018   3.879   2.554   2.584  1.5430  1.3692 -3.2724
 6129SOL     OW30019   2.096   4.492  11.146  0.2398  0.1847 -0.0014
 6129SOL    HW130020   2.031   4.544  11.193  2.5879  1.1080  2.1686
 6129SOL    HW230021   2.057   4.407  11.164  2.4474 -0.5228  1.3297
 6130SOL     OW30022   3.166   4.556  11.051  0.1838 -0.0995 -0.5094
 6130SOL    HW130023   3.235   4.516  11.104  0.2873 -1.4694 -1.6641
 6130SOL    HW230024   3.196   4.585  10.966  0.4871  1.1447  0.0302
 6131SOL     OW30025   3.695   3.959  17.081 -0.0470  0.3790  0.3106
 6131SOL    HW130026   3.702   3.950  16.986  0.5529  1.4939  0.2509
 6131SOL    HW230027   3.658   3.874  17.103  1.8700 -0.5827 -0.1107
 6132SOL     OW30028   3.157   1.233   8.335 -0.2815  0.1821  0.0642
 6132SOL    HW130029   3.228   1.178   8.367 -0.1863 -0.3953 -1.1554
 6132SOL    HW230030   3.175   1.219   8.242  0.0246 -3.2707  0.6266
 6133SOL     OW30031   1.845   3.610   4.272 -0.3571  0.4633 -0.1324
 6133SOL    HW130032   1.913   3.673   4.247 -0.7317  2.0322  2.8247
 6133SOL    HW230033   1.816   3.570   4.190 -1.3958 -1.5859  1.2437
 6134SOL     OW30034   1.449   1.005   5.719  0.0399  0.0115  0.3926
 6134SOL    HW130035   1.504   0.928   5.726  0.6785  0.4058 -0.3652
 6134SOL    HW230036   1.466   1.014   5.626  3.0092 -1.7309  0.7663
 6135SOL     OW30037   4.469   2.254   2.229 -0.7867  0.0515 -0.3668
 6135SOL    HW130038   4.407   2.181   2.228 -0.7763  0.0848 -3.0306
 6135SOL    HW230039   4.511   2.231   2.146 -0.8939 -2.3203  0.2308
 6136SOL     OW30040   3.096   4.494   9.710  0.1155 -0.3801  0.1315
 6136SOL    HW130041   3.144   4.568   9.674 -0.4034 -0.5951 -1.0190
 6136SOL    HW230042   3.006   4.522   9.690  0.4007  0.9190  0.7288
 6137SOL     OW30043   4.524   2.300  17.026 -0.3317  0.2082 -0.3909
 6137SOL    HW130044   4.587   2.234  16.996  0.1440 -0.1607  1.4350
 6137SOL    HW230045   4.564   2.351  17.096  1.3337 -1.7491  0.1231
 6138SOL     OW30046   1.802   1.463   0.312  0.0264 -0.1322  1.0167
 6138SOL    HW130047   1.746   1.393   0.278  2.4000 -1.6274  0.2088
 6138SOL    HW230048   1.885   1.434   0.275 -0.3723  1.1224 -0.8549
 6139SOL     OW30049   0.500   2.682   9.219 -0.0753  0.4878  0.1376
 6139SOL    HW130050   0.493   2.664   9.313 -1.9541 -0.2835 -0.1455
 6139SOL    HW230051   0.496   2.591   9.190 -2.5460  0.3474  0.9403
 6140SOL     OW30052   4.553   4.464   8.566 -0.2128  0.6098  0.2927
 6140SOL    HW130053   4.635   4.499   8.531  0.2065 -0.5292  0.1518
 6140SOL    HW230054   4.573   4.376   8.598 -0.8089 -0.2363 -1.6976
 6141SOL     OW30055   2.407   1.314   6.082  0.6030 -0.1429 -0.0632
 6141SOL    HW130056   2.438   1.229   6.112  0.6210 -0.6019 -1.3939
 6141SOL    HW230057   2.417   1.356   6.168 -0.5041 -1.4141  0.6922
 6142SOL     OW30058   4.474   0.275  16.557 -0.4079 -0.0561 -0.3584
 6142SOL    HW130059   4.406   0.309  16.499  0.0594  1.5479  0.0223
 6142SOL    HW230060   4.491   0.347  16.619 -2.6011  0.1081  0.0264
 6143SOL     OW30061   0.806   0.988   2.622 -0.6877  0.2730  0.0061
 6143SOL    HW130062   0.801   1.011   2.714  2.2177  0.4755  0.1082
 6143SOL    HW230063   0.814   1.069   2.573 -1.8022  1.3495  1.6100
 6144SOL     OW30064   1.082   3.463   8.681 -0.6089  0.3285  0.1808
 6144SOL    HW130065   1.044   3.541   8.723 -0.5666 -0.0550  0.9480
 6144SOL    HW230066   1.007   3.418   8.642  0.1545 -0.8875  0.1240
 6145SOL     OW30067   0.460   2.669   3.928 -0.1265  0.4285  0.1370
 6145SOL    HW130068   0.403   2.594   3.909  2.1615 -0.8868 -1.5772
 6145SOL    HW230069   0.513   2.673   3.848 -0.9574  2.4654 -0.3051
 6146SOL     OW30070   0.165   4.627   4.914  0.7053 -0.6419 -0.1069
 6146SOL    HW130071   0.121   4.610   4.998  1.7362  0.3206  0.6369
 6146SOL    HW230072   0.183   4.538   4.886 -0.5248 -1.3690  1.4405
 6147SOL     OW30073   0.869   0.638  12.322  0.3570 -0.8781  0.0960
 6147SOL    HW130074   0.866   0.687  12.404  0.8598 -0.5045 -0.1097
 6147SOL    HW230075   0.963   0.647  12.311  0.4053  0.4836  1.5570
 6148SOL     OW30076   2.363   2.065   9.653 -0.3252  0.1102  0.5198
 6148SOL    HW130077   2.457   2.068   9.636 -0.6867  2.3319 -1.0695
 6148SOL    HW230078   2.308   2.076   9.576  0.2148  1.1130  0.2764
 6149SOL     OW30079   2.812   2.846   9.465  0.3208 -0.2637 -0.1403
 6149SOL    HW130080   2.833   2.772   9.523 -2.3306  0.1675  1.3457
 6149SOL    HW230081   2.807   2.805   9.379  0.0428  1.3947 -0.9102
 6150SOL     OW30082   2.080   0.432  11.411  0.6145  0.3952 -0.0072
 6150SOL    HW130083   2.033   0.496  11.359  1.1791 -0.6589 -1.7898
 6150SOL    HW230084   2.173   0.455  11.410  0.3774  1.3477  0.0847
 6151SOL     OW30085   3.575   4.326  16.656  0.3493  0.2496  0.4347
 6151SOL    HW130086   3.585   4.239  16.616 -0.1206  1.1758 -1.7172
 6151SOL    HW230087   3.523   4.369  16.589  2.0363  0.3316 -0.8297
 6152SOL     OW30088   1.800   2.529  11.955  0.4812  0.6455 -0.3274
 6152SOL    HW130089   1.804   2.474  11.877  1.1072  0.9971 -0.5420
 6152SOL    HW230090   1.834   2.471  12.024 -0.0046  0.4952 -0.2132
 6153SOL     OW30091   0.647   0.609   1.916  0.0854 -0.0488  0.0631
 6153SOL    HW130092   0.623   0.690   1.961 -2.7421 -1.9206  1.9121
 6153SOL    HW230093   0.719   0.576   1.970 -0.1636  1.0372  1.0669
 6154SOL     OW30094   0.123   1.852   4.699 -0.3223 -0.7109 -0.3067
 6154SOL    HW130095   0.069   1.915   4.652 -0.0108  1.2389  1.9344
 6154SOL    HW230096   0.099   1.864   4.791 -0.8964  0.8776 -0.6640
 6155SOL     OW30097   4.669   4.292   7.465 -0.5124  0.4509 -0.6056
 6155SOL    HW130098   4.619   4.337   7.533  1.3324  0.3872  0.7932
 6155SOL    HW230099   4.602   4.257   7.406 -2.8362  2.6005  0.7727
 6156SOL     OW30100   4.496   3.206   6.441 -0.1600 -0.3896  0.4765
 6156SOL    HW130101   4.475   3.277   6.379  0.8555 -0.8452 -0.3941
 6156SOL    HW230102   4.459   3.245   6.520 -0.2841  1.1571 -0.3405
 6157SOL     OW30103   4.007   4.018   4.818 -0.3476  0.0154  0.0267
 6157SOL    HW130104   4.040   3.998   4.730 -0.2626  0.2516  0.0040
 6157SOL    HW230105   3.913   4.024   4.802 -0.4514  0.0393  0.6440
 6158SOL     OW30106   2.598   2.668  10.142  0.0652 -0.5182  0.4869
 6158SOL    HW130107   2.558   2.750  10.171  3.2777  0.9834  0.6663
 6158SOL    HW230108   2.627   2.683  10.053 -1.8875 -0.2358 -0.0939
 6159SOL     OW30109   3.327   4.379  11.183 -0.1378  0.7930  0.2417
 6159SOL    HW130110   3.396   4.420  11.235  0.1617 -0.8836  1.1933
 6159SOL    HW230111   3.360   4.289  11.187 -1.2333  0.2925 -1.8578
 6160SOL     OW30112   2.174   1.248   8.476  0.3213 -0.1106 -0.0963
 6160SOL    HW130113   2.179   1.282   8.387 -2.0738 -1.3351 -0.7033
 6160SOL    HW230114   2.165   1.156   8.453 -0.6170  0.1626 -0.8156
 6161SOL     OW30115   3.864   2.230   0.769  0.1577  0.3453  0.0976
 6161SOL    HW130116   3.882   2.254   0.678 -0.2964  1.4396  0.2905
 6161SOL    HW230117   3.779   2.189   0.761  0.2677  0.1491 -0.0573
 6162SOL     OW30118   4.611   1.296   9.188 -0.1289 -0.1083  0.1436
 6162SOL    HW130119   4.692   1.346   9.202  0.3204 -0.7312 -0.2549
 6162SOL    HW230120   4.546   1.366   9.197 -0.8383 -0.7570  0.0728
 6163SOL     OW30121   2.578   2.208  16.264 -0.4176 -0.2972 -0.2912
 6163SOL    HW130122   2.529   2.283  16.298  0.3394 -0.4641  1.1658
 6163SOL    HW230123   2.597   2.233  16.174 -1.7033 -1.3937 -0.8735
 6164SOL     OW30124   0.490   3.419  16.779 -0.0067  0.4165  0.2223
 6164SOL    HW130125   0.578   3.434  16.744 -0.8552 -0.6062 -2.3845
 6164SOL    HW230126   0.488   3.475  16.857  2.9075  1.6584 -0.5997
 6165SOL     OW30127   3.529   4.701   7.449 -0.0878  0.3381 -0.0388
 6165SOL    HW130128   3.472   4.629   7.420  0.2595  0.3789 -0.8088
 6165SOL    HW230129   3.611   4.652   7.442 -1.1110 -1.5434  0.8700
 6166SOL     OW30130   1.434   3.368   5.477  0.1364 -0.5381 -0.3384
 6166SOL    HW130131   1.393   3.386   5.562 -0.9235  2.7833 -1.5820
 6166SOL    HW230132   1.375   3.297   5.451 -0.7039  0.3670 -0.8963
 6167SOL     OW30133   2.638   1.131   6.967  0.3444 -0.1165  0.4182
 6167SOL    HW130134   2.640   1.048   6.919 -1.8520  0.8690 -1.3863
 6167SOL    HW230135   2.669   1.105   7.053  0.6295 -3.6273 -0.7484
 6168SOL     OW30136   2.321   3.572   5.802 -0.6811 -0.2362 -0.1027
 6168SOL    HW130137   2.280   3.507   5.744 -0.7910  0.0201 -0.3107
 6168SOL    HW230138   2.326   3.648   5.744 -2.6913  0.4884  0.6819
 6169SOL     OW30139   1.669   4.707   6.222  0.0611 -0.6512  0.2475
 6169SOL    HW130140   1.607   0.040   6.195  2.0038  0.1614 -2.1003
 6169SOL    HW230141   1.742   0.018   6.263 -0.0994 -0.7366  0.6312
 6170SOL     OW30142   2.001   2.684   5.161  0.5768 -0.2724 -0.0498
 6170SOL    HW130143   1.987   2.737   5.240  4.3254 -0.0732  0.4945
 6170SOL    HW230144   1.918   2.637   5.161 -0.2061  1.1159 -4.0023
 6171SOL     OW30145   2.522   1.403   6.345 -0.0795  0.2511  0.1131
 6171SOL    HW130146   2.602   1.448   6.372 -0.0679 -0.4252  1.1769
 6171SOL    HW230147   2.534   1.317   6.385 -0.2382 -0.3157 -1.0402
 6172SOL     OW30148   1.187   2.411  17.295 -0.0440 -0.3440 -0.5380
 6172SOL    HW130149   1.120   2.463  17.340  2.0694  0.7401  1.3853
 6172SOL    HW230150   1.267   2.418  17.348 -0.0446  0.4380 -0.6310
 6173SOL     OW30151   1.794   0.298   6.606  0.1498 -0.5872 -0.5319
 6173SOL    HW130152   1.704   0.295   6.571 -1.6213  1.4115  3.8236
 6173SOL    HW230153   1.846   0.253   6.539 -2.5094 -1.5113 -2.0101
 6174SOL     OW30154   1.510   4.528   1.555  0.5567  0.0243 -0.8095
 6174SOL    HW130155   1.593   4.557   1.517  0.3000 -1.4749 -2.4804
 6174SOL    HW230156   1.503   4.566   1.643  0.6831 -0.9509 -0.3677
 6175SOL     OW30157   2.910   1.651   2.944 -0.3923 -0.4789  0.1822
 6175SOL    HW130158   2.879   1.741   2.954  3.6560  0.9914 -0.6445
 6175SOL    HW230159   3.000   1.673   2.968 -0.2264  0.0570 -0.9297
 6176SOL     OW30160   1.322   0.798   3.550  0.2091  0.2071  0.7054
 6176SOL    HW130161   1.263   0.873   3.556  0.5822  0.6773 -1.5992
 6176SOL    HW230162   1.332   0.790   3.645 -0.5705  1.7214  0.9106
 6177SOL     OW30163   0.609   1.555   6.617  0.1014  0.5384  0.8301
 6177SOL    HW130164   0.537   1.618   6.618  0.6798  1.2208  0.2772
 6177SOL    HW230165   0.682   1.607   6.651  0.5812 -1.4049  2.7396
 6178SOL     OW30166   3.921   3.236   7.186  0.2951 -0.4352 -0.0105
 6178SOL    HW130167   3.891   3.308   7.132  1.0209  1.3681  1.9662
 6178SOL    HW230168   3.893   3.271   7.271  0.0348  1.7464 -1.0159
 6179SOL     OW30169   0.728   4.681   2.352  0.1177 -0.4691  0.0459
 6179SOL    HW130170   0.794   4.612   2.345 -0.1406 -0.6425 -0.6695
 6179SOL    HW230171   0.782   0.012   2.395  1.4279 -0.7603 -1.1661
 6180SOL     OW30172   0.902   0.911   7.832  1.0759  0.4844 -0.8257
 6180SOL    HW130173   0.873   0.830   7.790  0.7177  1.1135 -1.7790
 6180SOL    HW230174   0.933   0.878   7.917 -0.6985  3.0505  0.8129
 6181SOL     OW30175   4.147   0.626   2.041  0.3243 -0.7087 -0.3700
 6181SOL    HW130176   4.053   0.612   2.049  0.5416 -1.8630  0.1633
 6181SOL    HW230177   4.148   0.699   2.102  1.4621 -1.7725  0.8720
 6182SOL     OW30178   3.802   3.983  10.160 -0.0166  0.9156 -0.3562
 6182SOL    HW130179   3.890   3.999  10.193 -0.6240  0.4094  1.5163
 6182SOL    HW230180   3.749   4.005  10.237 -0.7675  1.0229 -0.9060
 6183SOL     OW30181   2.798   4.254   1.994  0.0699  0.2100  0.1624
 6183SOL    HW130182   2.775   4.237   2.085  1.8523  0.8999  0.7516
 6183SOL    HW230183   2.713   4.255   1.951  0.5861  1.7025 -0.8537
 6184SOL     OW30184   3.791   2.331   9.092  0.0615  0.1830 -0.4344
 6184SOL    HW130185   3.790   2.361   9.001  0.1641  0.4844 -0.3363
 6184SOL    HW230186   3.867   2.274   9.090  1.4924  2.0990 -0.9412
 6185SOL     OW30187   3.843   2.579   3.733  0.1312  0.1103  0.3978
 6185SOL    HW130188   3.797   2.652   3.692  2.0887  0.3268 -1.4513
 6185SOL    HW230189   3.773   2.558   3.795 -0.5516 -0.0960 -0.4411
 6186SOL     OW30190   4.471   3.294  14.055  0.2686 -0.7371  0.3501
 6186SOL    HW130191   4.563   3.279  14.077  0.0204 -1.0775  1.1476
 6186SOL    HW230192   4.464   3.389  14.065  0.2715 -0.5888 -0.9927
 6187SOL     OW30193   0.178   3.128   2.023  0.2849 -0.1587 -0.4697
 6187SOL    HW130194   0.259   3.175   2.004 -0.2222  0.9127 -0.0226
 6187SOL    HW230195   0.220   3.047   2.051 -0.7283 -0.0595  1.2915
 6188SOL     OW30196   2.731   2.838   6.561 -0.1101  0.0207  0.1628
 6188SOL    HW130197   2.702   2.780   6.490 -0.0715  0.1167  0.0684
 6188SOL    HW230198   2.646   2.871   6.590 -0.2640 -1.4479  1.3860
 6189SOL     OW30199   1.368   1.268   8.215 -0.1909 -0.0081 -0.7216
 6189SOL    HW130200   1.341   1.355   8.245 -1.8561 -0.8253  0.1467
 6189SOL    HW230201   1.464   1.269   8.212 -0.1497 -0.6602  0.2901
 6190SOL     OW30202   3.013   3.232   6.122  0.4291  0.8191 -0.2413
 6190SOL    HW130203   3.092   3.281   6.144  0.5695  0.7188 -0.5226
 6190SOL    HW230204   2.957   3.263   6.193 -1.3630  0.9492 -1.6894
 6191SOL     OW30205   4.365   4.292  17.604  0.2332  0.2578 -0.5221
 6191SOL    HW130206   4.392   4.256  17.519  0.5033 -0.2488 -0.2237
 6191SOL    HW230207   4.269   4.282  17.605  0.1814  0.9822  0.9808
 6192SOL     OW30208   0.798   3.085   2.571  0.1608  0.2987  0.4444
 6192SOL    HW130209   0.791   2.993   2.546  0.3586  0.7350 -1.2169
 6192SOL    HW230210   0.736   3.124   2.509  1.6174 -0.2504 -1.3479
 6193SOL     OW30211   4.369   1.875   6.925 -0.2337 -0.0979 -0.0886
 6193SOL    HW130212   4.414   1.902   7.005 -1.9606 -0.5310  1.0497
 6193SOL    HW230213   4.420   1.797   6.903 -0.1191  0.4955 -1.8836
 6194SOL     OW30214   0.473   3.459   7.242 -0.0087  0.7924  0.1830
 6194SOL    HW130215   0.381   3.456   7.266  0.3600  0.1415  1.4878
 6194SOL    HW230216   0.455   3.487   7.152  0.6292  1.3804  0.2299
 6195SOL     OW30217   2.024   0.813   9.154 -0.2580 -0.2249 -1.2092
 6195SOL    HW130218   2.006   0.906   9.169 -2.8019 -0.6338 -1.7329
 6195SOL    HW230219   2.115   0.816   9.124 -0.2973 -0.1948 -1.3253
 6196SOL     OW30220   3.259   0.151   0.055 -0.1104  0.4361  0.2573
 6196SOL    HW130221   3.244   0.068   0.101 -1.2286 -0.0817 -1.0733
 6196SOL    HW230222   3.339   0.181   0.098  1.3654 -2.9761 -0.1085
 6197SOL     OW30223   2.492   3.819   8.010 -0.4821 -0.5253  0.0228
 6197SOL    HW130224   2.533   3.794   7.927  0.1256 -0.9782  0.4626
 6197SOL    HW230225   2.421   3.755   8.016 -0.7572 -0.1258  1.0107
 6198SOL     OW30226   2.467   3.376   3.982  0.1421  0.8693  0.0105
 6198SOL    HW130227   2.402   3.379   3.912 -0.8548  1.3975  0.9598
 6198SOL    HW230228   2.525   3.430   3.928 -0.4407  0.2646 -1.2238
 6199SOL     OW30229   2.606   2.925  10.203  0.0212  0.1609 -0.2974
 6199SOL    HW130230   2.667   2.947  10.131  1.6021 -1.8742  0.4151
 6199SOL    HW230231   2.587   3.013  10.234 -2.6506  0.5453 -3.0547
 6200SOL     OW30232   3.894   2.658   7.931 -0.2343  0.0753  0.7588
 6200SOL    HW130233   3.822   2.715   7.903  2.0296  1.8211 -1.5503
 6200SOL    HW230234   3.894   2.682   8.024  0.1042 -0.8228  0.9876
 6201SOL     OW30235   1.560   1.921   2.220  0.1081 -0.5085  0.5313
 6201SOL    HW130236   1.596   1.835   2.243  0.8576  0.3580  2.5913
 6201SOL    HW230237   1.612   1.941   2.142 -0.6082 -1.2641 -0.1456
 6202SOL     OW30238   3.992   1.104   6.477 -0.2660 -0.1226 -0.0368
 6202SOL    HW130239   3.955   1.192   6.483 -1.9722 -0.8645  0.3566
 6202SOL    HW230240   3.937   1.062   6.411 -0.8328 -1.9722  1.6088
 6203SOL     OW30241   4.644   0.020  16.852 -0.0731 -0.0163  0.1321
 6203SOL    HW130242   4.561   0.027  16.806 -1.0847  2.7307  2.3928
 6203SOL    HW230243   4.708   0.005  16.782 -1.2503 -0.4307 -0.8378
 6204SOL     OW30244   0.033   1.655   2.323 -0.2205  0.1513  0.2187
 6204SOL    HW130245   4.694   1.633   2.380 -1.3025  0.7352 -0.9682
 6204SOL    HW230246   0.014   1.599   2.247 -3.2971  0.4629  0.7765
 6205SOL     OW30247   3.710   2.350   6.128  0.1853  0.4634 -0.4546
 6205SOL    HW130248   3.763   2.428   6.144 -1.7664  1.3056  1.7749
 6205SOL    HW230249   3.633   2.386   6.084 -1.0898 -2.2666 -0.4249
 6206SOL     OW30250   0.461   0.642   3.765 -0.0074  0.1419 -0.0758
 6206SOL    HW130251   0.540   0.676   3.722 -0.8561  2.0048 -0.1494
 6206SOL    HW230252   0.485   0.660   3.856  0.1125  0.5960 -0.1930
 6207SOL     OW30253   2.863   0.465  13.544  0.0124 -0.4000 -0.4954
 6207SOL    HW130254   2.892   0.449  13.634  0.2836  0.7559 -0.3725
 6207SOL    HW230255   2.948   0.462  13.500 -1.0373  0.2038 -2.5550
 6208SOL     OW30256   0.016   2.376  15.591  0.2561  0.1412  0.2194
 6208SOL    HW130257   0.036   2.301  15.648 -0.3655  0.6950  1.1671
 6208SOL    HW230258   0.106   2.408  15.580  0.8180 -1.5010  0.0614
 6209SOL     OW30259   1.171   4.256  12.559 -0.1395 -0.4752 -0.0914
 6209SOL    HW130260   1.087   4.298  12.580 -0.8809 -1.6269 -0.7194
 6209SOL    HW230261   1.226   4.332  12.580 -1.3772  0.5670 -0.6064
 6210SOL     OW30262   4.317   2.508   0.482 -0.7041  0.0209  0.2249
 6210SOL    HW130263   4.412   2.504   0.476 -0.6349  2.0421 -0.0878
 6210SOL    HW230264   4.299   2.600   0.461  0.4196 -0.2510 -1.9205
 6211SOL     OW30265   3.421   3.629   4.216  0.0921 -0.1181  0.0418
 6211SOL    HW130266   3.505   3.637   4.261  1.3947 -3.0701 -1.8304
 6211SOL    HW230267   3.380   3.715   4.222  1.1890  0.3555  0.9253
 6212SOL     OW30268   1.975   4.352   2.617 -0.4116  0.5496 -0.2974
 6212SOL    HW130269   2.051   4.403   2.588 -0.1074  1.4009  1.9950
 6212SOL    HW230270   1.959   4.390   2.703  1.1085 -1.8034  1.0344
 6213SOL     OW30271   2.383   3.190  12.251  0.0500  0.5500  0.4974
 6213SOL    HW130272   2.433   3.109  12.242  1.1288  1.1317  1.2639
 6213SOL    HW230273   2.329   3.176  12.328  0.0870  0.1840  0.4553
 6214SOL     OW30274   0.679   3.069   5.926 -0.2137  0.2281  0.1916
 6214SOL    HW130275   0.742   3.062   5.998 -1.1780 -0.2582  1.0026
 6214SOL    HW230276   0.659   3.162   5.938 -0.1730  0.3457 -0.6834
 6215SOL     OW30277   1.190   0.449   1.488  0.4786  0.2750  0.0312
 6215SOL    HW130278   1.097   0.428   1.485  0.7772 -1.1020  0.4065
 6215SOL    HW230279   1.198   0.479   1.397 -2.4962 -1.2070 -0.7254
 6216SOL     OW30280   4.595   1.966   3.941 -0.6237 -0.2486 -0.2477
 6216SOL    HW130281   4.624   2.022   3.869  1.0323 -1.4943 -0.5389
 6216SOL    HW230282   4.681   1.952   3.983  0.1920 -0.5741 -2.0524
 6217SOL     OW30283   1.412   0.313   9.010 -0.2662  0.2888  0.2982
 6217SOL    HW130284   1.506   0.312   9.028 -0.5321  0.5144  1.6761
 6217SOL    HW230285   1.380   0.397   9.043 -3.4941  1.2110 -5.1616
 6218SOL     OW30286   0.845   2.906   7.669  0.1811  0.3351 -0.2123
 6218SOL    HW130287   0.893   2.982   7.634  0.1441  0.5776  0.2623
 6218SOL    HW230288   0.884   2.839   7.612  0.6854  2.8059 -2.7784
 6219SOL     OW30289   1.388   4.269   1.814 -0.2331 -0.9126 -0.3415
 6219SOL    HW130290   1.316   4.326   1.789  0.4047  0.1728  0.2559
 6219SOL    HW230291   1.371   4.188   1.767  0.1405 -2.0304  1.4768
 6220SOL     OW30292   4.657   0.641   3.269 -0.1001  0.1527 -0.1455
 6220SOL    HW130293   4.591   0.682   3.324  0.0450  1.9107 -1.2913
 6220SOL    HW230294   4.652   0.548   3.293  1.2496  0.1926  0.2946
 6221SOL     OW30295   0.716   4.019   3.064 -0.2708  0.1694 -0.1796
 6221SOL    HW130296   0.665   3.939   3.063  0.1462 -0.0832 -1.2148
 6221SOL    HW230297   0.776   4.004   2.991  0.2384  1.3423 -0.0107
 6222SOL     OW30298   2.026   3.313   6.125  0.2506  0.4775  0.0613
 6222SOL    HW130299   2.024   3.230   6.077 -1.2668 -1.8227  4.0820
 6222SOL    HW230300   1.936   3.339   6.142 -1.0996 -1.8463 -3.5408
 6223SOL     OW30301   3.969   3.306   8.891 -0.4336  0.0778  0.0434
 6223SOL    HW130302   3.977   3.349   8.806 -1.5867 -0.2265 -0.2219
 6223SOL    HW230303   3.886   3.258   8.887 -0.8041  0.3522  3.9046
 6224SOL     OW30304   0.457   1.687  13.615 -0.6084 -0.0863  0.4295
 6224SOL    HW130305   0.398   1.700  13.541 -0.1343 -0.8190 -0.0714
 6224SOL    HW230306   0.531   1.742  13.588  0.0502 -1.5642 -0.7607
 6225SOL     OW30307   3.520   1.552  16.847 -0.1051 -0.0456 -0.0305
 6225SOL    HW130308   3.578   1.626  16.828 -0.1746  0.4683  1.7343
 6225SOL    HW230309   3.434   1.578  16.814 -0.5525  0.9645  1.8986
 6226SOL     OW30310   4.352   3.358   5.357  0.7946 -0.4278  0.2948
 6226SOL    HW130311   4.301   3.368   5.277 -0.6370 -0.0959  1.2568
 6226SOL    HW230312   4.325   3.270   5.386 -0.6286 -0.2512 -0.5231
 6227SOL     OW30313   1.815   1.623   7.825  0.5378 -0.1611 -0.0543
 6227SOL    HW130314   1.807   1.551   7.887  0.4747  0.2249  0.3853
 6227SOL    HW230315   1.910   1.619   7.832  0.7984  2.6238 -1.8730
 6228SOL     OW30316   0.446   4.327   6.151 -0.1012 -0.1038 -0.2623
 6228SOL    HW130317   0.503   4.294   6.081  0.7590  4.2238 -1.6014
 6228SOL    HW230318   0.361   4.293   6.121 -0.2180 -0.9527  1.0169
 6229SOL     OW30319   0.437   0.440   4.714 -0.3699  0.1095 -0.1486
 6229SOL    HW130320   0.451   0.513   4.775 -2.2078 -2.2382  3.0740
 6229SOL    HW230321   0.481   0.481   4.640 -1.5603 -0.2301 -1.0303
 6230SOL     OW30322   2.870   0.815   5.175  0.5426  0.5379 -0.2603
 6230SOL    HW130323   2.937   0.854   5.231 -0.8319 -0.3768  2.0295
 6230SOL    HW230324   2.885   0.877   5.104 -1.8808  0.7860 -0.5696
 6231SOL     OW30325   2.159   1.180  12.859  0.2570 -0.0583  0.1115
 6231SOL    HW130326   2.065   1.191  12.868 -0.0472 -1.9540 -0.6712
 6231SOL    HW230327   2.187   1.144  12.944  0.5331 -1.6657 -0.6558
 6232SOL     OW30328   3.552   3.237   1.457  0.1181 -0.4260  0.4590
 6232SOL    HW130329   3.511   3.320   1.434 -1.8699 -2.0502 -1.9459
 6232SOL    HW230330   3.477   3.200   1.503 -2.5130  0.3499 -3.1660
 6233SOL     OW30331   1.276   2.298   8.688 -0.2067  0.1415  0.2256
 6233SOL    HW130332   1.255   2.385   8.720  0.1940  0.0192  0.8329
 6233SOL    HW230333   1.236   2.295   8.602  2.2584 -0.3934 -0.9129
 6234SOL     OW30334   3.194   2.644   7.338  0.6049  0.0594 -0.2554
 6234SOL    HW130335   3.130   2.610   7.275  2.0000  0.7713 -2.0270
 6234SOL    HW230336   3.220   2.724   7.293 -2.0415  0.4681 -1.0568
 6235SOL     OW30337   2.005   1.797   2.224  0.3563 -0.1929 -0.0664
 6235SOL    HW130338   2.013   1.788   2.129 -1.4390 -1.5141 -0.0902
 6235SOL    HW230339   2.085   1.840   2.255  1.6981 -1.1917 -2.0976
 6236SOL     OW30340   0.665   1.100   4.144  0.2635 -0.1650 -0.5648
 6236SOL    HW130341   0.690   1.190   4.123 -0.5566  0.2579  0.2602
 6236SOL    HW230342   0.670   1.065   4.055 -1.4400  1.8857 -1.4660
 6237SOL     OW30343   3.562   0.235   4.626  0.2410  0.3992  0.6420
 6237SOL    HW130344   3.497   0.247   4.557  0.8842 -1.6190 -0.3383
 6237SOL    HW230345   3.633   0.190   4.580  1.9054  0.3214  3.2938
 6238SOL     OW30346   1.723   0.639  12.134  0.0277  0.1885  0.1786
 6238SOL    HW130347   1.794   0.614  12.075  0.5011 -0.7284  1.1252
 6238SOL    HW230348   1.667   0.562  12.147  0.2604 -0.2333 -1.3014
 6239SOL     OW30349   1.434   2.536   5.180  0.2656 -1.0135 -0.1099
 6239SOL    HW130350   1.400   2.563   5.095 -0.6628  0.6051  0.7559
 6239SOL    HW230351   1.386   2.455   5.194 -1.5442  0.2170  0.8485
 6240SOL     OW30352   3.889   4.303   3.319 -0.5350  0.5891  0.6646
 6240SOL    HW130353   3.915   4.244   3.248  0.9640 -0.2249  1.8821
 6240SOL    HW230354   3.881   4.237   3.388 -0.4527 -0.9580 -0.7980
 6241SOL     OW30355   1.010   4.732   0.817 -0.0127 -0.0701 -0.6894
 6241SOL    HW130356   0.971   0.060   0.756  0.2157  1.4013  0.6893
 6241SOL    HW230357   1.101   4.724   0.791  0.6808  2.5893  0.8445
 6242SOL     OW30358   2.462   1.548   2.364 -0.5828  0.0344 -0.1915
 6242SOL    HW130359   2.554   1.541   2.387 -1.1826 -0.7185  1.9755
 6242SOL    HW230360   2.436   1.627   2.413 -0.8790 -0.5808  0.6376
 6243SOL     OW30361   1.868   2.657   8.689 -0.0999 -0.1728  1.1014
 6243SOL    HW130362   1.860   2.683   8.781  1.5669  1.7565  0.7007
 6243SOL    HW230363   1.777   2.645   8.661  0.3986  0.1098 -0.6024
 6244SOL     OW30364   4.682   3.213   2.573 -0.1441 -0.1003 -0.0947
 6244SOL    HW130365   4.702   3.298   2.611 -1.1383  0.7130 -1.3796
 6244SOL    HW230366   4.679   3.160   2.653  0.1546 -1.0892 -0.7432
 6245SOL     OW30367   2.998   0.732   4.803  0.1640 -0.3783  0.3135
 6245SOL    HW130368   3.058   0.764   4.736  0.5212  1.2576  1.4296
 6245SOL    HW230369   3.054   0.682   4.862  1.0252 -0.5667 -0.6592
 6246SOL     OW30370   0.209   3.095   5.920 -0.2464  0.2901  0.2321
 6246SOL    HW130371   0.239   3.183   5.895  0.1705  0.6732  2.0483
 6246SOL    HW230372   0.253   3.089   6.005 -1.5939  2.5636  1.0845
 6247SOL     OW30373   4.565   4.351   7.875  0.2072  0.2465 -0.0113
 6247SOL    HW130374   4.628   4.292   7.917  0.1756 -1.0035 -1.7194
 6247SOL    HW230375   4.490   4.308   7.917 -0.9363  1.5538 -0.7340
 6248SOL     OW30376   3.215   0.518   1.661  0.2074  0.0139  0.3852
 6248SOL    HW130377   3.279   0.541   1.594  0.7096 -0.5833  0.6607
 6248SOL    HW230378   3.249   0.568   1.736 -1.8667  1.8045  0.1337
 6249SOL     OW30379   4.282   0.445   7.163 -0.4069 -0.5235 -0.4117
 6249SOL    HW130380   4.235   0.527   7.178 -0.0064 -0.7794  2.0927
 6249SOL    HW230381   4.210   0.411   7.110 -1.9676  2.0683  0.0432
 6250SOL     OW30382   0.547   3.289   3.071  0.4017  0.1592 -0.3221
 6250SOL    HW130383   0.544   3.351   2.998  0.3575  1.4789  0.7910
 6250SOL    HW230384   0.572   3.347   3.143  0.9589 -2.2988  1.4826
 6251SOL     OW30385   1.383   2.138   6.237 -0.8645 -0.2315  0.5365
 6251SOL    HW130386   1.354   2.052   6.266  0.6422 -1.3088 -1.1733
 6251SOL    HW230387   1.442   2.117   6.164 -2.4228 -0.9538 -0.5091
 6252SOL     OW30388   0.045   2.200   4.796  0.8532  0.2136 -0.4285
 6252SOL    HW130389   0.136   2.223   4.818  1.4170 -1.1648 -1.2954
 6252SOL    HW230390   0.023   2.120   4.844  2.0797  1.9745  3.1137
 6253SOL     OW30391   2.655   2.586   9.673 -0.0254 -0.0622  0.2587
 6253SOL    HW130392   2.574   2.535   9.675 -0.3774  0.5012  0.4899
 6253SOL    HW230393   2.644   2.637   9.754  2.0060 -0.1584  0.5953
 6254SOL     OW30394   2.692   1.542   4.096 -0.0462  0.2663 -0.1057
 6254SOL    HW130395   2.646   1.550   4.013 -2.8226 -1.6442  1.2411
 6254SOL    HW230396   2.778   1.572   4.066 -1.3505  1.7467 -2.3449
 6255SOL     OW30397   4.028   3.578   3.337  0.1973 -0.7001  0.1366
 6255SOL    HW130398   4.040   3.618   3.423  1.5959  1.0308 -0.8476
 6255SOL    HW230399   4.100   3.629   3.301  0.6824 -1.6678 -0.2645
 6256SOL     OW30400   1.946   4.565  17.482  0.2505  0.0901 -0.5876
 6256SOL    HW130401   1.903   4.629  17.425 -2.2574  1.6711  3.0240
 6256SOL    HW230402   1.884   4.493  17.473 -0.2629  0.4211  0.2606
 6257SOL     OW30403   3.602   1.597  16.469  0.5014  0.1358  0.8580
 6257SOL    HW130404   3.629   1.571  16.381 -3.3954 -0.9332 -0.0278
 6257SOL    HW230405   3.614   1.691  16.453  1.3763 -0.3846 -1.5072
 6258SOL     OW30406   0.651   0.894   4.967  0.3288  0.1978 -0.6525
 6258SOL    HW130407   0.722   0.915   5.028  2.6307 -1.8135 -2.6379
 6258SOL    HW230408   0.626   0.979   4.932  0.5736 -0.0412 -1.4075
 6259SOL     OW30409   2.126   3.891   5.074  0.1007  0.3447  0.0703
 6259SOL    HW130410   2.109   3.901   4.981  0.0527 -0.2380  0.0160
 6259SOL    HW230411   2.165   3.975   5.099 -0.4682  0.8422 -0.7332
 6260SOL     OW30412   2.958   1.409   8.311 -0.2136 -0.0387 -0.3446
 6260SOL    HW130413   3.042   1.455   8.315  0.3583 -1.3420  2.7186
 6260SOL    HW230414   3.000   1.324   8.308 -1.8631 -0.7572 -2.6726
 6261SOL     OW30415   1.672   0.230  13.035 -0.2142  0.4882 -0.3167
 6261SOL    HW130416   1.695   0.321  13.018 -0.8807  0.6205 -0.5088
 6261SOL    HW230417   1.671   0.224  13.130 -2.5003  1.9890 -0.2370
 6262SOL     OW30418   0.759   3.839  15.982  0.2707 -0.0279 -0.3182
 6262SOL    HW130419   0.706   3.823  16.060 -0.0132 -0.5649 -0.6230
 6262SOL    HW230420   0.733   3.927  15.957 -0.2044  0.3893  1.5968
 6263SOL     OW30421   4.545   3.019   3.462  0.3583 -0.7340 -0.3617
 6263SOL    HW130422   4.561   3.056   3.375 -1.8881 -3.7778 -2.0567
 6263SOL    HW230423   4.494   2.940   3.447 -1.2812  0.0216  1.2667
 6264SOL     OW30424   3.048   4.095   7.469 -0.6435 -0.2437  0.1510
 6264SOL    HW130425   3.047   4.001   7.449  0.4530 -0.4933  1.3068
 6264SOL    HW230426   3.140   4.101   7.491 -0.8640 -0.6133  1.1691
 6265SOL     OW30427   3.428   1.381   9.696 -0.4495  0.0979  0.6030
 6265SOL    HW130428   3.521   1.362   9.694 -0.6610 -0.6166 -2.1195
 6265SOL    HW230429   3.424   1.472   9.725  0.4779  0.1424  0.5984
 6266SOL     OW30430   3.595   4.458   7.300  0.0625  0.2864  0.4820
 6266SOL    HW130431   3.556   4.417   7.223 -2.6433  1.0870  1.4411
 6266SOL    HW230432   3.520   4.447   7.359 -0.1382 -0.9312  0.0059
 6267SOL     OW30433   3.037   3.985   6.814  0.3044 -0.5406 -0.6222
 6267SOL    HW130434   3.067   3.909   6.864  2.4636 -0.1597 -1.3127
 6267SOL    HW230435   3.008   3.934   6.738 -1.0164 -0.5150 -0.1340
 6268SOL     OW30436   1.875   2.196   6.712  0.3771  0.0019  0.2724
 6268SOL    HW130437   1.783   2.186   6.688  0.6343  0.2345 -0.7999
 6268SOL    HW230438   1.875   2.177   6.806  3.4122 -2.4398 -0.2197
 6269SOL     OW30439   2.716   3.245   5.186  0.2289 -0.2666 -0.6722
 6269SOL    HW130440   2.729   3.320   5.245 -0.5204  1.3187 -2.5191
 6269SOL    HW230441   2.723   3.171   5.246  0.9756 -0.7040 -1.2961
 6270SOL     OW30442   0.803   1.191   8.382  0.9723  0.1046  0.2569
 6270SOL    HW130443   0.739   1.173   8.451 -1.9879  0.8466 -2.3099
 6270SOL    HW230444   0.847   1.267   8.420 -0.4235  2.0849 -2.0894
 6271SOL     OW30445   3.529   0.251   5.499 -0.0061 -0.1070  0.3619
 6271SOL    HW130446   3.486   0.318   5.552  0.3969 -0.6145  1.3371
 6271SOL    HW230447   3.586   0.312   5.453  1.1561 -0.7612  0.9283
 6272SOL     OW30448   2.624   1.212   8.491  0.1123  0.4640  0.0520
 6272SOL    HW130449   2.591   1.136   8.443  1.4568 -0.3602  0.4520
 6272SOL    HW230450   2.542   1.255   8.517 -0.0667 -0.6387  1.3225
 6273SOL     OW30451   3.569   0.000   2.562  1.0759  0.5291  0.8558
 6273SOL    HW130452   3.586   0.089   2.595 -0.2708  0.4295  1.8005
 6273SOL    HW230453   3.641   4.694   2.609  0.5827  0.0824  1.2185
 6274SOL     OW30454   2.725   4.570   1.139  0.7583 -0.3910 -0.3635
 6274SOL    HW130455   2.779   4.538   1.066 -0.6422 -0.8279 -1.2013
 6274SOL    HW230456   2.648   4.518   1.117  0.6197 -0.2065 -0.3170
 6275SOL     OW30457   0.007   3.415   0.243  0.2777 -0.8377  0.4759
 6275SOL    HW130458   0.035   3.491   0.192 -0.8889 -0.4145  0.4479
 6275SOL    HW230459   0.088   3.365   0.241  0.6235 -0.3054  1.3302
 6276SOL     OW30460   1.557   4.720   8.773  0.5410  0.0888  0.3203
 6276SOL    HW130461   1.627   4.665   8.738  0.3221 -1.0124  1.6182
 6276SOL    HW230462   1.586   0.072   8.747 -0.1334  0.2467  0.0903
 6277SOL     OW30463   1.844   0.826   4.164 -0.6964 -0.2104  0.2554
 6277SOL    HW130464   1.919   0.879   4.190 -0.0251 -0.3831 -1.3283
 6277SOL    HW230465   1.812   0.797   4.249  0.7962  0.8926  1.1843
 6278SOL     OW30466   1.767   0.677   4.380  0.1559  0.2574  0.0798
 6278SOL    HW130467   1.810   0.714   4.456 -0.5685 -0.1014  0.6746
 6278SOL    HW230468   1.680   0.645   4.405  0.2925 -0.8427 -0.8458
 6279SOL     OW30469   3.577   4.710   5.585 -0.1497  0.9363  0.7610
 6279SOL    HW130470   3.589   0.021   5.668  1.8318  1.0814  0.3973
 6279SOL    HW230471   3.552   0.046   5.526 -0.3343 -0.9085 -1.3874
 6280SOL     OW30472   1.515   0.548  11.230  0.2313 -0.3739 -0.3289
 6280SOL    HW130473   1.546   0.476  11.285  0.1063  0.1391  0.4083
 6280SOL    HW230474   1.575   0.548  11.155 -1.0577 -2.1463 -1.3670
 6281SOL     OW30475   0.789   2.210   3.812  0.3256 -0.3639 -0.1110
 6281SOL    HW130476   0.705   2.227   3.856 -0.2010  0.8340 -1.5668
 6281SOL    HW230477   0.797   2.119   3.840  1.3534 -0.3380 -0.3341
 6282SOL     OW30478   1.681   0.202   5.923  0.2631  0.2636  0.2966
 6282SOL    HW130479   1.731   0.121   5.931  0.7589  0.6843  1.5708
 6282SOL    HW230480   1.723   0.253   5.993  1.0033  1.2440 -0.8694
 6283SOL     OW30481   3.795   1.293   8.085  0.0484  0.6918 -0.5477
 6283SOL    HW130482   3.812   1.307   8.178 -0.8713 -1.7487 -0.0216
 6283SOL    HW230483   3.875   1.244   8.066  0.2853  0.1337  1.9383
 6284SOL     OW30484   4.577   0.614  14.956 -0.4871 -0.9847 -0.0029
 6284SOL    HW130485   4.593   0.630  14.864 -0.9813 -1.0414 -0.0996
 6284SOL    HW230486   4.594   0.699  14.996  2.3342 -1.4909 -0.1391
 6285SOL     OW30487   3.829   2.699   5.497  0.3536 -0.1939  0.0289
 6285SOL    HW130488   3.890   2.704   5.571 -2.5186  1.5092  2.2404
 6285SOL    HW230489   3.823   2.608   5.466 -2.0658  0.3004 -0.9578
 6286SOL     OW30490   4.203   0.402   2.622 -0.1879  0.0046  0.1359
 6286SOL    HW130491   4.274   0.440   2.673 -1.2252 -0.9406  2.3043
 6286SOL    HW230492   4.127   0.428   2.676  1.4582  0.8113  2.0776
 6287SOL     OW30493   3.945   3.592   0.066  0.0039 -0.0281  0.0839
 6287SOL    HW130494   3.997   3.657   0.018  1.6090 -0.4958  1.1636
 6287SOL    HW230495   4.002   3.567   0.140 -1.5250 -1.6454  0.7151
 6288SOL     OW30496   3.432   0.069  17.135 -0.2021  0.0112 -0.3160
 6288SOL    HW130497   3.358   0.129  17.128  0.0788  0.0489 -2.9334
 6288SOL    HW230498   3.447   0.060  17.229  0.8338 -0.4352 -0.5273
 6289SOL     OW30499   0.651   2.218  15.171  0.6296  0.2433 -0.4242
 6289SOL    HW130500   0.710   2.292  15.162  0.2719  0.7842  1.8353
 6289SOL    HW230501   0.713   2.152  15.138  0.1445  0.1782 -1.2142
 6290SOL     OW30502   2.420   3.385   6.258  0.8013  0.3190  0.1972
 6290SOL    HW130503   2.422   3.367   6.164 -0.8089 -0.7327  0.3718
 6290SOL    HW230504   2.342   3.346   6.296 -0.3059  2.9048  0.5816
 6291SOL     OW30505   1.347   2.857   3.469  0.4991 -0.1076  0.2418
 6291SOL    HW130506   1.300   2.777   3.444 -1.0906  0.1179  2.6002
 6291SOL    HW230507   1.269   2.904   3.497  1.8755  1.2414  1.7912
 6292SOL     OW30508   3.521   1.164  16.347  0.6764  0.0273  0.4083
 6292SOL    HW130509   3.465   1.205  16.413 -0.5828  0.2565 -0.7826
 6292SOL    HW230510   3.461   1.162  16.272 -0.1882  1.2883  1.0510
 6293SOL     OW30511   1.293   3.503  14.783  0.2788  0.0688  0.1940
 6293SOL    HW130512   1.308   3.552  14.703  3.6857 -0.9265  0.2115
 6293SOL    HW230513   1.378   3.521  14.824  1.1579  1.2695 -2.1591
 6294SOL     OW30514   1.195   2.943   8.220 -0.0113  0.1270 -0.8179
 6294SOL    HW130515   1.152   2.962   8.303 -0.3525 -0.5364 -0.8428
 6294SOL    HW230516   1.154   2.860   8.195  2.5596 -0.9796 -1.3850
 6295SOL     OW30517   0.093   2.499   2.050 -0.0005  0.0897 -0.5509
 6295SOL    HW130518   0.160   2.526   1.987  2.6880 -0.8479  1.9126
 6295SOL    HW230519   0.023   2.562   2.034  1.8079  2.4770  0.9062
 6296SOL     OW30520   4.626   3.906   3.196  0.2979 -0.3853 -0.7839
 6296SOL    HW130521   4.602   3.962   3.122  0.1006  0.6799  0.0808
 6296SOL    HW230522   4.690   3.845   3.158 -2.8962 -3.5756 -1.0403
 6297SOL     OW30523   4.381   2.113   4.839 -0.0689  0.3264  0.0050
 6297SOL    HW130524   4.370   2.028   4.795  0.3728 -0.5943  1.6714
 6297SOL    HW230525   4.291   2.141   4.857 -0.3078  0.4920 -1.4295
 6298SOL     OW30526   1.943   2.994   8.204  0.3433 -0.0633  0.1455
 6298SOL    HW130527   2.008   3.062   8.187 -0.1086  0.0998 -0.9522
 6298SOL    HW230528   1.888   3.002   8.126  0.4662 -0.1357  0.0508
 6299SOL     OW30529   0.483   4.617   1.892 -0.2624 -0.1812 -0.3885
 6299SOL    HW130530   0.525   4.669   1.961  2.0814 -0.9098 -1.2727
 6299SOL    HW230531   0.393   4.644   1.909 -0.7432 -0.9595 -1.7346
 6300SOL     OW30532   1.754   4.583  10.710  0.0494 -0.0299  0.1409
 6300SOL    HW130533   1.799   4.664  10.685 -2.2715  0.9087 -0.9849
 6300SOL    HW230534   1.805   4.569  10.789 -0.3922  0.7023  0.5535
 6301SOL     OW30535   1.148   4.507   5.470 -0.5062 -0.0411  0.2798
 6301SOL    HW130536   1.095   4.576   5.428  0.4331 -0.2861 -1.2975
 6301SOL    HW230537   1.204   4.561   5.526 -1.6484  0.8766  0.5475
 6302SOL     OW30538   2.964   3.674   4.133 -0.0651 -0.4473  0.1377
 6302SOL    HW130539   2.959   3.768   4.150 -1.6460 -0.3555 -0.8896
 6302SOL    HW230540   2.950   3.638   4.221  0.3807  0.5340  0.6144
 6303SOL     OW30541   4.001   2.141   4.214  0.1164  0.0519  0.4309
 6303SOL    HW130542   4.088   2.157   4.176 -0.4362 -0.7688 -1.1965
 6303SOL    HW230543   3.956   2.154   4.131 -0.1692  1.6553  0.8364
 6304SOL     OW30544   4.099   0.724   3.414 -0.2963 -0.5099 -0.3907
 6304SOL    HW130545   4.136   0.715   3.502 -0.0858  0.5928 -0.3739
 6304SOL    HW230546   4.006   0.739   3.428  0.2561  2.0102  0.6102
 6305SOL     OW30547   1.630   3.633  17.598  0.6097  0.1769 -0.0676
 6305SOL    HW130548   1.684   3.605  17.524 -0.0541  1.7172 -1.1300
 6305SOL    HW230549   1.579   3.556  17.623 -1.2232  1.1695 -0.7138
 6306SOL     OW30550   0.882   2.692  16.698 -0.3923  0.7089  0.2736
 6306SOL    HW130551   0.853   2.764  16.754  3.5418  0.1396  3.0667
 6306SOL    HW230552   0.952   2.649  16.748 -0.5408  0.4098  0.2250
 6307SOL     OW30553   3.951   4.367   1.428 -0.3004 -0.3176 -0.0524
 6307SOL    HW130554   3.899   4.300   1.384 -1.1309  0.6891 -0.6066
 6307SOL    HW230555   4.038   4.327   1.435 -0.4789 -0.4847  1.1593
 6308SOL     OW30556   3.266   3.193   6.672 -0.1227 -0.0927  0.5019
 6308SOL    HW130557   3.237   3.126   6.734 -0.4974 -0.0933  0.3272
 6308SOL    HW230558   3.311   3.142   6.604 -2.1383 -1.6508  0.3343
 6309SOL     OW30559   0.663   3.510   5.291 -0.1980 -0.8801 -0.5802
 6309SOL    HW130560   0.701   3.589   5.253 -1.3041 -0.0591  0.0065
 6309SOL    HW230561   0.652   3.541   5.382  3.1669  0.6622 -0.7118
 6310SOL     OW30562   2.893   2.787   7.626 -0.2664  0.9071 -0.6885
 6310SOL    HW130563   2.877   2.696   7.653 -0.0324  0.4933 -1.9833
 6310SOL    HW230564   2.916   2.770   7.535 -0.1788  1.4854 -0.7749
 6311SOL     OW30565   1.760   1.904  11.672  0.1596 -0.1169  0.2493
 6311SOL    HW130566   1.768   1.841  11.744 -1.5755 -2.1882 -1.3695
 6311SOL    HW230567   1.746   1.990  11.709 -0.3399  0.3820 -1.0936
 6312SOL     OW30568   2.897   3.411   2.824  0.2654  0.8425 -0.0002
 6312SOL    HW130569   2.971   3.449   2.871  0.4784  0.3837  0.0282
 6312SOL    HW230570   2.932   3.323   2.817  0.0196  0.6777  0.8123
 6313SOL     OW30571   0.227   2.612   2.386 -0.0845 -0.2568 -0.3735
 6313SOL    HW130572   0.170   2.679   2.347 -0.8559 -1.6681 -1.6551
 6313SOL    HW230573   0.173   2.538   2.359 -0.0873  0.1846 -1.5794
 6314SOL     OW30574   3.411   0.314   3.105 -0.1212  0.6442  0.6499
 6314SOL    HW130575   3.341   0.378   3.096 -0.7879  0.0881  1.9059
 6314SOL    HW230576   3.487   0.373   3.110  0.1531  0.1533  2.0391
 6315SOL     OW30577   4.609   0.522   9.450 -0.2688  0.4552 -0.2460
 6315SOL    HW130578   4.664   0.575   9.393 -1.5415  2.5469  0.4495
 6315SOL    HW230579   4.673   0.459   9.484 -0.4473  1.4083  1.8836
 6316SOL     OW30580   1.286   3.314   8.787  0.1520  0.3460 -0.3186
 6316SOL    HW130581   1.208   3.359   8.755  0.1111 -2.2819 -3.9369
 6316SOL    HW230582   1.327   3.379   8.844  0.2029 -1.8107  2.1099
 6317SOL     OW30583   2.378   2.436   4.358  0.2966  0.6724  0.0802
 6317SOL    HW130584   2.395   2.389   4.276 -1.0886 -0.0663  0.2189
 6317SOL    HW230585   2.469   2.443   4.387  0.2727 -0.7478  0.4967
 6318SOL     OW30586   0.005   2.497   9.465  0.1037  0.6620  0.1341
 6318SOL    HW130587   0.001   2.426   9.530  1.3677 -0.3911 -0.9271
 6318SOL    HW230588   4.725   2.566   9.530 -1.6137 -0.5793  1.0685
 6319SOL     OW30589   0.916   2.117   9.181  0.3493  0.8730 -0.5732
 6319SOL    HW130590   0.907   2.112   9.086 -2.2538  0.4743 -0.2844
 6319SOL    HW230591   1.010   2.137   9.189  0.5123  0.0198 -0.3609
 6320SOL     OW30592   3.055   1.803   8.214  0.4787 -0.3546 -0.1735
 6320SOL    HW130593   2.977   1.748   8.209  0.8413 -0.9407  0.7653
 6320SOL    HW230594   3.037   1.876   8.155 -1.8161 -0.2004  0.7171
 6321SOL     OW30595   1.180   0.090   8.972  0.6232  0.2726  0.2355
 6321SOL    HW130596   1.203   0.183   8.980  0.5400  0.1856  1.4246
 6321SOL    HW230597   1.165   0.057   9.060 -0.0776 -2.2528 -0.8428
 6322SOL     OW30598   2.283   1.452   7.431 -0.3235  0.1768  0.0443
 6322SOL    HW130599   2.289   1.500   7.348  1.2851  0.3101  0.2427
 6322SOL    HW230600   2.378   1.446   7.447 -0.2955  1.4767  0.3693
 6323SOL     OW30601   0.139   4.483   7.721 -0.0402  0.3900  0.2603
 6323SOL    HW130602   0.111   4.572   7.698  2.5522  1.7454  2.4427
 6323SOL    HW230603   0.219   4.459   7.674  0.1562  0.8144  0.3758
 6324SOL     OW30604   4.180   2.482   9.614  0.6204  0.5823  0.0559
 6324SOL    HW130605   4.181   2.539   9.538  2.2022 -2.0412 -1.8643
 6324SOL    HW230606   4.193   2.546   9.684  2.4279 -0.1955  0.4284
 6325SOL     OW30607   4.149   4.531   1.827  0.7369 -0.3720  0.0502
 6325SOL    HW130608   4.062   4.497   1.804  1.3501 -1.1695 -1.1123
 6325SOL    HW230609   4.147   4.618   1.787  2.2894  0.1729  1.1823
 6326SOL     OW30610   1.080   3.225   7.896  0.4264 -0.3284  0.1291
 6326SOL    HW130611   1.093   3.258   7.985  0.2944  2.3988 -0.8614
 6326SOL    HW230612   1.018   3.293   7.869  0.7159 -0.2072 -0.2268
 6327SOL     OW30613   2.297   2.398   3.338  0.0333 -0.1000  0.2251
 6327SOL    HW130614   2.241   2.363   3.269  0.0236 -2.2110  1.3178
 6327SOL    HW230615   2.284   2.339   3.411 -0.7786 -0.9804 -0.6316
 6328SOL     OW30616   1.145   0.613   4.669 -0.4917  0.4049 -0.0865
 6328SOL    HW130617   1.074   0.578   4.615 -0.8572 -0.7902  1.1985
 6328SOL    HW230618   1.181   0.534   4.708  0.7793  0.7829 -0.4743
 6329SOL     OW30619   4.351   0.341  16.828  0.4055  0.3515 -0.0260
 6329SOL    HW130620   4.264   0.337  16.789  0.4403 -0.6092  0.0027
 6329SOL    HW230621   4.354   0.437  16.836 -1.2740  0.3875  0.1269
 6330SOL     OW30622   3.558   0.018   1.825  0.0849  0.3404  0.2573
 6330SOL    HW130623   3.650   0.043   1.818  0.1296 -0.1156 -0.8532
 6330SOL    HW230624   3.535   4.730   1.735 -3.1310 -2.4479  1.7924
 6331SOL     OW30625   2.744   1.934   6.262 -0.6430 -0.2444 -0.5750
 6331SOL    HW130626   2.757   1.865   6.197 -0.5021 -0.8654  0.1121
 6331SOL    HW230627   2.678   1.971   6.204  0.4247  0.3984 -1.3760
 6332SOL     OW30628   1.146   4.690   2.214  0.0421 -0.3370  0.1435
 6332SOL    HW130629   1.146   4.660   2.123 -0.9363  2.2947 -0.7481
 6332SOL    HW230630   1.128   0.049   2.206 -0.9768 -0.3747  1.9437
 6333SOL     OW30631   1.735   3.948   1.977 -0.4222 -0.0311  0.4402
 6333SOL    HW130632   1.776   3.874   1.933  0.0101 -0.5624  1.7288
 6333SOL    HW230633   1.746   3.917   2.067  0.9260  0.2190  0.3618
 6334SOL     OW30634   3.419   3.891   4.802 -0.2493  0.4882  0.3826
 6334SOL    HW130635   3.390   3.936   4.722 -0.0502 -1.6290 -0.8774
 6334SOL    HW230636   3.333   3.875   4.840 -0.5476  0.6646 -0.2134
 6335SOL     OW30637   1.019   0.191   3.471  0.0683  0.0145  0.4313
 6335SOL    HW130638   1.031   0.191   3.376 -3.0191  1.9028  0.0527
 6335SOL    HW230639   0.925   0.171   3.468 -0.7424  3.4965  2.8321
 6336SOL     OW30640   3.427   3.045   7.407 -0.0012 -0.0595 -0.0725
 6336SOL    HW130641   3.495   3.110   7.389 -0.1572 -0.3314 -1.6666
 6336SOL    HW230642   3.470   2.976   7.356 -0.8509 -1.5480  1.2320
 6337SOL     OW30643   2.420   0.247   0.214  0.1414 -0.4021 -0.0519
 6337SOL    HW130644   2.441   0.155   0.201  0.4057 -0.1834 -1.1184
 6337SOL    HW230645   2.489   0.295   0.169  1.0840 -0.1328  1.6868
 6338SOL     OW30646   1.629   0.824  10.195  0.6168  0.2935  0.1589
 6338SOL    HW130647   1.605   0.901  10.143 -2.9219 -0.0154  1.3743
 6338SOL    HW230648   1.558   0.763  10.178 -2.2469  3.3019  1.3840
 6339SOL     OW30649   2.489   0.485   4.518 -0.6729  0.0999  0.7157
 6339SOL    HW130650   2.479   0.412   4.580 -0.2419 -0.8203 -0.2956
 6339SOL    HW230651   2.509   0.556   4.578 -1.3307  0.0340  1.0199
 6340SOL     OW30652   1.196   2.152  15.134  0.4678 -0.2037 -0.1631
 6340SOL    HW130653   1.246   2.073  15.156  0.3659 -0.5279 -1.0977
 6340SOL    HW230654   1.218   2.149  15.040 -0.3104  2.3017 -0.4296
 6341SOL     OW30655   1.702   1.209   9.220  0.2370 -0.0503 -0.4194
 6341SOL    HW130656   1.657   1.294   9.224 -0.5852 -0.4268 -1.4342
 6341SOL    HW230657   1.694   1.181   9.311 -0.0688  0.5347 -0.2648
 6342SOL     OW30658   2.862   1.923   5.888  0.6234  0.3931  0.5085
 6342SOL    HW130659   2.851   2.009   5.847  1.1804 -0.7218 -2.0105
 6342SOL    HW230660   2.879   1.957   5.976 -0.9305  1.3207  0.4558
 6343SOL     OW30661   0.323   2.896   5.349 -0.6934 -0.1348 -0.0693
 6343SOL    HW130662   0.345   2.950   5.426  1.9195 -0.6308 -0.4635
 6343SOL    HW230663   0.406   2.910   5.303  0.5047 -2.4758  1.3699
 6344SOL     OW30664   1.561   1.934   7.186 -0.3410  0.0710 -0.5176
 6344SOL    HW130665   1.570   1.852   7.235 -2.6538 -0.2226 -0.5816
 6344SOL    HW230666   1.467   1.947   7.183 -0.6334 -2.0493 -0.8123
 6345SOL     OW30667   3.717   0.989   1.831 -0.2741  0.5442 -0.1967
 6345SOL    HW130668   3.667   0.913   1.860 -0.6542  1.8911  2.7168
 6345SOL    HW230669   3.693   0.981   1.738 -1.1053  1.4712 -0.0690
 6346SOL     OW30670   1.636   1.448   2.122  0.7597  0.1194 -0.1231
 6346SOL    HW130671   1.672   1.511   2.060 -2.1259  3.2320  1.3427
 6346SOL    HW230672   1.714   1.429   2.174  2.1373  2.2297 -1.4008
 6347SOL     OW30673   2.515   4.727   5.270  0.6907  0.1921 -0.2955
 6347SOL    HW130674   2.466   4.652   5.304 -0.1786  0.4427 -0.9940
 6347SOL    HW230675   2.470   0.066   5.310 -1.5513 -0.8020 -0.9536
 6348SOL     OW30676   3.718   0.572   3.647 -0.1808 -0.6377  0.0007
 6348SOL    HW130677   3.718   0.618   3.731 -0.5793  0.8668 -0.8200
 6348SOL    HW230678   3.627   0.545   3.640 -0.1536 -0.1000 -2.5875
 6349SOL     OW30679   3.681   3.705   6.026  0.0202  0.5315  0.3383
 6349SOL    HW130680   3.684   3.750   5.942  0.5355  0.5797  0.3824
 6349SOL    HW230681   3.593   3.668   6.023  0.1578  0.2061  0.3744
 6350SOL     OW30682   3.806   2.858   8.719  0.4832 -0.6314 -0.4211
 6350SOL    HW130683   3.826   2.784   8.776  0.8713  0.1721  0.4819
 6350SOL    HW230684   3.857   2.933   8.748  1.5232 -1.6051  0.2611
 6351SOL     OW30685   1.904   3.535   7.489 -0.2095 -0.2985  0.0226
 6351SOL    HW130686   1.837   3.599   7.515 -0.1938 -0.1758 -0.2437
 6351SOL    HW230687   1.928   3.577   7.407 -0.8854  1.3109  0.6465
 6352SOL     OW30688   0.463   0.651   5.143 -0.0923  0.0045  0.2339
 6352SOL    HW130689   0.512   0.674   5.064 -0.0356  0.0720  0.2890
 6352SOL    HW230690   0.519   0.579   5.171  0.9438  1.0624  0.8752
 6353SOL     OW30691   0.312   4.350  12.573  0.3462  0.2531 -0.5649
 6353SOL    HW130692   0.294   4.369  12.665  0.4771  2.7851 -1.0718
 6353SOL    HW230693   0.226   4.357  12.531  0.1916  1.2927 -0.0731
 6354SOL     OW30694   2.150   0.713   6.701  0.7947 -0.5165 -0.6116
 6354SOL    HW130695   2.127   0.630   6.743  0.6711 -0.5702 -0.7847
 6354SOL    HW230696   2.138   0.773   6.775  1.1097 -2.1053  0.7286
 6355SOL     OW30697   1.837   0.102   9.324 -0.1844 -0.1320 -0.0012
 6355SOL    HW130698   1.878   0.187   9.311 -1.3287  0.8342  2.6960
 6355SOL    HW230699   1.788   0.096   9.242  3.1229 -1.2115 -1.9428
 6356SOL     OW30700   2.901   2.007   8.076  0.7456  0.4544  0.2951
 6356SOL    HW130701   2.907   2.064   7.999 -0.6879 -0.0513 -0.1945
 6356SOL    HW230702   2.822   1.959   8.051  1.2237  0.5163 -1.3124
 6357SOL     OW30703   0.099   3.205   9.975 -0.6366  0.7772 -0.0789
 6357SOL    HW130704   0.101   3.137  10.043 -2.5693 -0.2690 -1.0843
 6357SOL    HW230705   0.008   3.233   9.973 -0.5174  1.2749  1.3620
 6358SOL     OW30706   1.161   0.564   5.106 -0.1814 -0.5075 -0.0117
 6358SOL    HW130707   1.104   0.494   5.076 -0.1577  0.1031 -1.4806
 6358SOL    HW230708   1.228   0.537   5.043  2.0650  0.8613  1.7894
 6359SOL     OW30709   3.241   4.243   4.877  0.2332 -0.3871 -0.1370
 6359SOL    HW130710   3.306   4.313   4.864  2.0513 -1.7546  1.4972
 6359SOL    HW230711   3.286   4.187   4.940 -0.1668 -0.6195 -0.0605
 6360SOL     OW30712   2.992   0.028  10.950 -0.4198  0.3452  0.1915
 6360SOL    HW130713   3.024   0.101  11.003  2.2781 -0.7815  0.1318
 6360SOL    HW230714   3.018   4.686  11.002 -0.0618 -0.3778 -1.0590
 6361SOL     OW30715   3.777   2.404   5.545 -0.3258 -0.0218 -0.0543
 6361SOL    HW130716   3.789   2.314   5.515 -0.5785 -0.7512  2.0380
 6361SOL    HW230717   3.777   2.398   5.641  0.7376  3.0473  0.1499
 6362SOL     OW30718   2.679   3.263   9.683  0.3641 -0.0215 -0.1487
 6362SOL    HW130719   2.727   3.231   9.606  1.3051  1.6185 -0.2490
 6362SOL    HW230720   2.587   3.268   9.656  0.2023 -1.3812  0.1561
 6363SOL     OW30721   1.120   1.659   8.888  0.3191  0.0848 -0.3483
 6363SOL    HW130722   1.072   1.736   8.917  0.6539  0.7978 -1.7214
 6363SOL    HW230723   1.063   1.589   8.920 -0.9935  1.6683  0.7378
 6364SOL     OW30724   3.003   3.235   9.095  0.1721  0.3270 -0.0047
 6364SOL    HW130725   2.912   3.257   9.110  0.0785  0.0580 -0.1765
 6364SOL    HW230726   3.008   3.146   9.131 -1.8176  1.2237  2.4457
 6365SOL     OW30727   0.463   3.428   4.400  0.2062 -0.6589  0.1342
 6365SOL    HW130728   0.373   3.454   4.378  0.8350  1.8438  0.5285
 6365SOL    HW230729   0.458   3.342   4.358 -2.4708  0.8422 -2.6777
 6366SOL     OW30730   2.975   0.564   6.440 -0.3683 -0.0927 -0.2007
 6366SOL    HW130731   2.981   0.501   6.368  1.4554 -1.1272  0.8688
 6366SOL    HW230732   2.924   0.512   6.501 -0.5133 -0.1429 -0.3656
 6367SOL     OW30733   4.178   1.178   2.014 -0.2465 -0.1076  0.2215
 6367SOL    HW130734   4.189   1.269   1.985 -2.0831  0.0246 -0.1247
 6367SOL    HW230735   4.244   1.181   2.082 -0.8095  0.4507  0.7388
 6368SOL     OW30736   1.981   3.104   2.491 -0.3143 -0.2447  0.3239
 6368SOL    HW130737   1.887   3.122   2.487 -0.1163  0.8606  0.7529
 6368SOL    HW230738   1.969   3.014   2.458  0.2817 -0.8110  1.6703
 6369SOL     OW30739   0.541   4.587   3.480  0.2173  0.6091 -0.4289
 6369SOL    HW130740   0.617   4.584   3.422  0.9574  0.2325  0.5536
 6369SOL    HW230741   0.476   4.581   3.410  1.9309 -0.9499 -1.9157
 6370SOL     OW30742   1.881   3.720   1.907  0.3322  0.5360  0.6464
 6370SOL    HW130743   1.819   3.650   1.924  1.6765 -0.5068  1.2850
 6370SOL    HW230744   1.896   3.715   1.813 -4.9434  1.7495 -0.2643
 6371SOL     OW30745   0.900   3.152  12.209 -0.2391 -0.2284 -0.2443
 6371SOL    HW130746   0.906   3.239  12.247  1.2901 -0.5730  0.2681
 6371SOL    HW230747   0.983   3.155  12.162 -0.3937 -1.1736 -0.5741
 6372SOL     OW30748   2.367   1.715   4.805  0.4648  0.7504  0.3008
 6372SOL    HW130749   2.286   1.738   4.760  0.1541 -1.0907 -0.0784
 6372SOL    HW230750   2.390   1.803   4.835 -0.4530  0.9249  0.4922
 6373SOL     OW30751   3.922   0.914   1.445 -0.3946  0.4786 -0.1955
 6373SOL    HW130752   3.858   0.852   1.481  1.2309 -0.5817  0.8622
 6373SOL    HW230753   3.891   1.004   1.457 -0.4072  0.2097  1.6664
 6374SOL     OW30754   3.514   1.721   6.470 -0.2986  0.2338 -0.3357
 6374SOL    HW130755   3.575   1.656   6.505  0.0990  1.2678  0.8840
 6374SOL    HW230756   3.530   1.786   6.538  2.1220  0.8299 -1.4568
 6375SOL     OW30757   3.216   2.913   5.158  0.6676  0.1472 -0.7088
 6375SOL    HW130758   3.132   2.950   5.187 -0.4644 -2.4973 -0.6357
 6375SOL    HW230759   3.186   2.824   5.139 -2.9337  1.1161  0.4357
 6376SOL     OW30760   4.085   1.374   5.090  0.3218 -0.0366  0.1950
 6376SOL    HW130761   4.076   1.282   5.065  1.6456 -0.2799  0.5877
 6376SOL    HW230762   4.036   1.369   5.173  0.6448  0.2729  0.4027
 6377SOL     OW30763   2.858   3.020   6.046 -0.2823  0.3434 -0.8465
 6377SOL    HW130764   2.927   3.084   6.067  0.4126 -0.2080 -1.4248
 6377SOL    HW230765   2.807   3.016   6.127  0.3579  0.8702 -0.4118
 6378SOL     OW30766   0.927   4.073  10.431  0.4747  0.2956  0.5409
 6378SOL    HW130767   0.999   4.011  10.424  1.0893  0.9846  0.7266
 6378SOL    HW230768   0.921   4.081  10.526 -2.3129 -0.6773  0.4269
 6379SOL     OW30769   0.985   3.937   7.894 -0.1397  0.2665 -0.6159
 6379SOL    HW130770   0.943   4.015   7.931  0.5814  1.3893 -2.1472
 6379SOL    HW230771   0.964   3.873   7.962 -1.2527 -0.4953 -1.6887
 6380SOL     OW30772   0.857   0.044  14.155  0.1039 -0.1394  0.2724
 6380SOL    HW130773   0.814   4.704  14.114  0.0207 -0.5689  1.1634
 6380SOL    HW230774   0.842   0.102  14.080  3.7953  1.8018  1.0333
 6381SOL     OW30775   3.645   3.642  12.033  0.1092  0.2288  0.0824
 6381SOL    HW130776   3.707   3.571  12.049  2.1541  2.0159  0.0919
 6381SOL    HW230777   3.707   3.706  12.000  0.1479 -0.2710 -0.7931
 6382SOL     OW30778   2.783   3.278   9.941  0.0795 -0.1796 -0.0351
 6382SOL    HW130779   2.728   3.296   9.865  0.0265 -0.6119 -0.0965
 6382SOL    HW230780   2.852   3.343   9.928 -0.6084  0.6592  0.4679
 6383SOL     OW30781   1.282   0.706   8.047  0.4207  0.1696 -0.2254
 6383SOL    HW130782   1.287   0.658   8.130 -0.1530  0.1899 -0.1777
 6383SOL    HW230783   1.370   0.742   8.047  0.8535 -0.8526 -1.7588
 6384SOL     OW30784   3.125   1.409  11.779  0.0182 -0.1251  0.3901
 6384SOL    HW130785   3.126   1.331  11.834 -0.3145  0.9389  1.9021
 6384SOL    HW230786   3.099   1.473  11.846  0.6920 -0.7451  1.2460
 6385SOL     OW30787   0.136   2.812   9.686 -0.3921  0.0458 -0.0953
 6385SOL    HW130788   0.155   2.899   9.721 -2.5453  0.5457 -0.1468
 6385SOL    HW230789   0.141   2.757   9.765  0.6892  0.0126 -0.1846
 6386SOL     OW30790   1.130   1.349   1.875 -0.0708 -0.2615  0.0847
 6386SOL    HW130791   1.173   1.266   1.896  2.8718  1.2006 -0.1651
 6386SOL    HW230792   1.153   1.362   1.783  1.7572  1.1150  0.7335
 6387SOL     OW30793   1.031   0.899   3.688 -0.2936  0.3059  0.0305
 6387SOL    HW130794   0.954   0.891   3.631  0.0773 -3.4187  0.0507
 6387SOL    HW230795   1.012   0.835   3.756 -3.1423  1.0551 -0.0257
 6388SOL     OW30796   4.074   0.908   5.870  0.2632 -0.5374  0.1168
 6388SOL    HW130797   4.164   0.876   5.879  0.0570 -1.4403 -0.9632
 6388SOL    HW230798   4.054   0.957   5.949 -3.1214 -1.5019 -0.1160
 6389SOL     OW30799   4.441   0.800   3.380 -0.1275  0.2191 -0.3624
 6389SOL    HW130800   4.454   0.775   3.471  1.2695  1.3035 -0.2478
 6389SOL    HW230801   4.412   0.891   3.389  1.6288  0.6156  1.2516
 6390SOL     OW30802   0.136   1.855   2.483  0.0298 -0.0144  0.0460
 6390SOL    HW130803   0.118   1.792   2.412 -0.0602  0.6065 -0.4864
 6390SOL    HW230804   0.110   1.933   2.433  0.4502  1.1732  1.6987
 6391SOL     OW30805   1.786   3.864  17.264 -0.2042  0.1317  0.4984
 6391SOL    HW130806   1.737   3.933  17.219  1.4188  0.9887  0.0645
 6391SOL    HW230807   1.802   3.897  17.352  1.5095  2.3070 -0.6556
 6392SOL     OW30808   1.536   0.856   4.748 -0.2623  0.8091  0.4158
 6392SOL    HW130809   1.473   0.927   4.750 -0.3990  0.7387 -1.2027
 6392SOL    HW230810   1.491   0.800   4.686  0.9868 -0.0524  0.2859
 6393SOL     OW30811   3.668   3.504   3.407 -0.0273  0.3179  0.5139
 6393SOL    HW130812   3.730   3.498   3.335 -0.3229  0.2112  0.2671
 6393SOL    HW230813   3.587   3.540   3.370 -1.3679 -2.9240  0.2937
 6394SOL     OW30814   1.727   3.737  12.853  0.5933  0.0573  0.2180
 6394SOL    HW130815   1.717   3.646  12.823  2.0352 -0.0891  0.1589
 6394SOL    HW230816   1.678   3.779  12.783  0.8543 -0.2141 -0.1286
 6395SOL     OW30817   4.593   1.716  14.530 -0.7151 -0.0716 -0.0798
 6395SOL    HW130818   4.588   1.676  14.443 -1.0106  0.9119 -0.5181
 6395SOL    HW230819   4.504   1.750  14.535 -0.9162 -0.6156  0.0667
 6396SOL     OW30820   3.104   0.513   8.473  0.0525  0.4440 -0.3754
 6396SOL    HW130821   3.052   0.495   8.552  1.0235 -1.5497 -0.2014
 6396SOL    HW230822   3.175   0.449   8.462 -2.6029 -2.2407 -1.7549
 6397SOL     OW30823   2.106   1.461   3.295  0.3291 -0.1447  0.3267
 6397SOL    HW130824   2.173   1.442   3.229 -0.9363  0.1102 -1.0387
 6397SOL    HW230825   2.122   1.555   3.302  0.4592 -0.1287 -0.1889
 6398SOL     OW30826   2.483   3.169  12.695 -0.4474 -0.2628 -0.1160
 6398SOL    HW130827   2.553   3.171  12.760 -2.6858  0.3530  2.3353
 6398SOL    HW230828   2.511   3.227  12.625  0.5216  0.6505  1.0180
 6399SOL     OW30829   1.278   1.743  14.900 -0.3350  0.3845  0.2213
 6399SOL    HW130830   1.273   1.818  14.842  0.4445  1.9947  2.2302
 6399SOL    HW230831   1.341   1.687  14.856 -0.1615  0.7260  0.0400
 6400SOL     OW30832   2.069   3.298  12.634  0.1096  0.1857  0.2811
 6400SOL    HW130833   1.980   3.269  12.616  0.7316 -1.1063 -0.6492
 6400SOL    HW230834   2.082   3.384  12.595  1.1061 -0.8841 -1.7274
 6401SOL     OW30835   3.857   2.042   5.271 -0.6456 -0.1492 -0.1748
 6401SOL    HW130836   3.943   2.016   5.238 -0.9713 -1.7404  0.2178
 6401SOL    HW230837   3.803   1.964   5.253 -1.4085  1.1485 -3.5297
 6402SOL     OW30838   4.648   1.523   7.505  0.0322 -0.2301 -0.0207
 6402SOL    HW130839   4.682   1.587   7.443  0.8333  0.8986  1.6085
 6402SOL    HW230840   4.680   1.555   7.589 -1.3187  1.8323 -0.3129
 6403SOL     OW30841   1.101   0.478  11.376 -0.6089  0.0845 -0.3919
 6403SOL    HW130842   1.120   0.515  11.462  0.6102  0.2885 -0.7506
 6403SOL    HW230843   1.126   0.554  11.324  1.4583  0.4383  1.1745
 6404SOL     OW30844   1.378   3.563  10.152  0.1755  0.1084 -0.2838
 6404SOL    HW130845   1.469   3.584  10.174  0.6862 -0.7349 -1.5990
 6404SOL    HW230846   1.339   3.648  10.171 -1.1591  0.2762 -3.8690
 6405SOL     OW30847   4.418   1.491   9.221 -0.2179 -0.2675 -0.8704
 6405SOL    HW130848   4.469   1.536   9.153  0.1851  1.1934  0.4130
 6405SOL    HW230849   4.405   1.560   9.285 -2.7233 -1.5586 -0.0238
 6406SOL     OW30850   1.609   0.606   8.651 -0.0088  0.4955  0.0203
 6406SOL    HW130851   1.593   0.589   8.558 -0.4787 -0.8120  0.3385
 6406SOL    HW230852   1.578   0.531   8.702  0.1747 -0.1114 -0.7476
 6407SOL     OW30853   4.322   3.596   6.017  0.2658  0.2254 -0.3189
 6407SOL    HW130854   4.246   3.591   6.075 -0.2329 -0.4973 -1.0209
 6407SOL    HW230855   4.318   3.505   5.986  0.8706  0.1549 -0.1808
 6408SOL     OW30856   3.485   4.257  17.653 -0.4739 -0.3150  0.2668
 6408SOL    HW130857   3.521   4.279  17.567  2.5566 -1.7405  1.1818
 6408SOL    HW230858   3.394   4.277  17.631  0.2265  1.9369 -0.6076
 6409SOL     OW30859   4.092   3.713   3.546 -0.1227  0.2695  0.0153
 6409SOL    HW130860   4.054   3.724   3.633 -0.4000  0.3789 -0.1170
 6409SOL    HW230861   4.124   3.803   3.542  1.6714 -0.5699 -4.0298
 6410SOL     OW30862   3.916   3.006   5.100 -0.5907 -0.0233 -0.4682
 6410SOL    HW130863   3.970   2.929   5.116 -0.1865  0.2491 -0.5379
 6410SOL    HW230864   3.916   3.003   5.004 -1.4800 -0.9603 -0.4356
 6411SOL     OW30865   1.502   2.686  15.848  1.0586 -0.6277 -0.0067
 6411SOL    HW130866   1.497   2.778  15.876 -2.0307 -0.1856 -2.0795
 6411SOL    HW230867   1.416   2.656  15.875  1.0067 -0.0117  0.5130
 6412SOL     OW30868   1.160   3.921   0.185 -0.1959 -0.2761  0.1438
 6412SOL    HW130869   1.109   3.856   0.233  0.9891 -2.9671 -2.2489
 6412SOL    HW230870   1.099   3.995   0.191 -0.1081 -0.2599  0.7897
 6413SOL     OW30871   2.200   2.204  12.139 -0.7129 -0.1784  0.0038
 6413SOL    HW130872   2.247   2.272  12.091 -0.7295 -0.3824 -0.2983
 6413SOL    HW230873   2.265   2.134  12.140 -1.4696 -0.8824 -0.3838
 6414SOL     OW30874   4.273   4.553   1.526 -0.4050  0.4049  0.3200
 6414SOL    HW130875   4.243   4.566   1.436  1.6056  1.1395 -0.2404
 6414SOL    HW230876   4.226   4.618   1.578  0.9985  0.7817  1.1287
 6415SOL     OW30877   1.284   1.466  15.881  0.6524  0.0443 -1.0758
 6415SOL    HW130878   1.245   1.548  15.912  0.7901 -0.4619  0.4887
 6415SOL    HW230879   1.351   1.505  15.826  1.6320 -0.7190 -0.4376
 6416SOL     OW30880   1.393   2.588   3.115 -0.5120 -0.3030 -0.0490
 6416SOL    HW130881   1.356   2.616   3.198 -1.2926  2.6801 -1.3890
 6416SOL    HW230882   1.320   2.531   3.090  1.7671 -1.4163 -4.1545
 6417SOL     OW30883   0.487   1.989   8.088 -0.1423  0.4187  0.3823
 6417SOL    HW130884   0.477   1.985   8.183  1.0335  2.6515  0.5957
 6417SOL    HW230885   0.571   1.943   8.083  0.1792  1.2798 -1.8427
 6418SOL     OW30886   0.401   2.235   8.174 -0.2531  0.4673  0.0785
 6418SOL    HW130887   0.340   2.163   8.191  1.2481 -0.6282  0.7104
 6418SOL    HW230888   0.453   2.206   8.100  2.6162  1.2372  1.7988
 6419SOL     OW30889   2.950   3.784   6.661  0.3940 -0.3470  0.2834
 6419SOL    HW130890   2.903   3.752   6.583  0.9062  1.3172 -0.7014
 6419SOL    HW230891   3.032   3.735   6.655  0.6075  0.2709 -1.8322
 6420SOL     OW30892   1.618   0.217   2.161  0.0448 -0.4258 -0.3144
 6420SOL    HW130893   1.529   0.186   2.148 -0.7383  1.6127  0.1197
 6420SOL    HW230894   1.611   0.252   2.250 -3.2970  0.9788 -1.1574
 6421SOL     OW30895   1.103   1.096   9.584  0.2881 -0.2292 -0.0805
 6421SOL    HW130896   1.094   1.083   9.490  1.5081  1.9819 -0.4989
 6421SOL    HW230897   1.016   1.072   9.616 -0.2464 -0.9593 -2.0496
 6422SOL     OW30898   0.947   1.123   2.358  0.7909  0.0654  0.3500
 6422SOL    HW130899   1.014   1.055   2.353  0.4381 -0.4412  2.2319
 6422SOL    HW230900   0.993   1.189   2.410  1.0149  0.9595 -0.9711
 6423SOL     OW30901   0.629   0.005  12.435 -0.4376 -0.3516 -0.1145
 6423SOL    HW130902   0.596   4.678  12.500  1.4893 -1.5523 -0.2827
 6423SOL    HW230903   0.709   4.694  12.408 -0.4869  0.6092 -1.9324
 6424SOL     OW30904   0.270   3.484   9.676 -0.1481 -0.5680  0.4802
 6424SOL    HW130905   0.309   3.496   9.763 -0.6421 -1.9410  0.8905
 6424SOL    HW230906   0.318   3.412   9.636  0.7210  0.9837 -1.2312
 6425SOL     OW30907   2.754   3.735   8.180 -0.4891 -0.5660  0.1923
 6425SOL    HW130908   2.672   3.766   8.141  0.7982 -1.0744 -2.9524
 6425SOL    HW230909   2.723   3.644   8.177  1.3966 -1.3002  3.5266
 6426SOL     OW30910   4.462   1.444   9.877  0.3223 -0.3389 -0.4621
 6426SOL    HW130911   4.531   1.498   9.838  0.1554  1.6814  1.9961
 6426SOL    HW230912   4.471   1.363   9.828  1.8419 -0.9969  0.8892
 6427SOL     OW30913   3.848   1.073   3.418  0.1849  0.0685 -0.4137
 6427SOL    HW130914   3.849   1.054   3.512  2.6649 -0.9662 -0.6502
 6427SOL    HW230915   3.755   1.066   3.397 -0.1055 -0.5599  1.1280
 6428SOL     OW30916   3.778   0.932   7.900  0.1949  0.1668 -0.5322
 6428SOL    HW130917   3.719   0.906   7.830 -1.9656  1.9656  0.6374
 6428SOL    HW230918   3.847   0.866   7.891 -1.0825 -1.4293  1.5618
 6429SOL     OW30919   3.989   4.141   3.542  0.3993  0.4089  0.0877
 6429SOL    HW130920   3.983   4.084   3.619  1.8975 -2.0818 -1.6443
 6429SOL    HW230921   4.075   4.116   3.508  1.4440  2.4312  1.2497
 6430SOL     OW30922   3.400   3.157  14.936 -0.4865  0.2988  0.3825
 6430SOL    HW130923   3.379   3.064  14.951 -1.2728  0.5880  1.0354
 6430SOL    HW230924   3.461   3.172  15.008  1.2045  0.2050 -1.0386
 6431SOL     OW30925   1.675   4.571   7.887  0.1528 -0.2171  0.4901
 6431SOL    HW130926   1.620   4.648   7.870 -1.0810 -1.4789 -1.2287
 6431SOL    HW230927   1.755   4.595   7.841  0.7618 -3.3002 -0.0377
 6432SOL     OW30928   0.433   4.113   7.318 -0.0210  0.0191 -0.3099
 6432SOL    HW130929   0.473   4.049   7.259 -0.4208  0.6506 -1.2473
 6432SOL    HW230930   0.361   4.057   7.349 -1.1011  0.9121 -1.2612
 6433SOL     OW30931   2.220   2.195   3.522 -0.2987 -0.1616  0.6098
 6433SOL    HW130932   2.273   2.175   3.599  0.5705 -0.1852  0.0019
 6433SOL    HW230933   2.238   2.122   3.464 -0.7427  0.5513 -0.4263
 6434SOL     OW30934   0.155   3.873   8.655 -0.4570 -0.2716  0.0439
 6434SOL    HW130935   0.163   3.796   8.599  0.4867 -0.3010  0.2207
 6434SOL    HW230936   0.075   3.850   8.702 -0.7432 -0.4960 -0.5600
 6435SOL     OW30937   1.368   0.293   3.403 -0.2983  0.4520 -0.1901
 6435SOL    HW130938   1.443   0.330   3.355  1.1055 -1.0931  0.8125
 6435SOL    HW230939   1.305   0.360   3.376 -1.3021 -1.2462 -2.0029
 6436SOL     OW30940   0.818   1.323   2.177  0.2540 -0.1110 -0.1387
 6436SOL    HW130941   0.906   1.318   2.140 -0.4883 -0.7944 -1.8243
 6436SOL    HW230942   0.825   1.250   2.238  1.9831 -0.4533 -0.7640
 6437SOL     OW30943   1.699   4.289   4.951  0.1184  0.4436  0.3395
 6437SOL    HW130944   1.689   4.282   5.046  0.0517  0.4482  0.3329
 6437SOL    HW230945   1.748   4.209   4.933 -2.7221 -1.0813 -0.7137
 6438SOL     OW30946   1.466   4.201   7.398  0.4628 -0.1712 -0.3755
 6438SOL    HW130947   1.488   4.295   7.399 -0.6001  0.0805 -1.6029
 6438SOL    HW230948   1.548   4.172   7.357  0.7311  2.4137 -1.6904
 6439SOL     OW30949   2.919   3.181   7.864 -0.1955 -0.5044 -0.0130
 6439SOL    HW130950   2.907   3.158   7.772  1.0157  1.1134 -0.5638
 6439SOL    HW230951   2.854   3.119   7.899  0.9022 -2.2200 -1.0030
 6440SOL     OW30952   4.008   4.575   3.038  0.2747 -0.2005 -0.0445
 6440SOL    HW130953   3.924   4.534   3.056  1.1662 -1.4624  1.2203
 6440SOL    HW230954   4.007   4.647   3.101 -2.4790  1.8117 -2.4049
 6441SOL     OW30955   2.971   2.879   8.367  0.4378 -0.1591 -0.0882
 6441SOL    HW130956   2.919   2.946   8.323  0.4832 -1.0525 -1.5031
 6441SOL    HW230957   2.931   2.880   8.454 -0.3270 -1.5355 -0.4352
 6442SOL     OW30958   3.376   3.091   7.864 -0.0189 -0.1796  0.4797
 6442SOL    HW130959   3.341   3.061   7.948 -1.0725  1.3449  0.5652
 6442SOL    HW230960   3.350   3.182   7.877 -0.3345  0.0476 -1.9246
 6443SOL     OW30961   2.863   1.394   2.084  0.3264  0.0330  0.2526
 6443SOL    HW130962   2.913   1.406   2.003  1.8582 -0.7033  1.0793
 6443SOL    HW230963   2.932   1.418   2.146  0.7100  1.5525 -0.7771
 6444SOL     OW30964   2.836   1.358   8.868  0.1795 -0.7471 -0.3054
 6444SOL    HW130965   2.888   1.310   8.932 -0.3562 -0.0385  0.6625
 6444SOL    HW230966   2.784   1.287   8.832 -0.0099  0.0905 -1.6897
 6445SOL     OW30967   4.605   2.321   6.946  0.2810 -0.2497 -0.1611
 6445SOL    HW130968   4.524   2.294   6.989  0.9940  0.8442  1.8517
 6445SOL    HW230969   4.652   2.330   7.029 -1.8937  0.2425  1.0294
 6446SOL     OW30970   3.691   2.314   0.424  0.1898 -0.2080  0.4012
 6446SOL    HW130971   3.740   2.233   0.410 -1.7862 -1.1126 -1.2512
 6446SOL    HW230972   3.767   2.361   0.460 -1.3363  0.8624  2.2455
 6447SOL     OW30973   0.753   3.418   8.289  0.1756  0.1521 -0.1330
 6447SOL    HW130974   0.699   3.379   8.358 -0.9128 -0.5270 -1.3805
 6447SOL    HW230975   0.769   3.507   8.322  0.6956  0.4334 -1.1506
 6448SOL     OW30976   4.168   3.095   9.201  0.2881  0.2694  0.5543
 6448SOL    HW130977   4.119   3.092   9.119 -0.5379  0.5236  1.0450
 6448SOL    HW230978   4.217   3.176   9.188 -1.6427  1.6026  1.5903
 6449SOL     OW30979   0.372   0.888   2.553 -0.6276  0.0006 -0.2988
 6449SOL    HW130980   0.418   0.921   2.476 -0.2759  0.5732  0.1491
 6449SOL    HW230981   0.301   0.951   2.565 -0.1048 -0.1329  3.4927
 6450SOL     OW30982   0.484   3.972   1.388  0.0540  0.2895 -0.0879
 6450SOL    HW130983   0.515   4.015   1.467  2.0235  1.9858 -1.7782
 6450SOL    HW230984   0.564   3.946   1.343  0.3324 -1.6263  1.5352
 6451SOL     OW30985   3.689   2.816   7.819  0.1695  0.5573 -0.4400
 6451SOL    HW130986   3.700   2.883   7.751 -1.6105  0.5649 -0.7282
 6451SOL    HW230987   3.611   2.769   7.790 -0.8925  1.2369  1.3373
 6452SOL     OW30988   4.535   0.666   6.314  0.1988  0.4095 -0.0826
 6452SOL    HW130989   4.572   0.754   6.305  0.4962  0.2768 -0.1536
 6452SOL    HW230990   4.508   0.638   6.227 -2.1189 -0.2473  0.8587
 6453SOL     OW30991   0.853   1.462   8.902  0.4891  0.3382 -0.1521
 6453SOL    HW130992   0.857   1.517   8.980  0.5614 -0.8837  0.7038
 6453SOL    HW230993   0.931   1.408   8.907 -2.0357 -3.0300  2.5299
 6454SOL     OW30994   0.775   2.398   8.253 -0.5480  0.3452 -0.3273
 6454SOL    HW130995   0.825   2.330   8.207  2.3473  1.6735  0.8612
 6454SOL    HW230996   0.755   2.355   8.336 -5.5068 -2.9836 -3.2533
 6455SOL     OW30997   3.805   1.804  16.119 -0.5005  0.5789 -0.0113
 6455SOL    HW130998   3.826   1.721  16.162 -0.3177 -0.3597 -1.8839
 6455SOL    HW230999   3.867   1.858  16.168  0.5023 -1.8952  1.4362
 6456SOL     OW31000   4.629   2.211  13.639  0.0501  0.0988  0.1815
 6456SOL    HW131001   4.654   2.205  13.732  0.7319  1.1067  0.0707
 6456SOL    HW231002   4.604   2.302  13.622  0.1141 -0.0266 -0.5567
 6457SOL     OW31003   3.614   3.212  17.255  0.0220  0.5397  0.2065
 6457SOL    HW131004   3.553   3.142  17.236 -0.7363  0.3379  3.3461
 6457SOL    HW231005   3.693   3.157  17.251 -0.0904  0.1084  4.4068
 6458SOL     OW31006   2.054   2.607   6.541  0.1714  0.0619  0.1600
 6458SOL    HW131007   1.965   2.644   6.544  0.3521  0.5626 -0.5737
 6458SOL    HW231008   2.054   2.592   6.446  3.0370 -0.1975  0.2206
 6459SOL     OW31009   0.390   0.862  16.991 -0.2544  0.1729  0.7642
 6459SOL    HW131010   0.461   0.801  17.012  1.5296  1.3698 -1.7775
 6459SOL    HW231011   0.385   0.908  17.076  0.0389  2.7027 -0.5838
 6460SOL     OW31012   4.397   3.506   0.203 -0.2227 -0.0836 -0.1685
 6460SOL    HW131013   4.490   3.505   0.182 -0.5034  1.1589 -1.4488
 6460SOL    HW231014   4.383   3.412   0.216 -0.6160 -0.2732 -2.0212
 6461SOL     OW31015   3.542   3.657   6.929 -0.1726  0.4933  0.0020
 6461SOL    HW131016   3.493   3.712   6.991 -0.2855  1.8478 -1.2866
 6461SOL    HW231017   3.499   3.572   6.937 -0.6400  0.6542 -0.8788
 6462SOL     OW31018   1.849   0.106   4.563 -0.0428  0.3581  0.9338
 6462SOL    HW131019   1.885   0.162   4.495 -0.0253 -2.9492 -1.7855
 6462SOL    HW231020   1.851   0.015   4.532  0.4364  1.6509 -2.8339
 6463SOL     OW31021   1.779   1.819  16.004  0.3278 -0.1125  0.1383
 6463SOL    HW131022   1.687   1.808  16.026  0.1449  0.5088 -0.3188
 6463SOL    HW231023   1.806   1.857  16.088 -0.8563  0.5262  0.2261
 6464SOL     OW31024   4.309   1.756  14.575  0.3259 -0.4979 -0.0475
 6464SOL    HW131025   4.291   1.847  14.598  1.9842  0.7361 -3.5027
 6464SOL    HW231026   4.235   1.731  14.519  0.0573  0.7421 -0.2473
 6465SOL     OW31027   0.483   3.943  15.639 -0.1465 -0.0192  0.1700
 6465SOL    HW131028   0.448   3.853  15.634  2.4234 -0.9089 -1.8041
 6465SOL    HW231029   0.406   3.983  15.600  0.5236  1.2500  0.1730
 6466SOL     OW31030   0.216   0.928  12.056 -0.3052  0.3656 -0.0076
 6466SOL    HW131031   0.203   0.834  12.042 -1.1305  0.5891 -0.6871
 6466SOL    HW231032   0.188   0.944  12.146 -0.3176  1.3650 -0.1939
 6467SOL     OW31033   3.098   2.330   8.285 -0.2638 -0.3191  0.3171
 6467SOL    HW131034   3.108   2.368   8.373 -2.6087  0.4054  0.2783
 6467SOL    HW231035   3.184   2.290   8.276  1.3131  2.6966  2.1835
 6468SOL     OW31036   1.517   4.632   5.574 -0.3023  0.0657 -0.0401
 6468SOL    HW131037   1.580   4.644   5.645  0.2712  2.2622 -0.9506
 6468SOL    HW231038   1.436   4.663   5.613 -0.8218  1.8918 -2.5926
 6469SOL     OW31039   2.877   2.717   6.145  0.0183 -0.1775 -0.4792
 6469SOL    HW131040   2.937   2.765   6.202  0.9276 -1.6929 -0.1620
 6469SOL    HW231041   2.837   2.656   6.208  2.1356  0.1565  1.1918
 6470SOL     OW31042   2.612   1.662   8.629  0.1589 -0.3050  0.0051
 6470SOL    HW131043   2.597   1.753   8.605  1.7393  0.2330  1.0519
 6470SOL    HW231044   2.584   1.612   8.552  1.0538  0.9630 -1.1385
 6471SOL     OW31045   3.386   0.231   9.256  0.2448 -0.4488 -0.3049
 6471SOL    HW131046   3.311   0.291   9.258 -0.6981 -1.6654  0.3519
 6471SOL    HW231047   3.450   0.290   9.217  0.7179 -0.4877  0.4153
 6472SOL     OW31048   1.144   4.333   4.551  0.4162 -0.2073 -0.1233
 6472SOL    HW131049   1.176   4.419   4.578 -1.4382  0.5741 -0.3924
 6472SOL    HW231050   1.226   4.290   4.530  0.0268 -1.1789  0.3357
 6473SOL     OW31051   0.556   2.168   8.585 -0.6818 -0.5853  0.5919
 6473SOL    HW131052   0.618   2.098   8.606  0.1495 -0.0232 -0.0118
 6473SOL    HW231053   0.608   2.224   8.528  0.9140  0.0755  2.6990
 6474SOL     OW31054   0.250   1.596   7.064 -0.5251  0.1921 -0.0234
 6474SOL    HW131055   0.158   1.621   7.058 -0.0703  1.5656 -1.1623
 6474SOL    HW231056   0.238   1.501   7.071  3.1316 -0.2239  0.7456
 6475SOL     OW31057   2.815   3.721   6.417  0.3649  0.0223 -0.4873
 6475SOL    HW131058   2.750   3.672   6.366  1.1497  0.5728 -2.0205
 6475SOL    HW231059   2.784   3.802   6.376 -2.1380  0.4529  2.2498
 6476SOL     OW31060   0.144   4.477   3.211 -0.1944  0.1124 -0.0270
 6476SOL    HW131061   0.116   4.502   3.299 -0.6098 -2.0313  0.4498
 6476SOL    HW231062   0.110   4.559   3.177 -2.3453  0.2001  2.3653
 6477SOL     OW31063   3.645   3.014   3.355 -0.4209  0.2017  0.5044
 6477SOL    HW131064   3.550   3.019   3.365 -0.2669  2.0075  0.9639
 6477SOL    HW231065   3.674   2.990   3.443  0.5486 -0.3380  0.0343
 6478SOL     OW31066   2.484   0.863   3.991 -0.5090  0.0300 -0.0035
 6478SOL    HW131067   2.407   0.896   3.946 -0.6729 -1.0867 -0.5253
 6478SOL    HW231068   2.471   0.769   3.982 -0.9455  0.2629 -1.7476
 6479SOL     OW31069   4.234   1.668   9.937 -0.2314 -0.4883 -0.1392
 6479SOL    HW131070   4.286   1.601   9.894 -1.0909 -1.2240 -0.0368
 6479SOL    HW231071   4.144   1.646   9.911 -0.9038  1.4882  0.4951
 6480SOL     OW31072   3.528   3.806  11.791 -0.4757 -0.0379 -0.6658
 6480SOL    HW131073   3.460   3.800  11.858 -1.3670 -1.3288 -1.6941
 6480SOL    HW231074   3.551   3.715  11.774  1.0083  0.0552  0.9293
 6481SOL     OW31075   2.747   1.582   0.956  0.5834  0.6627  0.1997
 6481SOL    HW131076   2.806   1.507   0.955 -0.6293 -0.2636 -1.4005
 6481SOL    HW231077   2.671   1.544   0.912 -0.9294  1.2174  2.3542
 6482SOL     OW31078   2.312   3.236   8.369  0.0538 -0.0726 -0.2363
 6482SOL    HW131079   2.227   3.218   8.329  0.6696 -0.9688 -1.1236
 6482SOL    HW231080   2.310   3.328   8.397  2.0921 -0.2343  0.4373
 6483SOL     OW31081   4.353   4.196   7.938  0.0638 -0.4114 -0.0934
 6483SOL    HW131082   4.319   4.190   7.849 -2.3014 -0.9010  0.8537
 6483SOL    HW231083   4.385   4.106   7.945 -1.2087 -1.0542 -2.5448
 6484SOL     OW31084   0.540   1.618   3.047  0.3021 -0.2911 -1.0762
 6484SOL    HW131085   0.523   1.570   2.966 -4.2428  1.0399 -0.9618
 6484SOL    HW231086   0.521   1.707   3.016  2.7449  0.8727  0.7835
 6485SOL     OW31087   0.401   1.217   5.320  0.1277  0.1039 -0.1416
 6485SOL    HW131088   0.403   1.305   5.284  1.6190  0.4114  0.7082
 6485SOL    HW231089   0.318   1.189   5.280 -0.3179 -0.1259  0.9515
 6486SOL     OW31090   4.267   1.243   4.273 -0.2002 -0.5209 -0.7977
 6486SOL    HW131091   4.215   1.274   4.199 -2.9166  3.6228  2.8389
 6486SOL    HW231092   4.195   1.213   4.328  0.6404  1.4646  1.4194
 6487SOL     OW31093   3.831   1.069   5.283  0.6135  0.0166 -0.5969
 6487SOL    HW131094   3.828   1.152   5.332 -2.1944  0.5961 -1.7590
 6487SOL    HW231095   3.866   1.093   5.197 -1.3036 -0.2548 -1.4520
 6488SOL     OW31096   2.571   2.704   6.380  0.4164 -0.6401 -0.1149
 6488SOL    HW131097   2.558   2.765   6.308 -0.4690 -0.4214  0.2155
 6488SOL    HW231098   2.476   2.701   6.398  0.3076 -2.3927 -1.0703
 6489SOL     OW31099   4.296   0.155   0.227 -0.1384 -0.2656  0.1793
 6489SOL    HW131100   4.287   0.248   0.247  2.5479  0.7007 -3.1498
 6489SOL    HW231101   4.212   0.138   0.186 -0.4526  1.2738  0.2170
 6490SOL     OW31102   4.490   0.469  11.151  1.0317  0.4698  0.7674
 6490SOL    HW131103   4.493   0.503  11.061  1.1589  1.0345  0.9854
 6490SOL    HW231104   4.479   0.555  11.191 -0.5054  0.4023  0.4902
 6491SOL     OW31105   2.923   0.191   8.875  0.2520  0.2246 -0.2875
 6491SOL    HW131106   2.957   0.151   8.795 -0.6268  1.5291 -1.3127
 6491SOL    HW231107   2.920   0.118   8.938  0.8613  0.1255 -0.3725
 6492SOL     OW31108   1.938   3.725   8.365 -0.4073 -0.0346  0.0834
 6492SOL    HW131109   2.000   3.761   8.302 -1.3805 -0.9620 -1.4016
 6492SOL    HW231110   1.868   3.685   8.314 -0.1155  0.2377 -0.5261
 6493SOL     OW31111   1.975   2.503  15.204  0.0222 -0.0514 -0.4680
 6493SOL    HW131112   2.011   2.495  15.116 -0.1859 -3.3005 -0.2840
 6493SOL    HW231113   1.989   2.412  15.232  1.2112 -0.3045 -1.8675
 6494SOL     OW31114   2.335   2.696  14.074  0.2423 -0.0055  0.1030
 6494SOL    HW131115   2.429   2.705  14.091  0.1779 -0.6282  0.7907
 6494SOL    HW231116   2.331   2.669  13.982  0.5689  2.2736 -0.5853
 6495SOL     OW31117   3.171   0.679  12.282 -0.0576 -0.6279 -0.4175
 6495SOL    HW131118   3.109   0.726  12.337 -1.9335 -2.6693 -0.8105
 6495SOL    HW231119   3.143   0.589  12.298 -1.5322  0.1067  1.0959
 6496SOL     OW31120   2.018   0.067   8.540  0.0576 -0.5404  0.0175
 6496SOL    HW131121   2.077   0.108   8.476 -0.8658 -2.1315 -1.8331
 6496SOL    HW231122   2.036   4.714   8.509 -1.9696 -1.4596  1.4323
 6497SOL     OW31123   0.795   0.596   3.726 -0.3512  0.0733  0.1380
 6497SOL    HW131124   0.821   0.545   3.649 -0.4161 -0.0990  0.2306
 6497SOL    HW231125   0.801   0.519   3.783 -1.4411  0.3366  0.6013
 6498SOL     OW31126   2.697   0.364  10.227  0.2555  0.1089  0.0880
 6498SOL    HW131127   2.633   0.334  10.292 -0.3863 -1.8162 -1.3910
 6498SOL    HW231128   2.651   0.443  10.198 -0.8152 -0.5263  0.0314
 6499SOL     OW31129   1.956   0.417   6.929 -0.6755 -0.2323  0.1627
 6499SOL    HW131130   1.988   0.342   6.979 -3.4108 -1.2925  0.3641
 6499SOL    HW231131   2.018   0.420   6.857 -0.2848 -0.5427  0.4909
 6500SOL     OW31132   2.245   2.732   3.570 -0.4397 -0.3544 -0.4862
 6500SOL    HW131133   2.227   2.817   3.532 -0.6814 -0.3898 -0.4495
 6500SOL    HW231134   2.311   2.699   3.509 -0.0219  0.1712 -0.3206
 6501SOL     OW31135   3.652   2.596   0.987 -0.0720  0.2501  0.3149
 6501SOL    HW131136   3.570   2.555   0.958  0.1747 -1.1068  1.5214
 6501SOL    HW231137   3.641   2.681   0.945 -1.9088 -1.2113 -2.1862
 6502SOL     OW31138   2.528   3.968   7.202  0.2244  0.2813  0.0314
 6502SOL    HW131139   2.609   3.982   7.153 -0.6404  0.7182 -1.2706
 6502SOL    HW231140   2.553   3.883   7.239 -0.2552  0.5019  0.8643
 6503SOL     OW31141   1.839   4.380   9.489  0.4000 -0.3933 -0.5940
 6503SOL    HW131142   1.906   4.401   9.424  1.2274 -0.2063  0.3351
 6503SOL    HW231143   1.810   4.299   9.447 -0.2439  0.0150 -0.9551
 6504SOL     OW31144   2.773   0.398   7.429  0.0968 -0.0954  0.0008
 6504SOL    HW131145   2.761   0.434   7.517  0.4630 -2.5202  1.0438
 6504SOL    HW231146   2.685   0.390   7.392  0.0441 -0.7211  0.2672
 6505SOL     OW31147   2.440   2.580   7.511 -0.3006 -0.2943 -0.5796
 6505SOL    HW131148   2.532   2.559   7.523 -1.0912 -3.5142 -0.0776
 6505SOL    HW231149   2.431   2.591   7.606 -1.6438  0.4951 -0.7897
 6506SOL     OW31150   1.239   2.101  14.855  0.1894 -0.3248  0.4912
 6506SOL    HW131151   1.328   2.066  14.856  0.8643  1.3724 -0.1536
 6506SOL    HW231152   1.256   2.193  14.874  1.0150 -0.1712 -0.9416
 6507SOL     OW31153   3.350   3.887   1.668 -0.6532 -0.5490  0.0272
 6507SOL    HW131154   3.405   3.879   1.746 -0.6063  3.9885  0.4556
 6507SOL    HW231155   3.350   3.983   1.663 -0.8802 -0.6716 -2.4202
 6508SOL     OW31156   4.507   2.969   2.737 -0.2395 -0.0610 -0.9815
 6508SOL    HW131157   4.455   2.908   2.789 -0.6104  1.9962  1.0977
 6508SOL    HW231158   4.523   2.922   2.656  1.2737  0.6009 -1.0673
 6509SOL     OW31159   2.446   0.411   8.211  0.1164  0.6182  0.6642
 6509SOL    HW131160   2.353   0.430   8.199  0.4493  2.3277  0.7222
 6509SOL    HW231161   2.491   0.477   8.158 -1.2257  1.6235  0.7794
 6510SOL     OW31162   3.323   4.357   7.667  0.3250  0.0102  0.5499
 6510SOL    HW131163   3.305   4.293   7.735  1.6057 -1.7439 -0.7554
 6510SOL    HW231164   3.397   4.319   7.619 -0.0637  0.1672 -0.1693
 6511SOL     OW31165   2.012   4.013   8.685  0.2497  0.1929 -0.1448
 6511SOL    HW131166   1.935   4.013   8.629 -0.3892 -0.7175  0.7394
 6511SOL    HW231167   1.994   4.094   8.732 -0.4423  0.4719 -0.9055
 6512SOL     OW31168   0.396   0.463   2.407 -0.6113 -0.6789 -0.8275
 6512SOL    HW131169   0.491   0.467   2.397 -0.5740  0.5275 -0.0067
 6512SOL    HW231170   0.369   0.528   2.342 -2.5061  0.9735  1.6225
 6513SOL     OW31171   0.786   2.566   9.563 -0.3087 -0.0830 -0.4046
 6513SOL    HW131172   0.695   2.584   9.537 -0.3224  0.8977  0.3127
 6513SOL    HW231173   0.796   2.619   9.642  1.3645 -1.6002  0.4086
 6514SOL     OW31174   3.597   2.247   3.611 -0.1815  0.0242  0.9961
 6514SOL    HW131175   3.560   2.184   3.672  1.2680  0.2817  2.1379
 6514SOL    HW231176   3.551   2.221   3.531 -0.5460  1.7905  0.6174
 6515SOL     OW31177   0.616   3.951   7.119 -0.3645 -0.8607 -0.5829
 6515SOL    HW131178   0.592   3.904   7.039 -0.7872  0.4126 -1.1950
 6515SOL    HW231179   0.603   3.881   7.183  2.5285  0.0509  0.9841
 6516SOL     OW31180   3.812   2.454   7.268  0.8546  0.2398 -0.1372
 6516SOL    HW131181   3.904   2.432   7.251  0.7419 -0.3862  0.0367
 6516SOL    HW231182   3.781   2.458   7.177 -0.3063  1.6629  0.3398
 6517SOL     OW31183   3.639   1.475   6.518 -0.4864  0.3522 -0.0603
 6517SOL    HW131184   3.634   1.453   6.611 -1.6392  1.0040  0.0287
 6517SOL    HW231185   3.732   1.458   6.501 -0.3924  0.9381 -0.1421
 6518SOL     OW31186   0.050   0.876   3.745 -0.0775  0.4220  0.0298
 6518SOL    HW131187   0.128   0.931   3.740 -0.1228  0.9346  4.3578
 6518SOL    HW231188   0.027   0.869   3.838  3.6696  0.0818  0.9221
 6519SOL     OW31189   3.393   4.456   2.693  0.0531  0.6053  0.4503
 6519SOL    HW131190   3.432   4.537   2.727  1.8129  0.2239 -0.6762
 6519SOL    HW231191   3.332   4.504   2.637 -3.3277 -0.3321  3.3432
 6520SOL     OW31192   4.151   3.453   7.120 -0.1494  0.6000  0.2782
 6520SOL    HW131193   4.242   3.469   7.092 -0.0777 -0.9258 -0.3213
 6520SOL    HW231194   4.138   3.359   7.118 -1.7309  0.8100  0.8181
 6521SOL     OW31195   0.076   2.781   5.237  0.7504  0.5097  0.3431
 6521SOL    HW131196   0.007   2.804   5.299  0.2579 -0.5009  0.1679
 6521SOL    HW231197   0.153   2.831   5.265 -0.1032  1.5962  0.7138
 6522SOL     OW31198   3.982   2.479  15.211  0.3011  0.0248  0.1531
 6522SOL    HW131199   4.023   2.556  15.174 -2.1857  0.5246 -1.5864
 6522SOL    HW231200   4.007   2.410  15.149  3.8030  0.9192  0.5796
 6523SOL     OW31201   1.349   3.353   2.901  0.3405 -0.3126 -0.1855
 6523SOL    HW131202   1.313   3.345   2.989  2.0125  2.3148  0.7454
 6523SOL    HW231203   1.391   3.439   2.907  0.5990 -0.4917  0.5923
 6524SOL     OW31204   4.712   4.627   2.384  0.3350 -0.0371 -0.2293
 6524SOL    HW131205   4.732   4.656   2.473  0.1331  2.2348 -0.9328
 6524SOL    HW231206   4.646   4.559   2.392  0.5050  0.3656  4.2983
 6525SOL     OW31207   0.681   1.453   3.588  0.4082 -0.0509 -0.1946
 6525SOL    HW131208   0.612   1.504   3.547  2.0761  2.1604 -0.2781
 6525SOL    HW231209   0.753   1.482   3.532 -0.2606 -3.1079 -2.6079
 6526SOL     OW31210   1.557   1.387   2.652  0.0691  0.5911  0.3380
 6526SOL    HW131211   1.602   1.462   2.612 -0.4848  1.0060  0.4936
 6526SOL    HW231212   1.622   1.319   2.631 -1.9203 -0.4813 -2.3429
 6527SOL     OW31213   1.900   2.320  14.494  0.0862 -0.0291 -0.0072
 6527SOL    HW131214   1.959   2.244  14.497  0.2676  0.0749 -0.9941
 6527SOL    HW231215   1.892   2.341  14.401  0.0500  0.3657  0.0857
 6528SOL     OW31216   1.530   0.282  12.685 -0.9129  0.2500 -0.2996
 6528SOL    HW131217   1.469   0.323  12.747 -0.3749 -1.1441  1.1373
 6528SOL    HW231218   1.479   0.204  12.664 -1.6434  1.0458 -1.5449
 6529SOL     OW31219   1.822   2.730   6.531  0.1360 -0.0785 -0.2404
 6529SOL    HW131220   1.773   2.664   6.483 -0.8309  1.2846 -1.1036
 6529SOL    HW231221   1.788   2.819   6.533 -1.4612 -0.6645 -1.8833
 6530SOL     OW31222   1.200   4.616   0.230 -0.4888 -0.1285  0.0848
 6530SOL    HW131223   1.251   4.545   0.194 -2.1153 -0.6496 -1.1891
 6530SOL    HW231224   1.232   4.695   0.187 -0.5332  0.7038  1.5598
 6531SOL     OW31225   2.907   0.099   9.352 -0.1476 -0.8675  0.1310
 6531SOL    HW131226   3.002   0.090   9.358 -0.1580 -2.0765 -1.6554
 6531SOL    HW231227   2.884   0.026   9.295  1.7097  0.0289 -1.7629
 6532SOL     OW31228   1.876   3.124   7.472  0.0926  0.0621 -0.0339
 6532SOL    HW131229   1.874   3.059   7.403 -1.6827  0.3413 -0.2490
 6532SOL    HW231230   1.793   3.108   7.518 -0.5834 -0.5173 -1.4729
 6533SOL     OW31231   2.539   1.342   7.485  0.1568 -0.4125  0.1348
 6533SOL    HW131232   2.617   1.379   7.526 -1.5821  1.2622  1.9398
 6533SOL    HW231233   2.576   1.336   7.397 -0.5028  0.2023 -0.1811
 6534SOL     OW31234   4.069   0.053   4.469  0.9629 -0.1413 -0.0233
 6534SOL    HW131235   4.059   4.699   4.436 -0.5286 -0.7137  1.9509
 6534SOL    HW231236   4.094   0.043   4.561  1.4460  0.0988 -0.1252
 6535SOL     OW31237   3.714   4.325   5.653  0.0462 -0.1260 -0.5849
 6535SOL    HW131238   3.740   4.392   5.717  2.1392 -0.7371 -0.7826
 6535SOL    HW231239   3.721   4.377   5.573  0.1183 -0.8252 -1.0277
 6536SOL     OW31240   2.183   3.023   9.231 -0.2483 -0.0076  0.1832
 6536SOL    HW131241   2.167   3.005   9.138 -0.8414  0.5162  0.1801
 6536SOL    HW231242   2.196   3.118   9.223  0.8847 -0.2471 -0.7489
 6537SOL     OW31243   2.327   1.513  16.574 -0.2223  0.3556  0.4079
 6537SOL    HW131244   2.397   1.448  16.583 -0.1138  0.6344  1.4838
 6537SOL    HW231245   2.316   1.557  16.658  0.5646  4.1823 -1.5209
 6538SOL     OW31246   3.868   3.236   5.959 -0.0518 -0.8250  0.6393
 6538SOL    HW131247   3.796   3.176   5.941  0.2135 -0.9576  0.0118
 6538SOL    HW231248   3.822   3.312   5.995 -1.5132 -1.9078  1.0547
 6539SOL     OW31249   2.316   4.576  13.535  0.7159  0.2512  0.6038
 6539SOL    HW131250   2.331   4.500  13.591 -2.4272 -0.0289  1.0914
 6539SOL    HW231251   2.404   4.580  13.498 -0.5014 -0.0725 -2.3711
 6540SOL     OW31252   1.741   0.371   4.244 -0.0755  0.8657  0.6724
 6540SOL    HW131253   1.696   0.451   4.216 -1.2073  0.4454  1.2955
 6540SOL    HW231254   1.662   0.319   4.260  0.6020 -0.6260 -0.9074
 6541SOL     OW31255   2.393   1.154  12.643  0.2630 -0.0109  0.0121
 6541SOL    HW131256   2.395   1.107  12.559 -2.6273 -0.8662  0.4335
 6541SOL    HW231257   2.302   1.180  12.656  0.7960  0.9774  1.8095
 6542SOL     OW31258   2.078   3.314   7.459 -0.1262 -0.1540  0.0548
 6542SOL    HW131259   2.025   3.392   7.475 -0.8510 -0.5662 -0.3387
 6542SOL    HW231260   2.009   3.249   7.449  0.7727 -0.8356 -1.8048
 6543SOL     OW31261   3.395   4.241   6.109  0.0603 -0.2033  0.2029
 6543SOL    HW131262   3.416   4.258   6.018  0.0668 -0.7255  0.1067
 6543SOL    HW231263   3.477   4.194   6.126  0.7757  1.1915  0.5688
 6544SOL     OW31264   3.737   4.180   4.619  0.5595  0.4559  0.1178
 6544SOL    HW131265   3.767   4.109   4.562 -0.8121  0.3115 -0.4280
 6544SOL    HW231266   3.650   4.195   4.583  0.4358 -2.7516 -0.9265
 6545SOL     OW31267   4.362   1.167   2.244  0.4363 -0.4161  0.2992
 6545SOL    HW131268   4.325   1.189   2.330  0.5654  0.1935  0.2042
 6545SOL    HW231269   4.443   1.218   2.253 -0.0470  0.8771 -2.6618
 6546SOL     OW31270   2.211   3.581   0.102  0.1874 -0.0611 -0.0148
 6546SOL    HW131271   2.157   3.516   0.058 -0.1815  1.4866 -1.8346
 6546SOL    HW231272   2.148   3.622   0.162 -1.3369 -0.4667 -1.3583
 6547SOL     OW31273   0.114   1.395   2.704  0.0334  0.0206  0.0399
 6547SOL    HW131274   0.143   1.333   2.636 -2.1509  0.1351 -1.0169
 6547SOL    HW231275   0.022   1.382   2.679 -0.9260  1.8119  2.7010
 6548SOL     OW31276   2.186   3.066   5.213 -0.7174  0.3801  0.0318
 6548SOL    HW131277   2.218   3.058   5.303  2.9197 -0.3289 -1.3541
 6548SOL    HW231278   2.097   3.101   5.219 -1.0036 -0.3409  0.0235
 6549SOL     OW31279   1.230   4.554   5.996  0.3484  0.0839 -0.0879
 6549SOL    HW131280   1.201   4.562   6.087 -0.4026  2.5556 -0.5352
 6549SOL    HW231281   1.144   4.541   5.955  0.6777 -0.8479 -0.4629
 6550SOL     OW31282   4.284   0.353   1.057  0.3645  0.4291 -0.1832
 6550SOL    HW131283   4.270   0.349   0.962 -3.0442 -0.3566  0.3293
 6550SOL    HW231284   4.238   0.436   1.068 -0.4314 -0.0069 -0.2108
 6551SOL     OW31285   1.661   0.913   6.471 -0.4475 -0.1577  0.5558
 6551SOL    HW131286   1.635   0.886   6.383  1.0909  0.4796 -0.0926
 6551SOL    HW231287   1.755   0.922   6.453 -0.5064  1.0156  0.8452
 6552SOL     OW31288   4.598   2.385   0.277  0.2332  0.2624  0.1758
 6552SOL    HW131289   4.588   2.452   0.344 -2.9287 -0.8701  0.8041
 6552SOL    HW231290   4.554   2.415   0.197 -2.2297 -0.0059  1.4549
 6553SOL     OW31291   0.208   3.659   7.734 -0.0586  0.3563 -0.3599
 6553SOL    HW131292   0.156   3.739   7.733  0.6628  0.8156 -0.7713
 6553SOL    HW231293   0.176   3.619   7.815 -0.6766  2.9658  0.6860
 6554SOL     OW31294   2.429   2.238   0.852  0.7310  0.0003 -0.1834
 6554SOL    HW131295   2.491   2.167   0.866 -1.8760 -1.9315  1.6605
 6554SOL    HW231296   2.481   2.310   0.816 -1.0484  1.0919 -0.6098
 6555SOL     OW31297   3.902   3.042   4.142  0.4217  0.1650 -0.7847
 6555SOL    HW131298   3.896   2.951   4.172 -0.8585 -0.0176 -1.5929
 6555SOL    HW231299   3.994   3.050   4.115  0.5421  2.1511  0.2077
 6556SOL     OW31300   4.217   0.388   3.869  0.2935  0.2744  0.6741
 6556SOL    HW131301   4.285   0.323   3.888  1.4089  0.7046 -1.8945
 6556SOL    HW231302   4.227   0.442   3.947  3.1844 -0.4290  0.7641
 6557SOL     OW31303   3.149   2.895   4.405 -0.9563  0.1298 -0.7399
 6557SOL    HW131304   3.066   2.942   4.392 -2.1419 -1.7097  0.1352
 6557SOL    HW231305   3.123   2.802   4.401 -0.4789 -0.0855  1.5307
 6558SOL     OW31306   3.868   4.493   3.781 -0.8904 -0.3603 -0.1463
 6558SOL    HW131307   3.924   4.452   3.714 -2.3221 -1.2046 -0.8298
 6558SOL    HW231308   3.936   4.523   3.841  0.0332 -1.1630 -0.7891
 6559SOL     OW31309   4.335   1.575   8.806  0.2684 -0.2086  0.2755
 6559SOL    HW131310   4.388   1.625   8.868 -0.3019  0.4243  0.2652
 6559SOL    HW231311   4.387   1.589   8.727  0.4679 -1.0455  0.2590
 6560SOL     OW31312   1.846   3.499  16.531 -0.0405 -0.4078 -0.3584
 6560SOL    HW131313   1.781   3.562  16.561  0.3558  0.1729 -0.7130
 6560SOL    HW231314   1.796   3.469  16.455 -1.7069  3.0234 -0.6109
 6561SOL     OW31315   3.015   0.735   6.186 -0.9363 -0.3274 -0.1077
 6561SOL    HW131316   2.996   0.693   6.270 -0.3256 -2.3473 -0.9865
 6561SOL    HW231317   2.960   0.814   6.192 -0.2966  0.1548 -0.7091
 6562SOL     OW31318   2.361   4.069  10.720  0.0735 -0.4515  0.6271
 6562SOL    HW131319   2.361   4.164  10.714  2.4983 -0.3365  2.3747
 6562SOL    HW231320   2.439   4.042  10.671 -0.6814 -2.4781  0.5291
 6563SOL     OW31321   1.328   2.520  14.086 -0.0943 -0.5209 -0.0412
 6563SOL    HW131322   1.337   2.610  14.056  0.9797 -0.3953  0.6589
 6563SOL    HW231323   1.237   2.515  14.118  0.1652  0.0755  0.7880
 6564SOL     OW31324   2.899   3.728  10.985  0.4099  0.0450 -0.1540
 6564SOL    HW131325   2.991   3.754  10.981  0.3089  0.4329  0.0778
 6564SOL    HW231326   2.896   3.660  10.917 -1.2958  0.8222 -0.8589
 6565SOL     OW31327   3.437   3.395   0.661  0.1660 -0.3742 -0.2401
 6565SOL    HW131328   3.495   3.469   0.677 -1.3037 -0.0583  3.6098
 6565SOL    HW231329   3.405   3.364   0.746 -0.9611  0.2174 -0.4374
 6566SOL     OW31330   0.907   0.157  12.724 -0.0494 -0.0569 -0.6141
 6566SOL    HW131331   0.981   0.116  12.768 -1.3468 -0.6890  0.9963
 6566SOL    HW231332   0.839   0.090  12.727  1.4739 -1.4702  1.8851
 6567SOL     OW31333   4.366   1.988   6.678 -0.2503 -0.6003 -0.1228
 6567SOL    HW131334   4.362   1.952   6.766  2.0234 -1.1405 -0.2405
 6567SOL    HW231335   4.441   2.048   6.681  0.7668 -1.9384  0.8740
 6568SOL     OW31336   1.301   4.510  16.844 -0.2372  0.0676  0.1051
 6568SOL    HW131337   1.238   4.449  16.883 -0.7522  0.3276 -0.3161
 6568SOL    HW231338   1.302   4.593  16.891  0.3963 -0.8356  1.7135
 6569SOL     OW31339   0.812   1.195   7.783  0.1162 -0.3688 -0.2075
 6569SOL    HW131340   0.814   1.103   7.808  0.9493 -0.4129 -0.4324
 6569SOL    HW231341   0.720   1.216   7.767  0.0678 -1.5390 -1.4537
 6570SOL     OW31342   0.899   0.160   2.382  0.3371  0.3465 -0.5561
 6570SOL    HW131343   0.953   0.157   2.303 -0.9892 -0.4088 -1.4373
 6570SOL    HW231344   0.960   0.151   2.455 -1.1962  0.5048  0.7477
 6571SOL     OW31345   3.958   0.383   7.288  0.2098 -0.8311 -0.0948
 6571SOL    HW131346   3.961   0.300   7.335 -1.3589 -0.6831  0.2768
 6571SOL    HW231347   3.865   0.404   7.276  0.4700  1.6305  2.0460
 6572SOL     OW31348   1.768   4.703   1.486 -0.2849  0.2295  0.4728
 6572SOL    HW131349   1.805   0.050   1.520 -1.2257  1.1829 -0.8461
 6572SOL    HW231350   1.847   4.650   1.499  0.4814  1.1612 -0.4576
 6573SOL     OW31351   1.029   2.023   8.545  0.5084 -0.2562 -0.1397
 6573SOL    HW131352   1.083   2.066   8.479  0.7572 -1.4618 -0.7293
 6573SOL    HW231353   1.089   1.987   8.611  2.2630  0.1633 -1.5322
 6574SOL     OW31354   0.870   0.122  14.787  0.6805  0.4945  0.2972
 6574SOL    HW131355   0.908   0.210  14.785  0.6496  0.5300  1.1699
 6574SOL    HW231356   0.941   0.058  14.784 -1.9285 -2.4336  0.2629
 6575SOL     OW31357   1.357   4.325   6.934  0.2739 -0.0036  0.0400
 6575SOL    HW131358   1.323   4.413   6.917 -1.6667 -0.7260  0.2131
 6575SOL    HW231359   1.274   4.280   6.951  0.1914 -0.1787 -0.8271
 6576SOL     OW31360   4.378   1.268   8.670  0.0869  0.0914 -0.5780
 6576SOL    HW131361   4.442   1.201   8.645  1.7441  1.4716 -0.0607
 6576SOL    HW231362   4.436   1.324   8.722 -0.3526 -1.5328  1.6723
 6577SOL     OW31363   0.887   2.409   0.977  0.2203  0.3635  0.0555
 6577SOL    HW131364   0.813   2.389   1.034 -0.9116  1.0511 -1.1634
 6577SOL    HW231365   0.887   2.325   0.932 -2.5464  1.3462 -1.7825
 6578SOL     OW31366   4.644   3.602   9.683  0.0662 -0.2402  0.2767
 6578SOL    HW131367   4.568   3.630   9.632 -0.5131 -2.1553  0.0984
 6578SOL    HW231368   4.651   3.512   9.651 -0.9207 -0.5299  0.8930
 6579SOL     OW31369   2.382   2.038   4.296 -0.5920  0.1035  0.3160
 6579SOL    HW131370   2.363   2.122   4.254  0.5084  1.5963  2.8342
 6579SOL    HW231371   2.400   1.984   4.219  1.2318  0.5426  0.4562
 6580SOL     OW31372   3.816   2.450   4.098  0.3861 -0.5058  0.7233
 6580SOL    HW131373   3.862   2.373   4.064 -0.6008 -1.2087  0.9840
 6580SOL    HW231374   3.806   2.427   4.190  1.4563 -3.1885  0.1751
 6581SOL     OW31375   0.708   2.020   8.303 -0.5451 -0.6445  0.0104
 6581SOL    HW131376   0.735   2.105   8.338  0.3177 -0.9006 -0.0366
 6581SOL    HW231377   0.618   2.006   8.333 -0.3308 -0.1866  0.8571
 6582SOL     OW31378   4.374   4.129  11.539 -0.0766  0.2354 -0.1800
 6582SOL    HW131379   4.362   4.223  11.550 -3.2602 -0.2151  0.2596
 6582SOL    HW231380   4.369   4.115  11.633  0.8951  0.4172 -0.1006
 6583SOL     OW31381   3.959   1.430   4.437 -0.0551 -0.1056 -0.2696
 6583SOL    HW131382   4.016   1.353   4.432 -0.6396 -0.5142 -0.6598
 6583SOL    HW231383   4.008   1.494   4.385 -1.0204  0.7052 -0.1877
 6584SOL     OW31384   3.738   4.034   3.786 -0.3422 -0.2284  0.4006
 6584SOL    HW131385   3.699   4.121   3.775  2.5284  1.1166  1.0501
 6584SOL    HW231386   3.686   3.986   3.851  0.8080 -0.7412  0.9337
 6585SOL     OW31387   1.113   0.752  12.403  0.0379 -0.3846 -0.1226
 6585SOL    HW131388   1.111   0.739  12.498 -1.3403  0.0992 -0.0937
 6585SOL    HW231389   1.095   0.846  12.395 -0.9880 -0.5377  0.3988
 6586SOL     OW31390   1.157   2.164  17.218 -0.2309  0.4246  0.5576
 6586SOL    HW131391   1.154   2.255  17.246 -0.1915  0.8144 -0.6885
 6586SOL    HW231392   1.251   2.151  17.228 -0.0131  2.0124  0.5233
 6587SOL     OW31393   1.426   0.044   1.375 -0.4162 -0.4107 -0.4202
 6587SOL    HW131394   1.478   0.124   1.387  1.6877 -2.1239  2.0698
 6587SOL    HW231395   1.351   0.069   1.428  0.8085  1.3604  0.5008
 6588SOL     OW31396   1.704   0.907  17.349 -0.9630 -0.1410 -0.3163
 6588SOL    HW131397   1.779   0.851  17.370 -2.4122 -1.7299  0.6251
 6588SOL    HW231398   1.707   0.892  17.255 -3.3523  0.9895 -0.5703
 6589SOL     OW31399   1.578   3.786   4.151  0.6314  0.1023 -0.1409
 6589SOL    HW131400   1.500   3.787   4.095  0.8630 -0.4401 -0.4731
 6589SOL    HW231401   1.577   3.695   4.178  0.0399  0.3487  0.6676
 6590SOL     OW31402   2.708   3.542   6.852 -0.9555  0.5259  0.2470
 6590SOL    HW131403   2.661   3.475   6.902 -1.2065  1.4628  1.2656
 6590SOL    HW231404   2.655   3.573   6.778  0.5258 -1.5727 -1.7038
 6591SOL     OW31405   1.833   1.602   9.272  0.7892 -0.1042 -0.0844
 6591SOL    HW131406   1.833   1.615   9.367  0.4758  0.4665 -0.1614
 6591SOL    HW231407   1.918   1.561   9.259  1.2994  1.2255 -0.8620
 6592SOL     OW31408   3.242   1.413   5.971 -0.3898  0.8358  0.3035
 6592SOL    HW131409   3.281   1.327   5.957  0.1085  1.1058  0.0176
 6592SOL    HW231410   3.150   1.389   5.983 -0.0773  0.2355  1.4707
 6593SOL     OW31411   1.761   2.229   8.908  0.1694 -0.3798 -0.0030
 6593SOL    HW131412   1.692   2.234   8.842  0.3722 -1.7190 -0.3204
 6593SOL    HW231413   1.716   2.264   8.985  0.6271  2.0987 -0.8828
 6594SOL     OW31414   4.252   1.407   2.712  0.0103  0.0183  0.8424
 6594SOL    HW131415   4.263   1.501   2.696  1.0800 -0.3419 -0.5468
 6594SOL    HW231416   4.333   1.384   2.758  0.2214  0.3745  0.6532
 6595SOL     OW31417   2.649   3.156   3.156  0.1953 -0.0610  0.0695
 6595SOL    HW131418   2.614   3.110   3.232 -0.2850 -0.5773 -0.4606
 6595SOL    HW231419   2.576   3.149   3.095 -1.4099  3.1066  1.6445
 6596SOL     OW31420   1.409   2.266  17.714  0.3648 -0.5348  0.3962
 6596SOL    HW131421   1.338   2.215   0.013 -0.9337 -0.7434 -2.2365
 6596SOL    HW231422   1.462   2.288   0.051 -0.6221  1.9319  0.3635
 6597SOL     OW31423   4.313   0.884   4.561 -0.2114  0.3049  0.0409
 6597SOL    HW131424   4.263   0.893   4.480 -0.8476 -0.4403  0.3474
 6597SOL    HW231425   4.267   0.947   4.616 -0.5084  1.3018 -1.3596
 6598SOL     OW31426   0.175   0.653  14.945  0.1848 -0.1091  0.1893
 6598SOL    HW131427   0.230   0.717  14.899 -0.2524  0.3922  0.3695
 6598SOL    HW231428   0.217   0.576  14.907  2.9670  1.2140  0.5837
 6599SOL     OW31429   2.313   2.494  14.244 -0.3137 -0.2149 -0.4103
 6599SOL    HW131430   2.267   2.550  14.182 -2.2317  0.6980  1.8055
 6599SOL    HW231431   2.390   2.550  14.252  0.2980 -0.8337 -2.0772
 6600SOL     OW31432   2.497   2.280   9.913  0.1847  0.6294  0.1657
 6600SOL    HW131433   2.472   2.301   9.823 -1.1126 -2.0458 -0.1146
 6600SOL    HW231434   2.478   2.362   9.957  0.0774  0.5891  0.1951
 6601SOL     OW31435   1.152   4.149   0.423 -0.7505  0.8206  0.4897
 6601SOL    HW131436   1.065   4.131   0.459 -0.6450 -2.2743 -0.8297
 6601SOL    HW231437   1.158   4.241   0.450  1.1105  0.2842  1.8372
 6602SOL     OW31438   0.322   0.398   5.985 -0.0697  0.4531 -0.0228
 6602SOL    HW131439   0.369   0.480   6.001 -0.3686  0.5910  0.1450
 6602SOL    HW231440   0.236   0.428   6.014  0.4706 -0.8599  2.9451
 6603SOL     OW31441   0.219   3.799  16.729  0.0405  0.6266  0.2763
 6603SOL    HW131442   0.163   3.726  16.755 -1.7221  1.1871 -1.8592
 6603SOL    HW231443   0.250   3.835  16.812 -0.2970 -0.5546  0.8976
 6604SOL     OW31444   2.838   4.586   8.452 -0.4052  1.1013  0.3219
 6604SOL    HW131445   2.781   4.516   8.482  1.7426 -0.1957  1.4071
 6604SOL    HW231446   2.784   4.662   8.430  0.6622  1.4904 -0.9999
 6605SOL     OW31447   1.754   0.749   4.902 -0.2258  0.2359 -0.2535
 6605SOL    HW131448   1.713   0.684   4.959  0.4313  2.0922  2.3805
 6605SOL    HW231449   1.686   0.775   4.840 -1.5166  1.7972  1.7977
 6606SOL     OW31450   2.615   3.984   4.179  0.1515  0.1568 -0.8535
 6606SOL    HW131451   2.586   3.897   4.152 -0.2507  0.6237 -1.9332
 6606SOL    HW231452   2.559   4.035   4.122 -0.9700 -1.0730 -0.8434
 6607SOL     OW31453   4.348   1.063   3.155 -0.1325  0.3035 -0.3797
 6607SOL    HW131454   4.271   1.007   3.152  0.1280  0.0172 -1.8237
 6607SOL    HW231455   4.415   0.996   3.141 -1.0787 -0.9771  1.3824
 6608SOL     OW31456   1.581   0.641   3.023 -0.7619 -0.1579 -0.1006
 6608SOL    HW131457   1.587   0.637   3.118 -0.1452  1.3418 -0.0787
 6608SOL    HW231458   1.545   0.556   2.999  1.4381 -0.6471 -1.7379
 6609SOL     OW31459   4.537   1.650   4.648  0.3081 -0.2102 -0.5155
 6609SOL    HW131460   4.524   1.655   4.743  1.8506  0.3381 -0.3446
 6609SOL    HW231461   4.539   1.556   4.635 -0.7552 -0.1211 -1.3794
 6610SOL     OW31462   0.037   3.258   8.097  0.8004 -0.2374  0.1997
 6610SOL    HW131463   4.717   3.190   8.058 -0.1874  1.0708 -0.6956
 6610SOL    HW231464   4.705   3.304   8.148 -0.6605 -3.0224  0.7704
 6611SOL     OW31465   3.801   0.027   3.824  0.1281 -0.0363  0.5865
 6611SOL    HW131466   3.868   0.063   3.766 -1.2955  0.4403 -0.7660
 6611SOL    HW231467   3.804   4.670   3.799 -1.1561  0.3525 -0.9543
 6612SOL     OW31468   0.554   0.109   7.522  0.0405  0.0608 -0.0084
 6612SOL    HW131469   0.531   0.201   7.525  2.5474  0.7520 -1.9281
 6612SOL    HW231470   0.626   0.098   7.583 -1.4325 -0.7720  1.5816
 6613SOL     OW31471   0.131   2.766  12.810 -0.0158 -0.5937 -0.4666
 6613SOL    HW131472   0.198   2.715  12.764  1.5440 -0.8896  2.1471
 6613SOL    HW231473   0.177   2.829  12.866  1.0505  0.2532 -2.2603
 6614SOL     OW31474   1.981   3.108   6.672  0.0932 -0.0116  0.4110
 6614SOL    HW131475   1.886   3.113   6.664  0.2234 -1.3831 -1.9185
 6614SOL    HW231476   2.010   3.180   6.616 -0.3719  0.0315  0.2276
 6615SOL     OW31477   0.797   0.306  11.881  0.2038  0.2531  0.1164
 6615SOL    HW131478   0.711   0.312  11.924 -1.1417 -1.7425 -2.3052
 6615SOL    HW231479   0.805   0.391  11.839 -0.7589 -0.5495 -1.6948
 6616SOL     OW31480   4.028   1.967   6.856 -0.3131  0.1057 -0.5097
 6616SOL    HW131481   4.034   1.879   6.895 -2.4263 -0.5948 -1.7530
 6616SOL    HW231482   4.011   2.019   6.934  2.0587  1.6980 -1.0522
 6617SOL     OW31483   1.788   3.837   5.026  0.6001 -0.7107  0.0456
 6617SOL    HW131484   1.702   3.803   5.000  0.3699 -1.7301  2.1479
 6617SOL    HW231485   1.834   3.754   5.034 -0.1532 -1.1659 -0.4193
 6618SOL     OW31486   4.475   0.857   8.415 -0.0661  0.0782  0.0333
 6618SOL    HW131487   4.477   0.763   8.431  1.1980 -0.3136 -2.4279
 6618SOL    HW231488   4.414   0.850   8.342  0.8202  4.2161 -1.1332
 6619SOL     OW31489   2.259   0.844  17.187  0.1764 -0.8316  0.3032
 6619SOL    HW131490   2.280   0.886  17.104  0.1952  1.0043  1.2408
 6619SOL    HW231491   2.304   0.899  17.251  1.2888 -0.2354 -1.0101
 6620SOL     OW31492   1.291   3.066   1.383  0.5182 -0.0986  0.2652
 6620SOL    HW131493   1.283   3.137   1.447  0.5512 -1.4697  1.7855
 6620SOL    HW231494   1.365   3.023   1.426 -0.0155  1.0298  2.3277
 6621SOL     OW31495   1.081   0.057  14.973 -0.1182 -0.1240 -0.5001
 6621SOL    HW131496   1.042   4.705  14.985 -2.2472  0.6145 -2.2103
 6621SOL    HW231497   1.047   0.101  15.050  3.5650  2.2888 -0.2480
 6622SOL     OW31498   1.560   4.254   0.129  0.2026  0.0706  0.4293
 6622SOL    HW131499   1.533   4.162   0.120  0.0314  0.2454 -0.8480
 6622SOL    HW231500   1.486   4.313   0.116 -0.3249 -0.1198  2.6403
 6623SOL     OW31501   2.575   2.026   0.956  0.0673  0.0197 -0.0387
 6623SOL    HW131502   2.660   2.054   0.989  0.0991  0.6476 -0.6489
 6623SOL    HW231503   2.539   1.965   1.021  0.7986 -0.1510  0.2013
 6624SOL     OW31504   4.169   4.177   8.868  0.2600 -0.8120  0.0876
 6624SOL    HW131505   4.246   4.128   8.841  1.2840  0.3826  0.8311
 6624SOL    HW231506   4.114   4.154   8.793  1.2676 -3.2571  0.1122
 6625SOL     OW31507   3.237   0.558   6.222 -0.2040 -0.2499 -0.6147
 6625SOL    HW131508   3.310   0.588   6.277  2.3425 -1.9477 -3.0466
 6625SOL    HW231509   3.193   0.642   6.208 -0.7754 -0.3923  0.3139
 6626SOL     OW31510   2.082   1.031   5.158 -0.4488 -0.6158  0.3436
 6626SOL    HW131511   2.177   1.027   5.153 -0.4225  1.9604 -1.0613
 6626SOL    HW231512   2.054   0.947   5.195  0.0236 -1.7458 -1.8473
 6627SOL     OW31513   0.882   3.409   3.703 -0.0032 -0.4079  0.1827
 6627SOL    HW131514   0.903   3.331   3.755 -1.8231 -1.9389 -1.3907
 6627SOL    HW231515   0.880   3.468   3.779  1.1717 -0.5906  0.3596
 6628SOL     OW31516   4.026   3.489  10.317  0.0064  0.4608  0.2735
 6628SOL    HW131517   4.001   3.518  10.229  0.6248  1.4229  0.4158
 6628SOL    HW231518   4.006   3.395  10.311  0.7013  0.4034 -1.1313
 6629SOL     OW31519   1.349   0.429   9.675  0.3530 -0.3466  0.1557
 6629SOL    HW131520   1.257   0.452   9.660  0.1091 -0.0761  2.0781
 6629SOL    HW231521   1.371   0.441   9.583 -1.8115  0.5662 -0.2401
 6630SOL     OW31522   1.927   1.691   4.299 -0.0451 -0.3282  0.0006
 6630SOL    HW131523   1.835   1.668   4.281  0.3502 -0.8724 -1.3482
 6630SOL    HW231524   1.925   1.690   4.394  1.0158 -2.0649  0.0039
 6631SOL     OW31525   2.164   1.526   0.345 -0.2931 -0.2512 -0.6577
 6631SOL    HW131526   2.158   1.574   0.262 -0.4776  0.5205 -0.1969
 6631SOL    HW231527   2.107   1.453   0.321  0.6876 -0.6902 -1.6758
 6632SOL     OW31528   0.738   4.476   7.370 -0.5948  0.3229  0.6689
 6632SOL    HW131529   0.646   4.450   7.375 -0.3969 -0.7454 -1.5244
 6632SOL    HW231530   0.776   4.394   7.341  1.4355  0.8951  1.7418
 6633SOL     OW31531   0.049   4.110   0.583  0.3529 -0.0239  0.3588
 6633SOL    HW131532   0.053   4.125   0.489 -1.1047 -2.6384 -0.1085
 6633SOL    HW231533   0.070   4.016   0.590 -1.1360 -0.3078  0.9732
 6634SOL     OW31534   3.224   2.249   7.263  0.1670  0.0111 -0.0756
 6634SOL    HW131535   3.162   2.206   7.204  1.3810 -1.5804 -0.1990
 6634SOL    HW231536   3.270   2.172   7.297  0.8479  0.6772  0.5286
 6635SOL     OW31537   0.061   4.468  16.939 -0.0334 -0.4849 -0.4902
 6635SOL    HW131538   0.064   4.564  16.934 -2.0519 -0.3703  0.4784
 6635SOL    HW231539   4.703   4.466  16.960 -0.3949  0.2860 -2.0326
 6636SOL     OW31540   4.354   0.080   4.448  0.3791  0.3689  0.1025
 6636SOL    HW131541   4.305   0.016   4.500 -1.5453 -0.0090 -2.1431
 6636SOL    HW231542   4.347   0.162   4.497  0.9246  0.0306  0.7328
 6637SOL     OW31543   1.426   2.163   5.515  0.3127  0.0305  0.3028
 6637SOL    HW131544   1.333   2.169   5.492  1.2009  1.8908 -2.8096
 6637SOL    HW231545   1.434   2.070   5.537 -1.2204 -0.0640  0.4815
 6638SOL     OW31546   0.399   1.320   7.318 -0.4786 -0.5564  0.3834
 6638SOL    HW131547   0.397   1.410   7.287 -0.4145 -0.0070  1.9483
 6638SOL    HW231548   0.357   1.338   7.402 -0.9625  1.0274 -0.2064
 6639SOL     OW31549   3.915   4.056   6.349 -0.0470  0.1245  0.1537
 6639SOL    HW131550   3.863   3.997   6.293  2.6204 -3.6947  1.6996
 6639SOL    HW231551   3.998   4.042   6.302  1.0129  1.2836  1.6999
 6640SOL     OW31552   2.501   2.937   7.091 -0.2380 -0.2307 -0.3300
 6640SOL    HW131553   2.459   2.886   7.161 -2.2286  0.9484 -0.6701
 6640SOL    HW231554   2.432   2.941   7.026 -2.3327  0.1994  1.9117
 6641SOL     OW31555   4.720   4.007   6.612  0.1814  0.0342 -0.2093
 6641SOL    HW131556   4.684   4.063   6.543  0.2812  0.0737 -0.2294
 6641SOL    HW231557   4.698   4.068   6.682  0.1263  0.5229 -0.6507
 6642SOL     OW31558   0.194   4.724   9.821  0.7441 -0.2671 -0.2158
 6642SOL    HW131559   0.158   0.018   9.905  0.1425 -1.3413 -0.1049
 6642SOL    HW231560   0.198   4.629   9.826  0.3211 -0.4511 -3.6914
 6643SOL     OW31561   1.493   3.746   2.396 -0.0299 -0.7725 -0.0369
 6643SOL    HW131562   1.473   3.687   2.324 -1.3298  1.0124 -1.1353
 6643SOL    HW231563   1.432   3.819   2.383 -0.2049 -0.7745  0.7587
 6644SOL     OW31564   2.218   1.752   1.148 -0.3004  0.4943  0.2800
 6644SOL    HW131565   2.174   1.764   1.064 -1.7411  1.4127  1.1617
 6644SOL    HW231566   2.296   1.807   1.138 -0.1875  0.2563 -0.1082
 6645SOL     OW31567   3.128   0.139   8.678 -0.4774  0.0061 -0.6363
 6645SOL    HW131568   3.167   0.192   8.608  2.1116  1.4664  1.9214
 6645SOL    HW231569   3.166   0.178   8.756 -1.5176  0.5560 -0.3907
 6646SOL     OW31570   4.234   3.269   9.551  0.5205 -0.3097 -0.4732
 6646SOL    HW131571   4.311   3.232   9.594  0.7746  1.6552  0.7841
 6646SOL    HW231572   4.176   3.194   9.538  0.4828 -0.3784  0.0626
 6647SOL     OW31573   4.594   3.351   9.559  0.0212 -0.0017  0.4911
 6647SOL    HW131574   4.665   3.286   9.553  0.2476  0.0206  2.7808
 6647SOL    HW231575   4.528   3.301   9.608  1.2678 -2.8063 -0.6934
 6648SOL     OW31576   3.999   4.397  14.099 -0.8615 -0.5816  0.7388
 6648SOL    HW131577   3.957   4.365  14.179 -0.3694 -0.5142  1.0264
 6648SOL    HW231578   3.956   4.482  14.088  0.3192 -0.2916 -1.5741
 6649SOL     OW31579   0.868   3.911  17.498 -0.2328 -0.1847  0.0533
 6649SOL    HW131580   0.800   3.923  17.564  0.4473  1.4206  0.4476
 6649SOL    HW231581   0.921   3.843  17.541 -0.6298  0.7248  1.9922
 6650SOL     OW31582   0.931   0.328  11.553  0.0086  0.1505  0.3501
 6650SOL    HW131583   0.918   0.402  11.611 -0.5539  1.3165 -1.2571
 6650SOL    HW231584   0.987   0.371  11.488  0.7903  0.2683  1.1067
 6651SOL     OW31585   3.727   3.064   5.296  0.1205  0.3418 -0.4198
 6651SOL    HW131586   3.727   3.160   5.303  0.5531  0.3460 -0.4851
 6651SOL    HW231587   3.787   3.059   5.222 -0.7778 -0.2210 -1.1184
 6652SOL     OW31588   1.723   2.642   9.498 -0.0562 -0.6881  0.5099
 6652SOL    HW131589   1.814   2.623   9.475  0.4407  2.7238 -0.4210
 6652SOL    HW231590   1.674   2.599   9.428 -0.0937 -1.1815  0.8425
 6653SOL     OW31591   1.515   3.673   2.655 -0.5498  0.3999 -0.1460
 6653SOL    HW131592   1.556   3.757   2.674  0.8554 -0.0954 -0.9814
 6653SOL    HW231593   1.520   3.682   2.560  1.7762 -0.6766 -0.1509
 6654SOL     OW31594   4.552   3.873  17.193 -0.5571 -0.6378 -0.0130
 6654SOL    HW131595   4.537   3.883  17.287 -0.1929  3.5734 -0.3990
 6654SOL    HW231596   4.463   3.841  17.175 -0.7110  0.4989 -1.3384
 6655SOL     OW31597   1.817   1.043   3.001 -0.1444 -0.0068 -0.7848
 6655SOL    HW131598   1.738   1.089   2.972 -0.9808  1.3434  3.5224
 6655SOL    HW231599   1.811   1.059   3.096  0.9668 -0.3617 -0.6522
 6656SOL     OW31600   4.120   1.917   3.567  0.1330 -0.0982 -0.1184
 6656SOL    HW131601   4.028   1.914   3.593  0.5633 -0.6013  1.3616
 6656SOL    HW231602   4.114   1.947   3.476 -1.0114 -0.4343 -0.1527
 6657SOL     OW31603   2.599   3.741  12.378  0.2029  0.0720 -0.0201
 6657SOL    HW131604   2.630   3.741  12.287 -0.8693 -3.1138 -0.3574
 6657SOL    HW231605   2.639   3.660  12.407  0.5696  0.6643  1.1196
 6658SOL     OW31606   0.002   4.649   8.474 -0.0696  0.4027 -0.0190
 6658SOL    HW131607   0.064   4.621   8.406 -1.6579  2.5146 -2.3316
 6658SOL    HW231608   0.063   4.684   8.538  0.9100 -0.2359 -0.6026
 6659SOL     OW31609   1.023   0.968  16.884  0.3334  1.0318 -0.3596
 6659SOL    HW131610   1.019   1.050  16.835 -1.5995  0.0371 -1.8373
 6659SOL    HW231611   0.941   0.920  16.875  0.1515  1.3552 -0.4270
 6660SOL     OW31612   3.754   0.750   2.338 -0.4352 -0.1052  0.3583
 6660SOL    HW131613   3.834   0.789   2.303 -0.4194 -0.5735 -0.1285
 6660SOL    HW231614   3.766   0.767   2.432  0.3029 -1.4166  0.4983
 6661SOL     OW31615   3.783   1.333   4.762  0.5577  0.3960 -0.3013
 6661SOL    HW131616   3.711   1.354   4.702  2.2930 -0.0839 -2.5365
 6661SOL    HW231617   3.838   1.411   4.759  0.8247  0.2691  1.4532
 6662SOL     OW31618   2.970   3.229   7.177 -0.6500 -0.4575  1.3776
 6662SOL    HW131619   2.894   3.172   7.169  0.8198 -2.3252  0.6881
 6662SOL    HW231620   3.021   3.177   7.240  3.2255  0.7840 -0.6941
 6663SOL     OW31621   3.869   3.834   6.175 -0.0916 -0.1557  0.1763
 6663SOL    HW131622   3.800   3.788   6.128  0.8007  1.4521 -2.6810
 6663SOL    HW231623   3.919   3.875   6.105 -0.0852 -0.2050  0.1523
 6664SOL     OW31624   0.340   0.267   6.238 -0.1942  0.0601  0.2630
 6664SOL    HW131625   0.428   0.250   6.203 -0.6383  0.5024 -1.0664
 6664SOL    HW231626   0.287   0.277   6.159  2.7723  1.9531 -1.5087
 6665SOL     OW31627   2.347   3.304   8.006  0.1137 -0.3011  0.2115
 6665SOL    HW131628   2.270   3.252   7.980  0.3593 -1.4540  1.8253
 6665SOL    HW231629   2.412   3.234   8.008  0.7582  0.2709 -1.1557
 6666SOL     OW31630   1.692   2.560   0.826 -0.7798 -0.1298  0.2094
 6666SOL    HW131631   1.753   2.531   0.895  0.4388 -0.4725 -1.0009
 6666SOL    HW231632   1.610   2.521   0.855  0.6294 -1.7883  2.0663
 6667SOL     OW31633   0.242   1.563  16.644 -0.1731  0.4106 -0.0361
 6667SOL    HW131634   0.260   1.495  16.580  1.8908 -0.9549  2.0040
 6667SOL    HW231635   0.333   1.590  16.657  0.1571  0.3420 -2.1396
 6668SOL     OW31636   2.085   3.872   2.342 -0.1443 -0.0868 -0.3192
 6668SOL    HW131637   2.143   3.938   2.380  1.5143  0.0382 -3.0280
 6668SOL    HW231638   2.078   3.913   2.255  1.8298  0.5161 -0.2056
 6669SOL     OW31639   3.030   0.196   6.765 -0.0814 -0.3342  0.0382
 6669SOL    HW131640   2.938   0.181   6.787 -0.3404  0.1319 -0.7161
 6669SOL    HW231641   3.057   0.256   6.835  1.5776 -0.8093 -0.2140
 6670SOL     OW31642   0.735   1.945  10.659  0.4402 -0.9612  0.0857
 6670SOL    HW131643   0.714   1.856  10.689  1.5433 -0.5893  2.0022
 6670SOL    HW231644   0.789   1.967  10.735  1.1594 -0.6114 -0.5269
 6671SOL     OW31645   2.382   3.685   4.353  0.0185  0.6322 -0.4448
 6671SOL    HW131646   2.318   3.736   4.402  0.3044  0.4085  0.1629
 6671SOL    HW231647   2.427   3.743   4.291 -0.4957  1.8414  0.3260
 6672SOL     OW31648   4.411   3.375   6.648  0.3130  0.1450  0.8699
 6672SOL    HW131649   4.475   3.355   6.716  0.6001  0.9783  0.8412
 6672SOL    HW231650   4.423   3.469   6.635  0.2589  0.0551  0.1913
 6673SOL     OW31651   0.792   0.549   2.556 -0.1038 -0.0904  0.4787
 6673SOL    HW131652   0.731   0.622   2.567 -0.0751 -0.0162  0.1395
 6673SOL    HW231653   0.869   0.597   2.525 -1.1691  1.9286  0.9178
 6674SOL     OW31654   2.591   3.783   7.762  0.0313  0.5613  0.4031
 6674SOL    HW131655   2.638   3.865   7.744 -0.6612  0.8549 -0.0959
 6674SOL    HW231656   2.572   3.751   7.674  0.2745  1.4778  0.0135
 6675SOL     OW31657   2.984   1.710   3.326 -0.2691  0.0395  0.2099
 6675SOL    HW131658   2.968   1.616   3.323 -0.2542  0.0389  0.1567
 6675SOL    HW231659   3.066   1.725   3.279 -0.9347 -0.4400 -1.1108
 6676SOL     OW31660   3.120   2.065   7.596 -0.4927 -0.5833 -0.2104
 6676SOL    HW131661   3.038   2.097   7.557 -0.6717  0.9327  1.3953
 6676SOL    HW231662   3.134   1.982   7.549 -0.4835 -0.9332  0.4090
 6677SOL     OW31663   4.478   0.172  11.843 -0.5507 -0.7722 -0.4673
 6677SOL    HW131664   4.395   0.183  11.797 -0.2468 -0.4029 -0.9222
 6677SOL    HW231665   4.494   0.078  11.850  0.9459 -0.3623  1.5986
 6678SOL     OW31666   1.534   3.178   1.284  0.2457  0.0413  0.3798
 6678SOL    HW131667   1.607   3.238   1.302  1.2487  0.0190 -3.7242
 6678SOL    HW231668   1.456   3.230   1.302 -1.0830 -0.8755 -2.7792
 6679SOL     OW31669   3.053   0.852  16.307 -0.4796 -0.3497 -0.0698
 6679SOL    HW131670   3.121   0.854  16.374  0.6140 -1.3910 -1.1435
 6679SOL    HW231671   3.100   0.903  16.241  1.2304 -0.1025  1.3502
 6680SOL     OW31672   0.075   1.829   8.928 -0.2948  0.0600 -0.0616
 6680SOL    HW131673   0.069   1.779   8.846 -2.8133 -1.4383  1.0111
 6680SOL    HW231674   0.143   1.785   8.979  0.1649  1.3811  0.4365
 6681SOL     OW31675   0.136   3.304   4.196  0.7200  0.5047  0.1920
 6681SOL    HW131676   0.163   3.300   4.104  0.3053  1.8461  0.0017
 6681SOL    HW231677   0.171   3.230   4.245 -2.2527 -1.6547 -0.9675
 6682SOL     OW31678   3.749   4.461   3.163  0.2507 -0.9773  0.1046
 6682SOL    HW131679   3.683   4.507   3.214  0.5580  1.6944 -1.9179
 6682SOL    HW231680   3.794   4.409   3.230  0.4107 -1.0143 -0.0304
 6683SOL     OW31681   1.203   2.960   4.889  0.1216 -0.1140  0.5558
 6683SOL    HW131682   1.160   2.949   4.974 -3.3979  1.8456 -0.9532
 6683SOL    HW231683   1.143   2.913   4.832 -2.3585  0.2475  2.8790
 6684SOL     OW31684   0.141   2.996   3.879 -0.0538  0.4942  0.0673
 6684SOL    HW131685   0.192   2.984   3.959 -0.1278  1.0494  0.1931
 6684SOL    HW231686   0.102   3.080   3.903 -3.9995 -0.9831 -1.2072
 6685SOL     OW31687   3.644   4.293   3.776 -0.5352 -0.3835  0.1455
 6685SOL    HW131688   3.726   4.342   3.788 -0.2909 -0.8574  0.4413
 6685SOL    HW231689   3.587   4.359   3.737  1.5256  0.9066 -0.6712
 6686SOL     OW31690   1.855   3.236   4.320  0.2854  0.2248 -0.8118
 6686SOL    HW131691   1.791   3.306   4.334  0.7320  0.3213  0.7999
 6686SOL    HW231692   1.859   3.187   4.402  0.0747  0.2245 -0.8021
 6687SOL     OW31693   0.796   2.746   4.221 -0.0419 -0.3245  0.4240
 6687SOL    HW131694   0.723   2.806   4.204  0.4361 -0.3251 -1.5804
 6687SOL    HW231695   0.840   2.743   4.136  0.7650  0.0393  0.8314
 6688SOL     OW31696   3.349   4.726   8.025 -0.1075  0.6867 -0.3542
 6688SOL    HW131697   3.385   4.726   7.936 -0.2089  0.5774 -0.3948
 6688SOL    HW231698   3.405   4.656   8.058 -0.0603  1.8532  2.0062
 6689SOL     OW31699   0.150   3.228   7.861  0.4163  0.1424  0.4170
 6689SOL    HW131700   0.116   3.264   7.943 -0.0219 -1.3435  0.8815
 6689SOL    HW231701   0.129   3.136   7.873  0.2937  0.0377 -0.6055
 6690SOL     OW31702   0.362   2.151  12.674 -0.3419 -0.7081  0.1230
 6690SOL    HW131703   0.320   2.169  12.759  1.2030  0.0990  0.7267
 6690SOL    HW231704   0.323   2.066  12.655 -1.8709  0.3556 -1.4415
 6691SOL     OW31705   2.047   3.772  16.443 -0.3199 -0.2790 -0.4793
 6691SOL    HW131706   1.976   3.824  16.406 -0.0542  1.6179  1.6851
 6691SOL    HW231707   2.034   3.796  16.534  1.0207  2.0199 -0.9047
 6692SOL     OW31708   1.877   4.460  10.908  0.2864  0.2596  0.4437
 6692SOL    HW131709   1.968   4.464  10.936  0.8838 -1.0953 -1.3375
 6692SOL    HW231710   1.879   4.393  10.840  1.7318  1.5859 -0.7905
 6693SOL     OW31711   1.178   3.236   4.926  0.5044  0.1082 -0.0535
 6693SOL    HW131712   1.207   3.260   5.014 -0.1099  3.8649 -0.8875
 6693SOL    HW231713   1.177   3.140   4.928  1.0770  0.0609 -1.7379
 6694SOL     OW31714   1.417   4.669  14.625  0.1435 -0.4223  0.3655
 6694SOL    HW131715   1.337   4.719  14.641 -0.9733 -2.1908  0.3063
 6694SOL    HW231716   1.413   4.609  14.700  0.0245 -1.4954 -0.4994
 6695SOL     OW31717   3.563   0.121  16.155  0.2827 -0.3643 -0.0794
 6695SOL    HW131718   3.643   0.138  16.206  0.1855 -1.3066  0.3846
 6695SOL    HW231719   3.533   0.033  16.178  0.6289 -0.7851 -1.2465
 6696SOL     OW31720   2.820   2.873   1.204 -0.0552 -0.4557 -0.2307
 6696SOL    HW131721   2.821   2.869   1.108  1.1042 -1.0183 -0.1967
 6696SOL    HW231722   2.855   2.786   1.223  1.1098  0.1516  0.3768
 6697SOL     OW31723   3.245   1.895   4.502 -0.8698 -0.4238  0.4061
 6697SOL    HW131724   3.238   1.981   4.544 -0.4579 -0.0743 -0.2313
 6697SOL    HW231725   3.250   1.918   4.409  0.5482 -1.7112  0.1716
 6698SOL     OW31726   4.638   2.869   3.232  0.6357  0.1021  0.5694
 6698SOL    HW131727   4.717   2.914   3.202 -0.3960  1.3261 -0.3324
 6698SOL    HW231728   4.664   2.818   3.308  0.2712 -2.5159 -1.0405
 6699SOL     OW31729   1.660   2.993  12.786 -0.0639  0.4662 -0.0187
 6699SOL    HW131730   1.689   3.076  12.749  0.0108  0.4442 -0.0109
 6699SOL    HW231731   1.585   2.962  12.736  0.3368 -0.4911 -0.0253
 6700SOL     OW31732   0.258   1.019   9.369 -0.0301  0.7702  0.5771
 6700SOL    HW131733   0.344   1.061   9.363 -0.3391  1.2974 -0.1358
 6700SOL    HW231734   0.276   0.941   9.317 -1.9415  0.4272  0.4461
 6701SOL     OW31735   4.310   1.112   5.617  0.1168  0.0472 -0.5273
 6701SOL    HW131736   4.327   1.108   5.523 -0.9417 -1.7676 -0.6419
 6701SOL    HW231737   4.216   1.093   5.613  0.2812 -0.3254 -2.9309
 6702SOL     OW31738   2.305   0.376  10.003  0.5231 -0.0603  0.0779
 6702SOL    HW131739   2.343   0.437  10.066  0.7291  1.0042 -1.0629
 6702SOL    HW231740   2.311   0.428   9.923  0.2157  1.7074  1.2099
 6703SOL     OW31741   3.798   2.015   8.552  0.3200  0.3534 -0.2001
 6703SOL    HW131742   3.835   2.018   8.464  0.4548  1.2721 -0.1181
 6703SOL    HW231743   3.787   2.109   8.570  3.5651  0.4892  1.1418
 6704SOL     OW31744   1.160   3.025   6.659  0.0998  0.2400  0.4894
 6704SOL    HW131745   1.198   2.938   6.675  0.0576 -0.3461 -2.6250
 6704SOL    HW231746   1.100   3.018   6.734  0.4506  2.3988  0.9899
 6705SOL     OW31747   2.133   2.317   9.594  0.4042  0.2623  0.1234
 6705SOL    HW131748   2.037   2.322   9.593  0.5125  2.3867 -0.1871
 6705SOL    HW231749   2.154   2.229   9.562  0.0705  0.3276 -0.2827
 6706SOL     OW31750   2.845   2.653  10.302  0.1138  0.2848  0.0235
 6706SOL    HW131751   2.811   2.709  10.372 -0.0871  2.5168 -1.8424
 6706SOL    HW231752   2.790   2.685  10.230 -1.5840 -2.3086  0.1827
 6707SOL     OW31753   3.284   0.883   3.699  0.2629  0.3062 -0.0076
 6707SOL    HW131754   3.376   0.883   3.674  1.1728 -0.2261  3.2715
 6707SOL    HW231755   3.269   0.806   3.755  2.1889 -0.6066 -0.7349
 6708SOL     OW31756   3.590   4.545   1.392  0.1154 -0.3098  0.0175
 6708SOL    HW131757   3.670   4.539   1.444 -0.7593 -0.0027  1.3922
 6708SOL    HW231758   3.611   4.629   1.350  0.6546 -0.4040  0.0923
 6709SOL     OW31759   3.914   0.304   4.873  0.3825  0.1420 -0.7281
 6709SOL    HW131760   4.002   0.342   4.862 -0.0699  1.4416  0.1521
 6709SOL    HW231761   3.914   0.286   4.967  2.1034 -1.6404 -1.0687
 6710SOL     OW31762   4.068   2.000  12.550  0.4616  0.2401  0.3944
 6710SOL    HW131763   4.082   1.938  12.621  1.1738 -2.1669 -1.8416
 6710SOL    HW231764   4.066   2.078  12.605  1.3941 -1.6341  3.0465
 6711SOL     OW31765   2.168   4.091  15.933  0.0985  0.6409 -0.3118
 6711SOL    HW131766   2.201   4.140  16.008 -1.5623 -0.6391  1.2599
 6711SOL    HW231767   2.205   4.135  15.856  1.9830 -0.7543 -0.2043
 6712SOL     OW31768   3.176   1.294   9.728 -0.6414 -0.4758  0.3347
 6712SOL    HW131769   3.196   1.215   9.678  3.0017  2.4707 -2.7686
 6712SOL    HW231770   3.267   1.321   9.723  0.1561 -3.7916 -2.7657
 6713SOL     OW31771   2.663   1.879   9.125 -0.3021  0.4380 -0.1082
 6713SOL    HW131772   2.568   1.867   9.128 -0.3230  0.2335 -1.4995
 6713SOL    HW231773   2.687   1.828   9.047  0.6983 -0.7062  0.9490
 6714SOL     OW31774   1.419   3.092   1.039 -0.2522 -0.0319  0.1025
 6714SOL    HW131775   1.464   3.073   1.121  1.3632  2.2873 -0.2537
 6714SOL    HW231776   1.493   3.115   0.983 -0.8524  1.7650  0.0506
 6715SOL     OW31777   2.263   3.725   7.291  0.5290  0.1935 -0.1882
 6715SOL    HW131778   2.270   3.749   7.384 -0.1421 -1.8312  0.3866
 6715SOL    HW231779   2.266   3.629   7.292  3.3644  0.3063  1.3733
 6716SOL     OW31780   0.627   0.754   2.577 -0.0453  0.3921 -0.1130
 6716SOL    HW131781   0.536   0.782   2.573 -0.3851 -0.8346 -0.6916
 6716SOL    HW231782   0.669   0.840   2.587 -0.0618  0.1800  1.7534
 6717SOL     OW31783   1.774   2.363   2.403  0.1078 -0.1701  0.7108
 6717SOL    HW131784   1.755   2.292   2.465  1.6766 -1.4277 -0.2359
 6717SOL    HW231785   1.860   2.335   2.370  0.3095  2.0088 -0.5954
 6718SOL     OW31786   1.084   1.622   5.863  0.4725  0.2092 -0.6995
 6718SOL    HW131787   1.022   1.581   5.923  1.3934 -0.1055  0.0223
 6718SOL    HW231788   1.034   1.703   5.870 -0.9142 -0.8624  1.4851
 6719SOL     OW31789   1.100   0.498   9.608 -0.0220  0.0927 -0.1734
 6719SOL    HW131790   1.089   0.536   9.521  1.2241 -1.4880 -0.9955
 6719SOL    HW231791   1.013   0.525   9.640  1.1640  3.0945  0.4844
 6720SOL     OW31792   3.577   2.632   6.344 -0.2787 -0.4022 -0.0967
 6720SOL    HW131793   3.660   2.625   6.392  0.0102  0.7795 -0.4344
 6720SOL    HW231794   3.546   2.544   6.367  0.3674 -0.5455  0.2363
 6721SOL     OW31795   0.823   0.070   4.388 -0.0798 -0.0494  0.7829
 6721SOL    HW131796   0.910   0.031   4.396  1.1434  2.5848  0.2873
 6721SOL    HW231797   0.784   0.017   4.319 -2.6654 -0.9472  2.9246
 6722SOL     OW31798   1.226   3.949   5.713  0.0610  0.2588 -0.0048
 6722SOL    HW131799   1.295   4.014   5.718 -1.4074  1.7121  1.3943
 6722SOL    HW231800   1.246   3.912   5.627 -0.4230  1.4306 -0.6231
 6723SOL     OW31801   4.546   4.525   2.010 -0.0267  0.5851 -0.3042
 6723SOL    HW131802   4.482   4.572   2.064  0.8423  1.2372  0.1737
 6723SOL    HW231803   4.536   4.574   1.928 -0.8431  0.8953 -0.0136
 6724SOL     OW31804   4.006   1.599   0.931  0.1769 -0.4718 -0.0183
 6724SOL    HW131805   3.966   1.643   0.856  0.9963  2.4503  1.2473
 6724SOL    HW231806   4.044   1.672   0.980  0.2620 -0.3009 -0.3375
 6725SOL     OW31807   1.772   4.658   6.594 -0.2097  0.1402  0.3025
 6725SOL    HW131808   1.686   4.699   6.606 -0.4760 -1.0685  2.5256
 6725SOL    HW231809   1.750   4.566   6.606 -0.7403 -0.1138 -2.6727
 6726SOL     OW31810   2.622   2.036  17.331 -0.4055 -0.2150  0.4099
 6726SOL    HW131811   2.600   1.945  17.310 -2.1112  0.6693 -1.6004
 6726SOL    HW231812   2.587   2.050  17.419 -0.4492  0.6621  0.2480
 6727SOL     OW31813   2.262   1.273   9.887  0.1161 -0.2125  0.1613
 6727SOL    HW131814   2.170   1.252   9.876  1.1745 -5.2734  0.6750
 6727SOL    HW231815   2.255   1.366   9.908  0.6720  0.3051 -1.9705
 6728SOL     OW31816   2.270   0.397   4.378  0.1130  0.1271  0.2350
 6728SOL    HW131817   2.217   0.469   4.411 -0.7846 -1.1133  1.4453
 6728SOL    HW231818   2.359   0.433   4.380 -0.1970  0.9685 -1.1998
 6729SOL     OW31819   0.182   3.072   9.742 -0.0641 -0.0144 -0.0476
 6729SOL    HW131820   0.178   3.141   9.808 -0.5243  2.0060 -2.1869
 6729SOL    HW231821   0.278   3.063   9.740  0.1139  1.7426  0.2873
 6730SOL     OW31822   0.404   2.397   2.712  0.5927  0.0642  0.1344
 6730SOL    HW131823   0.406   2.345   2.632  0.4753 -0.1347  0.2612
 6730SOL    HW231824   0.336   2.457   2.680 -0.6980 -1.8560 -0.7008
 6731SOL     OW31825   1.932   1.808   6.857  0.1732 -0.5533  0.2311
 6731SOL    HW131826   1.988   1.775   6.927 -1.3184 -2.4266  0.5124
 6731SOL    HW231827   1.968   1.894   6.833 -0.6866 -0.4077 -0.5107
 6732SOL     OW31828   2.463   3.404  16.730  0.5876 -0.4068 -0.2743
 6732SOL    HW131829   2.528   3.347  16.771  1.2605 -0.3750 -1.3026
 6732SOL    HW231830   2.501   3.490  16.746 -2.8003  1.0283 -0.0704
 6733SOL     OW31831   0.309   4.215  17.032 -0.1378  0.2140  0.4167
 6733SOL    HW131832   0.389   4.174  17.067 -1.8857 -2.5774  1.1648
 6733SOL    HW231833   0.252   4.221  17.109  0.6896  1.3060  0.9472
 6734SOL     OW31834   3.456   2.613   2.797 -0.7166 -0.0099  0.0584
 6734SOL    HW131835   3.488   2.613   2.706 -0.1101 -1.2686  0.2678
 6734SOL    HW231836   3.376   2.665   2.798  0.3663  1.6596 -0.0049
 6735SOL     OW31837   0.825   2.004   2.257 -0.2837 -0.0670 -0.8787
 6735SOL    HW131838   0.818   2.057   2.337 -1.2795 -3.1935  1.0827
 6735SOL    HW231839   0.866   1.921   2.280  0.5284  0.0614 -1.8518
 6736SOL     OW31840   1.172   3.627   7.789 -0.0398 -0.2286 -0.4983
 6736SOL    HW131841   1.095   3.602   7.841 -0.2876 -1.7254 -1.5759
 6736SOL    HW231842   1.139   3.660   7.705 -2.4134 -1.4223 -0.0374
 6737SOL     OW31843   3.643   2.565   9.512 -0.0695  0.7141 -0.6672
 6737SOL    HW131844   3.627   2.507   9.587  1.1674  1.3818  0.1041
 6737SOL    HW231845   3.705   2.509   9.465 -0.3833  1.1377 -1.5844
 6738SOL     OW31846   3.278   2.637   9.593  0.0423 -0.2481 -0.1641
 6738SOL    HW131847   3.312   2.564   9.644 -1.4651 -0.4686  0.5217
 6738SOL    HW231848   3.210   2.582   9.554  0.0540  0.1439 -0.7438
 6739SOL     OW31849   3.691   0.764   3.076 -0.5448  0.0002  0.9153
 6739SOL    HW131850   3.623   0.715   3.031  0.0864  0.5346 -0.6110
 6739SOL    HW231851   3.645   0.775   3.159  0.4874 -1.3766  1.6776
 6740SOL     OW31852   1.791   0.977   5.306  0.4923  0.5215  0.1539
 6740SOL    HW131853   1.848   0.904   5.282 -0.4076  0.4700 -1.8647
 6740SOL    HW231854   1.834   1.014   5.382  1.8747  0.4564 -0.5994
 6741SOL     OW31855   4.664   3.014   9.130  0.3316  0.5969 -0.0764
 6741SOL    HW131856   4.570   3.026   9.119  0.5895  2.2723 -0.5058
 6741SOL    HW231857   4.665   2.936   9.184 -1.1462  0.2505 -0.5653
 6742SOL     OW31858   4.585   0.953   7.069  0.1152  0.1667 -0.3719
 6742SOL    HW131859   4.501   0.916   7.040 -0.8703  0.3055  2.3109
 6742SOL    HW231860   4.570   0.978   7.160  0.2251 -0.9719 -0.0345
 6743SOL     OW31861   2.602   2.017   5.145 -0.7471  0.3558 -0.4094
 6743SOL    HW131862   2.618   2.034   5.237  0.2979 -0.0496 -0.5147
 6743SOL    HW231863   2.558   1.933   5.155  1.3237 -0.4642  1.9234
 6744SOL     OW31864   3.678   2.247   8.573 -0.3056 -0.4231  0.3500
 6744SOL    HW131865   3.597   2.203   8.545  0.1400 -1.7421  1.1383
 6744SOL    HW231866   3.683   2.318   8.509  0.6217 -0.2333  0.6385
 6745SOL     OW31867   1.324   0.714  12.117 -0.1328 -0.7379  0.0036
 6745SOL    HW131868   1.248   0.754  12.159  0.7002  1.3403 -0.4594
 6745SOL    HW231869   1.392   0.780  12.133  1.6855 -2.2926 -1.2158
 6746SOL     OW31870   3.110   3.981   5.512  0.2471 -0.3900 -0.1935
 6746SOL    HW131871   3.035   3.925   5.493 -0.4218  0.4038  0.1018
 6746SOL    HW231872   3.078   4.039   5.581 -0.0190 -1.8148  0.8788
 6747SOL     OW31873   1.328   0.121   8.740 -0.1806  0.3619  0.4925
 6747SOL    HW131874   1.405   0.064   8.752  0.4783  0.9146 -1.1610
 6747SOL    HW231875   1.286   0.097   8.823 -0.1930 -1.9701 -0.1939
 6748SOL     OW31876   2.536   0.711  14.711 -0.9525  0.0946  0.0817
 6748SOL    HW131877   2.524   0.706  14.806 -0.3621  1.3424  0.2241
 6748SOL    HW231878   2.467   0.774  14.690 -2.2086 -0.4017  2.7861
 6749SOL     OW31879   0.104   0.002   7.081  0.3629 -0.2593 -0.7100
 6749SOL    HW131880   0.084   4.667   7.142 -0.7988  1.2353  0.6144
 6749SOL    HW231881   0.150   4.679   7.020  1.0997  0.9399 -1.3160
 6750SOL     OW31882   0.284   2.310  15.418 -0.0502  0.1297  0.1196
 6750SOL    HW131883   0.312   2.359  15.341 -2.8084  2.7004  0.7652
 6750SOL    HW231884   0.207   2.261  15.388 -1.2458  1.9766  0.1805
 6751SOL     OW31885   2.882   3.283   4.133  0.2597 -0.2620 -0.1016
 6751SOL    HW131886   2.844   3.370   4.149 -0.7377 -0.5422 -0.9562
 6751SOL    HW231887   2.824   3.233   4.190  0.5490 -0.2954  0.1622
 6752SOL     OW31888   0.888   3.661   8.816 -0.4596 -0.9579  0.1194
 6752SOL    HW131889   0.818   3.691   8.758  2.6692 -2.1612 -4.2406
 6752SOL    HW231890   0.849   3.644   8.902 -2.0630 -1.8347 -0.7839
 6753SOL     OW31891   3.989   3.731   6.443  0.4174  0.3071 -0.0670
 6753SOL    HW131892   3.966   3.766   6.357 -0.4959 -3.6189 -1.4251
 6753SOL    HW231893   3.921   3.756   6.505  0.9938  0.4563  0.5013
 6754SOL     OW31894   2.129   1.704   2.563  0.6430 -0.3313  0.1169
 6754SOL    HW131895   2.110   1.627   2.510 -0.5349  0.1206 -0.0978
 6754SOL    HW231896   2.178   1.765   2.508 -0.6636  1.0168  0.4291
 6755SOL     OW31897   0.684   2.724   4.528 -0.4653  0.5039 -0.1744
 6755SOL    HW131898   0.685   2.801   4.585 -4.2634 -0.5395  1.2926
 6755SOL    HW231899   0.650   2.756   4.444 -0.3202 -2.1742 -1.2521
 6756SOL     OW31900   1.663   3.261   7.615 -0.0562  0.1774  0.3196
 6756SOL    HW131901   1.612   3.294   7.689 -0.9478 -0.2814 -0.1072
 6756SOL    HW231902   1.648   3.167   7.613 -2.3662  0.5318  1.4624
 6757SOL     OW31903   2.121   3.518   8.018 -0.0437 -0.7708 -0.4333
 6757SOL    HW131904   2.162   3.446   8.066  0.5203 -0.2336 -0.1127
 6757SOL    HW231905   2.134   3.587   8.083  0.2035  0.0927 -1.4014
 6758SOL     OW31906   0.394   2.561   7.009  0.4873 -0.3727 -0.2594
 6758SOL    HW131907   0.394   2.476   6.964 -0.7968 -1.5724  1.9942
 6758SOL    HW231908   0.377   2.611   6.929  1.1606 -1.7675 -1.2853
 6759SOL     OW31909   1.824   1.999  16.890 -0.5494  0.2477 -0.3918
 6759SOL    HW131910   1.857   1.925  16.940 -1.0986  0.8163  0.7993
 6759SOL    HW231911   1.879   2.071  16.920 -2.1452  2.3098 -2.3705
 6760SOL     OW31912   1.004   1.549   2.331  0.4883 -0.2426 -0.0962
 6760SOL    HW131913   1.028   1.478   2.271 -1.1368  0.7197 -1.9214
 6760SOL    HW231914   0.959   1.604   2.266 -0.0607  0.3859  0.8086
 6761SOL     OW31915   3.858   4.138  11.730 -0.1643 -0.2012 -0.8816
 6761SOL    HW131916   3.868   4.047  11.700  0.9408 -0.8710  1.5906
 6761SOL    HW231917   3.948   4.160  11.754 -0.1084  0.0013 -1.2664
 6762SOL     OW31918   1.679   3.638   3.861 -0.7719  0.2157 -0.2180
 6762SOL    HW131919   1.726   3.714   3.829 -0.3681 -0.7928 -2.0336
 6762SOL    HW231920   1.629   3.615   3.783 -1.0181  0.1519 -0.0438
 6763SOL     OW31921   0.011   3.909   0.022  0.1171  0.0782  0.2532
 6763SOL    HW131922   0.092   3.953   0.000  0.3811 -0.6084 -0.1649
 6763SOL    HW231923   4.701   3.979   0.069 -3.0703 -2.0109  0.3235
 6764SOL     OW31924   2.252   3.404  16.154 -0.0295 -0.8401  0.1981
 6764SOL    HW131925   2.244   3.494  16.187 -1.7313 -0.7119 -0.5412
 6764SOL    HW231926   2.334   3.394  16.106 -0.0971 -2.4582  0.4138
 6765SOL     OW31927   0.312   3.524   0.265  0.6077  0.1934  0.6055
 6765SOL    HW131928   0.293   3.538   0.358  0.8860  0.0062  0.6925
 6765SOL    HW231929   0.289   3.434   0.243 -2.3124  1.2798 -0.7349
 6766SOL     OW31930   2.964   1.833   8.861  0.0879 -0.3602 -0.2567
 6766SOL    HW131931   3.020   1.797   8.791 -0.6388 -0.0789 -0.9803
 6766SOL    HW231932   2.894   1.768   8.867  0.9632 -1.2535  0.4443
 6767SOL     OW31933   1.167   0.356   8.691  1.0848 -0.3177 -0.6042
 6767SOL    HW131934   1.118   0.345   8.772  0.6477 -0.0685 -0.8339
 6767SOL    HW231935   1.240   0.294   8.698  1.8191  0.7998  1.6481
 6768SOL     OW31936   0.867   0.486  11.130  0.1372  0.4305 -0.5260
 6768SOL    HW131937   0.946   0.527  11.164 -1.7999  2.7378  1.2248
 6768SOL    HW231938   0.816   0.465  11.208 -0.3080 -0.6862 -1.1189
 6769SOL     OW31939   2.610   0.918  10.115 -0.3422 -0.5454  0.2688
 6769SOL    HW131940   2.548   0.963  10.173  1.2310 -0.2208  1.7138
 6769SOL    HW231941   2.658   0.876  10.186 -0.2107 -0.6409  0.1236
 6770SOL     OW31942   2.221   1.661   8.987  0.0727  0.4395 -0.4704
 6770SOL    HW131943   2.230   1.617   9.071 -1.3317  0.6505 -0.1998
 6770SOL    HW231944   2.148   1.615   8.944  1.3885 -1.2524 -0.8755
 6771SOL     OW31945   3.303   0.309  14.131  0.4846 -0.8975 -0.7648
 6771SOL    HW131946   3.327   0.267  14.048 -0.0205  1.2699 -2.0121
 6771SOL    HW231947   3.344   0.395  14.123  0.7154 -1.0267 -1.0177
 6772SOL     OW31948   0.232   3.994  13.157  0.4664  0.7761  0.7078
 6772SOL    HW131949   0.186   4.078  13.160 -1.8762 -0.5357  1.3007
 6772SOL    HW231950   0.219   3.958  13.245  1.1278  1.8279  1.2357
 6773SOL     OW31951   2.170   4.100   0.730 -0.2084 -0.4681  0.5619
 6773SOL    HW131952   2.081   4.129   0.749  0.5554  1.4122  1.2875
 6773SOL    HW231953   2.184   4.154   0.652  0.2823 -1.8234 -0.2911
 6774SOL     OW31954   3.344   4.553   8.491 -0.1461  0.1017  0.0610
 6774SOL    HW131955   3.248   4.563   8.493 -0.1881 -0.3088  0.0524
 6774SOL    HW231956   3.368   4.589   8.577  1.0045  0.4502 -0.4194
 6775SOL     OW31957   2.191   0.268   8.850  0.0111 -0.2641  0.1677
 6775SOL    HW131958   2.253   0.310   8.791  0.1134 -1.5299 -0.6471
 6775SOL    HW231959   2.193   0.327   8.924  4.1058  0.0123 -0.1661
 6776SOL     OW31960   3.738   2.828  11.092  0.5218 -0.3904 -0.1971
 6776SOL    HW131961   3.765   2.762  11.027 -1.0940 -2.8650  1.6346
 6776SOL    HW231962   3.754   2.778  11.172 -0.5729  0.3532  0.4848
 6777SOL     OW31963   2.855   2.409   6.910  0.3029 -0.8002  0.1987
 6777SOL    HW131964   2.844   2.381   7.001  0.7324  1.0834  0.8219
 6777SOL    HW231965   2.887   2.325   6.877 -1.4094 -1.6789  0.7817
 6778SOL     OW31966   1.575   2.175  10.301 -0.9396 -0.4080 -0.0017
 6778SOL    HW131967   1.599   2.155  10.391 -0.8915 -0.2407  0.0206
 6778SOL    HW231968   1.649   2.216  10.256 -1.6784  0.0965 -0.7629
 6779SOL     OW31969   1.804   3.094   4.724  0.0040 -0.1228 -0.6666
 6779SOL    HW131970   1.755   3.157   4.671 -0.0379 -0.2332 -0.7609
 6779SOL    HW231971   1.890   3.131   4.705 -1.2045  2.0663 -1.8732
 6780SOL     OW31972   1.590   2.787   7.467 -0.0085  0.5389  0.5223
 6780SOL    HW131973   1.619   2.758   7.381 -1.6959 -0.6505  0.3719
 6780SOL    HW231974   1.531   2.720   7.502  1.5315 -1.7978 -1.3381
 6781SOL     OW31975   0.218   2.650   8.384  0.3849 -0.6737  0.2862
 6781SOL    HW131976   0.218   2.623   8.476 -0.6238 -0.9872  0.1926
 6781SOL    HW231977   0.270   2.580   8.344 -2.8632 -2.0099 -1.6080
 6782SOL     OW31978   3.875   3.177   8.002  0.4938 -0.0804 -0.5861
 6782SOL    HW131979   3.929   3.097   8.008  1.2921  0.4327 -0.9418
 6782SOL    HW231980   3.797   3.131   7.971  0.6209 -0.1434 -0.8165
 6783SOL     OW31981   2.244   2.627   9.097 -0.2404 -0.0895  0.3400
 6783SOL    HW131982   2.157   2.590   9.083 -0.3132  0.7051 -1.2209
 6783SOL    HW231983   2.269   2.584   9.179  0.2030 -0.8206 -0.1784
 6784SOL     OW31984   3.427   1.838   4.081  0.0120  0.0147 -0.5749
 6784SOL    HW131985   3.399   1.778   4.150  0.8597  1.3294  0.9128
 6784SOL    HW231986   3.397   1.797   4.001 -2.0256  1.7632 -0.7245
 6785SOL     OW31987   4.506   1.911  12.166 -0.0879  0.1691  0.0462
 6785SOL    HW131988   4.456   1.891  12.245  1.0271 -0.5360  0.5754
 6785SOL    HW231989   4.527   1.830  12.118 -1.1930 -1.0224  1.5827
 6786SOL     OW31990   1.437   3.640   6.585  0.3827 -0.4905 -0.3092
 6786SOL    HW131991   1.395   3.554   6.576  0.4813 -0.7205  1.3119
 6786SOL    HW231992   1.488   3.625   6.665 -0.7306 -0.2857  0.4495
 6787SOL     OW31993   0.959   0.654   8.794 -0.1776  0.0558  0.7403
 6787SOL    HW131994   1.011   0.624   8.720  0.2510  0.5456  0.8451
 6787SOL    HW231995   0.872   0.645   8.754  0.1282 -1.6434  0.4495
 6788SOL     OW31996   2.703   3.986   3.452  0.2888 -0.2980 -0.3291
 6788SOL    HW131997   2.785   3.940   3.433  0.0684 -1.0694  0.6064
 6788SOL    HW231998   2.728   4.074   3.423  0.8892 -1.3751 -3.1663
 6789SOL     OW31999   4.028   3.032  17.419  0.8813 -0.0481  0.5382
 6789SOL    HW132000   4.035   2.991  17.506  1.9364 -2.4046 -0.6756
 6789SOL    HW232001   4.047   2.958  17.363 -1.1059  0.2717 -0.5286
 6790SOL     OW32002   2.524   1.651   5.571 -0.0077 -0.2180  0.3085
 6790SOL    HW132003   2.543   1.732   5.618 -1.8550  0.9806 -0.9904
 6790SOL    HW232004   2.471   1.681   5.497  1.9933  0.5422 -0.8105
 6791SOL     OW32005   0.494   2.173   4.754 -0.6952  0.0111  0.4692
 6791SOL    HW132006   0.451   2.088   4.748  1.2521 -0.8497 -1.4223
 6791SOL    HW232007   0.416   2.226   4.770 -1.4565 -0.9014 -0.2646
 6792SOL     OW32008   0.062   2.702   9.934  0.2610 -0.2336  0.2904
 6792SOL    HW132009   0.009   2.736  10.006  0.3882  1.2023 -0.2935
 6792SOL    HW232010   0.097   2.618   9.966 -0.1079 -0.6738 -0.4501
 6793SOL     OW32011   3.663   0.643   4.508 -0.3608 -0.2721  0.0744
 6793SOL    HW132012   3.652   0.594   4.589  0.5272  1.1877  1.0786
 6793SOL    HW232013   3.608   0.719   4.529  0.2450  0.6331 -1.6523
 6794SOL     OW32014   2.049   4.694   1.064  0.3166  0.2416  0.3147
 6794SOL    HW132015   2.033   0.053   1.077 -0.2189  0.1910  0.0348
 6794SOL    HW232016   2.031   4.658   1.151  0.4348  0.2764  0.3537
 6795SOL     OW32017   3.000   0.448   9.006 -0.3533  0.1976  0.1545
 6795SOL    HW132018   2.952   0.445   9.089 -0.8510  3.6008 -0.0030
 6795SOL    HW232019   2.976   0.359   8.983 -0.3989  0.2297  0.0804
 6796SOL     OW32020   0.421   0.810   6.680 -0.0154 -0.0252  0.9517
 6796SOL    HW132021   0.358   0.738   6.685 -0.8342  0.6295 -0.1485
 6796SOL    HW232022   0.356   0.880   6.680 -2.9553 -2.7304  0.2214
 6797SOL     OW32023   1.000   2.569   2.993 -0.3787  0.7051  0.4826
 6797SOL    HW132024   1.038   2.645   3.037 -1.6079  0.0481  2.7105
 6797SOL    HW232025   0.908   2.592   2.983 -0.2470  0.1710 -1.8941
 6798SOL     OW32026   0.116   4.671   6.275  0.4384  0.2012  0.2800
 6798SOL    HW132027   0.195   4.712   6.311 -0.7293 -0.1383  3.2583
 6798SOL    HW232028   0.057   4.673   6.351 -0.5218  0.3537 -0.4781
 6799SOL     OW32029   1.346   0.276  12.444 -0.1905 -0.6470 -0.2469
 6799SOL    HW132030   1.402   0.257  12.519  1.0905 -0.6820 -1.2255
 6799SOL    HW232031   1.311   0.189  12.423  1.2195 -0.7995 -1.9366
 6800SOL     OW32032   3.561   3.252  13.742 -0.1086  0.3951 -0.0753
 6800SOL    HW132033   3.623   3.246  13.815 -1.4641  0.8048  1.1031
 6800SOL    HW232034   3.598   3.191  13.678  0.1608 -1.9626  2.3375
 6801SOL     OW32035   2.421   0.176   3.841 -0.0700 -0.5682  0.1146
 6801SOL    HW132036   2.489   0.225   3.887 -0.9879  1.5083 -0.7391
 6801SOL    HW232037   2.345   0.212   3.886  0.7535  1.6379 -0.2121
 6802SOL     OW32038   0.647   4.496  15.056 -0.1472  0.1521  0.2405
 6802SOL    HW132039   0.593   4.535  15.124 -0.9118 -0.3828 -0.0596
 6802SOL    HW232040   0.685   4.574  15.015  0.8344 -1.3146 -1.6656
 6803SOL     OW32041   0.041   2.869   1.934 -0.3449 -0.2571  0.6518
 6803SOL    HW132042   4.734   2.928   1.995 -0.6174  1.3700 -1.1148
 6803SOL    HW232043   0.133   2.878   1.958 -0.1683  0.2938 -0.2338
 6804SOL     OW32044   1.660   0.950   3.642  0.0667 -0.5474 -0.3120
 6804SOL    HW132045   1.664   0.904   3.559  3.9850 -1.8666  0.6277
 6804SOL    HW232046   1.723   1.020   3.621 -0.7844  0.8726  1.7952
 6805SOL     OW32047   2.650   2.143   8.862 -0.2587 -0.0510 -0.0988
 6805SOL    HW132048   2.735   2.112   8.832  0.0726  1.2785 -0.5542
 6805SOL    HW232049   2.677   2.197   8.937 -3.3980  0.0884  0.9237
 6806SOL     OW32050   1.182   1.800   7.237 -0.4643  0.0117 -0.1442
 6806SOL    HW132051   1.201   1.780   7.329 -2.4205 -0.1924  0.2051
 6806SOL    HW232052   1.217   1.732   7.180 -1.0777 -0.8394  0.5031
 6807SOL     OW32053   3.443   0.686  16.513 -0.0222 -0.1862 -0.5362
 6807SOL    HW132054   3.370   0.748  16.504  0.4674  0.7710  1.9702
 6807SOL    HW232055   3.515   0.743  16.541 -1.0242  0.0885  1.4994
 6808SOL     OW32056   4.691   4.217   6.803 -0.4305  0.5202  0.2439
 6808SOL    HW132057   0.043   4.240   6.836 -0.4549  0.6131  0.2433
 6808SOL    HW232058   4.670   4.300   6.760 -0.2609  1.4573  1.9578
 6809SOL     OW32059   2.773   0.107   6.592 -0.0978  0.2429  0.2746
 6809SOL    HW132060   2.757   0.043   6.523 -2.7158  1.5886 -0.3787
 6809SOL    HW232061   2.771   0.043   6.663 -0.8356 -0.2387 -0.1817
 6810SOL     OW32062   2.308   2.679   5.950 -0.3587 -0.7086 -0.2539
 6810SOL    HW132063   2.373   2.706   6.014 -0.4771  0.8658 -0.7790
 6810SOL    HW232064   2.307   2.584   5.960 -0.3821 -0.5248  1.3955
 6811SOL     OW32065   4.503   3.703   5.571 -0.4771 -0.3486  0.3834
 6811SOL    HW132066   4.597   3.710   5.590 -0.7539  0.1432  1.5054
 6811SOL    HW232067   4.506   3.738   5.481 -1.8900  0.5644  0.6930
 6812SOL     OW32068   1.373   3.984   0.414  0.0971 -0.1548  0.4107
 6812SOL    HW132069   1.322   4.062   0.439 -0.8184 -0.7444  0.3698
 6812SOL    HW232070   1.321   3.955   0.340 -0.0825  0.5770  0.2514
 6813SOL     OW32071   4.418   1.365   7.596 -0.0610 -0.1192  0.1566
 6813SOL    HW132072   4.500   1.393   7.555  0.3472 -0.9218  0.4066
 6813SOL    HW232073   4.450   1.292   7.649 -2.1858 -1.1951 -0.0162
 6814SOL     OW32074   0.120   1.284   0.868 -0.1409  0.5144 -0.4192
 6814SOL    HW132075   0.188   1.217   0.869  1.6299  2.3074 -0.6984
 6814SOL    HW232076   0.156   1.372   0.855 -1.5232  1.0186 -0.8495
 6815SOL     OW32077   3.126   4.094   4.686  0.2544  0.0206 -0.1354
 6815SOL    HW132078   3.139   4.012   4.732 -0.2441  0.3949  0.6760
 6815SOL    HW232079   3.161   4.158   4.748 -3.0276  2.3666 -0.6845
 6816SOL     OW32080   3.574   1.195   7.949 -0.1781 -0.2707  0.0365
 6816SOL    HW132081   3.577   1.100   7.958  0.4496  0.0385  2.9821
 6816SOL    HW232082   3.643   1.225   8.008 -2.3337  1.2910  1.7649
 6817SOL     OW32083   0.293   0.930   7.054 -0.2069  0.1367  0.2359
 6817SOL    HW132084   0.302   0.910   7.147  0.7698 -1.1180 -0.1253
 6817SOL    HW232085   0.345   1.011   7.055 -1.8940  1.2129 -0.2232
 6818SOL     OW32086   3.610   0.391  13.837 -1.2119 -0.3146 -0.0538
 6818SOL    HW132087   3.531   0.415  13.886 -0.2139 -0.4793  1.6252
 6818SOL    HW232088   3.587   0.306  13.801 -2.1062 -0.2467  0.3362
 6819SOL     OW32089   3.934   3.175   6.335 -0.0103  0.2789 -0.6969
 6819SOL    HW132090   4.007   3.181   6.396 -0.8329  1.3245  0.1886
 6819SOL    HW232091   3.899   3.264   6.340  0.3112  0.4147 -0.8592
 6820SOL     OW32092   3.535   0.820   3.311 -0.4284 -0.3529  0.1971
 6820SOL    HW132093   3.539   0.913   3.334 -2.2866 -0.0592 -0.7360
 6820SOL    HW232094   3.446   0.798   3.337 -0.3366  0.6358  1.3915
 6821SOL     OW32095   1.657   0.489   9.514 -0.0148  0.0709 -0.0923
 6821SOL    HW132096   1.653   0.583   9.500  2.2403  0.7616  3.9160
 6821SOL    HW232097   1.732   0.486   9.573  1.6497 -1.6663 -2.2935
 6822SOL     OW32098   4.416   1.116   3.627  0.2719 -0.4388 -0.4505
 6822SOL    HW132099   4.507   1.146   3.635  0.4787 -0.4649 -2.7457
 6822SOL    HW232100   4.382   1.194   3.582 -0.0875 -0.3944 -0.0942
 6823SOL     OW32101   2.659   0.354   6.243 -0.3983 -0.0545  0.7109
 6823SOL    HW132102   2.712   0.294   6.191 -1.3093 -2.0739  2.1302
 6823SOL    HW232103   2.718   0.428   6.262  0.8006 -1.2818  1.7698
 6824SOL     OW32104   2.618   3.548   8.428 -0.0931  0.1175 -0.4495
 6824SOL    HW132105   2.679   3.520   8.360 -0.2582  1.2252 -1.0530
 6824SOL    HW232106   2.669   3.607   8.483 -1.4157 -1.1482  2.1868
 6825SOL     OW32107   1.653   0.309   2.457 -0.1477 -0.1000  0.1359
 6825SOL    HW132108   1.601   0.351   2.525  0.1497  1.1051 -0.3941
 6825SOL    HW232109   1.735   0.356   2.471 -1.3407  1.6483  1.1582
 6826SOL     OW32110   2.819   2.579   0.769  0.4650  0.0410  0.7903
 6826SOL    HW132111   2.784   2.623   0.847  1.3662  0.1387  1.1425
 6826SOL    HW232112   2.838   2.490   0.797 -1.4211 -0.4811  0.3938
 6827SOL     OW32113   1.823   1.118   3.533  0.5653  0.3091 -0.0306
 6827SOL    HW132114   1.841   1.165   3.451  0.6386 -0.7690 -0.6369
 6827SOL    HW232115   1.901   1.063   3.535  0.7931  0.7144  1.6091
 6828SOL     OW32116   3.790   0.262  16.292  0.1167  0.3320  0.0473
 6828SOL    HW132117   3.761   0.353  16.291  1.1367  0.6515 -1.0372
 6828SOL    HW232118   3.825   0.253  16.380 -1.4337 -0.4829  0.5817
 6829SOL     OW32119   3.875   0.163   1.841 -0.1688 -0.6519  0.0057
 6829SOL    HW132120   3.864   0.122   1.926  0.3129 -0.0523  0.3553
 6829SOL    HW232121   3.939   0.227   1.871  0.3270 -1.5622  0.8753
 6830SOL     OW32122   2.844   1.940   3.268  0.6856 -0.2956 -0.0862
 6830SOL    HW132123   2.765   1.891   3.291 -0.9539  0.2380 -4.5981
 6830SOL    HW232124   2.904   1.866   3.281 -0.0998 -1.3118 -2.1112
 6831SOL     OW32125   4.251   1.597  12.230  0.0483  0.5278  0.0751
 6831SOL    HW132126   4.206   1.675  12.197  2.2147  0.5595 -2.8750
 6831SOL    HW232127   4.280   1.556  12.148  0.1813 -1.9407  1.3584
 6832SOL     OW32128   0.566   3.489  17.691  0.3268 -0.0979 -0.5104
 6832SOL    HW132129   0.597   3.409  17.734 -0.6222 -1.1034 -1.6944
 6832SOL    HW232130   0.589   3.482  17.598 -0.5604 -3.3946 -0.4856
 6833SOL     OW32131   1.723   3.442   4.478  0.1132  0.4713  0.1353
 6833SOL    HW132132   1.756   3.452   4.567  3.8693  1.4489 -1.3561
 6833SOL    HW232133   1.775   3.508   4.431 -1.4019  2.1615  0.8466
 6834SOL     OW32134   0.460   2.922   4.544  0.2692 -0.2866 -0.5660
 6834SOL    HW132135   0.375   2.941   4.504  0.2938 -1.6688 -1.2591
 6834SOL    HW232136   0.446   2.855   4.611 -2.2995  1.7913  0.9932
 6835SOL     OW32137   1.893   3.693   1.341  0.1203 -0.3977  0.9143
 6835SOL    HW132138   1.832   3.664   1.273  0.0519 -0.3948  0.9751
 6835SOL    HW232139   1.942   3.759   1.293  0.7707  1.2306  3.8357
 6836SOL     OW32140   2.662   4.025   6.744 -0.3491  0.3932 -0.0680
 6836SOL    HW132141   2.589   4.010   6.804 -1.4275 -0.6455 -1.6434
 6836SOL    HW232142   2.731   4.039   6.808 -2.0048 -0.2832  1.8724
 6837SOL     OW32143   2.057   2.466   6.781  0.2738 -0.5697 -0.5283
 6837SOL    HW132144   2.046   2.524   6.706  1.6810 -0.0164 -0.3063
 6837SOL    HW232145   2.088   2.382   6.750 -0.3302 -0.0207 -2.6266
 6838SOL     OW32146   3.451   0.423  16.922  0.0642  0.1001 -0.5497
 6838SOL    HW132147   3.390   0.361  16.962  0.4036  0.4639  0.5409
 6838SOL    HW232148   3.402   0.464  16.850 -1.6704  1.3778  1.3714
 6839SOL     OW32149   0.521   1.128   9.366  0.6071 -0.4483 -0.4080
 6839SOL    HW132150   0.549   1.194   9.429 -0.0233 -0.1308 -0.4534
 6839SOL    HW232151   0.603   1.086   9.341  1.3482  1.1287 -0.6650
 6840SOL     OW32152   1.318   3.245   9.110 -0.1007 -0.2531 -0.0016
 6840SOL    HW132153   1.328   3.335   9.141 -1.3115  0.4330 -1.5501
 6840SOL    HW232154   1.271   3.251   9.026  0.4099 -2.0029 -0.4154
 6841SOL     OW32155   3.553   0.117   8.551 -0.4134  0.2924 -0.2906
 6841SOL    HW132156   3.506   0.062   8.614 -1.0085 -0.7174 -1.6207
 6841SOL    HW232157   3.643   0.117   8.583 -0.2653 -0.5787 -0.7061
 6842SOL     OW32158   1.059   3.992   6.531 -0.3398  0.2574  0.4015
 6842SOL    HW132159   1.122   3.937   6.578 -1.9770 -2.0696 -0.1425
 6842SOL    HW232160   1.061   4.072   6.583  0.3235  1.8318 -2.0813
 6843SOL     OW32161   3.516   0.335  17.418  0.1227 -0.3096  0.5373
 6843SOL    HW132162   3.507   0.342  17.323  2.0281  1.1060  0.4712
 6843SOL    HW232163   3.503   0.241  17.412 -0.9564 -0.1132 -0.1964
 6844SOL     OW32164   3.922   2.653   8.863 -0.0641  0.5640  0.0883
 6844SOL    HW132165   4.018   2.660   8.865  0.0145  0.3829 -3.0201
 6844SOL    HW232166   3.896   2.663   8.954 -0.5104  1.1367 -0.1020
 6845SOL     OW32167   1.865   0.080   6.399  0.1109  0.1294 -0.2295
 6845SOL    HW132168   1.960   0.070   6.399 -0.0033 -0.8927 -0.0046
 6845SOL    HW232169   1.828   0.016   6.460  0.7391 -0.1861 -0.1812
 6846SOL     OW32170   3.131   2.707  12.749  0.2336  0.1876  0.1261
 6846SOL    HW132171   3.207   2.765  12.759  0.5094 -0.2817  0.7536
 6846SOL    HW232172   3.077   2.767  12.697 -0.2528  0.1893  0.6287
 6847SOL     OW32173   1.274   2.262   2.495  0.3184  0.5168 -0.2125
 6847SOL    HW132174   1.360   2.230   2.465  1.2236  0.2978  2.6403
 6847SOL    HW232175   1.209   2.215   2.442 -0.4996  1.7561 -0.3005
 6848SOL     OW32176   0.104   0.429  15.159  0.0818  0.4332 -0.2075
 6848SOL    HW132177   0.144   0.480  15.089  0.9011  1.5158  1.0448
 6848SOL    HW232178   0.051   0.362  15.116 -0.2898  0.4100  0.2941
 6849SOL     OW32179   1.233   4.566   4.635  0.7615  0.1679  0.1270
 6849SOL    HW132180   1.301   4.632   4.617  0.3905  0.4830 -0.1015
 6849SOL    HW232181   1.249   4.558   4.729  2.6499 -0.4939 -0.2467
 6850SOL     OW32182   1.451   2.507   3.819 -0.1075  0.2145  0.3783
 6850SOL    HW132183   1.366   2.549   3.806 -1.0556 -1.9900 -0.5893
 6850SOL    HW232184   1.499   2.522   3.738 -1.2896 -2.1179 -0.7592
 6851SOL     OW32185   1.466   3.748   0.049 -0.4808  0.2216 -0.5825
 6851SOL    HW132186   1.420   3.670   0.079  0.8956 -0.4006 -0.1037
 6851SOL    HW232187   1.495   3.699  17.711  0.2729  0.1795 -0.2649
 6852SOL     OW32188   1.252   3.134   3.325 -0.7676 -0.1944 -0.2436
 6852SOL    HW132189   1.345   3.154   3.311 -0.9390  1.4446  0.9934
 6852SOL    HW232190   1.227   3.107   3.236  0.5213 -0.3449 -0.5619
 6853SOL     OW32191   0.549   0.037  15.653  0.9175 -0.1627  0.1559
 6853SOL    HW132192   0.582   4.712  15.720  1.1551  0.3507  0.5040
 6853SOL    HW232193   0.552   0.119  15.703 -1.2337 -0.1346  0.2340
 6854SOL     OW32194   0.789   2.696  13.416 -0.4959  0.5507 -0.0141
 6854SOL    HW132195   0.867   2.710  13.362  0.7645  0.8308  1.8512
 6854SOL    HW232196   0.792   2.767  13.480 -0.5979  0.8823 -0.3773
 6855SOL     OW32197   0.887   0.757  16.673  0.2443 -0.1962  0.4765
 6855SOL    HW132198   0.835   0.725  16.600  0.3971  2.6852 -0.9033
 6855SOL    HW232199   0.836   0.740  16.752 -0.6370  0.6304  0.0711
 6856SOL     OW32200   2.716   1.861  17.583 -0.0586  0.0224 -0.3660
 6856SOL    HW132201   2.747   1.774  17.608 -0.6352  0.5910  2.3469
 6856SOL    HW232202   2.753   1.861  17.495  0.5584  0.9492 -0.1060
 6857SOL     OW32203   2.415   4.068  16.695 -0.3279  0.0442 -0.5035
 6857SOL    HW132204   2.454   4.073  16.607  0.3088  0.7436 -0.1859
 6857SOL    HW232205   2.326   4.082  16.663 -1.0641 -1.1272  1.0698
 6858SOL     OW32206   3.368   3.483   2.170  0.3061  0.4544  0.4494
 6858SOL    HW132207   3.397   3.532   2.093  0.3134 -0.2398  0.0136
 6858SOL    HW232208   3.297   3.542   2.194  0.1581  0.2545  0.4962
 6859SOL     OW32209   2.003   1.453   7.118 -0.4294  0.3213  0.0816
 6859SOL    HW132210   2.052   1.373   7.100  0.8569  1.1187  0.0224
 6859SOL    HW232211   1.940   1.460   7.046 -0.7425  2.0433  0.5187
 6860SOL     OW32212   1.485   4.012   6.040 -0.1987 -0.1583 -0.0307
 6860SOL    HW132213   1.490   4.054   5.954  0.2839 -0.0352  0.0566
 6860SOL    HW232214   1.441   3.933   6.009 -0.5503  0.0464 -0.0564
 6861SOL     OW32215   3.339   3.617   0.944  0.2875  0.0547 -0.3227
 6861SOL    HW132216   3.247   3.638   0.926  0.0963  1.9721  2.8525
 6861SOL    HW232217   3.340   3.544   1.005  1.0613  0.4378  0.1123
 6862SOL     OW32218   1.093   2.627  16.834 -0.1815 -0.0296 -0.0839
 6862SOL    HW132219   1.078   2.555  16.896  1.0568 -2.0241 -2.0858
 6862SOL    HW232220   1.179   2.610  16.796 -0.9808  1.5796 -2.6457
 6863SOL     OW32221   1.922   2.718   3.649  0.1453  0.4236 -0.5383
 6863SOL    HW132222   1.893   2.808   3.663  0.9024  0.5260  0.3427
 6863SOL    HW232223   2.013   2.721   3.676 -0.5386 -0.7606  1.9502
 6864SOL     OW32224   2.065   3.843   4.480 -0.0221  0.3491  0.4559
 6864SOL    HW132225   2.047   3.858   4.388  1.2406 -1.1052 -0.0354
 6864SOL    HW232226   1.975   3.827   4.508 -0.2209  0.2999 -0.2097
 6865SOL     OW32227   0.983   3.111  12.795 -0.3225 -0.1871  0.9953
 6865SOL    HW132228   1.067   3.073  12.822 -0.2010  0.8992  2.1814
 6865SOL    HW232229   0.916   3.047  12.816  0.3465 -1.2487 -0.1299
 6866SOL     OW32230   1.819   4.283   4.386 -0.0297  0.6469  0.0300
 6866SOL    HW132231   1.826   4.189   4.368  1.4946  0.5118  1.3403
 6866SOL    HW232232   1.905   4.314   4.412 -0.8851  2.5208  0.6158
 6867SOL     OW32233   3.752   2.546   2.471 -0.9075 -0.1017  0.1403
 6867SOL    HW132234   3.744   2.458   2.435  0.1613  0.3038 -1.0765
 6867SOL    HW232235   3.692   2.594   2.413  1.2551 -0.7892 -2.6359
 6868SOL     OW32236   4.699   0.258   2.121  0.0841  0.2323  0.0052
 6868SOL    HW132237   4.682   0.262   2.027 -0.6304  0.5122  0.1478
 6868SOL    HW232238   4.669   0.170   2.141 -0.0719  0.0640 -0.9792
 6869SOL     OW32239   0.602   4.179   4.313 -0.6766  0.2600 -0.3703
 6869SOL    HW132240   0.542   4.203   4.383 -2.7207 -2.2156 -1.2700
 6869SOL    HW232241   0.582   4.089   4.288 -0.7053 -0.5111  2.5079
 6870SOL     OW32242   3.454   3.558   5.957  0.0173 -0.1201  0.2982
 6870SOL    HW132243   3.371   3.603   5.942 -0.2006 -0.1939  1.3228
 6870SOL    HW232244   3.458   3.512   5.872  0.9456 -1.2250  0.9418
 6871SOL     OW32245   1.851   2.979  10.162  0.3008  0.4785  0.0698
 6871SOL    HW132246   1.777   2.966  10.103  0.1605 -2.0671  0.7999
 6871SOL    HW232247   1.882   3.052  10.109 -1.3591 -0.6342 -2.4136
 6872SOL     OW32248   3.900   2.152  10.673  0.1910 -0.4069  0.4364
 6872SOL    HW132249   3.963   2.224  10.679  0.0489 -0.4846  2.8678
 6872SOL    HW232250   3.827   2.186  10.621  0.0475 -0.1427  0.8062
 6873SOL     OW32251   4.338   0.032   7.896 -0.3068 -0.1495  0.2301
 6873SOL    HW132252   4.431   0.012   7.894  0.5527  3.7916 -0.5006
 6873SOL    HW232253   4.315   4.726   7.979 -0.2463  0.8782  0.7633
 6874SOL     OW32254   0.417   0.360   8.353 -0.4872 -0.0643  0.7250
 6874SOL    HW132255   0.389   0.272   8.379 -0.8130 -0.1774 -0.0111
 6874SOL    HW232256   0.490   0.366   8.415 -1.3764 -1.0347  1.8556
 6875SOL     OW32257   3.845   2.221   4.473  0.4176 -0.6535 -0.3308
 6875SOL    HW132258   3.798   2.222   4.390  0.3038  0.8192 -0.2512
 6875SOL    HW232259   3.935   2.237   4.442  0.3162  2.5592  1.0389
 6876SOL     OW32260   2.248   0.592  17.332 -0.4891 -0.4294 -0.1467
 6876SOL    HW132261   2.260   0.678  17.290  0.5513  0.5687  2.2058
 6876SOL    HW232262   2.225   0.613  17.422  0.5121  1.4011 -0.3096
 6877SOL     OW32263   3.072   0.672   3.467 -0.0965  0.1471 -0.9855
 6877SOL    HW132264   3.086   0.598   3.526  1.6338  0.6563 -0.7645
 6877SOL    HW232265   2.994   0.632   3.426 -0.0020  1.6257 -2.6063
 6878SOL     OW32266   2.295   4.658  13.994 -0.1071 -0.3988 -0.1031
 6878SOL    HW132267   2.372   4.601  13.996 -0.4876 -0.9198 -0.1162
 6878SOL    HW232268   2.223   4.595  14.001 -0.7405  0.6411  2.5760
 6879SOL     OW32269   0.984   2.508   2.011  0.4078 -0.5741 -0.0962
 6879SOL    HW132270   0.910   2.453   1.987 -1.3130  1.4322  0.6795
 6879SOL    HW232271   0.971   2.573   1.941 -1.6773 -1.2102 -0.2711
 6880SOL     OW32272   1.799   3.959   4.227  0.0847 -0.0771 -0.1473
 6880SOL    HW132273   1.754   3.975   4.310 -0.3939 -1.8099 -0.0915
 6880SOL    HW232274   1.740   3.901   4.179 -3.0684  1.4779  1.8181
 6881SOL     OW32275   0.814   0.014   9.404  0.0225 -0.6632  0.3187
 6881SOL    HW132276   0.818   4.697   9.484 -0.9621 -1.5999 -0.2438
 6881SOL    HW232277   0.905   0.015   9.372 -0.0720 -0.6278  0.0497
 6882SOL     OW32278   2.302   3.879   0.481 -0.3863  0.3093  0.2717
 6882SOL    HW132279   2.260   3.843   0.403  0.1026 -0.0086  0.1551
 6882SOL    HW232280   2.302   3.974   0.472 -1.6633  0.3422  0.5781
 6883SOL     OW32281   0.719   0.517   8.144  0.0521 -0.9165  0.8033
 6883SOL    HW132282   0.737   0.445   8.204 -0.2894 -1.2610  0.4867
 6883SOL    HW232283   0.791   0.577   8.164  0.5111 -0.7251 -1.3322
 6884SOL     OW32284   0.355   1.505   2.636 -0.3355 -0.0037 -0.2871
 6884SOL    HW132285   0.261   1.514   2.628 -0.3575  0.4225  0.4571
 6884SOL    HW232286   0.386   1.594   2.652  0.8114 -0.2819 -0.9396
 6885SOL     OW32287   0.152   0.500  14.130 -0.4830  0.0079  0.1026
 6885SOL    HW132288   0.229   0.556  14.123 -0.3799 -0.5398 -2.9195
 6885SOL    HW232289   0.206   0.426  14.158 -0.4568  0.1296  0.3781
 6886SOL     OW32290   4.427   0.998  14.090 -0.0221  0.3964 -0.0657
 6886SOL    HW132291   4.348   0.957  14.126 -0.2569  1.2464  0.3796
 6886SOL    HW232292   4.457   0.916  14.050 -1.9547 -1.2730  1.8822
 6887SOL     OW32293   0.890   1.080   5.421 -0.4483  0.0179  0.4284
 6887SOL    HW132294   0.969   1.079   5.474  0.4820  3.5470 -0.8706
 6887SOL    HW232295   0.917   1.080   5.329 -0.0788  1.7104  0.5439
 6888SOL     OW32296   2.135   4.374   6.193  0.2604 -0.5105  0.3743
 6888SOL    HW132297   2.048   4.335   6.203 -0.1831  0.1164 -1.0385
 6888SOL    HW232298   2.172   4.296   6.151 -0.0753 -0.4230 -0.0801
 6889SOL     OW32299   1.339   2.378  12.868 -0.2244 -0.2065  0.1047
 6889SOL    HW132300   1.394   2.332  12.932  2.2321 -0.7282 -2.4024
 6889SOL    HW232301   1.303   2.432  12.938 -0.2809  0.0522 -0.1248
 6890SOL     OW32302   3.484   4.240  14.580  0.1409  0.0093 -0.2132
 6890SOL    HW132303   3.564   4.208  14.538 -0.1579 -2.6214  1.1868
 6890SOL    HW232304   3.490   4.191  14.662 -1.0839  0.3902  0.1012
 6891SOL     OW32305   2.425   1.217   3.944  0.0458 -0.2988  0.3682
 6891SOL    HW132306   2.481   1.282   3.901  0.8869  0.2574  2.2975
 6891SOL    HW232307   2.349   1.274   3.954  0.1807  0.5060 -3.3027
 6892SOL     OW32308   0.446   1.969   5.680 -0.4797 -0.8042 -0.2113
 6892SOL    HW132309   0.393   2.020   5.619 -0.9734  0.3659  1.2051
 6892SOL    HW232310   0.465   1.898   5.618 -0.4341 -0.3409 -0.7237
 6893SOL     OW32311   0.342   0.917   4.112  0.2888 -0.0749 -0.0183
 6893SOL    HW132312   0.382   0.976   4.176  0.7022 -1.2608  0.8182
 6893SOL    HW232313   0.352   0.982   4.042 -1.1956  0.1061 -0.0785
 6894SOL     OW32314   3.605   1.337  12.068  0.9447  0.1154  0.0946
 6894SOL    HW132315   3.522   1.322  12.113 -0.5096  0.5735 -2.3965
 6894SOL    HW232316   3.600   1.282  11.990  1.5671  3.2121 -2.1423
 6895SOL     OW32317   0.011   4.122  11.419  0.2276  0.2172  0.3615
 6895SOL    HW132318   0.087   4.065  11.408 -0.6653 -0.7606 -0.7738
 6895SOL    HW232319   4.686   4.073  11.475 -0.0070  1.4602  1.2159
 6896SOL     OW32320   1.409   1.903  15.906  0.0859 -0.0330  0.1372
 6896SOL    HW132321   1.424   1.956  15.828 -0.1280  0.4524  0.4269
 6896SOL    HW232322   1.410   1.972  15.972  0.5574  0.1233 -0.0320
 6897SOL     OW32323   3.744   3.748   5.066 -0.5129  0.2286 -0.0734
 6897SOL    HW132324   3.715   3.719   5.153 -0.1285 -0.4092 -0.1617
 6897SOL    HW232325   3.820   3.796   5.099 -1.2067  1.7031 -0.6159
 6898SOL     OW32326   4.146   2.599   7.041 -0.2307  0.9715 -0.5742
 6898SOL    HW132327   4.225   2.611   7.094  0.0121 -0.5183 -0.6060
 6898SOL    HW232328   4.114   2.517   7.079  1.1333  0.5535 -0.3154
 6899SOL     OW32329   1.995   4.364   0.377  0.2851 -0.2857 -0.5375
 6899SOL    HW132330   2.073   4.383   0.429 -0.3821  1.8948 -0.3206
 6899SOL    HW232331   1.930   4.406   0.434 -0.4280 -1.4914 -0.4802
 6900SOL     OW32332   3.119   0.354   6.984  0.0046 -0.6392  0.1393
 6900SOL    HW132333   3.069   0.353   7.065 -0.4715 -2.2849 -0.1750
 6900SOL    HW232334   3.196   0.299   6.999 -0.2224 -1.0683 -0.2678
 6901SOL     OW32335   2.405   2.942   2.393  0.2622 -0.4650  0.6727
 6901SOL    HW132336   2.337   3.009   2.385  1.2306  0.6389  1.6027
 6901SOL    HW232337   2.437   2.950   2.483  2.4959  0.6188 -0.2061
 6902SOL     OW32338   3.816   4.165   0.612 -0.4002 -0.2184 -0.0235
 6902SOL    HW132339   3.797   4.074   0.589  1.4426 -0.7326  0.5210
 6902SOL    HW232340   3.740   4.173   0.670 -1.0215 -2.2010 -0.5737
 6903SOL     OW32341   0.769   0.302   8.361 -0.0048  0.2651 -0.4686
 6903SOL    HW132342   0.861   0.304   8.389 -0.1878  1.6458  0.0305
 6903SOL    HW232343   0.720   0.340   8.434  2.7501  0.1921  1.4123
 6904SOL     OW32344   0.016   3.415   2.732 -0.6051 -0.0372  0.1894
 6904SOL    HW132345   0.095   3.417   2.785  0.5474 -1.5870 -1.4722
 6904SOL    HW232346   4.682   3.456   2.785  1.1575  0.5495  2.0005
 6905SOL     OW32347   1.373   0.659  11.835 -0.2025 -0.0038 -0.2323
 6905SOL    HW132348   1.449   0.600  11.834  1.0954  1.6065  1.8842
 6905SOL    HW232349   1.365   0.674  11.930 -1.5398 -0.1018 -0.3323
 6906SOL     OW32350   2.861   0.617   7.256 -0.2616  0.8252 -0.9533
 6906SOL    HW132351   2.909   0.540   7.225  1.3055  1.1172  0.7337
 6906SOL    HW232352   2.863   0.676   7.181 -2.6589  0.9555 -0.8973
 6907SOL     OW32353   3.409   4.433  14.400  0.7605 -0.4961 -0.3628
 6907SOL    HW132354   3.453   4.377  14.463 -0.9488 -0.8584  0.5051
 6907SOL    HW232355   3.409   4.520  14.440  2.2955 -0.6733  0.0100
 6908SOL     OW32356   0.680   2.399  16.014  0.0042  0.7288 -0.2802
 6908SOL    HW132357   0.688   2.485  15.973 -1.6218 -0.4783 -3.1628
 6908SOL    HW232358   0.588   2.382  15.994 -0.4469  0.2398  2.1783
 6909SOL     OW32359   2.005   4.225   5.143  0.3146  0.9125  0.1872
 6909SOL    HW132360   1.926   4.206   5.194  0.3426 -0.9986 -0.4734
 6909SOL    HW232361   1.973   4.212   5.054 -0.4699 -1.5561  0.8220
 6910SOL     OW32362   2.466   0.576  16.307  0.3844  0.2017 -0.2263
 6910SOL    HW132363   2.389   0.530  16.274  0.4005  0.9347 -1.2961
 6910SOL    HW232364   2.472   0.632  16.230 -2.2201  2.5829  1.3016
 6911SOL     OW32365   3.661   3.320   5.319 -0.3252 -0.3764  0.1244
 6911SOL    HW132366   3.703   3.381   5.258 -2.1775  1.6148  0.8230
 6911SOL    HW232367   3.567   3.327   5.303  0.0705  4.3462 -0.0763
 6912SOL     OW32368   0.281   4.728  16.840  0.1691 -0.0286  0.0805
 6912SOL    HW132369   0.319   4.640  16.846 -1.8125 -0.8872 -0.1524
 6912SOL    HW232370   0.235   4.729  16.757  0.6874  0.9583 -0.1990
 6913SOL     OW32371   3.488   0.001   9.162  0.5473  0.2535 -0.2568
 6913SOL    HW132372   3.463   0.077   9.215 -1.6951 -0.0322 -0.8996
 6913SOL    HW232373   3.424   0.012   9.091 -2.3675 -1.6970  2.0864
 6914SOL     OW32374   3.516   0.593   7.886  0.2622  0.6754 -0.3517
 6914SOL    HW132375   3.594   0.548   7.918  0.1222 -0.1770 -1.2119
 6914SOL    HW232376   3.459   0.621   7.959  0.5134  0.6493 -0.1472
 6915SOL     OW32377   1.259   0.122   7.215  0.2510 -0.5264 -0.0354
 6915SOL    HW132378   1.225   0.154   7.132  2.0250  0.1943 -0.4742
 6915SOL    HW232379   1.225   0.195   7.266 -2.8418  0.7330 -3.9077
 6916SOL     OW32380   2.238   3.644   2.944  0.7206 -0.0146  0.1412
 6916SOL    HW132381   2.333   3.652   2.951  0.9185 -1.1386 -1.1892
 6916SOL    HW232382   2.218   3.686   3.027 -1.1603  0.0115 -0.3241
 6917SOL     OW32383   2.303   4.037  17.516 -0.2690 -0.2611  0.1436
 6917SOL    HW132384   2.294   3.991  17.600 -0.7316 -2.1313 -0.9456
 6917SOL    HW232385   2.216   4.050  17.478  0.8811  3.5651 -1.1222
 6918SOL     OW32386   0.488   0.220   2.257  0.6452 -0.4342  0.7727
 6918SOL    HW132387   0.395   0.220   2.279  0.1169 -3.4686 -1.6055
 6918SOL    HW232388   0.535   0.254   2.334 -0.2833  2.1930  0.1681
 6919SOL     OW32389   3.342   2.432   6.498 -0.0654 -0.4032 -0.0984
 6919SOL    HW132390   3.371   2.366   6.561 -0.6334 -0.5968 -0.0414
 6919SOL    HW232391   3.319   2.504   6.556  1.6729  0.1784 -0.1198
 6920SOL     OW32392   1.128   0.521  12.165  0.1472 -0.2790 -0.3198
 6920SOL    HW132393   1.216   0.542  12.134  1.0485  1.2707  3.2465
 6920SOL    HW232394   1.077   0.576  12.106  2.3835  1.7900 -0.3522
 6921SOL     OW32395   2.319   2.008   6.256 -0.1935 -0.3280  0.6655
 6921SOL    HW132396   2.335   1.958   6.336  1.5381 -2.0751 -0.7655
 6921SOL    HW232397   2.409   2.027   6.231  0.3649 -0.3688  2.6744
 6922SOL     OW32398   3.778   2.104   6.317 -0.6952  1.0404 -0.2317
 6922SOL    HW132399   3.784   2.166   6.389 -1.5520  1.1534 -0.2592
 6922SOL    HW232400   3.687   2.119   6.292 -0.9956 -1.5262 -0.7034
 6923SOL     OW32401   1.350   3.950   2.301  0.2737  0.1679  0.0944
 6923SOL    HW132402   1.260   3.930   2.276  0.0504  0.4853  0.6482
 6923SOL    HW232403   1.381   4.020   2.243 -1.8596  1.4021  0.4563
 6924SOL     OW32404   0.038   4.565   5.167  0.4417  0.2925  0.0179
 6924SOL    HW132405   0.012   4.474   5.181 -2.0902  0.8910 -0.7699
 6924SOL    HW232406   4.686   4.604   5.175 -0.0550 -0.7496 -0.2108
 6925SOL     OW32407   2.752   4.240   6.062 -0.4685  0.1379  0.7639
 6925SOL    HW132408   2.794   4.259   6.146 -0.2169  1.0751  0.4345
 6925SOL    HW232409   2.661   4.238   6.090 -1.0992  0.0540 -1.2564
 6926SOL     OW32410   1.151   3.270   7.070  0.6976  0.1971  0.0949
 6926SOL    HW132411   1.099   3.309   6.999  1.1646 -1.6459 -1.2809
 6926SOL    HW232412   1.222   3.331   7.090 -0.4774  0.5479  3.1490
 6927SOL     OW32413   0.943   2.416   4.182  0.4470  0.1264 -0.1319
 6927SOL    HW132414   0.958   2.487   4.244  0.5356  0.2322 -0.2746
 6927SOL    HW232415   0.986   2.455   4.106  3.1101 -0.6343  0.9832
 6928SOL     OW32416   2.075   3.441   5.384  0.3779  0.5355  0.0722
 6928SOL    HW132417   2.009   3.510   5.385 -1.0864 -0.8903  0.7540
 6928SOL    HW232418   2.087   3.423   5.291 -2.4794  0.9433 -0.3492
 6929SOL     OW32419   3.855   1.842   2.092  0.0388 -0.4240  0.4282
 6929SOL    HW132420   3.839   1.935   2.110 -3.1786 -1.0173  0.6376
 6929SOL    HW232421   3.813   1.800   2.167 -0.6255 -3.9422 -1.9071
 6930SOL     OW32422   0.722   0.396  10.916 -0.3461 -0.6437  0.4423
 6930SOL    HW132423   0.771   0.429  10.991  0.5806  0.2510 -0.5416
 6930SOL    HW232424   0.784   0.407  10.843  0.1759  0.7914  1.0994
 6931SOL     OW32425   1.897   4.729  10.088  0.6769  0.2363 -0.0714
 6931SOL    HW132426   1.928   4.675  10.161  0.5388 -2.5957 -2.1111
 6931SOL    HW232427   1.975   4.734  10.032  0.5287  2.0024 -0.0941
 6932SOL     OW32428   2.255   0.224   9.327 -0.6384  0.1626  0.1121
 6932SOL    HW132429   2.164   0.233   9.354 -1.2199 -3.7609 -0.4993
 6932SOL    HW232430   2.311   0.230   9.405 -0.7447  0.4321  0.1670
 6933SOL     OW32431   3.079   1.452   6.418  0.2963 -0.4038 -0.1372
 6933SOL    HW132432   3.175   1.450   6.409  0.3797  0.4153  0.5009
 6933SOL    HW232433   3.067   1.395   6.494  0.1677 -1.4115 -0.9257
 6934SOL     OW32434   3.607   1.036   8.861 -0.1049 -0.3737  0.2093
 6934SOL    HW132435   3.668   1.086   8.916  0.4302  0.3787 -1.0849
 6934SOL    HW232436   3.549   1.106   8.832  0.7790 -0.0019 -0.6398
 6935SOL     OW32437   3.175   0.640   4.196 -0.3597 -0.1768  0.2262
 6935SOL    HW132438   3.097   0.600   4.157 -0.5435  1.4171 -0.9992
 6935SOL    HW232439   3.138   0.636   4.284  1.2556  0.0604  0.9179
 6936SOL     OW32440   0.570   3.384  17.346  0.1631 -0.0509  0.4708
 6936SOL    HW132441   0.553   3.347  17.259  0.8001  0.8362 -0.0359
 6936SOL    HW232442   0.557   3.310  17.404 -1.9459 -0.4300 -0.4839
 6937SOL     OW32443   1.768   3.455  16.092  0.9064  0.9255 -0.3068
 6937SOL    HW132444   1.749   3.421  16.179 -1.2438  4.1785  0.4819
 6937SOL    HW232445   1.829   3.384  16.070 -0.9759 -0.2754 -1.6407
 6938SOL     OW32446   3.500   1.410   5.402 -0.0379  0.3496 -0.0334
 6938SOL    HW132447   3.489   1.357   5.324  0.0120  1.8259 -1.0368
 6938SOL    HW232448   3.441   1.483   5.383 -1.6614 -1.1967 -0.9469
 6939SOL     OW32449   3.788   2.133   5.529 -0.9119  0.4559  0.4521
 6939SOL    HW132450   3.833   2.066   5.581 -1.7411 -1.2514 -1.0133
 6939SOL    HW232451   3.805   2.102   5.440 -0.1545 -0.7499  1.0101
 6940SOL     OW32452   3.349   4.315   3.550  0.4897  0.3325 -0.1843
 6940SOL    HW132453   3.292   4.302   3.625  2.2177 -1.0983  0.8848
 6940SOL    HW232454   3.399   4.233   3.546 -0.1450 -0.1558  2.0489
 6941SOL     OW32455   4.723   0.942   9.422  0.8498 -0.1448  0.0371
 6941SOL    HW132456   0.082   0.963   9.420  0.9402 -0.3332  1.9002
 6941SOL    HW232457   4.723   0.850   9.395  0.6221  0.2338 -1.2616
 6942SOL     OW32458   0.675   0.321   2.452  0.5175 -0.4909  0.4745
 6942SOL    HW132459   0.728   0.388   2.496 -1.4195  3.4003 -3.0826
 6942SOL    HW232460   0.744   0.261   2.422  1.0387  0.1701  0.3390
 6943SOL     OW32461   0.358   2.284  15.715 -0.1759  0.2713  0.2066
 6943SOL    HW132462   0.437   2.230  15.720 -0.3228  0.0444  0.0976
 6943SOL    HW232463   0.333   2.286  15.623 -0.5743  0.9116  0.3224
 6944SOL     OW32464   3.454   0.047   4.180  0.2049 -0.1784  0.6142
 6944SOL    HW132465   3.537   0.035   4.226  0.0428 -2.5858  0.2913
 6944SOL    HW232466   3.420   4.693   4.178  0.2559 -0.1885  0.1626
 6945SOL     OW32467   3.756   4.487   5.421  0.1657 -0.0834 -0.7197
 6945SOL    HW132468   3.721   4.576   5.428 -4.4893 -1.9791  0.1180
 6945SOL    HW232469   3.850   4.491   5.405  0.3618  0.7637  0.6834
 6946SOL     OW32470   2.399   1.129  15.395 -0.5419  0.5625  0.7827
 6946SOL    HW132471   2.413   1.045  15.439  2.8815 -0.2257 -1.8027
 6946SOL    HW232472   2.454   1.110  15.319  0.6459  0.3964  1.6724
 6947SOL     OW32473   2.971   3.556  13.869 -0.8062  0.2848 -0.4653
 6947SOL    HW132474   3.004   3.476  13.830 -0.2171  0.2811  0.0324
 6947SOL    HW232475   3.026   3.577  13.945 -0.5336 -0.2639 -0.5128
 6948SOL     OW32476   3.663   3.067   2.023  0.5691  0.0747 -0.4148
 6948SOL    HW132477   3.671   3.137   1.958  2.5250  1.3935  1.2106
 6948SOL    HW232478   3.576   3.093   2.052  1.1248  1.0757  0.3757
 6949SOL     OW32479   3.832   2.323   1.024  0.1378  0.4554  0.2394
 6949SOL    HW132480   3.856   2.323   0.931  0.7066  0.8630  0.3872
 6949SOL    HW232481   3.886   2.396   1.055 -2.0577  2.9091 -1.6283
 6950SOL     OW32482   1.564   2.561   5.821  0.1099 -0.3608  0.1521
 6950SOL    HW132483   1.637   2.519   5.776 -0.1033 -0.8767  0.2800
 6950SOL    HW232484   1.571   2.534   5.912 -0.7107 -0.9604  0.0391
 6951SOL     OW32485   4.577   1.482   0.001  0.3917  0.8958 -0.2751
 6951SOL    HW132486   4.534   1.566   0.017 -1.4933 -0.2072  0.5019
 6951SOL    HW232487   4.634   1.469   0.076 -1.1256  1.6255  1.0120
 6952SOL     OW32488   0.205   2.794   9.425  0.2833 -0.4837  0.2847
 6952SOL    HW132489   0.196   2.819   9.517 -1.0251 -1.9157  0.5394
 6952SOL    HW232490   0.213   2.699   9.429  0.0686 -0.4780  0.8162
 6953SOL     OW32491   1.348   1.635   9.842  0.3699  0.1319 -0.3861
 6953SOL    HW132492   1.272   1.589   9.878  0.5433  0.8514  0.8736
 6953SOL    HW232493   1.308   1.711   9.799  1.8236  0.9072 -0.3765
 6954SOL     OW32494   0.185   2.968   4.853  0.0800  0.3398 -0.0318
 6954SOL    HW132495   0.110   2.918   4.819  0.4856 -1.1552  1.2595
 6954SOL    HW232496   0.243   2.894   4.871  0.3550  0.5459 -0.0751
 6955SOL     OW32497   1.220   4.107   1.639  0.2364  0.5921 -0.4709
 6955SOL    HW132498   1.128   4.125   1.621  1.0463  5.0825 -0.2220
 6955SOL    HW232499   1.234   4.031   1.583  2.1843  0.2484  0.4679
 6956SOL     OW32500   0.631   4.689  13.274 -0.5350 -0.2475  0.5995
 6956SOL    HW132501   0.723   4.706  13.291 -0.1747 -0.1638 -1.4297
 6956SOL    HW232502   0.597   0.041  13.253 -1.2408 -1.0948 -1.7947
 6957SOL     OW32503   3.144   1.693   5.838  0.3894  0.1646 -0.9768
 6957SOL    HW132504   3.172   1.603   5.855 -1.3839 -0.2501 -0.2131
 6957SOL    HW232505   3.214   1.725   5.782  0.5730  1.2673 -0.1075
 6958SOL     OW32506   2.809   4.370   4.084 -0.0590 -0.2442 -0.0588
 6958SOL    HW132507   2.853   4.378   4.169  1.0031  0.6023 -0.6855
 6958SOL    HW232508   2.762   4.453   4.086 -0.0158 -0.2698  1.7084
 6959SOL     OW32509   1.637   0.919   3.364 -0.2576  0.2634 -0.2485
 6959SOL    HW132510   1.640   1.013   3.347 -0.6291  0.3622  0.2497
 6959SOL    HW232511   1.716   0.885   3.322 -0.3371 -0.6204  0.3242
 6960SOL     OW32512   1.930   4.525   3.131  0.1133  0.0710  0.0924
 6960SOL    HW132513   1.924   4.430   3.120 -1.8220  0.2299 -0.3179
 6960SOL    HW232514   1.935   4.526   3.227  0.1532 -0.5083  0.0941
 6961SOL     OW32515   2.517   2.056  17.585  0.7150  0.6802  0.2641
 6961SOL    HW132516   2.579   1.987  17.610  1.1354 -0.2478 -3.3603
 6961SOL    HW232517   2.528   2.129  17.646  1.2581 -0.1418  1.1557
 6962SOL     OW32518   4.367   3.053   7.357 -0.0643  0.0568  0.0853
 6962SOL    HW132519   4.462   3.045   7.358 -0.1837 -1.3720  1.6201
 6962SOL    HW232520   4.355   3.145   7.336 -1.9188  0.0183  0.9552
 6963SOL     OW32521   3.154   3.278   0.547 -0.4798 -0.2509 -0.1034
 6963SOL    HW132522   3.209   3.268   0.469 -1.3510 -1.0288 -0.6185
 6963SOL    HW232523   3.194   3.327   0.618 -1.1411 -1.2516  0.9594
 6964SOL     OW32524   1.721   0.142   8.436 -0.5969 -0.4633 -0.0403
 6964SOL    HW132525   1.796   0.140   8.495  0.6591 -0.7751 -1.6387
 6964SOL    HW232526   1.751   0.209   8.375  2.0276  0.3009  2.1080
 6965SOL     OW32527   4.188   2.051   7.620  0.1120 -0.1544 -0.3679
 6965SOL    HW132528   4.156   2.090   7.701 -0.5368 -0.0051 -0.6999
 6965SOL    HW232529   4.270   2.097   7.600  0.5911 -0.6441  0.4678
 6966SOL     OW32530   1.707   3.018   0.220  0.9474  0.3466 -0.1041
 6966SOL    HW132531   1.639   3.062   0.271  1.5416  1.2396 -0.0863
 6966SOL    HW232532   1.707   3.076   0.145 -2.2246 -0.2487 -0.5694
 6967SOL     OW32533   2.455   3.360  13.347 -0.5146  0.7634  0.0338
 6967SOL    HW132534   2.534   3.315  13.376 -0.8465  1.1200  1.4712
 6967SOL    HW232535   2.441   3.417  13.422 -0.9649 -0.1600  0.6650
 6968SOL     OW32536   0.097   1.404   8.319  0.6909 -0.0389  0.8436
 6968SOL    HW132537   0.191   1.413   8.304  0.8019  0.5854  1.8783
 6968SOL    HW232538   0.071   1.487   8.278  2.4932  0.4547  0.7151
 6969SOL     OW32539   2.082   4.435  13.947 -0.1330 -0.0869  0.0856
 6969SOL    HW132540   2.003   4.387  13.973 -0.2991  1.5525  2.5513
 6969SOL    HW232541   2.125   4.354  13.921  0.0360 -0.2072  0.7603
 6970SOL     OW32542   2.362   1.454   0.489 -0.3977  0.6180  0.6427
 6970SOL    HW132543   2.299   1.481   0.422 -0.3565  1.9754  1.1532
 6970SOL    HW232544   2.302   1.450   0.564  0.2604  0.0202  1.1385
 6971SOL     OW32545   0.483   2.634   5.730  0.0634  0.0727  0.0741
 6971SOL    HW132546   0.501   2.726   5.748 -1.9468  0.2561  1.1156
 6971SOL    HW232547   0.390   2.640   5.708 -0.7641  0.3111  3.6063
 6972SOL     OW32548   0.616   1.774   7.634 -0.3186  0.7835 -0.1354
 6972SOL    HW132549   0.600   1.692   7.681 -0.1119 -0.1006 -1.6066
 6972SOL    HW232550   0.711   1.783   7.636 -0.0426 -1.8049 -0.7519
 6973SOL     OW32551   3.128   0.030   4.294  0.2379  0.4730  0.8122
 6973SOL    HW132552   3.142   4.680   4.335 -0.0776 -0.3800 -0.8566
 6973SOL    HW232553   3.041   0.048   4.329 -0.5254 -0.5139 -0.6039
 6974SOL     OW32554   2.395   4.133   9.104 -0.9554  0.3587  0.1427
 6974SOL    HW132555   2.310   4.098   9.077 -1.4988  0.9592  1.0864
 6974SOL    HW232556   2.386   4.134   9.199 -0.9461 -1.2540  0.1519
 6975SOL     OW32557   0.993   0.548  14.294  0.1222  0.2761 -0.3349
 6975SOL    HW132558   0.980   0.606  14.369 -2.0983  1.0261 -1.3117
 6975SOL    HW232559   1.073   0.587  14.258  1.3730  0.4980  2.7049
 6976SOL     OW32560   0.886   0.147   1.265  0.5185  0.6096  0.0040
 6976SOL    HW132561   0.958   0.084   1.257 -1.3101 -1.4602 -0.0365
 6976SOL    HW232562   0.862   0.137   1.173 -0.3299 -0.9917  0.3959
 6977SOL     OW32563   3.107   1.458   4.529  0.4887  0.2884  0.8310
 6977SOL    HW132564   3.165   1.520   4.484 -0.8217  0.2962 -0.8495
 6977SOL    HW232565   3.083   1.516   4.601  0.7887  0.0721  1.1052
 6978SOL     OW32566   2.116   3.864   3.921 -0.0171  0.1259  0.3565
 6978SOL    HW132567   2.167   3.928   3.872 -0.4824 -0.3799 -0.7950
 6978SOL    HW232568   2.184   3.798   3.935  1.2312  0.9608 -1.8497
 6979SOL     OW32569   1.536   0.573   8.351 -0.3651 -0.1107 -0.0533
 6979SOL    HW132570   1.482   0.652   8.359 -0.3139 -0.1211  0.3606
 6979SOL    HW232571   1.483   0.493   8.349 -1.1394  0.3182  3.3613
 6980SOL     OW32572   4.161   1.758   9.075 -0.6753 -0.5141 -0.3949
 6980SOL    HW132573   4.068   1.737   9.064 -0.8135  0.4928 -1.0773
 6980SOL    HW232574   4.168   1.773   9.169  1.0455  0.4747 -0.6794
 6981SOL     OW32575   0.505   3.586  13.162 -0.7020  0.2908 -0.1834
 6981SOL    HW132576   0.440   3.549  13.222 -1.6011  1.4378 -0.4519
 6981SOL    HW232577   0.478   3.678  13.158 -2.2312 -0.0950  1.4700
 6982SOL     OW32578   1.619   0.869  10.836  0.5081  0.2057  0.1995
 6982SOL    HW132579   1.619   0.964  10.834  2.0569  0.2282  1.0947
 6982SOL    HW232580   1.703   0.847  10.795 -0.2037  2.4134 -2.3823
 6983SOL     OW32581   2.536   2.022   7.294 -0.3765  0.2318  0.1970
 6983SOL    HW132582   2.463   2.077   7.265 -0.9036 -0.5317  0.0640
 6983SOL    HW232583   2.495   1.936   7.296 -1.1988  0.6008 -0.8498
 6984SOL     OW32584   0.678   2.945  11.570 -0.0402  0.0607  0.1523
 6984SOL    HW132585   0.638   3.020  11.528  0.6214  0.5789  0.4301
 6984SOL    HW232586   0.743   2.917  11.505  0.2132 -0.6673  0.7125
 6985SOL     OW32587   2.617   0.265   3.218  0.4709 -0.2812 -0.2132
 6985SOL    HW132588   2.703   0.261   3.259  0.6401  3.0397 -0.3091
 6985SOL    HW232589   2.590   0.347   3.258 -0.6464 -0.1790 -1.1882
 6986SOL     OW32590   3.113   0.046  10.419  0.2229 -0.4129  0.4757
 6986SOL    HW132591   3.079   0.066  10.507 -1.5142 -2.3026  0.2303
 6986SOL    HW232592   3.032   0.007  10.387  1.6403 -2.1909 -0.9272
 6987SOL     OW32593   0.528   0.886   8.728 -0.8438  0.1693 -1.0771
 6987SOL    HW132594   0.514   0.794   8.711 -0.0616  0.0470 -1.0832
 6987SOL    HW232595   0.495   0.897   8.817  1.3513  1.0946 -0.3593
 6988SOL     OW32596   4.533   3.196   4.052  0.3142 -0.0970 -0.3300
 6988SOL    HW132597   4.522   3.209   4.146  0.6629  3.0564 -0.7216
 6988SOL    HW232598   4.475   3.258   4.007 -1.6759  1.0668  3.8312
 6989SOL     OW32599   2.381   3.465   2.170  0.7272 -0.5692  0.4060
 6989SOL    HW132600   2.433   3.540   2.141  1.1643 -1.5224 -1.2514
 6989SOL    HW232601   2.299   3.507   2.197  1.5676  1.4746 -0.2137
 6990SOL     OW32602   1.804   1.973   9.564  0.3654  0.1060 -0.2604
 6990SOL    HW132603   1.717   1.964   9.602  0.0515  0.5656 -0.8738
 6990SOL    HW232604   1.856   1.943   9.639 -1.4031 -1.5034  0.2999
 6991SOL     OW32605   0.265   1.982   6.577 -0.3420  0.1173  0.1645
 6991SOL    HW132606   0.327   2.048   6.546 -1.3619  0.5242 -1.0184
 6991SOL    HW232607   0.192   1.985   6.515 -1.1806 -0.4100  1.1274
 6992SOL     OW32608   4.009   1.629  16.906  0.4183 -0.0424 -0.6965
 6992SOL    HW132609   4.092   1.620  16.952 -0.7203 -1.2306  1.1314
 6992SOL    HW232610   3.962   1.675  16.976  0.3147  0.6352 -1.2076
 6993SOL     OW32611   0.415   3.636   8.202 -0.1053  0.0977 -0.6252
 6993SOL    HW132612   0.348   3.569   8.191  1.1778 -1.3798  0.5370
 6993SOL    HW232613   0.429   3.633   8.296  3.4455  1.0611 -1.1260
 6994SOL     OW32614   4.662   2.445  17.197  0.0568 -0.4950 -0.5289
 6994SOL    HW132615   4.665   2.539  17.212 -0.6758 -0.2852 -1.7094
 6994SOL    HW232616   4.650   2.420  17.289  0.6707  1.2107  0.0180
 6995SOL     OW32617   3.534   1.142  11.868  0.1878 -0.2790 -0.3502
 6995SOL    HW132618   3.447   1.154  11.829 -0.8838  1.1700  2.4676
 6995SOL    HW232619   3.528   1.048  11.886 -2.2284  0.5877  3.2781
 6996SOL     OW32620   0.505   3.383   6.664 -0.1148  0.0270 -0.1069
 6996SOL    HW132621   0.507   3.302   6.614 -2.2975  0.2302 -0.5317
 6996SOL    HW232622   0.496   3.356   6.755  1.9844 -0.2069  0.0456
 6997SOL     OW32623   1.176   3.258   1.833  0.1537 -0.2620  0.4092
 6997SOL    HW132624   1.219   3.296   1.910 -2.7231  3.3943  0.2177
 6997SOL    HW232625   1.089   3.251   1.872 -0.4801  0.8001 -0.8409
 6998SOL     OW32626   3.862   2.208   3.970  0.2637 -0.0414 -0.1221
 6998SOL    HW132627   3.875   2.254   3.887  1.1948  2.6783  1.5481
 6998SOL    HW232628   3.826   2.127   3.933  1.2886 -0.6335  0.1818
 6999SOL     OW32629   0.159   1.346   5.467  0.1722  0.1314  0.1823
 6999SOL    HW132630   0.186   1.276   5.408 -0.3086 -0.5105  0.7195
 6999SOL    HW232631   0.244   1.365   5.505  0.0074  1.8362 -0.2920
 7000SOL     OW32632   3.532   1.366  15.978 -0.6247  0.2716 -0.0137
 7000SOL    HW132633   3.438   1.368  15.995 -0.6145  1.1940 -0.0783
 7000SOL    HW232634   3.532   1.271  15.972 -0.3327  0.1496  1.7406
 7001SOL     OW32635   0.292   4.388   2.263 -0.2738 -0.5927  0.4400
 7001SOL    HW132636   0.349   4.452   2.305 -1.0731  0.0142  0.5951
 7001SOL    HW232637   0.267   4.352   2.348 -1.6533  2.9985  1.5093
 7002SOL     OW32638   1.506   0.280   9.344 -0.3070  0.1303 -0.1849
 7002SOL    HW132639   1.519   0.370   9.312  3.2115 -0.3163  0.0913
 7002SOL    HW232640   1.571   0.285   9.414 -0.7111  2.4133  0.0522
 7003SOL     OW32641   1.307   1.144   1.904 -0.2088 -0.0595  0.2790
 7003SOL    HW132642   1.376   1.206   1.926 -0.5420  0.6853 -0.7888
 7003SOL    HW232643   1.357   1.075   1.862  0.9129 -0.9598  3.0839
 7004SOL     OW32644   1.397   2.802   8.563  0.2295  0.5296  0.2566
 7004SOL    HW132645   1.457   2.858   8.514 -0.2819  1.5051  0.7402
 7004SOL    HW232646   1.462   2.745   8.603 -0.6625 -1.1519 -0.7137
 7005SOL     OW32647   2.774   0.120  12.800 -0.3667 -0.3990  0.0301
 7005SOL    HW132648   2.780   0.077  12.715  0.3965 -1.1869  0.4681
 7005SOL    HW232649   2.820   0.202  12.783 -0.0705 -0.8633 -1.4037
 7006SOL     OW32650   4.632   1.777  17.120  0.0524 -0.4298  0.7367
 7006SOL    HW132651   4.721   1.807  17.100 -0.7170  0.5719 -1.2513
 7006SOL    HW232652   4.615   1.831  17.197 -0.5006  1.3776 -0.6589
 7007SOL     OW32653   1.511   4.559   6.416  0.5217 -0.9152 -0.7829
 7007SOL    HW132654   1.576   4.603   6.361 -0.8316  3.1896  0.8323
 7007SOL    HW232655   1.439   4.622   6.427  1.7615  0.1213  1.4262
 7008SOL     OW32656   0.376   2.171   6.310 -0.6324  0.1745 -0.4146
 7008SOL    HW132657   0.289   2.173   6.269 -0.2778  0.4155 -1.1486
 7008SOL    HW232658   0.416   2.099   6.261 -0.4700 -1.4291  2.0750
 7009SOL     OW32659   0.402   0.465  15.172  0.2908 -0.1281  0.0252
 7009SOL    HW132660   0.406   0.430  15.083 -3.5196 -1.4669  0.3774
 7009SOL    HW232661   0.312   0.497  15.164 -0.0385 -1.2675 -0.8054
 7010SOL     OW32662   1.097   1.036   7.271  0.0318 -0.2413 -0.3535
 7010SOL    HW132663   1.029   0.985   7.316 -1.3458  1.8185 -0.1232
 7010SOL    HW232664   1.084   0.994   7.185 -0.2505  2.2985 -1.5538
 7011SOL     OW32665   2.726   0.706   8.320  0.1693 -0.4070 -0.0412
 7011SOL    HW132666   2.650   0.680   8.372 -1.1932 -0.3916 -2.0054
 7011SOL    HW232667   2.693   0.698   8.231  1.4154  0.0854 -0.5538
 7012SOL     OW32668   0.877   1.474   9.496 -1.2512 -0.0252 -0.2494
 7012SOL    HW132669   0.942   1.457   9.428 -1.0239 -0.2622  0.0242
 7012SOL    HW232670   0.924   1.441   9.573 -0.5282  0.3203 -0.5500
 7013SOL     OW32671   1.659   1.395   7.750 -0.1239  0.1119  0.0120
 7013SOL    HW132672   1.675   1.487   7.729  1.0155  0.4523  2.3255
 7013SOL    HW232673   1.606   1.359   7.680  0.2234 -0.0584 -0.1604
 7014SOL     OW32674   3.636   1.954   8.850  0.0356  0.7386  0.1230
 7014SOL    HW132675   3.681   1.899   8.787  2.4113  2.3756  0.3991
 7014SOL    HW232676   3.553   1.907   8.863  0.4752  1.1923  4.7588
 7015SOL     OW32677   0.910   1.293  13.445  0.2341  0.1637  0.5873
 7015SOL    HW132678   0.936   1.332  13.361 -2.0745  0.4130 -0.0057
 7015SOL    HW232679   0.905   1.199  13.424 -2.0734  0.6936 -1.2610
 7016SOL     OW32680   2.046   3.205  12.984 -0.0270  0.4438 -0.2301
 7016SOL    HW132681   2.014   3.183  12.897 -0.1623  0.8515 -0.2858
 7016SOL    HW232682   2.131   3.242  12.962  0.3738  0.0126  0.5979
 7017SOL     OW32683   1.637   4.250  12.477 -0.6414  0.2948  0.2351
 7017SOL    HW132684   1.618   4.180  12.539 -1.2158  0.4991  0.2912
 7017SOL    HW232685   1.645   4.321  12.541  1.1690  0.9447 -0.7113
 7018SOL     OW32686   1.214   3.562   1.816 -0.2217 -0.4836  0.4856
 7018SOL    HW132687   1.187   3.568   1.725 -1.4820  0.7004  0.9366
 7018SOL    HW232688   1.279   3.492   1.804 -0.2348 -0.8631  2.5997
 7019SOL     OW32689   0.702   2.055  13.197  0.1920  0.5776 -0.1789
 7019SOL    HW132690   0.672   2.032  13.110  1.7871  1.7653 -1.0426
 7019SOL    HW232691   0.656   2.139  13.203 -0.0702  0.4171  0.0384
 7020SOL     OW32692   2.377   2.581   8.562  0.1161  0.0754 -0.0769
 7020SOL    HW132693   2.447   2.600   8.623  0.1328 -0.3604  0.0423
 7020SOL    HW232694   2.310   2.551   8.623  0.4289  1.4191  0.9174
 7021SOL     OW32695   2.848   2.929   2.058  0.1377  0.3962  0.2877
 7021SOL    HW132696   2.923   2.986   2.079  0.0153  0.3133  0.9540
 7021SOL    HW232697   2.784   2.983   2.012  1.1754  1.0901 -0.3478
 7022SOL     OW32698   3.772   3.136   8.848 -0.4045  0.2900 -0.1888
 7022SOL    HW132699   3.743   3.081   8.921 -0.0451 -1.1877 -1.1567
 7022SOL    HW232700   3.725   3.093   8.777 -0.9030  0.6387 -0.0689
 7023SOL     OW32701   3.458   1.292   3.187  0.4205 -0.2796 -0.1675
 7023SOL    HW132702   3.413   1.376   3.180 -0.6366 -0.5583  3.1562
 7023SOL    HW232703   3.379   1.241   3.172  1.4117 -2.0064  0.5028
 7024SOL     OW32704   3.416   3.229   2.042  0.1802  0.8103  0.2914
 7024SOL    HW132705   3.348   3.257   1.980 -0.7750  3.0780  2.3830
 7024SOL    HW232706   3.433   3.315   2.080  2.5630  1.6503 -2.6217
 7025SOL     OW32707   3.394   0.155  10.591  0.5641 -0.0821 -0.0398
 7025SOL    HW132708   3.384   0.061  10.598 -1.7007  0.3873  2.7310
 7025SOL    HW232709   3.469   0.177  10.536 -0.0313 -0.2824 -0.9371
 7026SOL     OW32710   2.798   4.631   6.765  1.0427 -0.4970  0.1675
 7026SOL    HW132711   2.786   4.536   6.770 -1.0415 -0.1449  2.1251
 7026SOL    HW232712   2.838   4.648   6.850  0.9976 -3.0868  0.7101
 7027SOL     OW32713   3.388   2.739   5.454 -0.0567 -0.8306 -0.2881
 7027SOL    HW132714   3.473   2.696   5.460  0.0505 -0.3892  1.2390
 7027SOL    HW232715   3.417   2.824   5.421 -1.4718 -1.1178 -2.2675
 7028SOL     OW32716   0.998   1.714   3.962 -0.5505 -0.1945  0.1875
 7028SOL    HW132717   0.932   1.648   3.983 -0.5014 -0.7252 -1.2926
 7028SOL    HW232718   0.950   1.795   3.976  1.5223  0.8374  1.3853
 7029SOL     OW32719   0.304   0.487   2.691 -0.1903  0.2201  0.1022
 7029SOL    HW132720   0.373   0.490   2.624 -0.2027  0.0895  0.0834
 7029SOL    HW232721   0.320   0.579   2.713  0.3461  0.3446 -0.8047
 7030SOL     OW32722   1.969   0.063   5.595  0.5044 -0.7223  0.3946
 7030SOL    HW132723   1.946   0.153   5.571  3.7715  0.8759  3.2156
 7030SOL    HW232724   2.060   0.053   5.566  0.5773  1.6240 -0.1891
 7031SOL     OW32725   3.451   0.749   6.361  0.3504  0.0637  0.2234
 7031SOL    HW132726   3.485   0.757   6.272 -0.4711  2.4276  0.1214
 7031SOL    HW232727   3.534   0.760   6.406  0.3298 -0.2313  0.3381
 7032SOL     OW32728   4.043   2.452   7.844 -0.0649  0.1301 -0.3718
 7032SOL    HW132729   3.976   2.500   7.894 -0.0486 -1.0335  0.7695
 7032SOL    HW232730   4.033   2.478   7.753 -4.6455 -2.5487 -0.6473
 7033SOL     OW32731   1.222   0.158   4.760 -0.1120 -0.8364  0.2333
 7033SOL    HW132732   1.238   0.158   4.666 -0.1660 -0.6730  0.2239
 7033SOL    HW232733   1.293   0.099   4.785 -0.2016 -1.2777 -0.5628
 7034SOL     OW32734   4.363   3.677   7.968 -0.2143  0.0344 -0.2050
 7034SOL    HW132735   4.337   3.585   7.973  0.0084 -0.1103 -1.9942
 7034SOL    HW232736   4.391   3.690   8.059  3.3749 -3.2190 -0.8575
 7035SOL     OW32737   1.937   4.480   9.189 -0.2584  0.2773  0.3009
 7035SOL    HW132738   1.967   4.499   9.100 -0.5040  1.1454  0.4094
 7035SOL    HW232739   1.845   4.505   9.186 -0.4931 -0.5896  0.2687
 7036SOL     OW32740   1.178   0.302   0.753  0.4380  0.1872 -0.1457
 7036SOL    HW132741   1.128   0.233   0.797  0.4565  1.6667  2.2593
 7036SOL    HW232742   1.126   0.321   0.675 -1.7559 -1.0847  1.0227
 7037SOL     OW32743   3.569   3.192   8.615  0.5157 -0.2947 -0.2373
 7037SOL    HW132744   3.521   3.253   8.559 -0.6251 -1.3952 -0.4742
 7037SOL    HW232745   3.519   3.111   8.603 -0.1784  0.1503 -0.3255
 7038SOL     OW32746   4.626   2.845   5.411 -0.4096 -0.3160 -0.2074
 7038SOL    HW132747   4.566   2.906   5.454  1.9355  1.4913  0.4587
 7038SOL    HW232748   4.559   2.786   5.376 -1.7734  1.6298 -0.8606
 7039SOL     OW32749   4.597   2.784   1.731 -0.1303  0.0555 -0.3194
 7039SOL    HW132750   4.667   2.795   1.794  1.6420  0.8470 -2.4356
 7039SOL    HW232751   4.622   2.715   1.669  1.2452  1.5696 -1.4681
 7040SOL     OW32752   4.708   3.940   5.822  0.2139  0.4558  0.0489
 7040SOL    HW132753   4.672   3.928   5.910  4.1836 -3.0333  1.1936
 7040SOL    HW232754   4.712   3.845   5.814 -0.4992  0.5373 -1.2383
 7041SOL     OW32755   0.734   4.333   8.920  0.6330  0.0915  0.2047
 7041SOL    HW132756   0.823   4.354   8.892  0.0389  0.3315 -1.5486
 7041SOL    HW232757   0.723   4.393   8.993 -0.0468  0.3225 -0.0871
 7042SOL     OW32758   0.430   3.836  11.515  0.4775 -0.0661  0.3892
 7042SOL    HW132759   0.489   3.823  11.589 -1.4804 -1.3066  1.7201
 7042SOL    HW232760   0.438   3.758  11.460  0.5873  0.5540 -0.4758
 7043SOL     OW32761   3.468   4.454   8.125 -0.4980  0.2075 -0.3692
 7043SOL    HW132762   3.382   4.417   8.147 -0.2838  0.7461  1.3739
 7043SOL    HW232763   3.514   4.373   8.106 -0.5228 -0.2653  1.5078
 7044SOL     OW32764   0.886   1.545   6.028 -0.7978 -0.2512 -0.1853
 7044SOL    HW132765   0.850   1.617   6.080  2.8536 -0.1303  2.1769
 7044SOL    HW232766   0.820   1.478   6.012 -0.9707 -0.1586  0.1332
 7045SOL     OW32767   2.150   0.987   8.388 -0.2423 -0.2456 -0.1892
 7045SOL    HW132768   2.122   0.928   8.317  0.8097 -1.2335  0.2185
 7045SOL    HW232769   2.101   0.953   8.463 -1.9665  1.8975 -0.3346
 7046SOL     OW32770   2.698   0.600   3.146 -0.2776  0.0170 -0.0829
 7046SOL    HW132771   2.664   0.676   3.192  0.6637  0.1048  0.4653
 7046SOL    HW232772   2.631   0.582   3.080  2.5065 -3.1983 -2.0174
 7047SOL     OW32773   1.168   0.521   1.742  0.0072 -0.0878  0.3814
 7047SOL    HW132774   1.107   0.467   1.792  1.1700 -0.5415  1.3152
 7047SOL    HW232775   1.174   0.475   1.659  0.5290  0.6789 -0.0012
 7048SOL     OW32776   2.940   4.529   5.751 -0.1596 -0.3805 -0.6379
 7048SOL    HW132777   2.988   4.519   5.669 -0.7956 -0.4567 -0.9957
 7048SOL    HW232778   3.016   4.539   5.808  0.3834 -3.1979 -0.8516
 7049SOL     OW32779   4.583   2.314   4.619  0.2516 -0.5019 -0.7941
 7049SOL    HW132780   4.642   2.275   4.683  3.0923  2.3669 -1.6491
 7049SOL    HW232781   4.498   2.279   4.645  1.2081 -1.7668  0.6251
 7050SOL     OW32782   2.669   1.191   6.640 -0.0656 -0.4269  0.8014
 7050SOL    HW132783   2.582   1.179   6.678 -1.1975  1.3441 -1.1695
 7050SOL    HW232784   2.700   1.271   6.682  0.2287  0.2563 -0.7200
 7051SOL     OW32785   3.137   1.218   8.630 -0.2690 -0.7019 -0.3657
 7051SOL    HW132786   3.043   1.205   8.637 -0.4485  1.1977  0.6774
 7051SOL    HW232787   3.152   1.222   8.536  2.9383  1.4336  0.2241
 7052SOL     OW32788   2.213   1.188   6.361 -0.0204  0.1849  0.0853
 7052SOL    HW132789   2.192   1.112   6.306 -0.1342  0.1985  0.1104
 7052SOL    HW232790   2.268   1.146   6.428  1.6534 -0.6893 -1.8334
 7053SOL     OW32791   2.333   1.826   7.414  0.0712  0.2942  1.1254
 7053SOL    HW132792   2.392   1.810   7.488  1.7487  0.5476 -0.1505
 7053SOL    HW232793   2.375   1.775   7.344 -0.5981 -2.5341  2.7647
 7054SOL     OW32794   2.147   0.227   1.642 -0.5159  0.0826  0.1396
 7054SOL    HW132795   2.140   0.308   1.592  2.7106 -1.8436 -3.4029
 7054SOL    HW232796   2.155   0.170   1.566  1.1179  2.8063 -1.7696
 7055SOL     OW32797   1.259   2.712   7.293 -0.6197 -0.2733 -0.0833
 7055SOL    HW132798   1.246   2.626   7.254 -0.5297  0.2526 -1.2738
 7055SOL    HW232799   1.337   2.733   7.241 -1.0362  0.8961 -0.2339
 7056SOL     OW32800   1.823   3.624   8.608 -0.2417  0.2592  0.5193
 7056SOL    HW132801   1.875   3.664   8.538 -1.8160 -1.0303 -1.3730
 7056SOL    HW232802   1.743   3.623   8.556  0.2806 -0.6216 -0.2564
 7057SOL     OW32803   1.005   4.708  15.310  0.2300  0.2716  0.1005
 7057SOL    HW132804   1.004   0.034  15.237 -0.7618  1.1480  0.8494
 7057SOL    HW232805   1.098   4.703  15.333  0.1220  1.9097  0.8548
 7058SOL     OW32806   0.550   3.176   3.499  0.2034  0.5657 -0.1039
 7058SOL    HW132807   0.644   3.162   3.505  0.4783  2.2013 -0.7065
 7058SOL    HW232808   0.527   3.127   3.579  1.5122  0.9467  0.4909
 7059SOL     OW32809   1.847   1.189   6.325  0.3889 -0.0176 -0.0130
 7059SOL    HW132810   1.908   1.182   6.252  3.1327 -1.0717  2.3922
 7059SOL    HW232811   1.907   1.169   6.396  0.7571  1.0465 -0.0187
 7060SOL     OW32812   1.740   0.761   9.225  0.1867  0.6788 -0.0740
 7060SOL    HW132813   1.775   0.794   9.142 -1.7220  0.4278 -0.9867
 7060SOL    HW232814   1.779   0.811   9.296 -0.1625  0.5665  0.1955
 7061SOL     OW32815   2.193   4.018  16.286  0.1391 -0.3608  0.3715
 7061SOL    HW132816   2.144   4.037  16.206  1.3581 -0.1846 -0.3235
 7061SOL    HW232817   2.138   3.951  16.326  0.9972 -0.1069  1.9745
 7062SOL     OW32818   2.388   0.085  10.881  0.1423  0.2018  0.0239
 7062SOL    HW132819   2.481   0.107  10.875  0.2643  0.2378  2.2048
 7062SOL    HW232820   2.388   4.727  10.903  1.6102  0.0854 -0.4501
 7063SOL     OW32821   0.927   4.487   2.357 -0.5271  0.4998  0.0161
 7063SOL    HW132822   0.920   4.474   2.451 -1.0372 -1.2904 -0.2739
 7063SOL    HW232823   1.020   4.492   2.337 -0.6306 -1.6665 -0.9426
 7064SOL     OW32824   1.888   3.754   2.887  0.7319 -0.1507  0.2115
 7064SOL    HW132825   1.881   3.849   2.887 -0.3879 -0.2367 -2.1943
 7064SOL    HW232826   1.838   3.736   2.807 -1.8840  0.2944  1.7464
 7065SOL     OW32827   3.813   4.365   4.277 -0.4740 -0.0174  0.2493
 7065SOL    HW132828   3.819   4.305   4.203  0.2183 -1.7097  1.6736
 7065SOL    HW232829   3.821   4.446   4.227  1.0470 -0.4918 -0.2774
 7066SOL     OW32830   3.633   3.511   6.579 -0.1450  0.0300  0.6490
 7066SOL    HW132831   3.655   3.599   6.609 -0.9868  0.4899 -0.0811
 7066SOL    HW232832   3.543   3.512   6.609 -0.5790 -0.5321 -0.6623
 7067SOL     OW32833   4.582   2.562   1.451 -0.1878 -0.3803 -0.5720
 7067SOL    HW132834   4.605   2.508   1.527  0.9554 -1.5911 -1.7612
 7067SOL    HW232835   4.522   2.509   1.400  0.3853 -1.7985  0.2264
 7068SOL     OW32836   0.598   4.719   9.895 -0.3191  0.1604 -0.4287
 7068SOL    HW132837   0.628   4.692   9.981  0.4762  0.4218 -0.6293
 7068SOL    HW232838   0.541   0.059   9.915  2.2883  1.6839  1.2671
 7069SOL     OW32839   2.868   2.294   4.648 -0.1517  0.1117  0.3156
 7069SOL    HW132840   2.901   2.341   4.571 -2.6171  1.3926  0.0255
 7069SOL    HW232841   2.860   2.205   4.614  0.2455  1.3963 -3.2011
 7070SOL     OW32842   1.298   1.336   8.762  0.4606  0.1129  0.0721
 7070SOL    HW132843   1.366   1.314   8.826 -0.9100 -1.9171  0.8382
 7070SOL    HW232844   1.328   1.291   8.683  2.1959  3.5214 -1.2182
 7071SOL     OW32845   2.841   2.612   8.522  0.4167  0.6368 -0.0328
 7071SOL    HW132846   2.854   2.519   8.539  1.1529  0.4606 -1.6428
 7071SOL    HW232847   2.817   2.615   8.430  0.5187  1.2249 -0.0372
 7072SOL     OW32848   0.917   3.251  10.501  0.3561  0.4617  0.0052
 7072SOL    HW132849   0.861   3.173  10.502 -0.6436  1.1689 -1.2973
 7072SOL    HW232850   0.853   3.322  10.494  1.6156  1.8569  2.5502
 7073SOL     OW32851   4.330   0.166  15.770 -0.5870 -0.6190  0.2694
 7073SOL    HW132852   4.279   0.214  15.835 -0.1847 -0.6709  0.6209
 7073SOL    HW232853   4.381   0.113  15.831  2.4724  0.3052 -1.5011
 7074SOL     OW32854   4.450   4.092   9.161 -0.2623  0.4308 -0.1510
 7074SOL    HW132855   4.400   4.153   9.106 -1.9267 -1.9914 -1.3089
 7074SOL    HW232856   4.413   4.011   9.126  1.9456 -1.0508  1.0087
 7075SOL     OW32857   3.637   3.175   4.945  0.3838 -0.0521  0.2002
 7075SOL    HW132858   3.637   3.271   4.946 -1.5980 -0.0036 -1.5470
 7075SOL    HW232859   3.543   3.159   4.956  0.2470  0.8511  0.3881
 7076SOL     OW32860   2.584   4.298   1.861 -0.1045  0.1811 -0.2634
 7076SOL    HW132861   2.560   4.209   1.834 -0.7159 -0.1350  1.3449
 7076SOL    HW232862   2.497   4.338   1.864 -0.3983 -0.2277 -3.0451
 7077SOL     OW32863   3.247   2.065  13.971  0.4743  0.2786 -0.0504
 7077SOL    HW132864   3.180   2.132  13.957  0.2309 -0.1025 -0.7021
 7077SOL    HW232865   3.207   2.000  14.028  0.6151  1.3093  1.2223
 7078SOL     OW32866   4.546   2.409   6.299  0.3205  0.8544  0.5039
 7078SOL    HW132867   4.528   2.319   6.272 -1.3954  1.1576  0.6854
 7078SOL    HW232868   4.477   2.425   6.362 -0.0185 -0.1742  0.3893
 7079SOL     OW32869   2.606   1.825  12.345 -0.5480 -0.1778  0.6784
 7079SOL    HW132870   2.605   1.909  12.390 -0.1541  0.0406  0.2769
 7079SOL    HW232871   2.635   1.852  12.257  2.4033 -0.3866  1.5740
 7080SOL     OW32872   1.060   4.645   6.400 -0.5472  0.1365  0.0599
 7080SOL    HW132873   0.983   4.613   6.353 -0.2106  0.1920 -0.5211
 7080SOL    HW232874   1.034   4.622   6.489 -1.1227  0.8539  0.0760
 7081SOL     OW32875   0.275   3.480  17.463  0.6021  0.2371 -0.0591
 7081SOL    HW132876   0.250   3.550  17.403  0.5372 -0.5116 -0.9036
 7081SOL    HW232877   0.360   3.460  17.424  1.2781  0.9959  1.0340
 7082SOL     OW32878   2.189   2.903   7.256  0.6926 -0.0674  0.0207
 7082SOL    HW132879   2.259   2.837   7.262  2.8346  2.1952  0.1163
 7082SOL    HW232880   2.230   2.968   7.313 -0.5627  1.6910 -1.0806
 7083SOL     OW32881   0.311   0.253   2.050 -0.7016 -0.2148  0.3327
 7083SOL    HW132882   0.331   0.346   2.039  1.4719 -0.7569 -0.2716
 7083SOL    HW232883   0.396   0.222   2.082  0.3997  3.1992  0.7125
 7084SOL     OW32884   3.821   2.112   7.299  0.0107 -0.4969  0.6569
 7084SOL    HW132885   3.888   2.171   7.334 -1.7632  2.0079 -0.1687
 7084SOL    HW232886   3.745   2.131   7.354 -0.8021 -0.5638 -0.4453
 7085SOL     OW32887   3.207   3.808   3.908  0.3379 -0.6679 -0.0792
 7085SOL    HW132888   3.112   3.807   3.918  0.2791  1.9652 -0.4137
 7085SOL    HW232889   3.223   3.717   3.886 -0.3469 -0.8472  0.1609
 7086SOL     OW32890   0.987   1.881  16.198  0.3804  0.4963 -0.2046
 7086SOL    HW132891   0.951   1.927  16.274 -0.3360 -1.1052  0.4325
 7086SOL    HW232892   0.987   1.948  16.130  0.9679 -0.1589 -0.8404
 7087SOL     OW32893   2.925   3.901   3.845 -0.1506  0.3967 -0.4886
 7087SOL    HW132894   2.941   3.975   3.904  0.4598  1.3399 -1.8562
 7087SOL    HW232895   2.961   3.935   3.763  0.3823  2.5003  0.6094
 7088SOL     OW32896   2.669   1.661   7.416 -0.2772  0.2506 -0.6277
 7088SOL    HW132897   2.640   1.621   7.498 -0.5325 -1.5555 -1.6001
 7088SOL    HW232898   2.600   1.656   7.349 -0.6383 -0.5029 -0.2042
 7089SOL     OW32899   3.127   3.867   2.595  0.0017 -0.1255  0.1431
 7089SOL    HW132900   3.161   3.793   2.645 -0.8020 -0.4951  0.1263
 7089SOL    HW232901   3.076   3.908   2.665 -2.3549 -1.1291 -1.0136
 7090SOL     OW32902   1.757   2.713   7.192  0.5725 -0.6587 -0.3757
 7090SOL    HW132903   1.819   2.673   7.131 -1.1300 -2.9779 -0.5739
 7090SOL    HW232904   1.672   2.688   7.157  1.2924 -0.2027 -2.4479
 7091SOL     OW32905   3.901   2.930   9.345 -0.0856 -0.4772  0.3485
 7091SOL    HW132906   3.806   2.920   9.357 -0.4246  1.5123 -0.6902
 7091SOL    HW232907   3.914   2.858   9.283 -2.3972  0.7355 -1.5723
 7092SOL     OW32908   2.488   1.418   5.679  0.1301 -0.6041  1.0737
 7092SOL    HW132909   2.396   1.435   5.700  0.0952  1.6722 -1.0174
 7092SOL    HW232910   2.514   1.501   5.641 -1.9230  0.0305  1.0763
 7093SOL     OW32911   3.869   1.939   4.342  0.5962 -0.1209 -0.0928
 7093SOL    HW132912   3.806   1.948   4.271 -0.3851  1.3265  0.9589
 7093SOL    HW232913   3.920   2.015   4.313 -0.5911  0.6969 -0.0194
 7094SOL     OW32914   0.199   3.016   2.356 -0.0493 -0.4858  0.0224
 7094SOL    HW132915   0.227   2.963   2.281 -1.6262  0.9882 -1.6122
 7094SOL    HW232916   0.289   3.017   2.390 -1.0510 -1.3471  2.6298
 7095SOL     OW32917   2.707   3.115   7.161  0.3192  0.4000  0.4543
 7095SOL    HW132918   2.699   3.149   7.250 -0.1616  1.3447  0.0438
 7095SOL    HW232919   2.644   3.042   7.158  0.9118 -0.0865 -0.2065
 7096SOL     OW32920   2.954   2.833   7.058  0.2755 -0.2261 -0.2151
 7096SOL    HW132921   2.951   2.737   7.065 -0.5291 -0.2144 -0.3951
 7096SOL    HW232922   2.880   2.847   6.999  0.2586 -0.4062 -0.2365
 7097SOL     OW32923   4.273   3.883   9.041  0.5600  0.1118 -0.0752
 7097SOL    HW132924   4.186   3.921   9.053  0.6730  1.1547 -2.5767
 7097SOL    HW232925   4.261   3.798   9.084  1.3133  0.0584  0.0350
 7098SOL     OW32926   2.139   1.868   5.824 -0.2036  0.7329 -0.1537
 7098SOL    HW132927   2.092   1.932   5.878  0.1036  0.3373  0.5924
 7098SOL    HW232928   2.225   1.909   5.815  0.0257  0.1434 -0.6240
 7099SOL     OW32929   4.637   1.031   6.190 -0.0622 -0.3451 -0.4606
 7099SOL    HW132930   4.663   1.006   6.278 -1.9127  0.2445  0.2638
 7099SOL    HW232931   4.580   1.107   6.201  1.2755  0.5072  0.5327
 7100SOL     OW32932   3.320   4.136   7.486  0.0635  0.0665 -0.4765
 7100SOL    HW132933   3.354   4.186   7.412  0.8686  0.9767  0.5032
 7100SOL    HW232934   3.388   4.069   7.489  0.1604  0.1013 -1.9281
 7101SOL     OW32935   2.975   0.413   6.210  0.9212  0.0179  0.4010
 7101SOL    HW132936   3.004   0.322   6.202  0.0096 -0.4355  2.2415
 7101SOL    HW232937   2.981   0.440   6.118  0.5128 -2.0576 -0.2289
 7102SOL     OW32938   4.513   3.958   1.923  0.4272  0.0516 -0.1767
 7102SOL    HW132939   4.604   3.929   1.929  0.3115  0.3761  2.9304
 7102SOL    HW232940   4.528   4.024   1.855 -2.5054 -1.4438 -2.3275
 7103SOL     OW32941   1.823   1.850   5.286  0.4553 -0.0378 -0.3773
 7103SOL    HW132942   1.738   1.892   5.303  0.9828  0.3472  1.2568
 7103SOL    HW232943   1.883   1.919   5.314 -1.9426  1.6982  0.4593
 7104SOL     OW32944   3.426   2.637   9.351 -0.3839  0.4222  0.0509
 7104SOL    HW132945   3.507   2.629   9.401 -0.7450 -2.0228  0.2623
 7104SOL    HW232946   3.368   2.655   9.425 -1.6078 -3.9459  0.1812
 7105SOL     OW32947   1.151   0.491  12.483 -0.2688 -0.3212  0.4476
 7105SOL    HW132948   1.206   0.422  12.445 -0.3333 -0.1259 -0.0006
 7105SOL    HW232949   1.146   0.558  12.415 -0.5020 -0.7712  0.0279
 7106SOL     OW32950   3.138   3.653   7.246  0.7186  0.3101 -0.1228
 7106SOL    HW132951   3.175   3.565   7.247 -0.7591 -0.2978  0.0858
 7106SOL    HW232952   3.077   3.656   7.172 -0.0310  0.8699  0.5156
 7107SOL     OW32953   4.605   2.607  15.686  0.2286  0.2723  0.4309
 7107SOL    HW132954   4.694   2.637  15.672  0.4788 -0.6365  0.1399
 7107SOL    HW232955   4.608   2.520  15.648 -1.3279 -0.2372  1.4639
 7108SOL     OW32956   4.327   4.003  14.930 -0.3335  0.2373 -0.1536
 7108SOL    HW132957   4.260   4.071  14.935 -1.3437 -0.9274  2.3832
 7108SOL    HW232958   4.380   4.026  15.007  0.8434 -2.9778 -0.0124
 7109SOL     OW32959   3.112   0.869   5.643 -0.0731  0.2753  0.5446
 7109SOL    HW132960   3.139   0.918   5.721 -0.4536 -0.7829  1.3365
 7109SOL    HW232961   3.115   0.779   5.675 -0.3998 -0.3295 -1.1567
 7110SOL     OW32962   1.457   4.380   6.223  0.2622  0.3068  0.0393
 7110SOL    HW132963   1.436   4.449   6.286  0.5932  0.3542  0.0963
 7110SOL    HW232964   1.544   4.358   6.257  0.4273  0.6872 -0.1336
 7111SOL     OW32965   0.888   0.292   7.154  0.3310  0.3857 -0.3629
 7111SOL    HW132966   0.871   0.336   7.071 -1.0539 -0.4625 -0.5298
 7111SOL    HW232967   0.861   0.200   7.148  3.4494 -0.6413  1.4301
 7112SOL     OW32968   4.139   1.622  17.244  0.2024  0.3336  0.0774
 7112SOL    HW132969   4.200   1.588  17.179  2.0863  1.1261  1.4324
 7112SOL    HW232970   4.179   1.604  17.330 -1.8250  0.6648  1.0899
 7113SOL     OW32971   2.494   3.208   2.737  0.1675 -0.4748 -0.2601
 7113SOL    HW132972   2.563   3.252   2.688  0.3786  1.0023  1.3913
 7113SOL    HW232973   2.421   3.244   2.686 -0.0572 -0.5043  0.0396
 7114SOL     OW32974   4.389   2.046   5.700  0.6069  0.3478 -0.0517
 7114SOL    HW132975   4.341   1.972   5.735 -0.5875 -0.6483 -3.7372
 7114SOL    HW232976   4.350   2.122   5.744 -0.9081  0.0597 -0.8903
 7115SOL     OW32977   2.427   4.045  14.745  0.8360  0.6266  0.2700
 7115SOL    HW132978   2.458   3.997  14.822  2.4816 -0.7586 -1.2447
 7115SOL    HW232979   2.431   4.134  14.778  0.2473  0.9032 -0.4081
 7116SOL     OW32980   3.688   4.272  17.446 -0.5319  0.9266 -0.1759
 7116SOL    HW132981   3.741   4.312  17.516 -0.2386 -0.0618  0.1729
 7116SOL    HW232982   3.736   4.304  17.370 -2.0545 -2.8506 -2.7004
 7117SOL     OW32983   4.503   1.756   8.688 -0.1264  0.0873  0.7196
 7117SOL    HW132984   4.598   1.757   8.676 -0.2127  0.2138  0.0305
 7117SOL    HW232985   4.471   1.846   8.677  0.7570  0.5492  1.9169
 7118SOL     OW32986   0.689   3.691   7.806 -0.4618  0.2110  0.0882
 7118SOL    HW132987   0.759   3.625   7.803 -1.6917 -1.0354 -1.4904
 7118SOL    HW232988   0.637   3.661   7.880 -2.1180  0.7875 -0.8444
 7119SOL     OW32989   4.334   0.674   7.884  0.2217  0.2231 -0.0153
 7119SOL    HW132990   4.314   0.637   7.798 -1.8986 -1.6281  1.2905
 7119SOL    HW232991   4.347   0.593   7.934 -0.0529 -1.1209 -2.1093
 7120SOL     OW32992   0.544   0.652   4.868  0.1600  0.5609 -0.1280
 7120SOL    HW132993   0.624   0.600   4.862 -0.2266  0.0414 -0.7657
 7120SOL    HW232994   0.584   0.736   4.890  3.3808 -1.4097  1.5789
 7121SOL     OW32995   1.393   3.146   8.603  0.1742  0.3918 -0.1101
 7121SOL    HW132996   1.412   3.202   8.527  1.4804  1.0162  0.6777
 7121SOL    HW232997   1.362   3.216   8.661 -1.1758 -1.0280  0.8869
 7122SOL     OW32998   2.152   0.348   5.229  0.3643 -1.1950 -0.4192
 7122SOL    HW132999   2.221   0.308   5.283 -0.4381 -2.9896 -0.7289
 7122SOL    HW233000   2.164   0.441   5.246  1.3533 -1.3273 -0.3919
 7123SOL     OW33001   2.556   2.433   3.567  0.2112 -0.3692 -0.0297
 7123SOL    HW133002   2.486   2.480   3.613  1.4869  0.8901  0.6244
 7123SOL    HW233003   2.615   2.440   3.642 -0.6424  1.0730  0.5207
 7124SOL     OW33004   3.744   3.173  12.771  0.0109 -0.8438  0.1499
 7124SOL    HW133005   3.781   3.156  12.857  1.0801  1.4217  0.1438
 7124SOL    HW233006   3.788   3.108  12.716  0.8894  0.5155 -0.7827
 7125SOL     OW33007   3.828   2.512   8.582 -0.0223  0.6405 -0.1050
 7125SOL    HW133008   3.915   2.473   8.580 -0.3284 -0.0619  0.4264
 7125SOL    HW233009   3.848   2.604   8.600 -0.7368  0.4978  1.4217
 7126SOL     OW33010   0.714   4.591   7.859  0.1554 -0.1067  0.1574
 7126SOL    HW133011   0.761   4.591   7.776  2.2080 -1.3116  1.3255
 7126SOL    HW233012   0.647   4.658   7.844 -0.2046 -0.5010 -0.0126
 7127SOL     OW33013   3.464   1.027  15.769 -0.2068 -0.4102  0.2908
 7127SOL    HW133014   3.532   1.068  15.822 -0.0007 -0.1439 -0.1840
 7127SOL    HW233015   3.410   1.100  15.739  0.4073 -0.5574 -1.1636
 7128SOL     OW33016   1.721   0.511  11.795 -0.3058  0.2452 -0.5616
 7128SOL    HW133017   1.751   0.481  11.881  0.0941  2.5063  0.0881
 7128SOL    HW233018   1.644   0.456  11.782  0.3351 -0.3742 -1.7539
 7129SOL     OW33019   0.304   3.947  15.937 -0.8707  0.4150  0.3284
 7129SOL    HW133020   0.237   4.013  15.921  0.2752  1.1896 -1.2717
 7129SOL    HW233021   0.248   3.888  15.988  1.1546 -0.1978  1.8554
 7130SOL     OW33022   2.335   2.884   7.743 -0.0730 -0.0969  0.3943
 7130SOL    HW133023   2.316   2.819   7.676  1.4614 -0.7649  0.6151
 7130SOL    HW233024   2.257   2.940   7.750  0.2147  0.4874 -1.2618
 7131SOL     OW33025   0.220   0.938   6.202 -0.1177 -0.5156 -0.4088
 7131SOL    HW133026   0.242   0.911   6.113  1.3785 -2.1358  0.4575
 7131SOL    HW233027   0.156   0.873   6.229  0.8285 -2.0988 -1.9788
 7132SOL     OW33028   2.539   4.599   5.942 -0.2832  1.1712 -0.1765
 7132SOL    HW133029   2.605   4.641   5.887  0.1634 -0.9500 -1.2790
 7132SOL    HW233030   2.502   4.674   5.989  1.0842  1.2326  0.8004
 7133SOL     OW33031   1.016   3.354  12.904  0.1872  0.0788  0.2049
 7133SOL    HW133032   1.094   3.376  12.852  1.4095  0.9822  2.4331
 7133SOL    HW233033   1.000   3.263  12.881  0.1212 -0.6159  2.9900
 7134SOL     OW33034   1.250   2.375  14.887 -0.6459  0.2414  0.0208
 7134SOL    HW133035   1.286   2.407  14.970  1.9429  1.5747 -1.6292
 7134SOL    HW233036   1.313   2.421  14.831  0.9798 -1.8753  0.1035
 7135SOL     OW33037   3.159   2.036   0.135  0.2439 -0.0335 -0.3821
 7135SOL    HW133038   3.191   1.965   0.079 -1.3959  0.2309 -1.6556
 7135SOL    HW233039   3.140   2.103   0.068 -0.6523  0.6624  0.5670
 7136SOL     OW33040   3.268   0.841   3.372  0.1891  0.4125  0.2932
 7136SOL    HW133041   3.202   0.773   3.387 -1.5213  1.8162 -0.8567
 7136SOL    HW233042   3.272   0.877   3.461 -0.3376  0.1992  0.3988
 7137SOL     OW33043   0.839   4.177   8.319 -0.4101  0.5595  0.5612
 7137SOL    HW133044   0.852   4.257   8.369  0.1901  0.9709 -0.2658
 7137SOL    HW233045   0.744   4.186   8.309 -0.6451 -1.8842  0.4464
 7138SOL     OW33046   0.239   4.729  10.782  0.1370  0.4821  0.5320
 7138SOL    HW133047   0.263   4.640  10.810 -3.0690 -0.5330  0.0754
 7138SOL    HW233048   0.315   0.047  10.803 -1.2166  2.0698  1.4087
 7139SOL     OW33049   4.046   3.924   8.060  0.1328 -0.9326  0.1500
 7139SOL    HW133050   4.106   3.925   7.985  2.2672  0.2639  1.8743
 7139SOL    HW233051   4.080   3.850   8.110 -0.1722 -1.4493 -0.4118
 7140SOL     OW33052   2.939   2.308   3.949 -0.4774 -0.3344  0.0956
 7140SOL    HW133053   2.999   2.240   3.981  0.1756 -0.2720 -1.0076
 7140SOL    HW233054   2.933   2.282   3.857  0.7383  0.3213 -0.1666
 7141SOL     OW33055   4.595   2.791  10.105  0.2559 -0.1519 -0.1935
 7141SOL    HW133056   4.507   2.756  10.089 -0.2147  0.3442  1.2990
 7141SOL    HW233057   4.568   2.874  10.144  1.3936  0.1237 -0.0144
 7142SOL     OW33058   3.893   3.790  17.437 -0.3651  0.4693  0.2791
 7142SOL    HW133059   3.804   3.818  17.459 -1.2360 -2.1311  0.0535
 7142SOL    HW233060   3.865   3.706  17.402  2.6977  0.5955 -2.5456
 7143SOL     OW33061   0.410   1.777   5.304 -0.2287 -0.0575  0.5080
 7143SOL    HW133062   0.457   1.779   5.387  1.8592  0.6662 -0.6999
 7143SOL    HW233063   0.320   1.757   5.330 -0.4589 -1.4419 -1.4044
 7144SOL     OW33064   0.426   3.671   8.493 -0.4996 -0.0686  0.4303
 7144SOL    HW133065   0.414   3.656   8.587 -0.5203 -0.9901  0.2772
 7144SOL    HW233066   0.467   3.757   8.484 -1.6388  0.3762 -0.5032
 7145SOL     OW33067   4.460   3.687  14.274 -0.5752  0.0981  0.1451
 7145SOL    HW133068   4.539   3.740  14.286  1.6369 -2.7921 -1.8587
 7145SOL    HW233069   4.413   3.690  14.357  0.4171 -0.1479  0.7199
 7146SOL     OW33070   4.651   4.619  10.704  0.3352  0.2557  0.4489
 7146SOL    HW133071   4.702   4.555  10.754  0.0248 -0.5583 -0.2841
 7146SOL    HW233072   4.670   4.593  10.614 -1.0400  1.9447 -0.3089
 7147SOL     OW33073   2.032   0.496  13.573  0.6097 -0.3123 -0.8920
 7147SOL    HW133074   2.122   0.529  13.571  1.0962 -1.4152  2.3188
 7147SOL    HW233075   2.027   0.460  13.662 -1.6410  1.4656 -0.2902
 7148SOL     OW33076   0.777   1.733   8.026 -0.3297 -0.1300 -0.7136
 7148SOL    HW133077   0.848   1.697   8.079 -0.2283  0.1806 -0.6389
 7148SOL    HW233078   0.758   1.661   7.966  0.1301 -1.9465  1.3323
 7149SOL     OW33079   0.711   3.446  16.600  0.1033  0.0056 -0.2840
 7149SOL    HW133080   0.753   3.442  16.514  1.2806  1.4376  0.2411
 7149SOL    HW233081   0.789   3.441  16.655 -0.1001 -0.3892 -0.0320
 7150SOL     OW33082   1.623   0.844   2.405 -0.0170  0.4111 -0.0253
 7150SOL    HW133083   1.661   0.854   2.318 -1.0880  1.4642 -0.3591
 7150SOL    HW233084   1.692   0.880   2.461 -0.7523  0.7667  0.6487
 7151SOL     OW33085   2.276   3.767   4.648  0.3295  0.5165  0.4312
 7151SOL    HW133086   2.189   3.783   4.610  1.1110  0.4724 -1.3880
 7151SOL    HW233087   2.263   3.813   4.731 -3.8598  0.6376 -0.2854
 7152SOL     OW33088   0.291   3.740   2.438  0.5791  0.2297  0.3181
 7152SOL    HW133089   0.373   3.788   2.454 -0.1771  1.0858  1.6041
 7152SOL    HW233090   0.235   3.773   2.508 -2.2480  0.6377 -2.0991
 7153SOL     OW33091   3.714   0.238  14.039 -0.0617 -0.1315 -0.1436
 7153SOL    HW133092   3.661   0.192  13.973 -1.9840  4.0089 -1.4715
 7153SOL    HW233093   3.719   0.316  13.984 -0.1663 -0.9619 -1.3469
 7154SOL     OW33094   3.919   2.675   2.869 -0.1329  0.1258 -0.0766
 7154SOL    HW133095   3.931   2.613   2.797  0.5398 -0.1158  0.2458
 7154SOL    HW233096   3.908   2.616   2.943  0.9983  0.7430  0.5918
 7155SOL     OW33097   1.038   1.653  13.481 -0.8378 -0.0292  0.3248
 7155SOL    HW133098   1.091   1.733  13.478 -0.6842 -0.0346  2.4393
 7155SOL    HW233099   1.015   1.648  13.574  0.3242 -0.3174  0.5900
 7156SOL     OW33100   4.640   3.100   7.456 -0.0877 -0.1758 -0.1663
 7156SOL    HW133101   4.589   3.149   7.520  0.2194 -2.3794  1.7416
 7156SOL    HW233102   4.717   3.156   7.444 -2.3203  2.6613 -1.1602
 7157SOL     OW33103   3.826   2.591   0.188 -0.8263 -0.0457 -0.5363
 7157SOL    HW133104   3.762   2.520   0.178  1.4187 -1.9272 -1.5173
 7157SOL    HW233105   3.851   2.601   0.096  2.3536 -1.6859  0.1371
 7158SOL     OW33106   2.581   3.212   8.278  0.3846  0.1897  0.1922
 7158SOL    HW133107   2.487   3.228   8.291  0.5714  2.4643 -1.2245
 7158SOL    HW233108   2.581   3.126   8.319 -0.8774 -0.1377 -0.4726
 7159SOL     OW33109   3.586   4.163   9.315  0.0273  0.1873  0.1373
 7159SOL    HW133110   3.500   4.146   9.353 -0.7412  0.9958 -1.2626
 7159SOL    HW233111   3.614   4.239   9.365  0.1880 -2.0614  3.5052
 7160SOL     OW33112   4.566   0.196   8.868  0.0202  0.0041 -0.0174
 7160SOL    HW133113   4.518   0.115   8.848 -1.6435  1.0411 -0.1904
 7160SOL    HW233114   4.543   0.252   8.794  3.6602  2.1900  0.5024
 7161SOL     OW33115   4.608   1.231  15.615 -0.5710 -0.0867  0.0719
 7161SOL    HW133116   4.694   1.260  15.645 -1.3795  0.4215  1.8817
 7161SOL    HW233117   4.615   1.196  15.526 -1.5889  1.8945 -0.8034
 7162SOL     OW33118   0.294   1.882   4.994  0.5699  0.1876  1.0618
 7162SOL    HW133119   0.316   1.954   5.054 -1.8749  0.2688  1.8390
 7162SOL    HW233120   0.357   1.894   4.923  0.0235  2.2578  0.9333
 7163SOL     OW33121   3.604   0.024  11.407 -0.9675 -0.2151  0.5026
 7163SOL    HW133122   3.672   0.018  11.474  0.1681  0.4125 -0.5976
 7163SOL    HW233123   3.616   0.113  11.373 -0.4586 -1.1251 -1.7455
 7164SOL     OW33124   3.025   3.554   1.088 -0.0844 -0.0113  0.5267
 7164SOL    HW133125   3.016   3.630   1.030 -0.8759 -1.2062 -0.8933
 7164SOL    HW233126   2.959   3.585   1.151  0.4203 -0.2850  1.1831
 7165SOL     OW33127   1.799   2.969   3.689 -0.2892 -1.1439  0.3439
 7165SOL    HW133128   1.710   2.970   3.656  1.0143  0.8629 -3.0993
 7165SOL    HW233129   1.803   3.052   3.738  2.8359 -1.0518 -0.0431
 7166SOL     OW33130   0.650   3.347   9.813 -0.7107  0.2159 -0.7081
 7166SOL    HW133131   0.743   3.344   9.788 -0.7465 -0.0677 -0.8095
 7166SOL    HW233132   0.632   3.431   9.855  0.3066 -0.1760  0.5099
 7167SOL     OW33133   0.926   2.426   6.062  0.5443  0.3100  0.1705
 7167SOL    HW133134   0.869   2.495   6.097 -2.7068 -1.4965 -1.5454
 7167SOL    HW233135   0.874   2.347   6.045 -3.9594  2.9239  1.6489
 7168SOL     OW33136   2.378   0.917   9.286  0.5973  0.0758  0.3299
 7168SOL    HW133137   2.343   0.884   9.203  0.4299 -0.9896  0.8140
 7168SOL    HW233138   2.299   0.944   9.333 -0.7876 -0.6372 -1.6193
 7169SOL     OW33139   0.112   3.041   8.917  0.6064  0.1106 -0.4028
 7169SOL    HW133140   0.068   3.005   8.994  1.5585  0.3956  0.2690
 7169SOL    HW233141   0.137   3.129   8.945 -2.9688  0.8883  0.3923
 7170SOL     OW33142   3.778   4.115   2.361  0.0569  0.6412 -0.0092
 7170SOL    HW133143   3.739   4.047   2.417 -0.7579  1.4380  0.3893
 7170SOL    HW233144   3.859   4.133   2.410  0.1030  1.1594 -0.2812
 7171SOL     OW33145   1.580   1.172   6.495 -0.1987  0.1931  0.9814
 7171SOL    HW133146   1.664   1.206   6.464 -0.9401  0.6505 -0.5407
 7171SOL    HW233147   1.580   1.078   6.479  1.9722  0.5434 -1.0778
 7172SOL     OW33148   0.792   2.126   2.488  0.6247 -0.1620 -0.1168
 7172SOL    HW133149   0.872   2.103   2.534  0.6304 -1.8469 -0.9533
 7172SOL    HW233150   0.778   2.210   2.532 -1.1001 -0.1758 -0.6365
 7173SOL     OW33151   3.077   0.096  10.695  0.1569 -0.4650 -0.0078
 7173SOL    HW133152   3.154   0.051  10.729 -1.3341 -1.0068  2.6221
 7173SOL    HW233153   3.027   0.095  10.776 -0.0119 -0.1867 -0.1091
 7174SOL     OW33154   2.437   0.367  17.540 -0.0327  0.4151 -0.9602
 7174SOL    HW133155   2.481   0.322  17.612 -1.6553 -0.9819 -0.8232
 7174SOL    HW233156   2.500   0.427  17.502 -0.7404 -0.2128 -3.1345
 7175SOL     OW33157   2.849   0.229  14.591 -0.2791  0.5580 -0.7797
 7175SOL    HW133158   2.935   0.249  14.554 -0.6321  0.7206 -1.5098
 7175SOL    HW233159   2.793   0.265  14.522  0.0178  0.9927 -0.7964
 7176SOL     OW33160   1.064   3.352   0.809 -0.2196 -0.0807 -0.4309
 7176SOL    HW133161   1.113   3.308   0.879 -0.3322  0.2774 -0.1272
 7176SOL    HW233162   1.108   3.436   0.823  0.1259 -0.8628  3.1559
 7177SOL     OW33163   1.535   1.675  15.835 -0.2814  0.1071 -0.3395
 7177SOL    HW133164   1.467   1.662  15.770  1.2960  0.7047 -2.1196
 7177SOL    HW233165   1.492   1.744  15.885 -0.2105 -0.7285  0.8953
 7178SOL     OW33166   1.366   3.725   0.523 -0.1474 -0.3014 -0.2319
 7178SOL    HW133167   1.280   3.728   0.565  0.3953  2.2561  0.7280
 7178SOL    HW233168   1.398   3.815   0.514  1.4066 -1.0176 -1.7238
 7179SOL     OW33169   2.328   0.927   4.248  0.2030 -0.2310 -0.3919
 7179SOL    HW133170   2.411   0.922   4.200  0.9543 -1.1199  1.0087
 7179SOL    HW233171   2.351   0.973   4.329 -0.3015 -0.0930 -0.3280
 7180SOL     OW33172   1.663   4.360   4.144 -0.5064 -0.1857  0.5515
 7180SOL    HW133173   1.694   4.314   4.223  0.1904  0.3183  0.5718
 7180SOL    HW233174   1.583   4.398   4.180 -1.2780 -1.9113  0.6673
 7181SOL     OW33175   0.886   0.912   5.101 -0.4427  0.5702  0.3731
 7181SOL    HW133176   0.871   1.006   5.095  0.3072  0.6431 -0.4322
 7181SOL    HW233177   0.982   0.905   5.101 -0.4984 -0.2510  1.1952
 7182SOL     OW33178   3.774   0.570   7.633 -0.1889 -0.2730 -0.1899
 7182SOL    HW133179   3.862   0.585   7.598  0.6216 -1.0372  1.4902
 7182SOL    HW233180   3.791   0.485   7.676  1.8136  0.4907  0.5543
 7183SOL     OW33181   2.451   2.307   4.746  0.0888  0.1735  0.1505
 7183SOL    HW133182   2.515   2.367   4.709 -0.4090  0.2830 -0.5341
 7183SOL    HW233183   2.484   2.303   4.836  1.1971  2.9541 -0.1365
 7184SOL     OW33184   1.131   4.626   8.734  0.3202 -0.0405 -0.1086
 7184SOL    HW133185   1.185   4.549   8.752  1.6756  1.2987  1.6519
 7184SOL    HW233186   1.152   4.675   8.814  3.2803 -2.8395  0.8039
 7185SOL     OW33187   2.845   3.043   2.978 -1.0584 -0.3253  0.0132
 7185SOL    HW133188   2.792   3.085   3.045 -0.2283  1.6247 -0.5456
 7185SOL    HW233189   2.901   3.108   2.935 -1.1927 -1.1351 -1.4003
 7186SOL     OW33190   1.198   0.503   5.362 -0.2178  0.7533 -0.3837
 7186SOL    HW133191   1.178   0.541   5.277 -2.8849  1.2921  0.4943
 7186SOL    HW233192   1.106   0.496   5.388 -0.1677 -0.4902 -0.5148
 7187SOL     OW33193   0.656   3.070  16.533 -0.7730 -1.1138  0.3031
 7187SOL    HW133194   0.592   3.141  16.524 -0.6456 -1.2213 -1.4055
 7187SOL    HW233195   0.688   3.092  16.620  0.5165  1.1303 -0.7539
 7188SOL     OW33196   2.216   0.233   2.152  0.0805 -0.0700  0.0117
 7188SOL    HW133197   2.194   0.140   2.163 -1.6350  0.4903  1.3038
 7188SOL    HW233198   2.213   0.257   2.060  1.7262 -0.9171 -0.2717
 7189SOL     OW33199   0.227   1.114  14.768 -0.4544  0.2414  0.3416
 7189SOL    HW133200   0.294   1.089  14.705 -1.3991 -2.7048  0.5307
 7189SOL    HW233201   0.157   1.142  14.709 -0.9982  0.6730  1.1814
 7190SOL     OW33202   4.407   3.823   2.145  0.1099  0.2094 -0.3271
 7190SOL    HW133203   4.384   3.906   2.187  0.1659  0.3372 -0.5446
 7190SOL    HW233204   4.449   3.859   2.067  1.2486  0.6109  0.4660
 7191SOL     OW33205   1.970   0.275   4.387 -0.2143 -0.2456  0.1247
 7191SOL    HW133206   1.899   0.310   4.334 -0.3141  0.2288  0.5773
 7191SOL    HW233207   2.018   0.345   4.432  1.8511 -1.5117 -0.0706
 7192SOL     OW33208   0.616   0.437   1.694 -0.3124 -0.1509 -0.3484
 7192SOL    HW133209   0.529   0.409   1.723 -0.7617  0.8766 -0.7347
 7192SOL    HW233210   0.645   0.493   1.766 -3.9668  1.9558 -0.5111
 7193SOL     OW33211   0.490   3.759   9.487 -0.5440 -0.4970  0.2118
 7193SOL    HW133212   0.448   3.845   9.489 -1.2540 -0.7335 -3.4892
 7193SOL    HW233213   0.545   3.757   9.566  1.8145  2.6236 -1.3289
 7194SOL     OW33214   3.982   0.209  11.545 -0.9911  0.2400 -0.7135
 7194SOL    HW133215   3.901   0.259  11.539 -0.4861  1.1972  0.3883
 7194SOL    HW233216   4.003   0.249  11.629  0.0627  0.1062 -0.9053
 7195SOL     OW33217   1.474   4.309   4.809 -0.2122  0.1313  0.1907
 7195SOL    HW133218   1.392   4.287   4.853  0.4431  0.1095  1.4067
 7195SOL    HW233219   1.538   4.304   4.880  0.4926 -1.2590 -0.5232
 7196SOL     OW33220   0.736   2.469   8.756 -0.2840  0.4307 -0.0778
 7196SOL    HW133221   0.649   2.457   8.794 -0.7469  2.2657 -0.5489
 7196SOL    HW233222   0.724   2.479   8.661 -3.5441  0.0761  0.2835
 7197SOL     OW33223   0.255   1.124   5.792 -0.2737  0.4716 -0.0857
 7197SOL    HW133224   0.256   1.121   5.888 -0.4260 -0.6237 -0.1205
 7197SOL    HW233225   0.191   1.193   5.777  2.7375  3.0223 -1.2580
 7198SOL     OW33226   2.775   0.139   6.148 -0.2871  0.9236 -0.0420
 7198SOL    HW133227   2.789   0.054   6.189  0.1192  0.2777 -1.5408
 7198SOL    HW233228   2.858   0.157   6.104  0.1910 -3.2598 -0.8028
 7199SOL     OW33229   3.162   3.868   4.834 -0.1513 -0.4935 -0.0572
 7199SOL    HW133230   3.161   3.791   4.891 -0.3379 -1.3923 -1.2908
 7199SOL    HW233231   3.112   3.835   4.759 -0.1448 -0.1239 -0.2207
 7200SOL     OW33232   1.425   4.646   1.029 -0.7384  0.2438 -0.0326
 7200SOL    HW133233   1.494   4.651   1.095  0.2727  0.3731 -1.0998
 7200SOL    HW233234   1.469   4.706   0.968 -0.5483  0.6126  0.4657
 7201SOL     OW33235   3.202   3.850   7.406 -0.0701  0.1312  0.2918
 7201SOL    HW133236   3.180   3.785   7.339  0.1663 -0.6139  0.9251
 7201SOL    HW233237   3.253   3.799   7.470  0.2063  1.8378  1.4345
 7202SOL     OW33238   3.470   3.822  10.844  0.6707  0.1072  0.1666
 7202SOL    HW133239   3.421   3.881  10.787 -0.8812 -0.7837  0.5643
 7202SOL    HW233240   3.547   3.807  10.790  2.0842  0.6055  2.0524
 7203SOL     OW33241   0.487   4.516   5.750  0.0471 -0.3822  0.5677
 7203SOL    HW133242   0.450   4.506   5.663 -0.0223  0.2320  0.5250
 7203SOL    HW233243   0.474   4.607   5.777  0.2530 -0.0282 -0.5058
 7204SOL     OW33244   0.234   0.726   8.489  0.1504 -0.4025  0.3198
 7204SOL    HW133245   0.259   0.751   8.401 -1.6961 -0.9838 -0.3598
 7204SOL    HW233246   0.167   0.793   8.502  0.8138  0.0784  1.2942
 7205SOL     OW33247   3.443   1.733   2.966  0.1934 -0.1441 -0.0930
 7205SOL    HW133248   3.423   1.729   2.872  1.1486  0.5045 -0.3283
 7205SOL    HW233249   3.519   1.790   2.956 -0.0073  0.2983  0.9075
 7206SOL     OW33250   0.306   0.909   3.371 -0.1405 -0.5469 -0.3149
 7206SOL    HW133251   0.311   0.929   3.278 -0.8918 -2.4660 -0.7700
 7206SOL    HW233252   0.235   0.967   3.397  0.8112  0.6380 -0.3839
 7207SOL     OW33253   4.137   2.244   9.481  0.1362 -0.1125  0.5531
 7207SOL    HW133254   4.227   2.215   9.463  0.2011  0.9653 -0.8800
 7207SOL    HW233255   4.138   2.333   9.516 -1.7669  1.7532 -4.1072
 7208SOL     OW33256   3.595   3.222   6.549 -0.4653 -0.0906 -0.7496
 7208SOL    HW133257   3.608   3.238   6.456 -3.5195  0.6178 -1.0729
 7208SOL    HW233258   3.638   3.303   6.578 -0.5427 -0.6308  0.9151
 7209SOL     OW33259   0.020   2.141   3.754 -0.1316 -0.2392 -0.1814
 7209SOL    HW133260   4.706   2.223   3.762  0.1482 -0.1804  0.8820
 7209SOL    HW233261   0.093   2.158   3.812  0.7994  0.6440 -1.6094
 7210SOL     OW33262   3.337   3.304   3.213  0.1490  0.5963 -0.0765
 7210SOL    HW133263   3.432   3.319   3.214  0.4708 -1.3415 -0.7394
 7210SOL    HW233264   3.310   3.347   3.293 -0.5924  0.1394 -0.0826
 7211SOL     OW33265   2.633   1.202   4.299 -0.4022  0.0075  0.1584
 7211SOL    HW133266   2.562   1.146   4.328 -1.6094  2.1791  1.3474
 7211SOL    HW233267   2.602   1.288   4.324  1.7204  0.9768 -0.4989
 7212SOL     OW33268   4.687   0.665   2.827 -0.2676  0.3304  0.1968
 7212SOL    HW133269   4.704   0.636   2.737 -0.7307 -0.0764  0.2379
 7212SOL    HW233270   0.035   0.648   2.872 -0.4549  0.1256  0.4717
 7213SOL     OW33271   2.695   3.773   9.996  0.2552 -0.2458 -0.3154
 7213SOL    HW133272   2.618   3.716   9.998  0.9421 -1.2202 -1.5618
 7213SOL    HW233273   2.748   3.716  10.052  0.5731  0.8349  0.4891
 7214SOL     OW33274   1.182   4.632   2.735  0.1252 -0.0812 -0.3708
 7214SOL    HW133275   1.238   4.573   2.684  1.2555  0.4799  0.2315
 7214SOL    HW233276   1.239   4.638   2.811 -0.4479 -4.7777  0.4309
 7215SOL     OW33277   2.137   1.916   8.140  0.0648 -1.0582 -0.1997
 7215SOL    HW133278   2.074   1.848   8.162  1.4156 -2.2154  0.0775
 7215SOL    HW233279   2.182   1.928   8.224 -0.2662  0.5801 -0.2584
 7216SOL     OW33280   4.105   0.819   2.534 -0.0950 -0.2707  0.0122
 7216SOL    HW133281   4.141   0.890   2.587  0.2369  0.8384 -1.7154
 7216SOL    HW233282   4.019   0.859   2.525 -0.3527 -0.8030  0.1181
 7217SOL     OW33283   1.902   4.641   0.837  0.2396  0.0863 -0.3733
 7217SOL    HW133284   1.859   4.723   0.864  0.0295  0.3920 -1.6133
 7217SOL    HW233285   1.975   4.639   0.898 -0.0933 -2.6695 -0.0726
 7218SOL     OW33286   3.680   3.284   9.688  0.5892  0.3498 -0.1806
 7218SOL    HW133287   3.696   3.295   9.594  0.4375  0.3456 -0.2076
 7218SOL    HW233288   3.643   3.196   9.691 -2.1767  1.5819  2.5183
 7219SOL     OW33289   3.836   1.463   3.699 -0.5000  0.1223 -0.0273
 7219SOL    HW133290   3.840   1.443   3.792 -1.2471 -1.7052 -0.3913
 7219SOL    HW233291   3.927   1.489   3.684 -0.6316  0.3256 -0.4805
 7220SOL     OW33292   4.276   3.142   7.013 -0.1023 -0.4822 -0.3345
 7220SOL    HW133293   4.239   3.066   7.056 -0.4139  1.0645  2.1450
 7220SOL    HW233294   4.256   3.129   6.920  0.8747 -2.6732 -0.2387
 7221SOL     OW33295   4.120   3.936  10.817 -0.1902  0.0311 -0.5720
 7221SOL    HW133296   4.178   3.998  10.771  1.2557  0.4135  1.7663
 7221SOL    HW233297   4.179   3.909  10.888  0.1664  1.5413 -0.2800
 7222SOL     OW33298   0.586   2.790   6.264 -0.5252  0.4742 -0.1805
 7222SOL    HW133299   0.539   2.765   6.185 -1.8628  1.2700  0.3592
 7222SOL    HW233300   0.569   2.884   6.270  1.2607  0.8723 -1.4478
 7223SOL     OW33301   2.875   1.683   5.771 -0.0607 -0.2368  0.5825
 7223SOL    HW133302   2.865   1.767   5.815 -0.2740  0.0051  0.0666
 7223SOL    HW233303   2.970   1.672   5.775  0.0639  2.6384  4.7204
 7224SOL     OW33304   0.783   2.021   6.225 -0.2420 -0.5333 -0.0441
 7224SOL    HW133305   0.847   2.091   6.242 -0.8231 -0.1534  0.5763
 7224SOL    HW233306   0.752   2.000   6.313 -0.1271 -1.3654 -0.2042
 7225SOL     OW33307   4.226   0.962   1.844 -0.6931  0.3881  0.1459
 7225SOL    HW133308   4.250   0.895   1.908 -1.7474  1.0638  1.2649
 7225SOL    HW233309   4.207   1.043   1.892 -0.0244  0.0461  0.9956
 7226SOL     OW33310   1.858   4.166   5.671  0.2286  0.1253 -0.4422
 7226SOL    HW133311   1.945   4.206   5.663  1.4995 -2.5958  0.1099
 7226SOL    HW233312   1.875   4.076   5.698 -2.5813  0.3262  1.9733
 7227SOL     OW33313   0.762   0.108  10.989 -0.6262 -0.7763  0.2646
 7227SOL    HW133314   0.839   0.114  11.046  0.5237  1.7662 -1.5560
 7227SOL    HW233315   0.761   0.194  10.946  1.8050 -1.7986 -1.7560
 7228SOL     OW33316   3.350   2.352   6.886  0.4111 -0.0586  0.2680
 7228SOL    HW133317   3.354   2.416   6.958  1.1760  0.6000 -0.3640
 7228SOL    HW233318   3.298   2.408   6.829  1.7337  3.3184  2.3892
 7229SOL     OW33319   1.722   0.466   2.756 -0.0271  0.4822 -0.0164
 7229SOL    HW133320   1.649   0.428   2.805 -0.7856  2.7322  0.6039
 7229SOL    HW233321   1.699   0.556   2.733 -1.5214 -0.1190 -0.8762
 7230SOL     OW33322   4.408   0.198   6.020 -0.2078  0.2380  0.2340
 7230SOL    HW133323   4.411   0.222   6.113  0.5758 -0.1618  0.3122
 7230SOL    HW233324   4.315   0.177   6.008 -0.4123  0.9721  0.5200
 7231SOL     OW33325   1.855   3.981   5.286  0.0261  0.0198 -0.0193
 7231SOL    HW133326   1.763   3.957   5.301 -0.1167  1.8105  1.9191
 7231SOL    HW233327   1.857   3.981   5.190  2.7731 -2.0219  0.0602
 7232SOL     OW33328   0.247   4.171  10.251  0.3269  0.2760 -0.0030
 7232SOL    HW133329   0.220   4.090  10.209  0.8836  0.3357 -0.4790
 7232SOL    HW233330   0.194   4.174  10.331  2.5238  0.0437  1.4575
 7233SOL     OW33331   1.161   2.687  15.390 -0.2374  0.0209  0.5878
 7233SOL    HW133332   1.143   2.726  15.476 -2.9667  0.7552 -0.3434
 7233SOL    HW233333   1.130   2.598  15.405 -1.4984  0.1054 -1.6159
 7234SOL     OW33334   0.198   1.113   7.650  1.1683 -0.4753 -0.2973
 7234SOL    HW133335   0.124   1.101   7.591  0.3806  3.3148 -0.1215
 7234SOL    HW233336   0.158   1.191   7.689  0.7971 -0.6486 -0.3280
 7235SOL     OW33337   1.045   3.859   7.622 -0.3287 -0.4244  0.0576
 7235SOL    HW133338   1.017   3.894   7.707 -0.6559 -2.0262  0.6229
 7235SOL    HW233339   0.964   3.816   7.596 -1.6631  0.8086  2.1762
 7236SOL     OW33340   0.479   4.492   0.474 -0.4414 -0.9281  0.1275
 7236SOL    HW133341   0.386   4.486   0.494 -0.9951 -0.1123 -2.2243
 7236SOL    HW233342   0.517   4.527   0.555  1.6252  0.1171 -1.3010
 7237SOL     OW33343   4.411   1.264  13.975  0.4992  0.6530 -0.7831
 7237SOL    HW133344   4.368   1.248  13.891  0.1375  0.6500 -0.5965
 7237SOL    HW233345   4.388   1.187  14.027  3.1535  0.4928  0.1518
 7238SOL     OW33346   1.799   0.567   8.892  0.2052  0.4287  0.0969
 7238SOL    HW133347   1.802   0.627   8.818 -0.1704  0.5289  0.1598
 7238SOL    HW233348   1.705   0.578   8.910 -0.3076 -2.3263 -1.0077
 7239SOL     OW33349   0.734   1.310   4.372 -0.3411  0.4516  0.1211
 7239SOL    HW133350   0.793   1.255   4.425 -0.1177 -1.3156 -1.9979
 7239SOL    HW233351   0.759   1.292   4.282  3.2144  0.5257  1.0785
 7240SOL     OW33352   4.043   1.687   4.198 -0.0675  0.4432  0.2673
 7240SOL    HW133353   4.081   1.661   4.282 -1.5051  0.3198  0.8779
 7240SOL    HW233354   4.050   1.782   4.199  0.7012  0.3716  1.4741
 7241SOL     OW33355   4.201   3.652   1.086 -0.0064 -0.4992 -0.2159
 7241SOL    HW133356   4.192   3.747   1.091  0.1107 -0.6339  2.5342
 7241SOL    HW233357   4.193   3.621   1.177  2.2344 -0.3030  0.0366
 7242SOL     OW33358   4.273   2.152   5.282 -0.6164 -0.0842 -0.0752
 7242SOL    HW133359   4.324   2.074   5.303  3.4031  3.1802  2.2358
 7242SOL    HW233360   4.223   2.153   5.364 -2.1012 -1.5210 -0.9764
 7243SOL     OW33361   0.046   3.959   2.974 -0.1614  0.2248  0.3981
 7243SOL    HW133362   0.046   4.055   2.973 -0.4422  0.2408  3.1612
 7243SOL    HW233363   0.135   3.944   2.942  0.6099  1.1375  2.1787
 7244SOL     OW33364   4.520   3.551   2.875 -0.3913 -0.0754  0.1223
 7244SOL    HW133365   4.565   3.635   2.869 -0.2448 -0.0995  0.8781
 7244SOL    HW233366   4.435   3.579   2.906 -0.7129 -3.4656  2.3144
 7245SOL     OW33367   2.796   4.716  17.370  0.4801  0.0336 -0.5626
 7245SOL    HW133368   2.794   4.621  17.357 -0.1228  0.0701 -0.7377
 7245SOL    HW233369   2.889   4.731  17.389  0.4648  0.0050 -0.4680
 7246SOL     OW33370   2.408   0.256  11.336  0.5508 -0.7037 -0.7440
 7246SOL    HW133371   2.364   0.208  11.406  0.7070  1.0408  0.5387
 7246SOL    HW233372   2.463   0.312  11.390 -0.1769 -0.8771  0.1702
 7247SOL     OW33373   3.597   0.209  10.451 -0.0051  0.4772  0.4432
 7247SOL    HW133374   3.609   0.125  10.407 -0.8290  0.3859  0.3923
 7247SOL    HW233375   3.645   0.264  10.388  1.4578  1.3894  2.3675
 7248SOL     OW33376   0.465   4.028  17.157 -0.4966 -0.1762  0.5702
 7248SOL    HW133377   0.524   3.960  17.187 -2.2597 -1.1734  1.8072
 7248SOL    HW233378   0.441   4.067  17.241 -1.1366 -0.0227  0.3235
 7249SOL     OW33379   2.470   0.833  15.208 -0.2188 -0.3333  0.0818
 7249SOL    HW133380   2.500   0.796  15.291  1.0744 -1.9662 -1.1032
 7249SOL    HW233381   2.489   0.927  15.207 -0.8684 -0.1874  2.6740
 7250SOL     OW33382   4.594   2.753  10.721  0.1392 -0.0069  0.1540
 7250SOL    HW133383   4.682   2.779  10.749 -0.3818  1.0066  0.8600
 7250SOL    HW233384   4.531   2.803  10.773  1.5113  1.2157  0.6466
 7251SOL     OW33385   2.584   0.817   9.486  0.0689 -0.4004 -0.6304
 7251SOL    HW133386   2.530   0.874   9.431 -1.6128 -1.6784 -0.2979
 7251SOL    HW233387   2.665   0.813   9.435  0.1728  3.3555 -0.7203
 7252SOL     OW33388   1.286   4.494  13.889  0.1844  0.4511 -0.1955
 7252SOL    HW133389   1.329   4.567  13.934 -1.7390 -0.1019  2.5485
 7252SOL    HW233390   1.284   4.532  13.802  1.5158 -0.2199 -0.5154
 7253SOL     OW33391   1.837   1.859   8.051  0.0630  0.0421  0.3270
 7253SOL    HW133392   1.860   1.823   7.965  0.4128 -0.5082  0.6436
 7253SOL    HW233393   1.806   1.777   8.090  0.1426 -0.0392  0.2217
 7254SOL     OW33394   0.272   1.036   3.739  0.3158  0.0168  0.0973
 7254SOL    HW133395   0.365   1.015   3.749 -0.2426 -2.0278  0.8995
 7254SOL    HW233396   0.246   1.074   3.823  3.5056  0.8956  0.6629
 7255SOL     OW33397   4.378   3.983   6.615  0.3456  0.1858 -0.4405
 7255SOL    HW133398   4.304   3.988   6.676  0.2388 -3.1660 -0.2521
 7255SOL    HW233399   4.329   3.935   6.548  2.5115 -2.1760 -0.3610
 7256SOL     OW33400   2.728   3.421   8.190 -0.7387 -0.2945 -0.3461
 7256SOL    HW133401   2.807   3.382   8.151 -2.0830 -1.2438 -2.1082
 7256SOL    HW233402   2.679   3.340   8.204  1.6074 -1.7955 -0.6244
 7257SOL     OW33403   0.977   4.575   3.981  0.3980  0.0997 -0.4015
 7257SOL    HW133404   1.071   4.592   3.973 -0.0220  2.8502  0.4690
 7257SOL    HW233405   0.969   4.526   3.900 -4.1187  0.1043  0.0244
 7258SOL     OW33406   3.246   4.231   4.397 -0.2396  0.5296  0.4021
 7258SOL    HW133407   3.200   4.212   4.315 -0.5009 -2.9862  1.3623
 7258SOL    HW233408   3.179   4.200   4.458 -1.1888 -0.3522 -1.0890
 7259SOL     OW33409   2.459   0.962   7.650 -0.2886  0.0884 -0.2156
 7259SOL    HW133410   2.426   0.945   7.738 -0.8653 -0.4215 -0.5261
 7259SOL    HW233411   2.551   0.986   7.658 -0.3424  0.4483 -0.7002
 7260SOL     OW33412   2.400   2.626   2.443 -0.4095  0.0322  0.2111
 7260SOL    HW133413   2.386   2.661   2.355  0.5717 -4.4564 -1.7116
 7260SOL    HW233414   2.454   2.690   2.490  4.1828 -2.9366 -0.9689
 7261SOL     OW33415   0.736   1.161   5.051  0.3892 -0.0617  0.7034
 7261SOL    HW133416   0.699   1.214   4.980  0.2846 -2.6792 -1.2076
 7261SOL    HW233417   0.826   1.192   5.047  0.5309 -0.5203  0.3702
 7262SOL     OW33418   0.992   0.084  11.737  0.0944  0.0133  0.0678
 7262SOL    HW133419   1.002   0.022  11.665  0.8431  0.5016 -0.2434
 7262SOL    HW233420   0.927   0.141  11.695 -0.5205 -1.7993 -1.4581
 7263SOL     OW33421   4.564   3.770   4.319 -0.2105 -0.0944 -0.0413
 7263SOL    HW133422   4.615   3.844   4.353  0.2568 -0.6663  0.4889
 7263SOL    HW233423   4.555   3.796   4.227  0.1728 -0.1177 -0.0851
 7264SOL     OW33424   1.057   3.914   8.567 -0.2826 -0.0876 -0.1394
 7264SOL    HW133425   1.064   3.997   8.519 -3.7264  0.2610 -0.0805
 7264SOL    HW233426   1.007   3.932   8.647  1.3198  1.5507  0.5036
 7265SOL     OW33427   3.331   4.092   8.364  0.4659  0.5723  0.0514
 7265SOL    HW133428   3.379   4.145   8.428 -1.3317  2.6918 -0.3842
 7265SOL    HW233429   3.259   4.047   8.408  2.1992 -1.4113  0.8776
 7266SOL     OW33430   1.344   4.032   5.049  0.3313  0.1626  0.3102
 7266SOL    HW133431   1.346   4.073   5.135  2.1708  3.1830 -1.1735
 7266SOL    HW233432   1.280   3.962   5.064 -0.5333  0.8999  0.0275
 7267SOL     OW33433   0.440   2.076   3.213  0.0354 -0.0265  0.1361
 7267SOL    HW133434   0.530   2.060   3.185  0.1530 -0.9391  1.0049
 7267SOL    HW233435   0.433   2.169   3.194  3.1395  0.0864 -0.5425
 7268SOL     OW33436   1.859   4.320  16.971 -0.3042 -0.1029 -0.0347
 7268SOL    HW133437   1.823   4.408  16.959 -0.8488 -0.3560 -0.2602
 7268SOL    HW233438   1.870   4.297  16.879  0.5003  0.3778 -0.0518
 7269SOL     OW33439   1.248   3.689   5.089  0.4250  0.0945 -0.4913
 7269SOL    HW133440   1.324   3.735   5.125  0.6235  1.6220 -2.8401
 7269SOL    HW233441   1.286   3.611   5.049 -3.3808 -2.2156  0.3916
 7270SOL     OW33442   2.376   1.758   3.519  0.2940 -0.2988 -0.5368
 7270SOL    HW133443   2.448   1.816   3.542  0.3543  0.1093 -1.7748
 7270SOL    HW233444   2.326   1.752   3.600 -0.4147 -0.6668 -0.9964
 7271SOL     OW33445   3.321   0.370   7.876  0.1206  0.4905  0.0373
 7271SOL    HW133446   3.288   0.341   7.960 -3.4969 -1.0269 -1.9375
 7271SOL    HW233447   3.411   0.399   7.891  0.6748 -0.7094 -0.9514
 7272SOL     OW33448   3.794   3.741   6.873 -0.1758 -0.1257  0.0267
 7272SOL    HW133449   3.850   3.682   6.923 -0.0790 -0.2557 -0.2386
 7272SOL    HW233450   3.704   3.709   6.886 -0.4623  0.4458 -0.5536
 7273SOL     OW33451   0.400   1.646   7.294  0.3467 -0.0697 -0.9185
 7273SOL    HW133452   0.338   1.630   7.223 -1.5584 -2.2311  1.2054
 7273SOL    HW233453   0.439   1.727   7.265 -0.5299  0.4337 -0.7062
 7274SOL     OW33454   2.610   3.320   1.919  0.0503 -0.1832  0.5302
 7274SOL    HW133455   2.584   3.392   1.861  1.1593 -0.6549 -0.5622
 7274SOL    HW233456   2.656   3.373   1.984  0.4170 -0.3239  0.3867
 7275SOL     OW33457   3.760   4.200  16.837 -0.3508  0.2470  0.3426
 7275SOL    HW133458   3.685   4.255  16.819 -0.3568 -0.1688 -0.9167
 7275SOL    HW233459   3.800   4.188  16.750  0.4652 -0.2576  0.7808
 7276SOL     OW33460   0.710   1.709   6.862 -0.3041 -0.3619  0.5398
 7276SOL    HW133461   0.632   1.764   6.852 -0.6539 -1.2576 -1.5784
 7276SOL    HW233462   0.775   1.780   6.857  2.0834 -2.6626 -0.7883
 7277SOL     OW33463   2.540   2.986   3.373 -0.0443 -0.0422  0.0560
 7277SOL    HW133464   2.582   2.907   3.407 -0.5242  0.3127  1.4805
 7277SOL    HW233465   2.452   2.975   3.409 -0.3772 -0.1761 -0.8081
 7278SOL     OW33466   0.805   1.732   6.219 -0.3928  0.1977 -0.0074
 7278SOL    HW133467   0.727   1.703   6.267  0.7333  0.4558  1.9931
 7278SOL    HW233468   0.780   1.822   6.198 -3.5147 -0.4712  0.7858
 7279SOL     OW33469   2.919   2.290   3.690 -0.7927 -0.9739 -0.3513
 7279SOL    HW133470   2.886   2.221   3.632  1.0420 -1.4216 -0.8609
 7279SOL    HW233471   2.991   2.317   3.634 -1.0453 -1.9133 -1.1213
 7280SOL     OW33472   4.710   1.049   7.511 -0.3503 -0.3116  0.5858
 7280SOL    HW133473   4.718   1.114   7.442 -0.5794 -0.9616 -0.0585
 7280SOL    HW233474   4.638   0.994   7.479 -0.0465  0.1359 -0.9010
 7281SOL     OW33475   4.390   0.219   6.297 -0.4708 -0.5351  0.2964
 7281SOL    HW133476   4.360   0.145   6.351  0.7936  1.2564  3.4786
 7281SOL    HW233477   4.451   0.254   6.362 -0.8575 -1.9121  1.4082
 7282SOL     OW33478   2.129   0.033  13.809 -0.1934 -0.0355 -0.1072
 7282SOL    HW133479   2.153   0.123  13.833 -0.5411  0.3415 -1.1680
 7282SOL    HW233480   2.189   4.717  13.863 -0.1051 -0.3496 -0.5070
 7283SOL     OW33481   3.246   0.555   6.506  0.1219 -0.0014  0.0274
 7283SOL    HW133482   3.226   0.461   6.506 -1.9061  0.4114  0.9406
 7283SOL    HW233483   3.156   0.580   6.484 -0.3392 -0.0201  1.8641
 7284SOL     OW33484   1.488   3.931   2.799  0.1214 -0.3913  0.8249
 7284SOL    HW133485   1.507   4.021   2.771 -1.7322 -0.1318  0.3605
 7284SOL    HW233486   1.421   3.951   2.865  2.0642 -0.5328  2.8261
 7285SOL     OW33487   1.906   0.505  14.467  0.2355 -0.1390 -0.0565
 7285SOL    HW133488   1.960   0.454  14.528 -0.6409 -0.6675  0.2827
 7285SOL    HW233489   1.840   0.440  14.442  1.3718 -1.4334  0.2854
 7286SOL     OW33490   1.087   3.510   6.360  0.0618  0.3058 -0.5283
 7286SOL    HW133491   1.124   3.538   6.443 -1.8112  0.7048  0.1915
 7286SOL    HW233492   1.077   3.417   6.376 -1.8329  0.4604 -0.7767
 7287SOL     OW33493   4.500   4.428   7.622 -0.0725  0.3329 -0.8548
 7287SOL    HW133494   4.536   4.517   7.626 -0.9013  0.6430 -0.2941
 7287SOL    HW233495   4.512   4.402   7.714 -1.3828  2.7867  0.0239
 7288SOL     OW33496   2.678   4.584   8.784  0.7860  0.6412 -0.2009
 7288SOL    HW133497   2.644   4.669   8.757 -0.1520  0.6526  1.0124
 7288SOL    HW233498   2.753   4.623   8.829 -0.0519  0.8121  1.0384
 7289SOL     OW33499   2.252   2.674   8.353  0.3303  0.0404 -0.5042
 7289SOL    HW133500   2.292   2.637   8.432 -0.9023 -2.3529 -0.9916
 7289SOL    HW233501   2.170   2.624   8.348 -0.6762  1.9336 -2.9486
 7290SOL     OW33502   1.084   2.304  12.594  0.1244  0.1196  0.2092
 7290SOL    HW133503   1.158   2.364  12.594  0.4740 -0.3145 -0.5745
 7290SOL    HW233504   1.121   2.216  12.587 -4.1845 -1.6097 -0.7879
 7291SOL     OW33505   2.106   1.394   4.464  0.0479  0.3391  0.7395
 7291SOL    HW133506   2.200   1.383   4.451 -0.1034 -0.8693  0.6179
 7291SOL    HW233507   2.090   1.300   4.476 -1.6369  0.6073  0.5299
 7292SOL     OW33508   2.095   2.809   8.694  0.0270  0.0577 -0.0605
 7292SOL    HW133509   2.067   2.885   8.643  1.0666  1.3017  1.2553
 7292SOL    HW233510   2.015   2.758   8.705  0.8620 -1.1373  0.4524
 7293SOL     OW33511   0.383   2.259  15.087  0.8648  0.8955  0.1602
 7293SOL    HW133512   0.389   2.355  15.091  2.1319  0.7624  1.1972
 7293SOL    HW233513   0.472   2.232  15.107  0.2482 -1.2983 -0.0537
 7294SOL     OW33514   3.334   3.075   8.180 -0.0355  0.1342  0.5015
 7294SOL    HW133515   3.285   3.084   8.262 -1.2387  1.0224 -0.3160
 7294SOL    HW233516   3.258   3.058   8.124  1.3755 -0.1235 -1.3214
 7295SOL     OW33517   0.179   4.524  17.215  0.9671  0.3487 -0.3786
 7295SOL    HW133518   0.130   4.443  17.205  0.5037  0.3217  2.1592
 7295SOL    HW233519   0.108   4.581  17.246  2.1914  1.4943  0.3469
 7296SOL     OW33520   4.504   4.624   5.837  0.1561 -0.5293  0.1107
 7296SOL    HW133521   4.598   4.628   5.855  0.1158 -0.1265  0.2296
 7296SOL    HW233522   4.497   4.720   5.830 -1.9990 -0.4940  2.7440
 7297SOL     OW33523   4.066   4.119   5.538 -0.3360  0.5271 -0.1672
 7297SOL    HW133524   4.098   4.177   5.469  0.5331  2.7434  2.1010
 7297SOL    HW233525   4.109   4.155   5.616 -1.2942 -1.3780  1.2297
 7298SOL     OW33526   3.462   3.709   5.646  0.0084  0.2033 -0.0128
 7298SOL    HW133527   3.553   3.694   5.672  1.3169  2.9739 -2.9604
 7298SOL    HW233528   3.437   3.617   5.638 -2.5457  0.9549 -0.6657
 7299SOL     OW33529   1.233   0.613   3.371  0.6244  0.5078  0.0762
 7299SOL    HW133530   1.160   0.668   3.341  0.8529 -0.1369 -1.6653
 7299SOL    HW233531   1.275   0.667   3.439  0.6554  1.7248 -0.9065
 7300SOL     OW33532   0.384   3.810   1.577 -0.5741 -0.1117 -0.4178
 7300SOL    HW133533   0.425   3.868   1.513 -0.2458  0.0408 -0.0708
 7300SOL    HW233534   0.345   3.749   1.514 -0.9218  0.3765 -0.6692
 7301SOL     OW33535   0.364   0.126   1.619 -0.4140 -0.2062 -0.1971
 7301SOL    HW133536   0.402   0.124   1.531  0.8949 -2.1518  0.4134
 7301SOL    HW233537   0.329   0.037   1.623  0.7849 -0.7456 -1.6142
 7302SOL     OW33538   1.357   2.291   8.173  0.2632  0.7586  0.3119
 7302SOL    HW133539   1.425   2.324   8.113 -0.5506 -0.2543 -1.1798
 7302SOL    HW233540   1.381   2.341   8.250  0.2608 -1.9554  2.0728
 7303SOL     OW33541   4.727   1.933   4.920  0.1671  0.0735 -0.3945
 7303SOL    HW133542   0.028   1.958   5.005  0.7058 -0.4854 -0.4608
 7303SOL    HW233543   4.649   1.881   4.941  1.3380 -1.1949  0.7786
 7304SOL     OW33544   1.073   0.542  16.660 -0.1433 -0.3143  0.0235
 7304SOL    HW133545   0.996   0.596  16.646 -0.8786 -1.5261 -0.6032
 7304SOL    HW233546   1.111   0.540  16.572 -0.8322  1.4316 -0.3122
 7305SOL     OW33547   4.694   0.862  14.288 -0.1353 -0.1358 -0.3699
 7305SOL    HW133548   4.689   0.950  14.250 -0.0587 -0.5976 -1.4430
 7305SOL    HW233549   4.637   0.890  14.360  2.3384 -1.7234  2.1977
 7306SOL     OW33550   3.359   3.050   6.475  0.0369  0.1987  0.3008
 7306SOL    HW133551   3.412   3.056   6.395  0.0722 -1.7659  0.1867
 7306SOL    HW233552   3.272   3.081   6.449 -0.7436 -0.3530  2.2285
 7307SOL     OW33553   1.402   0.903  15.764 -0.6373  0.2977 -0.1358
 7307SOL    HW133554   1.447   0.971  15.813 -0.6690 -0.9271  1.5755
 7307SOL    HW233555   1.475   0.852  15.728  0.8064  0.3214  2.8485
 7308SOL     OW33556   1.025   2.263   5.233  0.2556  0.2699 -0.0523
 7308SOL    HW133557   1.065   2.350   5.232  2.5824 -0.8135 -0.5476
 7308SOL    HW233558   0.934   2.288   5.251 -0.5270 -1.3860 -1.6967
 7309SOL     OW33559   0.783   2.351   2.916  0.7933  0.4989  0.0998
 7309SOL    HW133560   0.802   2.423   2.856 -0.4011  0.3790 -0.4406
 7309SOL    HW233561   0.777   2.285   2.847 -0.9062  0.6662  0.0783
 7310SOL     OW33562   0.864   4.558   6.613  0.1568  0.6791  0.8434
 7310SOL    HW133563   0.804   4.575   6.685 -1.4446  0.8192 -0.5151
 7310SOL    HW233564   0.853   4.464   6.599  0.2589  0.7052  0.5897
 7311SOL     OW33565   2.303   1.003   3.804  0.1810  0.1109 -0.8187
 7311SOL    HW133566   2.236   0.981   3.868  0.1440  4.6182  0.6653
 7311SOL    HW233567   2.328   1.089   3.838  0.2127  0.1315 -0.8932
 7312SOL     OW33568   2.657   4.459   4.938  0.2444  0.0443 -0.5400
 7312SOL    HW133569   2.672   4.514   4.860 -1.9127  1.2111 -0.1350
 7312SOL    HW233570   2.728   4.487   4.996 -1.0226  2.3509 -0.1068
 7313SOL     OW33571   2.862   4.152  11.247  0.3580 -0.2852 -0.0238
 7313SOL    HW133572   2.796   4.087  11.272  0.0231 -0.3210 -0.9935
 7313SOL    HW233573   2.897   4.179  11.332  0.6074 -0.3349 -0.1113
 7314SOL     OW33574   0.920   2.216   8.110 -0.6432  0.5865 -0.4427
 7314SOL    HW133575   0.949   2.213   8.019 -0.5107 -2.0659 -0.3139
 7314SOL    HW233576   0.929   2.123   8.130  0.9716  0.8944  0.2724
 7315SOL     OW33577   2.032   3.047   3.280 -0.2818 -0.0522  0.2127
 7315SOL    HW133578   1.970   3.102   3.232 -2.1024  0.3446  3.0623
 7315SOL    HW233579   2.048   2.977   3.216 -1.7132  1.2243 -1.5541
 7316SOL     OW33580   2.157   0.245   7.577 -0.0255  0.2285  0.0682
 7316SOL    HW133581   2.096   0.261   7.650 -0.9471 -0.3847 -0.5585
 7316SOL    HW233582   2.185   0.157   7.599  1.7620  0.5086 -1.1483
 7317SOL     OW33583   2.774   1.339   9.958 -0.0412  0.2517 -0.1557
 7317SOL    HW133584   2.752   1.405  10.024  0.4639 -2.3634  2.6505
 7317SOL    HW233585   2.702   1.279   9.979  0.5337 -0.0319  1.0505
 7318SOL     OW33586   4.637   2.996  11.890 -0.3552 -0.3052 -0.1075
 7318SOL    HW133587   4.601   2.958  11.970 -0.1632 -1.2534 -0.4725
 7318SOL    HW233588   4.633   2.916  11.838 -0.3956 -0.3935  0.0322
 7319SOL     OW33589   3.543   2.434   2.977  0.1843  0.1438 -0.0684
 7319SOL    HW133590   3.503   2.469   3.057  0.4424  1.6993 -0.6363
 7319SOL    HW233591   3.523   2.500   2.912  0.5312 -0.0628 -0.3865
 7320SOL     OW33592   1.647   1.163   9.517  0.2014 -0.1266  0.1121
 7320SOL    HW133593   1.716   1.229   9.512 -0.1899  0.3399  0.8889
 7320SOL    HW233594   1.602   1.190   9.597 -0.9172 -2.4435  0.2809
 7321SOL     OW33595   0.727   3.685   2.897 -0.3992 -0.3036  0.1138
 7321SOL    HW133596   0.683   3.675   2.813  1.7297  1.5379 -1.2190
 7321SOL    HW233597   0.790   3.615   2.886 -0.6320 -0.5046  0.0652
 7322SOL     OW33598   1.933   3.359   5.719 -0.5329 -0.2571  0.1503
 7322SOL    HW133599   1.888   3.324   5.795  1.8841 -2.2427  0.6515
 7322SOL    HW233600   2.013   3.309   5.705 -1.4842 -1.4303 -1.0416
 7323SOL     OW33601   3.703   3.893   2.496  0.2907 -0.7561 -0.3558
 7323SOL    HW133602   3.661   3.815   2.460 -2.2795 -0.2206  1.4726
 7323SOL    HW233603   3.733   3.864   2.582  0.4693  0.9210  0.1480
 7324SOL     OW33604   0.969   0.025  12.352  0.1778 -0.5879  0.4651
 7324SOL    HW133605   0.990   0.104  12.402 -0.4763  0.7151 -1.3343
 7324SOL    HW233606   0.978   0.051  12.261 -1.3558  0.4804  0.6099
 7325SOL     OW33607   4.490   4.209   8.340  0.3088 -0.0932  0.2778
 7325SOL    HW133608   4.506   4.118   8.312 -0.9345 -0.9745  2.4467
 7325SOL    HW233609   4.575   4.242   8.370 -0.2299 -0.0649  1.7377
 7326SOL     OW33610   4.233   1.318   6.344 -0.1757 -0.1912  0.7223
 7326SOL    HW133611   4.151   1.355   6.313  0.8081  0.3535 -1.2306
 7326SOL    HW233612   4.224   1.332   6.439  1.0380  0.6900  0.7095
 7327SOL     OW33613   4.536   2.018  15.330  0.1543 -0.2989 -0.0047
 7327SOL    HW133614   4.453   2.031  15.376 -1.0015 -2.6384 -1.4682
 7327SOL    HW233615   4.526   1.933  15.288  1.4476 -0.7589  0.6128
 7328SOL     OW33616   3.643   0.852   1.530  0.7177  0.2607  0.6743
 7328SOL    HW133617   3.639   0.814   1.442 -1.5726 -0.7525  1.2144
 7328SOL    HW233618   3.668   0.941   1.505  4.6693 -0.5791  1.6031
 7329SOL     OW33619   0.194   0.675   3.599  0.5313 -0.8602 -0.4052
 7329SOL    HW133620   0.143   0.744   3.642  0.0449 -1.9754  0.7987
 7329SOL    HW233621   0.281   0.702   3.628  1.1754 -3.2895 -0.0631
 7330SOL     OW33622   0.601   3.295  12.260  1.5362  0.0882  0.5145
 7330SOL    HW133623   0.629   3.214  12.218 -0.0161  0.2609 -0.8201
 7330SOL    HW233624   0.661   3.354  12.214 -0.8282  0.2407 -2.3776
 7331SOL     OW33625   0.643   0.946  11.355  0.0673  0.1360 -0.1734
 7331SOL    HW133626   0.660   0.877  11.291 -0.7015 -1.5627  1.4532
 7331SOL    HW233627   0.626   1.021  11.298 -0.3249 -0.2526 -0.5638
 7332SOL     OW33628   4.398   3.845  12.881 -0.3469  0.2029  0.2175
 7332SOL    HW133629   4.434   3.781  12.943  0.6871  0.1341 -0.4456
 7332SOL    HW233630   4.337   3.895  12.935 -0.6167  0.8673 -0.7093
 7333SOL     OW33631   2.045   0.962   3.537  0.0568 -0.0933  0.0856
 7333SOL    HW133632   2.112   0.979   3.602 -0.3803  1.5210  0.1267
 7333SOL    HW233633   2.035   0.868   3.549  1.4644 -0.4218 -1.3723
 7334SOL     OW33634   1.783   3.402  12.937  0.0702 -0.2275  0.3810
 7334SOL    HW133635   1.843   3.329  12.924 -0.4357 -0.2763 -1.6430
 7334SOL    HW233636   1.839   3.468  12.977  1.5623  0.2355 -2.4869
 7335SOL     OW33637   3.756   0.974   2.846  1.1652 -0.4816 -0.0072
 7335SOL    HW133638   3.732   0.980   2.938  1.7988 -0.3296  0.1493
 7335SOL    HW233639   3.818   0.901   2.850 -0.0580 -1.4086  1.6524
 7336SOL     OW33640   1.354   3.783   5.924 -0.4556  0.2693 -0.5175
 7336SOL    HW133641   1.265   3.762   5.954 -0.0617  0.7213  0.9751
 7336SOL    HW233642   1.334   3.832   5.844 -0.3187 -0.6445 -1.1115
 7337SOL     OW33643   4.695   0.526  10.617  0.2250  0.2012  0.0102
 7337SOL    HW133644   4.690   0.437  10.652  3.6403  0.6446  1.5942
 7337SOL    HW233645   0.048   0.552  10.643  2.0346 -2.7068 -3.3598
 7338SOL     OW33646   4.179   0.518   1.485  0.4326  0.4023 -0.0953
 7338SOL    HW133647   4.216   0.431   1.500 -0.1235 -0.2668 -2.6123
 7338SOL    HW233648   4.112   0.515   1.553  1.1722 -2.9338  0.4756
 7339SOL     OW33649   3.334   4.265   5.360  0.4138 -0.1141 -0.6005
 7339SOL    HW133650   3.318   4.358   5.347  1.9802  0.2539  0.0683
 7339SOL    HW233651   3.429   4.263   5.345  0.7959  2.8562  1.3575
 7340SOL     OW33652   2.069   3.301   8.235  0.0003 -0.7419  0.0603
 7340SOL    HW133653   2.073   3.283   8.141 -0.7953 -0.9510  0.0610
 7340SOL    HW233654   1.976   3.326   8.241 -0.2507 -1.7096  0.2683
 7341SOL     OW33655   3.625   4.162   9.027  0.3912 -0.3897  0.2498
 7341SOL    HW133656   3.719   4.141   9.025  0.5130  0.3575 -1.4840
 7341SOL    HW233657   3.599   4.152   9.119 -2.6520 -3.8790 -1.0015
 7342SOL     OW33658   1.741   1.760   5.000 -0.6106 -0.0631 -0.4911
 7342SOL    HW133659   1.746   1.722   5.088  0.4314  0.2844 -0.3951
 7342SOL    HW233660   1.755   1.689   4.938  1.7545 -0.8388  0.9064
 7343SOL     OW33661   3.627   0.435   0.534 -0.2485  0.0717  0.4470
 7343SOL    HW133662   3.628   0.340   0.524 -0.9287  0.0098  1.0207
 7343SOL    HW233663   3.668   0.441   0.620  1.4387 -2.0396 -0.2052
 7344SOL     OW33664   0.203   1.396  12.936 -0.0861 -0.0354 -0.8166
 7344SOL    HW133665   0.274   1.385  12.999 -0.1151 -1.4452 -1.0394
 7344SOL    HW233666   0.237   1.398  12.846  0.2616 -2.2171 -0.7327
 7345SOL     OW33667   4.710   3.355   6.292  0.9524 -0.1894 -0.2770
 7345SOL    HW133668   4.654   3.370   6.216 -1.9846  0.0069  1.9157
 7345SOL    HW233669   0.010   3.267   6.276  0.5140 -0.2291 -1.0053
 7346SOL     OW33670   3.835   4.126   1.856 -0.3866 -0.5508 -0.0383
 7346SOL    HW133671   3.765   4.076   1.900  0.5802  0.5235  2.7085
 7346SOL    HW233672   3.915   4.086   1.888 -0.8836  0.1647  2.1408
 7347SOL     OW33673   1.819   0.411   3.053  0.3764  0.2689  0.1208
 7347SOL    HW133674   1.816   0.436   2.961  1.5955  2.5199  0.7014
 7347SOL    HW233675   1.793   0.319   3.056 -0.1315  0.3939 -0.4100
 7348SOL     OW33676   1.403   3.736   9.033 -0.0825 -0.2653  0.1759
 7348SOL    HW133677   1.326   3.697   8.992  1.1229 -0.0074 -2.3280
 7348SOL    HW233678   1.418   3.669   9.100  1.0797  0.0664  0.2477
 7349SOL     OW33679   4.126   0.614   6.337  0.1888  0.4925  0.4576
 7349SOL    HW133680   4.183   0.660   6.276  0.6485 -1.8675 -0.9171
 7349SOL    HW233681   4.166   0.620   6.424  0.5951 -0.3460  0.3364
 7350SOL     OW33682   4.530   3.100   2.333 -0.2814 -0.2432 -0.7743
 7350SOL    HW133683   4.572   3.127   2.414  0.7294 -0.6741 -1.1535
 7350SOL    HW233684   4.495   3.182   2.298  1.0500  1.0927  1.0638
 7351SOL     OW33685   2.067   0.867   8.646 -0.4529 -0.2222 -0.0677
 7351SOL    HW133686   2.122   0.798   8.682 -1.7689 -2.0238 -1.4707
 7351SOL    HW233687   2.106   0.938   8.697  1.7367 -1.3679 -0.1713
 7352SOL     OW33688   4.293   3.339  11.778 -0.1074 -0.1759 -0.4209
 7352SOL    HW133689   4.294   3.272  11.710  1.3095 -1.4686  0.8674
 7352SOL    HW233690   4.341   3.291  11.846 -2.8142  0.7408  2.1551
 7353SOL     OW33691   2.229   2.471   7.014 -0.0459 -0.1188  0.5269
 7353SOL    HW133692   2.217   2.561   7.046  0.4735  0.7782 -1.8104
 7353SOL    HW233693   2.182   2.494   6.934  0.1203  1.6315  0.9267
 7354SOL     OW33694   2.964   4.184  12.655 -0.1514 -0.3064 -0.2789
 7354SOL    HW133695   2.986   4.162  12.564  1.2635 -1.9622  0.4819
 7354SOL    HW233696   2.945   4.094  12.683 -0.6541 -0.3925 -0.8664
 7355SOL     OW33697   0.242   1.014   6.723 -0.0016  0.4034 -0.1248
 7355SOL    HW133698   0.265   1.107   6.727  0.0570  0.1750  4.1090
 7355SOL    HW233699   0.165   1.018   6.779 -0.2131 -0.7971 -0.3211
 7356SOL     OW33700   0.908   3.176   4.167 -0.4455  0.0343  0.0708
 7356SOL    HW133701   0.837   3.230   4.202 -1.4126 -1.3584  0.2269
 7356SOL    HW233702   0.976   3.192   4.233 -1.4376 -0.8305  1.3152
 7357SOL     OW33703   4.667   2.330   8.720 -0.2218 -0.1400  0.1198
 7357SOL    HW133704   4.681   2.417   8.683 -0.0150 -0.4907 -0.6354
 7357SOL    HW233705   0.017   2.311   8.761  0.2958 -1.5722 -1.6239
 7358SOL     OW33706   1.961   3.161  16.164 -0.2020 -0.1116  0.7434
 7358SOL    HW133707   2.035   3.132  16.110 -2.0925 -2.0944 -0.7962
 7358SOL    HW233708   2.000   3.222  16.227 -0.4490  0.7035  0.1000
 7359SOL     OW33709   4.481   1.433  11.063 -0.5907  0.1814 -0.2111
 7359SOL    HW133710   4.408   1.377  11.090  1.4472 -1.1470  2.4359
 7359SOL    HW233711   4.461   1.432  10.969 -2.2229  0.0973  0.1371
 7360SOL     OW33712   4.598   1.623  13.158  0.4643 -0.3414 -0.1771
 7360SOL    HW133713   4.659   1.617  13.085  0.0284 -2.6227 -0.3766
 7360SOL    HW233714   4.610   1.715  13.182  0.0590 -0.1823 -0.5881
 7361SOL     OW33715   0.702   0.589   8.935 -0.1831 -0.1263  0.7453
 7361SOL    HW133716   0.621   0.573   8.984 -1.3743  0.9814 -0.8548
 7361SOL    HW233717   0.676   0.550   8.851 -1.3782  0.9929  0.5916
 7362SOL     OW33718   3.137   0.285   6.530 -0.2455 -0.3948  0.3787
 7362SOL    HW133719   3.073   0.243   6.474  1.7151 -2.1048 -0.5742
 7362SOL    HW233720   3.093   0.270   6.614 -1.0193  3.2435  0.6377
 7363SOL     OW33721   1.972   0.924   0.111 -0.4598  0.0409 -0.0745
 7363SOL    HW133722   1.928   0.996   0.155 -1.4089 -0.5620 -0.0314
 7363SOL    HW233723   1.937   0.929   0.022  0.7209 -2.1945 -0.6614
 7364SOL     OW33724   2.663   2.402  10.312  0.0936 -0.4783 -0.0028
 7364SOL    HW133725   2.718   2.401  10.391 -0.6760 -0.3073  0.5408
 7364SOL    HW233726   2.683   2.490  10.280 -0.5703  0.1086  1.1723
 7365SOL     OW33727   0.452   4.571   5.090 -0.8228 -0.1725 -0.4454
 7365SOL    HW133728   0.541   4.604   5.104 -0.2108 -1.5000 -1.2321
 7365SOL    HW233729   0.477   4.495   5.038 -0.7572 -0.0105 -0.6497
 7366SOL     OW33730   1.207   1.426   5.110 -0.5123 -0.3990  0.3223
 7366SOL    HW133731   1.302   1.436   5.122 -0.5909  0.5927  0.1006
 7366SOL    HW233732   1.192   1.474   5.029 -0.5709 -1.5411 -0.3352
 7367SOL     OW33733   0.065   4.017   8.284  0.1359  0.0038 -0.2924
 7367SOL    HW133734   4.716   4.001   8.242 -0.8141 -1.3803  2.0802
 7367SOL    HW233735   0.105   3.954   8.223  0.3435  1.0445 -1.2144
 7368SOL     OW33736   1.298   4.530  12.103 -0.3777 -0.2737  0.1239
 7368SOL    HW133737   1.300   4.434  12.100  0.1839 -0.2743  0.4306
 7368SOL    HW233738   1.271   4.557  12.015  1.7424  0.2907 -0.3652
 7369SOL     OW33739   2.277   3.776   6.263 -0.4401 -0.4214 -0.2123
 7369SOL    HW133740   2.200   3.719   6.263  1.4474 -2.9197  0.3298
 7369SOL    HW233741   2.311   3.754   6.177  2.0260 -1.8821  1.1539
 7370SOL     OW33742   4.412   0.125   5.605 -0.5280  0.3192  0.0373
 7370SOL    HW133743   4.486   0.147   5.662 -0.2557  0.6018 -0.4282
 7370SOL    HW233744   4.399   0.211   5.565  1.8800 -0.4451 -2.3923
 7371SOL     OW33745   0.662   4.472   1.190  0.2286  0.2656 -0.0231
 7371SOL    HW133746   0.623   4.429   1.114  0.6508  3.0550 -1.8011
 7371SOL    HW233747   0.720   4.400   1.215  1.6886  1.6195  0.5074
 7372SOL     OW33748   3.532   4.360   6.576  0.0348  0.0928  0.0270
 7372SOL    HW133749   3.504   4.280   6.532  0.4710 -0.2017  0.2804
 7372SOL    HW233750   3.616   4.371   6.532 -1.2684  1.2568 -2.1279
 7373SOL     OW33751   2.896   0.682   8.870 -0.0479  0.0639  0.0331
 7373SOL    HW133752   2.907   0.614   8.803 -0.3764  2.6022 -2.6120
 7373SOL    HW233753   2.955   0.652   8.939 -3.4399 -0.6054  2.6483
 7374SOL     OW33754   3.021   0.978   3.643  0.0106 -0.3703  0.1962
 7374SOL    HW133755   3.099   0.926   3.664 -0.5000 -0.8101  0.9767
 7374SOL    HW233756   2.954   0.919   3.610  0.6195  0.0118 -1.7450
 7375SOL     OW33757   0.849   2.280  12.933 -0.0702  0.3455  0.7483
 7375SOL    HW133758   0.914   2.293  13.001 -0.0986 -0.8671  1.0075
 7375SOL    HW233759   0.850   2.361  12.882  0.6784 -0.7082 -0.8905
 7376SOL     OW33760   3.670   2.801   5.315 -0.0214 -0.1828 -0.4673
 7376SOL    HW133761   3.703   2.891   5.313 -0.1994 -0.0886  1.2348
 7376SOL    HW233762   3.718   2.758   5.386 -2.7299 -3.1965 -0.4745
 7377SOL     OW33763   0.480   0.171  13.775 -0.1261  0.0796 -0.5445
 7377SOL    HW133764   0.509   0.155  13.865 -0.3180  2.7694 -0.0079
 7377SOL    HW233765   0.512   0.091  13.733 -1.4342 -0.8147  0.1422
 7378SOL     OW33766   0.321   3.163   6.546  0.0082 -0.3219  0.6022
 7378SOL    HW133767   0.308   3.215   6.626 -1.6157  3.9873 -2.4743
 7378SOL    HW233768   0.287   3.079   6.576  0.9461 -0.0725  2.3958
 7379SOL     OW33769   1.786   0.610   6.844  1.2064  0.8119  0.1174
 7379SOL    HW133770   1.806   0.655   6.926 -0.3408  0.2917  0.7707
 7379SOL    HW233771   1.818   0.526   6.877 -2.0774 -0.2824  0.5265
 7380SOL     OW33772   0.562   3.272   2.340  0.1819 -0.0969  0.1003
 7380SOL    HW133773   0.592   3.288   2.251 -1.1693 -2.1505 -0.7078
 7380SOL    HW233774   0.529   3.356   2.372 -0.4935  0.2485 -1.5559
 7381SOL     OW33775   1.492   1.845   4.827 -0.7399 -0.0699 -0.1790
 7381SOL    HW133776   1.560   1.812   4.768  1.3433  1.6033  1.2799
 7381SOL    HW233777   1.406   1.843   4.785 -1.1990 -1.4959  0.8323
 7382SOL     OW33778   4.502   0.526   4.704  0.3367 -0.1383 -0.0486
 7382SOL    HW133779   4.493   0.540   4.609 -0.3630 -2.4997 -0.3313
 7382SOL    HW233780   4.596   0.505   4.705 -0.2649 -2.7729  0.6023
 7383SOL     OW33781   0.934   2.178   7.348  0.0182  0.7793 -0.2594
 7383SOL    HW133782   0.913   2.086   7.332 -1.3182  1.0577 -0.1016
 7383SOL    HW233783   0.996   2.163   7.420 -0.8508 -0.4306  0.2602
 7384SOL     OW33784   0.036   0.056  11.751 -0.3590 -0.1107 -0.0800
 7384SOL    HW133785   0.050   0.104  11.833 -0.9693 -0.1373  0.0363
 7384SOL    HW233786   0.108   4.728  11.750 -1.9299 -1.9651  2.3963
 7385SOL     OW33787   4.157   4.655   6.984  0.6265 -0.1699 -0.1894
 7385SOL    HW133788   4.250   4.664   7.003  0.6761 -0.0112 -0.5103
 7385SOL    HW233789   4.147   0.015   6.971  0.7109  0.1455  1.9489
 7386SOL     OW33790   0.261   4.367  10.087 -0.1421 -0.6958 -0.0504
 7386SOL    HW133791   0.242   4.283  10.128 -0.7530  0.2687  1.6366
 7386SOL    HW233792   0.217   4.431  10.144  1.0340 -1.4989  1.7605
 7387SOL     OW33793   0.004   2.328   9.234 -0.4457 -0.2116  0.2273
 7387SOL    HW133794   0.099   2.331   9.232 -0.5488  3.0034 -0.4789
 7387SOL    HW233795   4.724   2.353   9.325 -3.4264  0.9756 -0.5763
 7388SOL     OW33796   2.450   3.794   4.907 -0.2879 -0.7764 -0.1941
 7388SOL    HW133797   2.438   3.866   4.970 -1.5512  0.3664 -1.7559
 7388SOL    HW233798   2.462   3.846   4.828 -1.6799 -0.4386 -0.1866
 7389SOL     OW33799   2.917   2.935   7.304 -0.0057 -0.1601 -0.0292
 7389SOL    HW133800   3.009   2.956   7.323 -0.2840 -0.2731  1.4406
 7389SOL    HW233801   2.929   2.918   7.210  2.7765 -0.1708  0.3165
 7390SOL     OW33802   1.910   1.335   6.618  0.7357  0.1056 -0.1512
 7390SOL    HW133803   1.864   1.277   6.679 -0.3081  2.1424  0.9764
 7390SOL    HW233804   1.833   1.389   6.602 -1.9859 -3.3257  1.5994
 7391SOL     OW33805   4.331   0.742  13.868  0.2447 -0.4631  0.2492
 7391SOL    HW133806   4.412   0.731  13.917  1.7465 -2.4567 -2.6656
 7391SOL    HW233807   4.315   0.650  13.845 -1.3095 -0.1917  0.2322
 7392SOL     OW33808   1.494   3.842   8.315  0.3316 -0.1557 -0.1223
 7392SOL    HW133809   1.407   3.871   8.288  0.4086  0.3163  0.1453
 7392SOL    HW233810   1.547   3.918   8.292 -0.0321  0.5347  1.3184
 7393SOL     OW33811   2.215   1.548   9.477 -0.0510  0.0945  0.4412
 7393SOL    HW133812   2.171   1.550   9.562 -0.7680  3.7526 -0.0093
 7393SOL    HW233813   2.282   1.483   9.496 -0.9786 -1.7756 -2.6880
 7394SOL     OW33814   4.180   0.902  16.063  0.5646 -0.0184  0.2919
 7394SOL    HW133815   4.175   0.972  15.997  1.2993 -0.0602  0.1851
 7394SOL    HW233816   4.132   0.829  16.024  1.2770  0.0126 -0.6740
 7395SOL     OW33817   2.095   3.301   2.990 -0.1281 -0.0741 -0.5310
 7395SOL    HW133818   2.091   3.354   2.910  1.9837  1.0242  0.1064
 7395SOL    HW233819   2.108   3.215   2.951 -0.3249  1.0277 -3.0390
 7396SOL     OW33820   2.995   3.099  12.795  0.7731 -0.4221 -0.2610
 7396SOL    HW133821   3.089   3.114  12.806  0.2819  1.8181  0.7783
 7396SOL    HW233822   2.997   3.013  12.753  0.7799 -0.6166  0.1452
 7397SOL     OW33823   3.170   3.514   6.896  0.6200 -0.2417 -0.0490
 7397SOL    HW133824   3.096   3.453   6.900  1.8733 -1.7018  0.7552
 7397SOL    HW233825   3.181   3.520   6.801 -3.7990 -2.9793 -0.7613
 7398SOL     OW33826   3.144   2.460   8.513  0.7480 -0.6159  0.2406
 7398SOL    HW133827   3.087   2.480   8.588 -0.6395 -3.3393 -0.0784
 7398SOL    HW233828   3.229   2.468   8.555  0.9279 -0.8683 -0.0809
 7399SOL     OW33829   3.253   0.317  11.361  0.0795 -0.0348  0.3668
 7399SOL    HW133830   3.194   0.368  11.417  0.3359 -1.4429  1.9177
 7399SOL    HW233831   3.312   0.385  11.328 -0.4394  0.2220 -0.0116
 7400SOL     OW33832   1.387   4.343   3.421  1.1213 -0.0895  0.2741
 7400SOL    HW133833   1.404   4.276   3.488  1.0858 -1.8064 -1.4447
 7400SOL    HW233834   1.438   4.412   3.463  0.2367  0.3676  0.5964
 7401SOL     OW33835   4.190   2.995   4.163  0.0453  0.0296 -0.4692
 7401SOL    HW133836   4.207   3.015   4.071 -2.1515  0.8811 -0.6787
 7401SOL    HW233837   4.194   2.899   4.167 -0.0167 -0.0469 -2.1917
 7402SOL     OW33838   3.685   1.494  17.197 -0.4418 -0.0393  0.4668
 7402SOL    HW133839   3.744   1.461  17.130  0.8568 -1.0256  2.1025
 7402SOL    HW233840   3.626   1.421  17.214  0.7574 -1.6474 -2.3231
 7403SOL     OW33841   3.891   4.001  10.405  0.2125  0.2064 -0.6551
 7403SOL    HW133842   3.849   4.005  10.490 -0.0046  0.0939 -0.7556
 7403SOL    HW233843   3.945   4.079  10.399 -0.8056  0.8871 -1.0497
 7404SOL     OW33844   0.319   0.852   7.313  0.1406  0.6925 -0.0516
 7404SOL    HW133845   0.403   0.834   7.271 -0.0845  1.4344 -0.8125
 7404SOL    HW233846   0.347   0.904   7.388  0.5220  0.4981 -0.0591
 7405SOL     OW33847   0.108   1.287   4.038  0.0698  0.0524  0.3121
 7405SOL    HW133848   0.074   1.229   4.106  0.9028 -0.0696  0.6268
 7405SOL    HW233849   0.031   1.297   3.982  0.2438  0.3952  0.1303
 7406SOL     OW33850   3.865   2.993   2.577  0.1310  0.3172  0.4000
 7406SOL    HW133851   3.956   3.012   2.556  0.2794  2.7066  3.1553
 7406SOL    HW233852   3.843   2.978   2.485  0.5938  3.5185 -0.2434
 7407SOL     OW33853   3.571   4.046   6.924 -0.3658  0.0668  0.0195
 7407SOL    HW133854   3.623   4.063   6.846  0.6130 -4.5590 -0.2877
 7407SOL    HW233855   3.482   4.030   6.891 -0.2200  1.7471 -1.1789
 7408SOL     OW33856   1.337   1.384  15.039  0.1012 -0.0270 -0.1712
 7408SOL    HW133857   1.249   1.412  15.063  0.2931 -0.3004  0.8458
 7408SOL    HW233858   1.323   1.355  14.949  0.4229 -1.5666  0.2819
 7409SOL     OW33859   1.932   2.347  12.103 -0.2970  0.0451 -0.1347
 7409SOL    HW133860   1.862   2.287  12.079  1.6600 -1.6103 -1.7346
 7409SOL    HW233861   2.014   2.300  12.116 -0.2746 -0.2584 -1.3544
 7410SOL     OW33862   0.486   0.686   4.034  0.3838  0.1575  0.0985
 7410SOL    HW133863   0.470   0.635   4.113  1.5010  2.6173  1.9077
 7410SOL    HW233864   0.449   0.769   4.063  2.0805  1.0777 -0.3346
 7411SOL     OW33865   2.499   0.722   0.725 -0.3321  0.3459  0.1958
 7411SOL    HW133866   2.555   0.691   0.796 -0.8539 -0.1624  0.3824
 7411SOL    HW233867   2.501   0.817   0.740 -1.9077  0.3217  0.5569
 7412SOL     OW33868   0.905   3.871   5.226  0.4579  0.1911 -0.2111
 7412SOL    HW133869   0.875   3.809   5.159 -1.1735  0.7244  0.0030
 7412SOL    HW233870   0.825   3.918   5.251 -0.9769 -1.8539 -0.9412
 7413SOL     OW33871   2.062   2.534  14.018 -0.0699 -0.2286  0.2838
 7413SOL    HW133872   2.155   2.549  14.003  0.3145 -0.3270  2.5068
 7413SOL    HW233873   2.031   2.625  14.026  0.1825  0.1349 -3.2018
 7414SOL     OW33874   4.626   1.749   4.417  0.0173  0.1179 -0.8151
 7414SOL    HW133875   4.579   1.721   4.496  2.5481 -1.5249  0.0958
 7414SOL    HW233876   4.707   1.698   4.417  0.0311  0.1411  0.2183
 7415SOL     OW33877   0.185   3.833   0.599 -0.1199 -0.6096 -0.2924
 7415SOL    HW133878   0.146   3.762   0.650  2.2557 -0.5549  1.6557
 7415SOL    HW233879   0.184   3.793   0.512 -0.0746 -1.5283  0.1234
 7416SOL     OW33880   1.402   0.743   5.293  0.1020  0.8354  0.1606
 7416SOL    HW133881   1.464   0.674   5.317 -1.1190 -0.1104  0.5908
 7416SOL    HW233882   1.426   0.758   5.202  0.3290  0.3949  0.1475
 7417SOL     OW33883   1.283   1.102   2.254 -0.3712  0.3642 -0.5286
 7417SOL    HW133884   1.302   1.189   2.219  0.4441  0.2962 -0.2604
 7417SOL    HW233885   1.355   1.053   2.213  1.7461  1.9804  1.2080
 7418SOL     OW33886   4.553   1.696   5.888 -0.0653 -0.5444 -0.1266
 7418SOL    HW133887   4.632   1.736   5.926 -1.1348 -0.1484  1.6712
 7418SOL    HW233888   4.561   1.734   5.800 -1.7578  0.7373  0.2730
 7419SOL     OW33889   2.736   1.218   5.471 -0.8865  0.4556  0.2430
 7419SOL    HW133890   2.779   1.200   5.387 -0.0261  1.0797  0.5492
 7419SOL    HW233891   2.712   1.310   5.467 -0.3505  0.5626 -0.7405
 7420SOL     OW33892   3.985   0.196  14.103 -0.4242  0.2764  0.1285
 7420SOL    HW133893   3.911   0.206  14.043 -0.2713 -0.3394 -0.1681
 7420SOL    HW233894   4.048   0.254  14.062 -0.7981  1.5412  1.3583
 7421SOL     OW33895   2.441   2.254   4.151 -0.1593  0.5994  0.0270
 7421SOL    HW133896   2.413   2.273   4.062 -0.4858 -1.4561 -0.3067
 7421SOL    HW233897   2.527   2.217   4.129 -1.1657 -0.4190 -2.1084
 7422SOL     OW33898   3.071   0.551   2.663  0.7318 -0.1366 -0.3377
 7422SOL    HW133899   3.120   0.618   2.614  0.7994  0.2387  0.2383
 7422SOL    HW233900   2.986   0.588   2.639  1.0492  1.8206  1.5504
 7423SOL     OW33901   4.121   1.228  15.299 -0.3491 -0.0452  0.5564
 7423SOL    HW133902   4.189   1.257  15.359 -0.3166  0.5365  0.2402
 7423SOL    HW233903   4.165   1.158  15.253  1.9535  0.4017  2.0974
 7424SOL     OW33904   4.389   0.221   1.268 -0.3689  0.1317 -0.0817
 7424SOL    HW133905   4.432   0.307   1.275  1.2029 -0.6096 -0.6313
 7424SOL    HW233906   4.329   0.247   1.198  0.9842  0.9416 -0.9582
 7425SOL     OW33907   2.593   4.350  17.126  0.2923 -0.6737 -0.3879
 7425SOL    HW133908   2.532   4.354  17.199  0.2041 -1.9560 -0.3836
 7425SOL    HW233909   2.676   4.368  17.169 -1.2414  1.3168  1.6975
 7426SOL     OW33910   2.097   4.238   4.007  0.3614 -0.4758  0.5396
 7426SOL    HW133911   2.101   4.301   3.936 -0.2872  0.1298  1.0434
 7426SOL    HW233912   2.138   4.165   3.961  2.9363  1.1880  0.1950
 7427SOL     OW33913   4.594   2.356  10.539 -0.3074  0.0416  0.7133
 7427SOL    HW133914   4.589   2.280  10.481  2.6286  2.1254 -2.3016
 7427SOL    HW233915   4.596   2.427  10.476 -2.7530  0.7638  1.4636
 7428SOL     OW33916   1.574   0.071  16.930 -0.1227 -1.0615 -0.2139
 7428SOL    HW133917   1.500   0.129  16.912 -0.3475 -0.8456  1.3313
 7428SOL    HW233918   1.620   0.085  16.848 -1.0150 -1.1730 -0.7408
 7429SOL     OW33919   0.446   0.798  12.967 -0.7728  0.0693  0.6038
 7429SOL    HW133920   0.508   0.761  13.029 -2.0138 -1.7629  0.7296
 7429SOL    HW233921   0.497   0.861  12.914 -0.4707 -0.2365  0.5280
 7430SOL     OW33922   4.155   2.763   4.419 -0.1239  0.5771  0.1652
 7430SOL    HW133923   4.143   2.727   4.332  1.2472  0.0318  0.1933
 7430SOL    HW233924   4.237   2.811   4.405 -0.5962  0.9758 -1.2268
 7431SOL     OW33925   2.890   3.012   1.419 -0.2216 -0.1888  0.1431
 7431SOL    HW133926   2.978   2.982   1.441  0.2422  1.9175  1.1837
 7431SOL    HW233927   2.873   2.960   1.341 -1.3693 -1.2056  1.0720
 7432SOL     OW33928   0.230   1.116   6.437 -0.4162  0.3936 -0.2516
 7432SOL    HW133929   0.251   1.073   6.520  0.3065  1.4223  0.1040
 7432SOL    HW233930   0.234   1.044   6.375 -1.2310  0.2429 -0.1340
 7433SOL     OW33931   0.442   1.858   8.648  0.1067  0.4964 -0.4305
 7433SOL    HW133932   0.382   1.918   8.692  2.2749  0.6001  2.4243
 7433SOL    HW233933   0.531   1.891   8.659 -0.1703  0.6434  1.4184
 7434SOL     OW33934   2.674   2.421   3.833 -0.6758 -0.1019  0.4955
 7434SOL    HW133935   2.699   2.502   3.878 -1.1705  0.9224 -1.0571
 7434SOL    HW233936   2.755   2.371   3.829  1.4392  3.3776 -0.5506
 7435SOL     OW33937   1.857   3.898   2.480  0.8299  0.4391 -0.1127
 7435SOL    HW133938   1.864   3.972   2.540 -0.1586  0.2475  0.2332
 7435SOL    HW233939   1.951   3.884   2.477  0.7856 -0.1778  1.5079
 7436SOL     OW33940   1.013   3.353   8.969  0.8244 -0.2561 -0.1957
 7436SOL    HW133941   0.933   3.335   8.921  0.9415 -0.8575 -0.1662
 7436SOL    HW233942   0.970   3.370   9.053  0.5613  1.9847 -0.7737
 7437SOL     OW33943   2.588   0.358   0.504  0.3316 -0.1038  0.2349
 7437SOL    HW133944   2.587   0.454   0.503  0.6232 -0.1290 -2.1669
 7437SOL    HW233945   2.550   0.344   0.417 -0.9982 -0.5476  0.8884
 7438SOL     OW33946   0.949   1.052   6.056 -0.2841 -0.8578  0.0203
 7438SOL    HW133947   0.915   0.975   6.011 -0.4751 -0.7525 -0.0135
 7438SOL    HW233948   0.943   1.125   5.995 -0.8238  1.1583  2.4992
 7439SOL     OW33949   1.655   0.096  16.670  0.0151 -0.2422  0.2438
 7439SOL    HW133950   1.692   0.176  16.632 -2.4796  0.2226 -1.2049
 7439SOL    HW233951   1.629   0.054  16.588 -1.2888  2.7760 -0.8831
 7440SOL     OW33952   4.643   4.438   6.229 -0.1398  0.2948  0.0956
 7440SOL    HW133953   4.576   4.507   6.220 -0.4110  0.0468  0.2083
 7440SOL    HW233954   4.725   4.484   6.243 -1.0619  0.8851  3.5374
 7441SOL     OW33955   4.071   0.113   3.768  0.5531 -0.3940  0.1002
 7441SOL    HW133956   4.136   0.063   3.717 -1.3700  0.4436 -3.1862
 7441SOL    HW233957   4.074   0.195   3.718 -1.3223 -0.0374  0.5775
 7442SOL     OW33958   2.958   4.144   3.047 -0.0784 -0.8271 -0.2736
 7442SOL    HW133959   2.895   4.210   3.077  1.3584 -0.0763  1.0459
 7442SOL    HW233960   2.906   4.104   2.977  1.3235 -1.6893 -0.8197
 7443SOL     OW33961   4.433   0.681   1.655 -0.2512 -0.0953 -0.4565
 7443SOL    HW133962   4.460   0.772   1.665  3.1268 -1.2618  1.2407
 7443SOL    HW233963   4.408   0.669   1.563  0.0710  0.3430 -0.6014
 7444SOL     OW33964   4.073   3.855   2.587 -0.1455  0.5596  0.2442
 7444SOL    HW133965   4.068   3.926   2.652  0.5450  0.7742  0.0664
 7444SOL    HW233966   4.052   3.782   2.646 -1.4483 -0.1769 -1.1484
 7445SOL     OW33967   2.537   1.357   0.950 -0.3022 -0.3081  0.0902
 7445SOL    HW133968   2.446   1.355   0.980 -0.8803  0.0185 -1.6770
 7445SOL    HW233969   2.529   1.413   0.873  4.7873 -2.8526 -2.2743
 7446SOL     OW33970   2.703   3.770   4.467  0.2187 -0.1490  0.2185
 7446SOL    HW133971   2.636   3.710   4.498  1.3915 -1.0159  1.0337
 7446SOL    HW233972   2.712   3.816   4.550  0.2654 -1.0574  0.7065
 7447SOL     OW33973   1.329   0.130   0.201 -0.1577 -0.4561  0.1969
 7447SOL    HW133974   1.287   0.211   0.170  1.3488 -0.0543 -0.7635
 7447SOL    HW233975   1.423   0.138   0.192 -0.1995 -1.1854 -0.8767
 7448SOL     OW33976   1.190   3.276   2.336 -0.4388  0.1434  0.4803
 7448SOL    HW133977   1.193   3.364   2.375  2.1575  0.9952 -1.6695
 7448SOL    HW233978   1.235   3.224   2.401 -1.6261 -1.7984 -0.2307
 7449SOL     OW33979   3.982   1.404   2.404 -0.7011 -0.0270 -0.4875
 7449SOL    HW133980   3.948   1.413   2.493 -4.0552  1.3245 -1.9149
 7449SOL    HW233981   3.951   1.317   2.380  0.2788  0.1758 -2.4676
 7450SOL     OW33982   1.724   3.848   2.245  0.0747  0.2529  0.1740
 7450SOL    HW133983   1.794   3.866   2.308 -0.4114 -2.3441  1.4746
 7450SOL    HW233984   1.669   3.786   2.293 -3.7192  2.6015 -1.1645
 7451SOL     OW33985   4.314   2.918   8.322  0.7679 -0.1188 -0.5425
 7451SOL    HW133986   4.293   2.831   8.353 -1.0662  0.1551 -1.0333
 7451SOL    HW233987   4.260   2.921   8.243 -0.1116 -0.1547  0.0642
 7452SOL     OW33988   4.697   4.654  17.322 -0.4759 -0.2490  0.0265
 7452SOL    HW133989   4.633   4.591  17.355  0.0336 -1.1264 -0.6530
 7452SOL    HW233990   4.651   4.703  17.254  0.8291  1.1814  0.1884
 7453SOL     OW33991   2.977   1.571  11.943  0.1092  0.1543  0.0574
 7453SOL    HW133992   2.924   1.544  12.018  1.4569  0.3719  1.1124
 7453SOL    HW233993   2.917   1.606  11.877 -0.3041 -1.1386 -0.2493
 7454SOL     OW33994   3.906   3.131  16.204 -0.5006 -0.5635  0.9283
 7454SOL    HW133995   3.883   3.195  16.138  0.7718 -1.8521 -0.7616
 7454SOL    HW233996   3.996   3.108  16.182 -0.9828 -0.0487 -1.5159
 7455SOL     OW33997   1.917   0.319   5.684 -0.2763 -0.5720 -0.8419
 7455SOL    HW133998   1.857   0.298   5.756  2.2498  0.9113  1.7164
 7455SOL    HW233999   1.999   0.325   5.733 -1.2800 -1.9230  1.0114
 7456SOL     OW34000   3.701   0.527  13.634 -1.0054 -0.1752 -0.0781
 7456SOL    HW134001   3.670   0.481  13.713  0.7711  0.9902  1.2864
 7456SOL    HW234002   3.620   0.532  13.583 -1.1851 -2.0556  0.0251
 7457SOL     OW34003   3.394   4.694  14.545 -0.0538 -0.3217 -0.5288
 7457SOL    HW134004   3.393   0.035  14.487 -3.7719 -0.8064 -1.0927
 7457SOL    HW234005   3.457   0.004  14.601 -0.4037  3.4771 -3.1402
 7458SOL     OW34006   0.461   0.065   4.415 -0.3881  0.1022 -0.1922
 7458SOL    HW134007   0.449   4.719   4.367 -3.3049  1.5433 -1.8441
 7458SOL    HW234008   0.529   0.038   4.477  1.5245 -0.5994 -2.5902
 7459SOL     OW34009   4.621   4.078   9.360  0.6209  0.3224  0.4490
 7459SOL    HW134010   4.621   3.984   9.378 -1.7350  0.3067  0.3808
 7459SOL    HW234011   4.548   4.084   9.298  0.0526  0.3098  1.1148
 7460SOL     OW34012   0.501   4.540   4.311  0.5907  0.1639 -0.3694
 7460SOL    HW134013   0.543   4.455   4.325  2.6063  1.6559  2.7299
 7460SOL    HW234014   0.417   4.511   4.275  1.3352  1.5213 -3.1582
 7461SOL     OW34015   1.853   3.803  13.080  0.0628  0.0286 -0.0891
 7461SOL    HW134016   1.810   3.767  13.003 -0.1121  0.6601 -0.2892
 7461SOL    HW234017   1.866   3.897  13.067 -0.7383 -0.0920 -1.6756
 7462SOL     OW34018   0.754   1.743   9.491 -0.1168 -0.5568 -0.0845
 7462SOL    HW134019   0.762   1.654   9.458 -1.7557 -0.7513  0.0208
 7462SOL    HW234020   0.671   1.746   9.538  0.3323 -1.2488  0.7458
 7463SOL     OW34021   4.112   0.352   4.563 -0.3667  0.2691 -0.1917
 7463SOL    HW134022   4.075   0.264   4.563 -1.1239  0.5744  2.0886
 7463SOL    HW234023   4.070   0.385   4.642  1.5631 -0.2696  1.0435
 7464SOL     OW34024   1.088   1.332   8.941 -0.5562  0.1546 -0.4595
 7464SOL    HW134025   1.174   1.331   8.898  1.0898  2.1466  2.8160
 7464SOL    HW234026   1.104   1.322   9.035  1.2753  2.9018 -0.4735
 7465SOL     OW34027   4.614   0.317  15.048 -0.6014  0.3904  0.1117
 7465SOL    HW134028   4.599   0.399  15.002  0.8602  1.0840  0.8733
 7465SOL    HW234029   4.537   0.316  15.104  0.6941  0.7820  1.8894
 7466SOL     OW34030   2.848   1.790   5.522 -0.6474  0.2934  0.6385
 7466SOL    HW134031   2.841   1.746   5.607  1.1681 -2.2113 -0.5102
 7466SOL    HW234032   2.816   1.877   5.546  0.0671  1.4705 -2.6999
 7467SOL     OW34033   4.220   3.498   9.409  0.5886  0.2794  0.3198
 7467SOL    HW134034   4.213   3.418   9.462  0.8421 -0.1170 -0.2484
 7467SOL    HW234035   4.171   3.476   9.330  0.8292 -0.5041  0.3879
 7468SOL     OW34036   3.086   4.588   0.390  0.5075 -0.4928  0.0946
 7468SOL    HW134037   3.032   4.510   0.385 -0.3594  0.1079  0.0843
 7468SOL    HW234038   3.149   4.552   0.452  0.3288 -1.6276 -0.3927
 7469SOL     OW34039   2.271   3.306   4.214 -0.5206 -0.0305 -0.5788
 7469SOL    HW134040   2.322   3.316   4.134  1.6174  1.1889  0.9211
 7469SOL    HW234041   2.182   3.318   4.180 -0.8103 -1.7801 -0.4183
 7470SOL     OW34042   2.516   3.478   2.418 -0.3372  0.2442 -0.3682
 7470SOL    HW134043   2.577   3.405   2.424 -3.8767 -2.6958 -0.4090
 7470SOL    HW234044   2.501   3.488   2.324 -1.6655  1.1293 -0.0585
 7471SOL     OW34045   2.385   3.989   7.429 -0.4297  0.6161 -0.0072
 7471SOL    HW134046   2.321   4.055   7.401 -1.1084 -0.2416 -0.4759
 7471SOL    HW234047   2.432   3.983   7.346 -0.8523  1.1088 -0.2897
 7472SOL     OW34048   3.829   4.508   7.404 -0.0163  0.1162 -0.0882
 7472SOL    HW134049   3.742   4.496   7.364 -0.1733  0.5457  0.1318
 7472SOL    HW234050   3.880   4.515   7.323  1.4356  1.4975  0.9737
 7473SOL     OW34051   0.991   2.660   2.348 -0.2726 -0.3054 -0.0860
 7473SOL    HW134052   0.976   2.694   2.260  1.5011  2.6090  0.7395
 7473SOL    HW234053   1.011   2.570   2.321  0.1409 -0.3332  0.3087
 7474SOL     OW34054   3.647   1.721   8.004  0.1068 -0.0821  0.0438
 7474SOL    HW134055   3.694   1.681   8.077  0.0980  0.9973  0.6414
 7474SOL    HW234056   3.594   1.648   7.973 -0.1725  0.3726 -0.5567
 7475SOL     OW34057   0.201   0.105  13.937 -0.1938 -0.1326 -0.2559
 7475SOL    HW134058   0.282   0.129  13.981 -2.3651  3.6133  1.6307
 7475SOL    HW234059   0.245   0.048  13.873  0.7865  1.0701 -0.6488
 7476SOL     OW34060   0.804   3.215   4.800  0.1857 -0.5441  0.1315
 7476SOL    HW134061   0.841   3.295   4.837  0.6011 -0.8193  0.3150
 7476SOL    HW234062   0.711   3.227   4.820 -0.1649 -0.1370 -1.6834
 7477SOL     OW34063   2.059   1.347  17.683 -0.1365  0.4735 -0.0922
 7477SOL    HW134064   1.970   1.325  17.657 -0.0449  1.0001 -0.8544
 7477SOL    HW234065   2.086   1.402  17.609  1.2809 -0.6780 -0.4381
 7478SOL     OW34066   0.825   3.702  13.915 -0.3185  0.6255 -0.0625
 7478SOL    HW134067   0.920   3.701  13.924 -0.2386 -0.2551 -0.9370
 7478SOL    HW234068   0.798   3.788  13.944 -0.3811  0.7737 -0.5569
 7479SOL     OW34069   0.537   3.850   6.873 -0.3952 -0.0421 -0.4297
 7479SOL    HW134070   0.461   3.800   6.844 -2.0769  1.9554  0.5793
 7479SOL    HW234071   0.607   3.789   6.847  1.2223  1.4296  0.4655
 7480SOL     OW34072   1.218   1.735  16.264  0.3971  0.2717 -0.1279
 7480SOL    HW134073   1.129   1.769  16.261  0.3010  0.1760  1.6556
 7480SOL    HW234074   1.268   1.818  16.263  1.7678 -0.5262  1.2901
 7481SOL     OW34075   4.486   2.440   7.852  0.0426 -0.1254 -0.0703
 7481SOL    HW134076   4.455   2.354   7.880  0.6793 -0.0639  0.7996
 7481SOL    HW234077   4.496   2.486   7.935  2.3677  1.4865 -1.2552
 7482SOL     OW34078   1.148   0.565  11.625 -0.0024 -0.2552 -0.3168
 7482SOL    HW134079   1.100   0.584  11.705 -1.0804 -1.7525 -0.6016
 7482SOL    HW234080   1.189   0.650  11.614 -0.4899  0.0262  0.0288
 7483SOL     OW34081   1.193   2.790  15.147  0.1812  0.0264 -0.0342
 7483SOL    HW134082   1.161   2.719  15.092  1.3510  0.5210 -1.3487
 7483SOL    HW234083   1.196   2.747  15.233 -0.6838  1.1667  0.5696
 7484SOL     OW34084   0.686   2.591   4.970  0.2472 -0.2831 -0.3570
 7484SOL    HW134085   0.616   2.547   5.018 -1.3397 -0.6452 -3.0201
 7484SOL    HW234086   0.738   2.520   4.931 -0.0187 -1.3026  1.1619
 7485SOL     OW34087   2.232   2.593   5.061 -0.1877  0.1683 -0.0889
 7485SOL    HW134088   2.150   2.600   5.109 -1.0798  0.9099 -1.6926
 7485SOL    HW234089   2.274   2.680   5.063  0.0645  0.0463 -0.0506
 7486SOL     OW34090   2.007   0.471   1.033 -0.4991  0.5237  0.0481
 7486SOL    HW134091   2.083   0.414   1.048 -1.4618 -0.4298  1.3065
 7486SOL    HW234092   2.026   0.540   1.097  0.1028  1.2170 -0.8745
 7487SOL     OW34093   1.738   0.289   0.717  0.3491 -0.3266  0.3580
 7487SOL    HW134094   1.696   0.274   0.632  0.2840  0.1219  0.3110
 7487SOL    HW234095   1.662   0.324   0.762 -0.5790 -1.7832 -0.0764
 7488SOL     OW34096   4.003   3.087  11.512  0.2515 -0.5858  0.1008
 7488SOL    HW134097   4.046   3.118  11.433  1.0968 -0.8003  0.4709
 7488SOL    HW234098   4.041   3.139  11.583 -0.9822  0.2576  0.1495
 7489SOL     OW34099   4.429   2.285  11.168 -0.0641 -0.3079 -0.3607
 7489SOL    HW134100   4.348   2.257  11.126  0.1251 -0.0804 -0.8883
 7489SOL    HW234101   4.421   2.380  11.179 -0.1258 -0.3745  0.1658
 7490SOL     OW34102   4.712   4.052   0.337  0.5611 -0.6084  0.0308
 7490SOL    HW134103   4.679   3.974   0.381 -1.2025 -0.7529 -1.5152
 7490SOL    HW234104   4.634   4.087   0.294  2.8966  1.0443 -2.8878
 7491SOL     OW34105   1.518   1.992  12.703 -0.0821 -0.1328  0.1432
 7491SOL    HW134106   1.573   1.964  12.629  0.6232  1.1317  0.1876
 7491SOL    HW234107   1.589   2.032  12.754 -1.7091  1.2818  1.2749
 7492SOL     OW34108   0.505   3.171  17.476 -0.5551 -0.6198 -0.2514
 7492SOL    HW134109   0.482   3.078  17.471  0.3557 -0.9528  1.7866
 7492SOL    HW234110   0.454   3.197  17.553  1.2151  2.6475 -0.1705
 7493SOL     OW34111   2.446   3.153   2.989  0.3077 -0.7629 -0.0699
 7493SOL    HW134112   2.350   3.153   2.996  0.4577 -0.9171  2.0017
 7493SOL    HW234113   2.458   3.172   2.896 -0.5461 -0.6420 -0.1578
 7494SOL     OW34114   0.429   3.270   1.929  0.3009 -0.1049 -0.2868
 7494SOL    HW134115   0.380   3.346   1.898 -1.4737 -1.4765 -0.8706
 7494SOL    HW234116   0.486   3.300   1.999  1.7561  0.5799 -1.7587
 7495SOL     OW34117   0.832   2.908   0.276 -0.2887 -0.2028  0.1882
 7495SOL    HW134118   0.851   3.000   0.256 -1.6348  0.2423  0.9502
 7495SOL    HW234119   0.832   2.898   0.371 -1.6199  0.2174  0.2281
 7496SOL     OW34120   2.484   2.907   9.276  0.3255  0.0814 -0.1413
 7496SOL    HW134121   2.507   2.827   9.323  0.3080  0.5029  0.5819
 7496SOL    HW234122   2.395   2.929   9.304 -0.4980 -1.5123 -1.5122
 7497SOL     OW34123   3.280   1.532   4.000  0.5063  0.1087 -0.3083
 7497SOL    HW134124   3.308   1.481   4.077 -0.3836  1.4213  0.8899
 7497SOL    HW234125   3.199   1.481   3.991 -0.8084  2.2830 -0.6930
 7498SOL     OW34126   4.296   3.485  10.237  0.0476 -0.0258  0.4435
 7498SOL    HW134127   4.323   3.448  10.321  1.0502 -0.5006 -0.0877
 7498SOL    HW234128   4.208   3.515  10.257 -0.9211 -2.7881  0.2615
 7499SOL     OW34129   1.494   3.854  14.124 -0.0483 -0.1713 -0.2377
 7499SOL    HW134130   1.512   3.787  14.191 -1.0995  0.5308  0.7452
 7499SOL    HW234131   1.445   3.804  14.059  1.9293  0.4345 -2.1954
 7500SOL     OW34132   1.871   1.289   3.769 -0.4214 -0.3134  0.3520
 7500SOL    HW134133   1.824   1.280   3.686 -0.3923 -2.8289  0.6227
 7500SOL    HW234134   1.842   1.217   3.823  1.6150 -1.0297  0.5000
 7501SOL     OW34135   1.651   1.207  14.050  0.3094  0.3841  0.8975
 7501SOL    HW134136   1.627   1.294  14.019  0.3061  0.4306  1.0327
 7501SOL    HW234137   1.733   1.225  14.096 -0.5174  3.1945  1.2694
 7502SOL     OW34138   4.129   4.506   8.733 -0.2819 -0.5117 -0.2446
 7502SOL    HW134139   4.094   4.591   8.759  0.9575  0.3361 -1.3595
 7502SOL    HW234140   4.054   4.455   8.766 -1.3383  0.3879 -1.2223
 7503SOL     OW34141   3.955   0.599   4.105  0.0617 -0.0687  0.1724
 7503SOL    HW134142   3.865   0.621   4.128 -0.2230 -0.3952 -0.6268
 7503SOL    HW234143   3.974   0.530   4.169 -0.5487 -0.8373 -0.4744
 7504SOL     OW34144   1.812   4.498  11.268  0.0976  0.1658  0.0814
 7504SOL    HW134145   1.890   4.473  11.317 -1.7956 -0.0213  3.0120
 7504SOL    HW234146   1.770   4.565  11.321 -2.5063  0.3184 -2.1576
 7505SOL     OW34147   2.594   2.668  17.713 -0.1396  0.2688  0.0135
 7505SOL    HW134148   2.499   2.677  17.718 -0.3017 -2.0874  0.9719
 7505SOL    HW234149   2.610   2.711   0.057 -1.1796 -0.6235  0.6699
 7506SOL     OW34150   1.257   1.395  16.141  0.4798 -0.6139 -0.1827
 7506SOL    HW134151   1.267   1.410  16.047 -0.3625  0.1768 -0.1531
 7506SOL    HW234152   1.331   1.443  16.177 -0.0569  0.3403 -0.3249
 7507SOL     OW34153   3.090   1.899  14.205  0.1890 -0.1657  0.6393
 7507SOL    HW134154   3.017   1.840  14.224  1.1935 -1.9921 -1.2330
 7507SOL    HW234155   3.063   1.991  14.207 -0.0363 -0.2078 -0.4923
 7508SOL     OW34156   0.464   3.451   4.695 -0.5044  0.3307 -0.0741
 7508SOL    HW134157   0.449   3.357   4.695  0.8803  0.1138  0.2442
 7508SOL    HW234158   0.453   3.470   4.602 -2.4180 -0.8544 -0.0896
 7509SOL     OW34159   0.092   3.758   6.686  0.2904 -0.7310 -0.0343
 7509SOL    HW134160   0.014   3.724   6.731  0.2079 -1.4982 -0.7552
 7509SOL    HW234161   0.074   3.851   6.680 -2.4390 -1.3662 -1.5411
 7510SOL     OW34162   0.801   0.619   9.974  0.3574  0.4887  0.3172
 7510SOL    HW134163   0.772   0.646  10.062 -2.5889 -1.5465 -0.0275
 7510SOL    HW234164   0.895   0.608   9.989  0.5630  1.7007 -0.0267
 7511SOL     OW34165   4.492   3.449   9.293 -0.2772 -0.0736 -0.1814
 7511SOL    HW134166   4.515   3.418   9.381  0.4380  2.3773  0.4854
 7511SOL    HW234167   4.580   3.461   9.257 -0.3606  0.4761 -0.1975
 7512SOL     OW34168   0.307   1.064   3.107 -0.3792 -0.4250 -0.4454
 7512SOL    HW134169   0.352   1.131   3.159 -0.1440  0.5626 -1.9437
 7512SOL    HW234170   0.233   1.109   3.066  0.0317 -1.4645 -2.3123
 7513SOL     OW34171   1.263   0.008   0.758 -0.1543 -0.2908 -0.7249
 7513SOL    HW134172   1.341   0.049   0.795 -1.2701  0.7504  0.4543
 7513SOL    HW234173   1.265   0.039   0.668 -1.8145  0.9721 -0.3161
 7514SOL     OW34174   2.327   2.089   4.604  0.2521  0.1422  0.1660
 7514SOL    HW134175   2.308   2.131   4.520 -0.8773  1.8927  1.2860
 7514SOL    HW234176   2.381   2.156   4.646 -0.1673  1.7751 -1.8647
 7515SOL     OW34177   3.978   0.706   5.729 -0.0124  0.0359  0.3724
 7515SOL    HW134178   3.949   0.647   5.799 -0.0702 -0.5556 -0.1459
 7515SOL    HW234179   4.034   0.768   5.774 -0.5018 -1.3803  2.9151
 7516SOL     OW34180   3.887   4.229   9.055 -0.2585 -0.5402  0.5265
 7516SOL    HW134181   3.894   4.324   9.061 -0.7484 -0.4080 -0.9529
 7516SOL    HW234182   3.932   4.192   9.130  0.9104  0.0630  0.1223
 7517SOL     OW34183   1.572   1.652   2.917  0.4799 -0.1886 -0.1464
 7517SOL    HW134184   1.480   1.658   2.941  0.7089  3.6797 -0.2203
 7517SOL    HW234185   1.598   1.737   2.882 -2.8434  1.0419  0.4506
 7518SOL     OW34186   0.909   0.160   0.612  0.5087 -0.1800 -0.4332
 7518SOL    HW134187   0.878   0.114   0.534  0.8102 -0.8190 -0.1730
 7518SOL    HW234188   0.855   0.239   0.622  0.2702 -0.2329 -1.3552
 7519SOL     OW34189   2.212   0.112   9.623  0.1722  0.2902 -0.0313
 7519SOL    HW134190   2.141   0.074   9.572 -0.1733  0.7806  0.0900
 7519SOL    HW234191   2.238   0.035   9.675 -0.4055  1.0441  1.3684
 7520SOL     OW34192   0.899   1.590  16.949 -0.5184 -0.3353  0.0771
 7520SOL    HW134193   0.951   1.533  17.006 -1.2697 -1.7318 -0.6439
 7520SOL    HW234194   0.882   1.660  17.012  0.7752  1.1222 -1.1951
 7521SOL     OW34195   1.046   1.756   5.043  0.2071 -0.0479 -0.2155
 7521SOL    HW134196   1.136   1.737   5.071 -0.5082 -1.1580  1.3506
 7521SOL    HW234197   1.061   1.708   4.962 -0.9574 -4.1172  1.9967
 7522SOL     OW34198   2.453   2.076   7.970 -0.1082  0.1548  0.3679
 7522SOL    HW134199   2.473   2.157   8.016  1.7829 -1.1539  1.8357
 7522SOL    HW234200   2.375   2.048   8.019 -3.0630  0.8503 -3.9197
 7523SOL     OW34201   0.069   4.480   3.924 -0.2140  0.1298 -0.6999
 7523SOL    HW134202   0.066   4.474   4.019  1.4742  0.2265 -0.6340
 7523SOL    HW234203   4.726   4.431   3.897  0.6859 -0.0934 -2.9565
 7524SOL     OW34204   0.940   1.531   3.504 -0.1970  0.0534 -0.5204
 7524SOL    HW134205   0.940   1.602   3.568  1.1753  0.8509 -1.4150
 7524SOL    HW234206   0.975   1.571   3.424 -0.6764  0.0841 -0.7160
 7525SOL     OW34207   1.010   1.355   9.893  0.4057 -0.5634  0.3109
 7525SOL    HW134208   0.944   1.327   9.956  1.0459  0.0544  1.2489
 7525SOL    HW234209   1.058   1.422   9.942  3.1089 -1.6476 -0.8049
 7526SOL     OW34210   3.128   1.860  13.773  0.1947 -0.2589 -0.6956
 7526SOL    HW134211   3.131   1.953  13.752  2.1454 -0.7192 -2.4498
 7526SOL    HW234212   3.221   1.844  13.790  0.1298  1.0174  0.8945
 7527SOL     OW34213   4.137   3.108   1.800  0.7664  0.6920  0.4818
 7527SOL    HW134214   4.064   3.134   1.856 -0.7166  0.1143 -1.1733
 7527SOL    HW234215   4.215   3.139   1.846  0.7957 -0.1572  0.9897
 7528SOL     OW34216   2.556   1.425   3.826 -0.3695 -0.2128  0.1883
 7528SOL    HW134217   2.628   1.421   3.764 -2.6953  0.1844 -2.4985
 7528SOL    HW234218   2.530   1.517   3.833 -1.8944 -0.6837  0.7156
 7529SOL     OW34219   3.094   3.964   5.914 -0.0020  0.3944 -0.3903
 7529SOL    HW134220   3.070   4.045   5.869  1.6130  1.2497  0.3061
 7529SOL    HW234221   3.184   3.949   5.886 -0.1225  2.5186 -1.9147
 7530SOL     OW34222   4.297   4.374   8.567 -0.5183  0.1008 -0.2157
 7530SOL    HW134223   4.369   4.437   8.559 -0.4274  0.1633  1.0620
 7530SOL    HW234224   4.245   4.411   8.639 -2.2007  2.4207 -2.6181
 7531SOL     OW34225   2.984   3.037  16.981  0.2796  0.4143 -0.1361
 7531SOL    HW134226   2.937   2.959  16.951  0.5436 -0.0378  0.6157
 7531SOL    HW234227   3.034   3.000  17.054 -0.3878 -1.6401 -0.7106
 7532SOL     OW34228   0.116   3.011   4.277  0.3583  0.1839  0.4631
 7532SOL    HW134229   0.145   2.994   4.367 -1.1327 -4.6412  0.0266
 7532SOL    HW234230   0.181   2.966   4.224  1.0778  1.0359  0.6308
 7533SOL     OW34231   0.627   4.087  15.836  0.2490  0.2046 -0.2762
 7533SOL    HW134232   0.580   4.034  15.771  0.4081  1.4911 -1.4579
 7533SOL    HW234233   0.556   4.148  15.855  0.0624 -0.2614  0.4980
 7534SOL     OW34234   2.122   1.951   3.679  0.0128  0.0281  0.6424
 7534SOL    HW134235   2.142   1.858   3.693 -1.4485 -0.4055 -0.2293
 7534SOL    HW234236   2.202   1.997   3.706 -0.4556  1.4933 -0.4434
 7535SOL     OW34237   2.289   4.575   0.301  0.0943  0.2460 -0.0373
 7535SOL    HW134238   2.263   4.498   0.251  1.6547 -0.1206 -0.2759
 7535SOL    HW234239   2.253   4.557   0.388 -0.9567  0.8332 -0.3542
 7536SOL     OW34240   1.239   0.135   7.553  0.0113 -0.0334 -0.2747
 7536SOL    HW134241   1.280   0.049   7.548 -0.1526 -0.0646 -1.0702
 7536SOL    HW234242   1.150   0.111   7.527  0.7254 -1.0675 -1.7277
 7537SOL     OW34243   4.707   1.624   8.240 -0.0950  0.4272  0.2020
 7537SOL    HW134244   4.706   1.681   8.164  1.6902 -0.4751 -0.5068
 7537SOL    HW234245   4.620   1.631   8.280 -1.2062  1.2096 -2.3867
 7538SOL     OW34246   1.634   0.852   6.200 -0.7517 -0.3780 -0.6095
 7538SOL    HW134247   1.650   0.910   6.126  2.3953 -0.2756  0.1532
 7538SOL    HW234248   1.654   0.771   6.154  2.0911 -1.0483  1.7589
 7539SOL     OW34249   1.455   3.228  15.177 -0.1667 -0.6894  0.3182
 7539SOL    HW134250   1.415   3.154  15.133 -0.6615  0.3330 -0.9627
 7539SOL    HW234251   1.392   3.296  15.153 -0.3072 -0.6577  0.7735
 7540SOL     OW34252   1.288   1.413   5.624 -0.5554  0.3237  0.2741
 7540SOL    HW134253   1.236   1.388   5.700 -2.0789  0.7790 -0.6029
 7540SOL    HW234254   1.287   1.333   5.571 -1.3968  1.0345 -0.7968
 7541SOL     OW34255   1.640   3.989   9.307 -0.0360  0.1780 -0.5991
 7541SOL    HW134256   1.699   3.914   9.312 -0.9787 -0.4814  0.4271
 7541SOL    HW234257   1.697   4.066   9.316 -0.6594  0.2475  2.5177
 7542SOL     OW34258   0.641   3.208   5.465  0.2529  0.1350 -0.3969
 7542SOL    HW134259   0.649   3.252   5.380  1.9464  1.4530  0.4419
 7542SOL    HW234260   0.615   3.278   5.525 -1.3809 -1.8120  1.1216
 7543SOL     OW34261   4.336   2.603   7.680  0.0904 -0.1170 -0.2545
 7543SOL    HW134262   4.318   2.664   7.751  1.0626 -0.4072  0.2469
 7543SOL    HW234263   4.381   2.534   7.728 -0.6053 -2.3403 -2.7538
 7544SOL     OW34264   2.257   1.590   2.796  0.3086 -0.2418  0.1386
 7544SOL    HW134265   2.211   1.613   2.715 -2.9335 -2.3090  1.3866
 7544SOL    HW234266   2.197   1.540   2.852  1.1947 -2.1893 -0.6203
 7545SOL     OW34267   4.431   2.669   3.658 -0.1224  0.3948 -0.2027
 7545SOL    HW134268   4.455   2.584   3.622 -0.2198  0.8387 -1.3369
 7545SOL    HW234269   4.499   2.695   3.720  0.1872 -2.0945  0.4978
 7546SOL     OW34270   3.283   0.100  15.672 -0.9994 -0.0403 -0.6304
 7546SOL    HW134271   3.340   0.111  15.748 -0.3495  2.2773 -1.4669
 7546SOL    HW234272   3.296   0.010  15.643  0.7757  0.3469 -1.0504
 7547SOL     OW34273   2.704   3.206   4.341  0.4942 -0.5759  0.3774
 7547SOL    HW134274   2.662   3.280   4.386 -1.9847 -2.3841  1.0134
 7547SOL    HW234275   2.638   3.138   4.351  0.1276 -0.4482 -1.2350
 7548SOL     OW34276   3.451   3.461   7.309  0.1629 -0.8706  0.1681
 7548SOL    HW134277   3.376   3.477   7.253  0.6599 -2.7214 -1.0059
 7548SOL    HW234278   3.415   3.428   7.391 -0.1860 -0.9227 -0.0101
 7549SOL     OW34279   0.115   3.946  10.135  0.0770 -0.0703 -0.0721
 7549SOL    HW134280   0.148   3.878  10.076 -0.9433 -1.0164  0.4611
 7549SOL    HW234281   0.079   3.894  10.207 -0.0602 -2.2336 -1.7334
 7550SOL     OW34282   0.979   4.534   6.935  0.0278  0.1381 -0.0922
 7550SOL    HW134283   0.890   4.513   6.906 -0.0773  3.2783 -2.0638
 7550SOL    HW234284   0.975   4.471   7.006  0.2264 -0.7855 -0.9092
 7551SOL     OW34285   4.520   0.924   1.739  0.1896  0.3297  0.7621
 7551SOL    HW134286   4.433   0.908   1.774 -0.1074  0.9327  0.3014
 7551SOL    HW234287   4.571   0.897   1.815  2.7002 -1.7859 -1.6584
 7552SOL     OW34288   1.707   3.385   4.049  0.0584  0.0782  0.2165
 7552SOL    HW134289   1.692   3.441   3.973  1.9847  1.2468  0.6871
 7552SOL    HW234290   1.625   3.395   4.097  0.2701  1.1005  0.3768
 7553SOL     OW34291   3.563   1.097   3.368 -0.1970 -0.6178 -0.7936
 7553SOL    HW134292   3.529   1.136   3.287  2.0012 -0.5706 -1.6856
 7553SOL    HW234293   3.504   1.123   3.439  0.7432  0.8724 -0.5644
 7554SOL     OW34294   3.154   0.303  15.197 -0.6278  0.2351 -0.5595
 7554SOL    HW134295   3.114   0.380  15.238  0.0322  1.2266 -1.7883
 7554SOL    HW234296   3.238   0.287  15.240 -1.0314 -2.1831 -0.6638
 7555SOL     OW34297   0.474   0.940   5.316  0.4782 -0.1001 -0.0272
 7555SOL    HW134298   0.442   1.029   5.305  2.7637  0.7103 -0.0121
 7555SOL    HW234299   0.447   0.925   5.406 -1.7523  3.1964 -0.1638
 7556SOL     OW34300   1.083   2.269  13.134 -0.8176  0.5013 -0.0580
 7556SOL    HW134301   1.034   2.218  13.199 -1.0434  0.4252 -0.2879
 7556SOL    HW234302   1.110   2.203  13.070  0.2731 -0.6644  1.6249
 7557SOL     OW34303   2.627   3.735   0.344 -0.4016 -0.0885  0.0750
 7557SOL    HW134304   2.693   3.733   0.275  1.5078 -0.9446  1.9431
 7557SOL    HW234305   2.567   3.802   0.309  1.3503  1.6566  0.4278
 7558SOL     OW34306   4.729   2.357   6.588 -0.1775 -0.3600  0.1579
 7558SOL    HW134307   0.030   2.398   6.509  0.6686 -1.1915  0.1135
 7558SOL    HW234308   4.672   2.428   6.617  0.3024  0.0425  0.0996
 7559SOL     OW34309   1.078   2.083   7.568 -0.5628  0.2315 -0.2917
 7559SOL    HW134310   1.142   2.019   7.536 -1.5830 -1.4201  0.9433
 7559SOL    HW234311   1.137   2.154   7.593 -0.4924 -0.4500  1.5298
 7560SOL     OW34312   0.229   2.658   5.991 -0.4827 -0.0234  0.1081
 7560SOL    HW134313   0.236   2.724   5.922  0.7338  0.0254  0.2752
 7560SOL    HW234314   0.148   2.615   5.967  0.6089 -0.6451 -2.4687
 7561SOL     OW34315   0.826   1.509   7.671  0.0677 -0.2463 -0.0153
 7561SOL    HW134316   0.770   1.545   7.740  1.1771  1.6946 -0.0983
 7561SOL    HW234317   0.778   1.443   7.621 -0.3289 -0.4836  0.6788
 7562SOL     OW34318   2.543   3.011   5.041 -0.2300 -0.4589  0.8649
 7562SOL    HW134319   2.603   3.010   4.967 -2.8170 -1.6266 -1.2258
 7562SOL    HW234320   2.578   3.090   5.081 -0.1020  0.7381 -1.5753
 7563SOL     OW34321   1.234   2.339  15.947  0.4415  0.3621 -0.0054
 7563SOL    HW134322   1.166   2.405  15.962 -1.1977 -1.4013  0.3790
 7563SOL    HW234323   1.257   2.370  15.860 -1.5618 -0.3770 -0.7999
 7564SOL     OW34324   4.308   2.940   3.153  0.4732  0.0782 -0.1714
 7564SOL    HW134325   4.332   2.851   3.176  3.2584  1.0801  0.7386
 7564SOL    HW234326   4.216   2.935   3.178  0.4997 -1.4948 -0.4225
 7565SOL     OW34327   4.690   1.485  14.587  0.1666  0.1014 -0.6600
 7565SOL    HW134328   4.666   1.577  14.583 -1.0938 -0.2575 -1.3581
 7565SOL    HW234329   0.004   1.469  14.667 -1.5967  1.4367  0.6834
 7566SOL     OW34330   0.419   3.724   5.872  0.3228 -0.3617  0.4847
 7566SOL    HW134331   0.496   3.775   5.897 -1.4112  2.0316  1.0417
 7566SOL    HW234332   0.352   3.787   5.901  0.7998  0.6598 -0.6472
 7567SOL     OW34333   2.179   1.678   6.583  0.2095  0.3027  0.2196
 7567SOL    HW134334   2.168   1.583   6.577  2.3334  0.2450 -3.1379
 7567SOL    HW234335   2.187   1.699   6.676 -1.6126 -0.8033  0.6264
 7568SOL     OW34336   1.394   2.977  13.777  0.2543  0.4271 -0.3483
 7568SOL    HW134337   1.336   2.942  13.710  0.2567  0.6361 -0.4577
 7568SOL    HW234338   1.419   3.055  13.729  0.0235 -0.3090 -1.6538
 7569SOL     OW34339   1.680   3.545   5.203  0.0841  0.4379 -0.3650
 7569SOL    HW134340   1.760   3.561   5.253  0.0854 -2.2840  0.4721
 7569SOL    HW234341   1.695   3.597   5.124 -0.5012 -1.8492 -1.9615
 7570SOL     OW34342   2.612   4.331   7.754  0.0853 -0.1848 -0.3716
 7570SOL    HW134343   2.605   4.414   7.707  2.7369  0.9366  1.2436
 7570SOL    HW234344   2.583   4.268   7.688 -1.0704  2.0798 -2.0313
 7571SOL     OW34345   2.100   3.658   3.327  0.0488 -0.0698  0.0570
 7571SOL    HW134346   2.034   3.627   3.389  0.4884 -0.3808  0.3712
 7571SOL    HW234347   2.101   3.577   3.274  1.7921 -0.0225  0.0264
 7572SOL     OW34348   3.678   3.375   9.417 -0.0535 -0.0617 -0.4168
 7572SOL    HW134349   3.616   3.422   9.361  0.6419  1.7135  0.3001
 7572SOL    HW234350   3.756   3.406   9.373 -0.3742  2.0834  0.5265
 7573SOL     OW34351   2.887   4.345   0.386 -0.0231  0.0712  0.4545
 7573SOL    HW134352   2.898   4.386   0.300 -0.4631 -0.6771  0.0365
 7573SOL    HW234353   2.836   4.269   0.356 -2.0732  1.1131  1.2817
 7574SOL     OW34354   1.881   3.334   1.614  0.6464 -0.0789 -0.1348
 7574SOL    HW134355   1.820   3.309   1.545 -0.2675  0.0105  0.6483
 7574SOL    HW234356   1.833   3.342   1.696  1.0770  0.4607  0.0678
 7575SOL     OW34357   0.186   1.137   4.307  0.0045  0.0259 -0.1124
 7575SOL    HW134358   0.279   1.138   4.331  0.5671 -0.2818 -2.2553
 7575SOL    HW234359   0.172   1.047   4.276  1.0525 -0.2397  0.2025
 7576SOL     OW34360   0.434   0.934   0.518  0.0834 -0.2828 -0.6170
 7576SOL    HW134361   0.500   0.873   0.548  1.2981  1.4462  0.2421
 7576SOL    HW234362   0.363   0.920   0.581  0.6836  2.2547  0.6166
 7577SOL     OW34363   4.438   2.356  14.177  0.0402 -0.0129  0.3845
 7577SOL    HW134364   4.375   2.398  14.236 -0.6730  1.1877 -1.2393
 7577SOL    HW234365   4.398   2.369  14.091  1.8239  0.0043 -0.4431
 7578SOL     OW34366   2.057   1.447   2.490  0.3070  0.3898  0.0588
 7578SOL    HW134367   2.020   1.424   2.575 -0.5553 -0.9444 -0.6721
 7578SOL    HW234368   2.113   1.373   2.466  0.1573 -0.1436  1.3481
 7579SOL     OW34369   0.249   0.026   1.959  0.9095  0.5495 -0.1230
 7579SOL    HW134370   0.273   0.112   1.991 -0.8496  0.0283  2.6506
 7579SOL    HW234371   0.184   4.734   2.024  0.5366 -0.5153 -0.9371
 7580SOL     OW34372   0.946   3.876   6.311  0.1374 -0.3751 -0.0836
 7580SOL    HW134373   1.025   3.883   6.259 -0.5651  2.3365 -0.7879
 7580SOL    HW234374   0.974   3.934   6.382 -0.2101  0.3513 -0.5463
 7581SOL     OW34375   1.360   4.645   2.964 -0.1225 -0.1380 -0.5370
 7581SOL    HW134376   1.450   4.637   2.998 -0.1789  1.5788 -0.0105
 7581SOL    HW234377   1.308   4.616   3.039 -1.3133 -0.5756 -1.5354
 7582SOL     OW34378   3.898   4.126  17.082  0.4245  0.7403 -0.3331
 7582SOL    HW134379   3.908   4.126  16.986 -1.1683 -0.0322 -0.4941
 7582SOL    HW234380   3.815   4.080  17.092  0.4840  0.8692  0.7097
 7583SOL     OW34381   4.558   2.657  10.470 -0.2529 -0.3959  0.2945
 7583SOL    HW134382   4.567   2.701  10.555 -1.5505 -0.4172  0.4493
 7583SOL    HW234383   4.489   2.708  10.427  0.1240  0.1986  0.3887
 7584SOL     OW34384   3.846   1.867   5.942 -0.2170 -0.0613  0.1578
 7584SOL    HW134385   3.809   1.956   5.950  0.8495  0.3649  0.3362
 7584SOL    HW234386   3.794   1.831   5.871 -1.3157  0.9400  0.4346
 7585SOL     OW34387   2.333   2.876   8.604  0.4639  0.3020  0.2779
 7585SOL    HW134388   2.305   2.813   8.538  3.5050  1.1996 -1.8729
 7585SOL    HW234389   2.257   2.875   8.663  2.0716  1.4448  2.3751
 7586SOL     OW34390   1.063   3.778  13.476 -0.0484  0.2406  0.6852
 7586SOL    HW134391   1.063   3.864  13.435  1.1562  0.1015  0.3977
 7586SOL    HW234392   1.144   3.778  13.527  0.7558 -1.7217 -0.6053
 7587SOL     OW34393   0.540   3.514   3.627 -0.0226  0.3646  0.7806
 7587SOL    HW134394   0.501   3.426   3.624  0.6598  0.0521  1.1529
 7587SOL    HW234395   0.564   3.521   3.719  2.0318 -1.6635  0.4198
 7588SOL     OW34396   4.683   4.429   4.767  0.5139  0.6486 -0.0836
 7588SOL    HW134397   0.043   4.429   4.753  0.8731 -1.6833  2.3219
 7588SOL    HW234398   4.657   4.458   4.680  1.5884  0.7206 -0.3856
 7589SOL     OW34399   1.234   0.450   7.315  0.4185  0.2625  0.0975
 7589SOL    HW134400   1.147   0.486   7.299  1.1298  1.8696 -0.1507
 7589SOL    HW234401   1.278   0.496   7.244  0.7834 -1.2118 -0.6332
 7590SOL     OW34402   1.481   2.226   4.407 -0.6962  0.1377  0.0893
 7590SOL    HW134403   1.508   2.144   4.365  1.0486  1.2559 -0.9944
 7590SOL    HW234404   1.425   2.199   4.480 -1.5083 -0.5537 -0.7901
 7591SOL     OW34405   3.596   2.605   9.122 -0.5385 -0.4709  0.3202
 7591SOL    HW134406   3.513   2.616   9.168 -0.4277 -2.0079  0.8881
 7591SOL    HW234407   3.638   2.690   9.133 -0.9022 -0.8809  4.9372
 7592SOL     OW34408   4.097   1.014   2.888  1.0322 -0.3542 -0.1425
 7592SOL    HW134409   4.113   0.980   2.800 -1.9899  0.3073 -0.9459
 7592SOL    HW234410   4.153   0.949   2.931 -0.0954 -2.2089 -1.4219
 7593SOL     OW34411   0.097   1.124   1.851  0.0164 -0.2997  0.0158
 7593SOL    HW134412   0.093   1.210   1.808  1.4158  0.8552  2.2462
 7593SOL    HW234413   0.170   1.088   1.801 -0.1159 -2.6181  1.4671
 7594SOL     OW34414   0.343   3.538   1.791  0.2342  0.4630  0.0874
 7594SOL    HW134415   0.345   3.590   1.872 -1.9976 -0.2165  0.5741
 7594SOL    HW234416   0.436   3.540   1.768 -0.6224 -0.3334 -3.3571
 7595SOL     OW34417   2.973   2.780  14.576 -0.2587  0.0504 -1.0609
 7595SOL    HW134418   3.026   2.700  14.570 -2.1918 -1.3562  0.8237
 7595SOL    HW234419   3.030   2.839  14.626 -2.2965 -1.3864  2.9900
 7596SOL     OW34420   1.166   0.983   8.823  0.2854  0.0199 -0.2792
 7596SOL    HW134421   1.152   1.023   8.737 -0.4939  2.7210  1.1046
 7596SOL    HW234422   1.087   1.003   8.873 -0.8007 -2.9154 -0.8114
 7597SOL     OW34423   3.000   1.731   4.243 -0.4521 -0.1048 -0.0175
 7597SOL    HW134424   2.939   1.680   4.296 -0.9969 -0.3717 -0.9046
 7597SOL    HW234425   3.002   1.681   4.162 -2.3342  2.6486 -1.7551
 7598SOL     OW34426   1.905   1.202  14.170 -0.0386  0.2656 -0.0838
 7598SOL    HW134427   1.999   1.220  14.163 -0.0377  0.2637 -0.0770
 7598SOL    HW234428   1.910   1.168  14.259  0.4834  1.0095  0.1699
 7599SOL     OW34429   0.421   4.463   2.641 -0.3734  0.1545  0.3674
 7599SOL    HW134430   0.508   4.434   2.615 -1.6107 -1.2876 -2.1835
 7599SOL    HW234431   0.416   4.550   2.601 -0.4359 -0.1407 -0.2720
 7600SOL     OW34432   1.278   1.982   6.585  0.3255 -0.5057  0.0045
 7600SOL    HW134433   1.200   2.030   6.557  0.2523 -1.3973 -1.3290
 7600SOL    HW234434   1.303   1.963   6.495  1.1614 -0.9003  0.3202
 7601SOL     OW34435   1.861   4.015   2.926 -0.4450  0.2061 -0.2381
 7601SOL    HW134436   1.919   4.027   3.001 -0.6363  0.2803 -0.1021
 7601SOL    HW234437   1.782   4.064   2.947  0.6176  1.7542  0.1412
 7602SOL     OW34438   3.369   0.195   6.420 -0.0635 -0.2165  0.1607
 7602SOL    HW134439   3.420   0.115   6.432  2.3013  1.4419  1.0905
 7602SOL    HW234440   3.292   0.175   6.473  0.0887 -0.8888  0.1386
 7603SOL     OW34441   1.829   1.989   2.820  0.7890  0.2452 -0.3787
 7603SOL    HW134442   1.855   2.053   2.886 -0.7308  1.0500 -0.5556
 7603SOL    HW234443   1.913   1.943   2.825 -0.0490 -1.3830 -1.0902
 7604SOL     OW34444   2.040   0.950   1.304  0.0775 -0.2306  0.0519
 7604SOL    HW134445   1.998   0.956   1.390  0.4347 -2.4748  0.3983
 7604SOL    HW234446   1.990   0.881   1.260  1.3705 -0.5644 -0.8911
 7605SOL     OW34447   1.878   0.443   2.433 -1.0131 -0.0212 -0.3912
 7605SOL    HW134448   1.851   0.502   2.362  0.8300  2.5349  1.0707
 7605SOL    HW234449   1.971   0.440   2.413 -1.1796 -0.4869 -1.1096
 7606SOL     OW34450   3.729   3.707   5.742 -0.0881 -0.2567  0.0857
 7606SOL    HW134451   3.752   3.620   5.708  0.3074  0.3437 -1.1735
 7606SOL    HW234452   3.800   3.757   5.702 -1.2666  2.4984  1.4795
 7607SOL     OW34453   0.497   2.764  11.619 -0.4145 -0.2498  0.3578
 7607SOL    HW134454   0.535   2.851  11.604 -3.4317  1.0394  0.1106
 7607SOL    HW234455   0.575   2.710  11.622 -0.2862 -0.1162 -0.7726
 7608SOL     OW34456   0.077   2.531   7.173 -0.0245  0.6964  0.1396
 7608SOL    HW134457   0.143   2.502   7.110 -1.8810 -1.3749 -0.8327
 7608SOL    HW234458   0.090   2.626   7.175  1.2439  0.5282  0.2778
 7609SOL     OW34459   2.572   3.435  11.669 -0.0137  0.1879  0.2648
 7609SOL    HW134460   2.639   3.405  11.607 -0.7488 -0.0652 -0.4078
 7609SOL    HW234461   2.529   3.354  11.698  1.6510 -1.1296 -0.8889
 7610SOL     OW34462   4.241   4.421   2.635 -0.1781 -0.1270  0.0729
 7610SOL    HW134463   4.291   4.428   2.554 -1.2700  0.5667 -0.5211
 7610SOL    HW234464   4.182   4.495   2.629 -1.7193 -1.6003 -2.6461
 7611SOL     OW34465   1.497   1.949   8.549 -0.1446 -0.1045 -0.3305
 7611SOL    HW134466   1.583   1.936   8.589 -0.3837  0.2806  0.3130
 7611SOL    HW234467   1.519   1.998   8.470 -0.3870  0.4100 -0.0794
 7612SOL     OW34468   3.676   4.096  15.947 -0.6501 -0.0286  0.1578
 7612SOL    HW134469   3.749   4.108  15.887  0.3012 -2.5817  0.8163
 7612SOL    HW234470   3.715   4.131  16.027 -1.5181 -1.2756  1.1219
 7613SOL     OW34471   0.617   2.840   8.620 -0.1904 -0.2062 -0.1671
 7613SOL    HW134472   0.602   2.747   8.605  2.9352 -1.0761  1.9702
 7613SOL    HW234473   0.603   2.883   8.536  2.3101 -0.5456 -0.7689
 7614SOL     OW34474   3.429   2.425   4.053  0.7738 -0.3332  0.4664
 7614SOL    HW134475   3.366   2.399   4.120 -2.1991  0.5547 -1.9902
 7614SOL    HW234476   3.425   2.352   3.991  2.5602 -0.0964  0.0586
 7615SOL     OW34477   3.629   0.726   1.260  0.1311  0.1273 -0.7891
 7615SOL    HW134478   3.688   0.651   1.256  2.6186  2.1249 -1.7848
 7615SOL    HW234479   3.555   0.710   1.201 -1.1274 -0.9115  1.0943
 7616SOL     OW34480   0.076   0.406   3.577  0.4270 -0.0143  0.1737
 7616SOL    HW134481   0.166   0.383   3.599 -0.4063 -1.8019  1.6690
 7616SOL    HW234482   0.098   0.500   3.572 -0.6788  0.2565  0.4189
 7617SOL     OW34483   0.843   4.657   8.318  0.2245 -0.0240  0.5073
 7617SOL    HW134484   0.824   0.014   8.297 -3.1720 -1.4054 -2.4219
 7617SOL    HW234485   0.913   4.671   8.381  1.4184 -1.9860 -0.3648
 7618SOL     OW34486   0.736   4.328   9.311 -0.5594 -0.0708  0.5883
 7618SOL    HW134487   0.733   4.396   9.243 -2.1798 -1.1002 -0.3832
 7618SOL    HW234488   0.642   4.309   9.321 -0.2603 -2.6794 -1.5325
 7619SOL     OW34489   0.504   2.270  13.129 -0.0287  0.3967  0.1809
 7619SOL    HW134490   0.451   2.273  13.208  1.5716  0.4181  1.2501
 7619SOL    HW234491   0.543   2.357  13.137  0.0727  0.2397  1.4594
 7620SOL     OW34492   3.127   2.415   9.063 -0.1850  0.3061 -0.5425
 7620SOL    HW134493   3.087   2.438   9.147  1.7398  0.9361  0.2080
 7620SOL    HW234494   3.175   2.342   9.102  1.2160  1.7797  0.4817
 7621SOL     OW34495   4.434   3.539   4.996 -0.1290  0.3178 -0.3470
 7621SOL    HW134496   4.393   3.565   4.913 -1.3268  1.0730  0.4842
 7621SOL    HW234497   4.359   3.503   5.042  0.5456 -0.6644 -0.0093
 7622SOL     OW34498   3.859   3.224   4.670  0.0809  0.1873  0.1217
 7622SOL    HW134499   3.867   3.255   4.579 -1.8231  0.8267  0.1754
 7622SOL    HW234500   3.765   3.211   4.681 -0.3578  1.6317 -1.8985
 7623SOL     OW34501   2.925   2.381   4.383 -0.0780 -0.2232  0.8280
 7623SOL    HW134502   2.944   2.293   4.351 -2.9397 -0.6072  0.2068
 7623SOL    HW234503   2.930   2.431   4.302  0.3540  1.2367  1.7530
 7624SOL     OW34504   2.834   2.847   4.672  0.1223  0.2819 -0.6802
 7624SOL    HW134505   2.756   2.794   4.654 -0.3069 -0.5586  3.6994
 7624SOL    HW234506   2.901   2.779   4.679 -0.0701  0.0885 -0.7284
 7625SOL     OW34507   0.377   0.857  11.335  0.5068 -0.3209  0.5371
 7625SOL    HW134508   0.329   0.921  11.389  0.3808 -0.0034  0.0517
 7625SOL    HW234509   0.467   0.886  11.347  0.2751  2.2611 -3.7134
 7626SOL     OW34510   4.188   3.509   1.356  0.4254 -0.5128  0.2168
 7626SOL    HW134511   4.145   3.478   1.436  0.3598  0.0922  0.4118
 7626SOL    HW234512   4.200   3.420   1.322 -1.4487 -1.0529  0.9719
 7627SOL     OW34513   1.382   2.439  16.983 -0.3196 -0.2222 -1.1146
 7627SOL    HW134514   1.379   2.519  16.931 -0.2297 -0.0682 -0.8813
 7627SOL    HW234515   1.293   2.446  17.018  0.3346  0.2195  0.4453
 7628SOL     OW34516   0.506   2.436   9.130  0.2605  0.0646 -0.0323
 7628SOL    HW134517   0.592   2.403   9.104 -0.3075  0.7866 -2.8642
 7628SOL    HW234518   0.455   2.428   9.050 -2.3388  0.6761  1.5877
 7629SOL     OW34519   4.634   2.068  12.768  0.0401 -0.3271 -0.2829
 7629SOL    HW134520   4.717   2.106  12.795  1.1623 -0.5174 -3.5581
 7629SOL    HW234521   4.608   2.126  12.697  0.8339 -0.5126 -0.7182
 7630SOL     OW34522   0.159   0.684   4.101 -0.1544 -0.0639 -0.1398
 7630SOL    HW134523   0.199   0.767   4.078 -0.8411  0.3629  0.1778
 7630SOL    HW234524   0.115   0.713   4.182 -1.8571 -1.9040 -0.3979
 7631SOL     OW34525   2.965   0.253  14.002 -0.0470 -0.2542 -0.2758
 7631SOL    HW134526   3.007   0.305  14.071 -0.5680 -0.2142  0.0114
 7631SOL    HW234527   2.977   0.160  14.025 -2.3354 -0.5214 -0.1458
 7632SOL     OW34528   3.736   3.705   1.619 -0.6132  0.1368 -0.0079
 7632SOL    HW134529   3.821   3.712   1.575 -1.0634  2.3634 -0.5301
 7632SOL    HW234530   3.760   3.729   1.708  1.9419 -2.8042  0.0732
 7633SOL     OW34531   2.185   3.089  14.074 -0.2092 -0.3436  0.1310
 7633SOL    HW134532   2.090   3.090  14.057 -0.3558  1.0807  1.0812
 7633SOL    HW234533   2.175   3.061  14.165  1.5004 -0.8193  0.1618
 7634SOL     OW34534   1.244   1.045   8.328 -0.3653  0.0754  0.2999
 7634SOL    HW134535   1.278   1.129   8.298  0.6662 -0.4830 -0.1324
 7634SOL    HW234536   1.178   1.028   8.261 -1.0020 -0.3233  1.0270
 7635SOL     OW34537   3.324   1.478   4.884 -0.3799  0.2841 -0.0559
 7635SOL    HW134538   3.336   1.571   4.864 -1.3298  0.2354 -0.8383
 7635SOL    HW234539   3.241   1.466   4.838  0.3171 -1.1380 -0.9272
 7636SOL     OW34540   1.945   2.122   5.153 -0.3792 -0.3574  0.2254
 7636SOL    HW134541   1.878   2.135   5.086 -0.4560 -0.5293  0.2693
 7636SOL    HW234542   1.909   2.176   5.224 -0.2161 -1.4250  1.1193
 7637SOL     OW34543   1.575   4.595   7.134 -0.4421  0.5344 -0.0483
 7637SOL    HW134544   1.482   4.572   7.134 -0.6981  1.6150  1.8894
 7637SOL    HW234545   1.597   4.606   7.042 -1.6026  2.8116 -0.0317
 7638SOL     OW34546   1.255   0.666   2.353  0.3910  0.0026 -0.2269
 7638SOL    HW134547   1.282   0.606   2.284  0.7780 -2.8917  2.4352
 7638SOL    HW234548   1.344   0.674   2.388 -0.7944  3.7658  2.0393
 7639SOL     OW34549   4.370   4.604   5.525 -0.3104  0.2333 -0.5443
 7639SOL    HW134550   4.380   4.696   5.552 -1.2526  0.1467  0.0896
 7639SOL    HW234551   4.465   4.588   5.530 -0.2758 -0.5535 -4.5466
 7640SOL     OW34552   1.785   1.007  16.395  0.0810  0.3460 -0.3387
 7640SOL    HW134553   1.726   1.080  16.415  0.5146  0.0673  1.8855
 7640SOL    HW234554   1.782   1.004  16.299 -0.4578  0.6667 -0.3337
 7641SOL     OW34555   4.080   1.964  10.641 -0.0552  0.4711 -0.2001
 7641SOL    HW134556   4.023   2.041  10.635  1.0622  1.3362  0.2138
 7641SOL    HW234557   4.113   1.968  10.731  1.1909 -2.3692 -0.5423
 7642SOL     OW34558   4.261   2.432   8.499 -0.0611  0.2344  0.5600
 7642SOL    HW134559   4.284   2.404   8.588 -0.4611  0.0022  0.5889
 7642SOL    HW234560   4.171   2.401   8.486  0.2604 -0.4342 -0.1225
 7643SOL     OW34561   4.015   2.303  16.420 -0.6310 -1.0107  0.2864
 7643SOL    HW134562   4.038   2.245  16.347  0.0889 -1.8329  1.1645
 7643SOL    HW234563   4.104   2.307  16.454 -0.3753 -0.4160 -0.4823
 7644SOL     OW34564   1.011   3.499  14.633 -0.5101  0.4536  0.1442
 7644SOL    HW134565   0.988   3.534  14.719  1.9629  0.0890  0.9523
 7644SOL    HW234566   1.101   3.471  14.652 -0.6340  0.6767  1.0471
 7645SOL     OW34567   2.497   0.059   6.735 -0.4049  0.3313  0.3008
 7645SOL    HW134568   2.460   0.136   6.778 -0.7494  0.9034 -1.0211
 7645SOL    HW234569   2.558   0.093   6.669  0.3969 -1.9280 -0.1119
 7646SOL     OW34570   2.605   3.481   4.193 -0.3004  0.0730  0.2127
 7646SOL    HW134571   2.527   3.433   4.163 -0.0290  0.1163 -0.5593
 7646SOL    HW234572   2.574   3.571   4.196 -0.5089  0.0223 -0.3372
 7647SOL     OW34573   3.552   0.385   0.127 -0.3148  0.2884  0.1145
 7647SOL    HW134574   3.494   0.404   0.053 -1.0854 -1.4948  0.2527
 7647SOL    HW234575   3.548   0.476   0.157  1.0831 -0.2094  1.8113
 7648SOL     OW34576   1.795   4.235   3.952  0.2140  0.0482  0.4767
 7648SOL    HW134577   1.883   4.252   3.987 -0.0920  1.7170  0.4263
 7648SOL    HW234578   1.747   4.306   3.994 -0.2451  0.2881 -0.4565
 7649SOL     OW34579   2.292   4.371  13.705 -0.0068 -0.5638 -0.0435
 7649SOL    HW134580   2.321   4.297  13.758 -1.3919 -0.6051  0.6418
 7649SOL    HW234581   2.293   4.441  13.770  2.0781 -0.0969 -0.5906
 7650SOL     OW34582   1.123   3.178   4.361  0.1066 -0.6317 -0.4687
 7650SOL    HW134583   1.115   3.116   4.433 -0.3270 -1.0759 -0.9033
 7650SOL    HW234584   1.187   3.132   4.307  1.5709  3.1427 -1.9633
 7651SOL     OW34585   0.104   1.120   8.373  0.1378  0.0191 -0.1309
 7651SOL    HW134586   0.111   1.077   8.288 -2.5643  0.7759 -0.7457
 7651SOL    HW234587   0.085   1.210   8.347 -1.8015 -0.4642 -0.4489
 7652SOL     OW34588   4.574   2.981  14.597  0.6940  0.1259  0.3880
 7652SOL    HW134589   4.555   2.888  14.587  0.2957  0.2348  0.1494
 7652SOL    HW234590   4.661   2.996  14.558  0.3622 -2.3234 -1.3068
 7653SOL     OW34591   4.057   4.215   3.830  0.0185 -0.2256  0.6074
 7653SOL    HW134592   4.053   4.279   3.759 -1.0287 -0.8461  0.1046
 7653SOL    HW234593   4.028   4.268   3.905  1.4218  0.1999  0.8528
 7654SOL     OW34594   3.402   3.946   3.748  0.4046  0.0640 -0.2509
 7654SOL    HW134595   3.483   3.920   3.793 -0.2059  0.4651  1.0981
 7654SOL    HW234596   3.338   3.898   3.800  2.4636 -0.7208  1.5989
 7655SOL     OW34597   1.794   4.620   5.694 -0.4821  0.0663  0.2654
 7655SOL    HW134598   1.771   4.642   5.784 -0.7119  3.7551 -0.6763
 7655SOL    HW234599   1.852   4.691   5.668  0.0363 -0.5361 -0.2053
 7656SOL     OW34600   0.026   1.128   8.764 -0.3567  0.1644 -0.8199
 7656SOL    HW134601   4.714   1.109   8.683  2.7892 -1.0897 -2.3182
 7656SOL    HW234602   4.681   1.150   8.812  0.0209  1.2204 -0.6624
 7657SOL     OW34603   2.912   2.505   1.974 -0.0943 -0.2543 -0.1615
 7657SOL    HW134604   2.987   2.478   2.027  0.1709  1.3895  0.3039
 7657SOL    HW234605   2.840   2.460   2.018  0.3542  1.4619  2.3120
 7658SOL     OW34606   2.890   0.479   7.674  0.3859 -0.2534  0.3447
 7658SOL    HW134607   2.941   0.398   7.669  0.4462 -0.0903 -1.7727
 7658SOL    HW234608   2.942   0.521   7.742 -1.3245 -0.2184  1.6410
 7659SOL     OW34609   0.239   3.649  17.273  0.3135 -0.1542  0.0323
 7659SOL    HW134610   0.204   3.715  17.213 -1.1748 -0.7359  0.2657
 7659SOL    HW234611   0.315   3.694  17.310  0.7344  0.1715 -1.2324
 7660SOL     OW34612   4.548   3.855   0.917 -0.3642 -0.6657 -0.4856
 7660SOL    HW134613   4.559   3.946   0.892  0.0243 -0.4916  0.3163
 7660SOL    HW234614   4.573   3.854   1.009  1.2721 -0.1229 -0.9236
 7661SOL     OW34615   4.562   2.682   6.973 -0.9389 -0.7703 -0.4809
 7661SOL    HW134616   4.524   2.632   7.046 -0.3649  0.4294  0.6273
 7661SOL    HW234617   4.654   2.688   6.998 -1.0973 -1.6318  0.3258
 7662SOL     OW34618   2.165   4.257  10.819 -0.1718 -0.3527 -0.8119
 7662SOL    HW134619   2.077   4.257  10.781  0.2268  1.3966 -1.7642
 7662SOL    HW234620   2.188   4.167  10.839  0.1603  0.2020  1.3022
 7663SOL     OW34621   4.617   3.806   7.646 -0.2437  0.6157  0.0337
 7663SOL    HW134622   4.629   3.801   7.551 -2.1364  0.0500 -0.1757
 7663SOL    HW234623   4.694   3.847   7.685  0.8837 -1.0844 -0.4476
 7664SOL     OW34624   1.608   2.386   1.074  0.0471  0.2856  0.0255
 7664SOL    HW134625   1.629   2.311   1.018  0.4578 -0.0781  0.6677
 7664SOL    HW234626   1.513   2.378   1.079  0.1433 -0.8015  0.1080
 7665SOL     OW34627   4.702   2.002   3.503 -0.3018  0.4382  0.5038
 7665SOL    HW134628   0.001   2.015   3.592  0.4500  0.8278  0.1607
 7665SOL    HW234629   4.619   2.047   3.517 -1.1263 -0.4274 -1.7647
 7666SOL     OW34630   0.311   2.539   7.483  0.4570 -0.6631  0.5219
 7666SOL    HW134631   0.382   2.528   7.421 -1.0753  0.6881 -1.4792
 7666SOL    HW234632   0.248   2.597   7.439  3.4322  2.1663 -0.0335
 7667SOL     OW34633   0.115   4.129   2.660  0.3727  0.1468 -0.1489
 7667SOL    HW134634   0.057   4.165   2.727  0.4472  1.0434 -0.5518
 7667SOL    HW234635   0.156   4.205   2.618 -0.7305 -0.3429 -2.1195
 7668SOL     OW34636   2.859   0.366   6.586 -0.1009 -0.2576  0.0504
 7668SOL    HW134637   2.782   0.381   6.641  0.0475  1.5405 -0.2173
 7668SOL    HW234638   2.857   0.270   6.584 -1.0601 -0.2559  0.8759
 7669SOL     OW34639   1.734   0.408   1.127  0.0865 -0.2140  0.8043
 7669SOL    HW134640   1.685   0.481   1.088 -0.2214  0.1338  1.8505
 7669SOL    HW234641   1.819   0.414   1.082 -0.4122 -0.6362 -0.1910
 7670SOL     OW34642   2.527   0.094  12.940 -0.2666 -0.7012 -0.0216
 7670SOL    HW134643   2.481   0.094  12.855  1.5091 -0.9726 -0.9848
 7670SOL    HW234644   2.614   0.073  12.905  0.5510 -2.8290  3.3825
 7671SOL     OW34645   0.774   2.685  16.407 -0.2398  0.2833  0.1573
 7671SOL    HW134646   0.699   2.638  16.444  1.2457 -2.2660 -0.0795
 7671SOL    HW234647   0.791   2.734  16.487 -0.5440 -0.6452  0.7872
 7672SOL     OW34648   4.433   0.313  17.336 -0.2496 -0.2303  0.9688
 7672SOL    HW134649   4.526   0.291  17.325 -0.5264  0.7285 -2.9183
 7672SOL    HW234650   4.395   0.282  17.254  0.8217 -0.9965  0.7510
 7673SOL     OW34651   0.403   3.199  11.697  0.2927 -0.5194  0.3486
 7673SOL    HW134652   0.451   3.187  11.779  2.1411  1.9102 -0.3789
 7673SOL    HW234653   0.326   3.148  11.720  0.2174 -0.0510  1.1272
 7674SOL     OW34654   0.084   3.522   2.409 -0.1702  0.0953 -0.1705
 7674SOL    HW134655   0.056   3.553   2.495 -0.0801 -3.2453  1.0624
 7674SOL    HW234656   0.041   3.588   2.355 -2.2147 -0.8900  0.2450
 7675SOL     OW34657   2.747   1.675   7.891 -0.2994 -0.2853 -0.4678
 7675SOL    HW134658   2.762   1.744   7.827 -2.6154  0.8992  0.2866
 7675SOL    HW234659   2.725   1.731   7.966 -0.4925 -1.1178  0.0946
 7676SOL     OW34660   3.941   2.187  15.965 -0.4810 -0.6059  0.0497
 7676SOL    HW134661   3.876   2.256  15.954 -0.2450 -0.4079 -0.0984
 7676SOL    HW234662   3.938   2.144  15.879 -0.4742  0.8218 -0.6621
 7677SOL     OW34663   2.235   0.644   0.866 -0.1717 -0.4789  0.0210
 7677SOL    HW134664   2.283   0.595   0.799 -1.4639  0.5221 -1.6348
 7677SOL    HW234665   2.155   0.592   0.872 -1.6768  1.7409 -0.9764
 7678SOL     OW34666   2.855   4.308   3.814  0.1934  0.1933  0.2708
 7678SOL    HW134667   2.841   4.317   3.908  2.4051 -0.5121  0.6486
 7678SOL    HW234668   2.950   4.300   3.806  0.2137 -0.8866  1.6099
 7679SOL     OW34669   1.707   2.758  16.443  0.4023 -0.3575  0.7657
 7679SOL    HW134670   1.787   2.810  16.435  0.5630 -0.8073 -0.4218
 7679SOL    HW234671   1.697   2.757  16.348  0.1492  0.8922  0.7677
 7680SOL     OW34672   3.952   0.689   2.800 -0.6292  0.3374  0.5172
 7680SOL    HW134673   3.988   0.643   2.876  0.9875 -3.2031 -2.3832
 7680SOL    HW234674   3.862   0.658   2.806 -0.9096  0.9344 -0.7500
 7681SOL     OW34675   0.670   2.031   9.319 -0.4820  0.3115  0.4415
 7681SOL    HW134676   0.721   1.981   9.383 -1.1364  0.3373  0.9811
 7681SOL    HW234677   0.731   2.073   9.258 -1.3330 -1.1735 -1.4248
 7682SOL     OW34678   0.331   2.454   7.950  0.0737 -0.0551 -0.3698
 7682SOL    HW134679   0.340   2.396   8.026  0.4622 -0.3883 -0.6664
 7682SOL    HW234680   0.354   2.399   7.875 -0.9855 -1.4087  0.3084
 7683SOL     OW34681   3.729   1.943   7.559  0.5514 -0.8828  0.5574
 7683SOL    HW134682   3.760   2.034   7.566 -2.1915 -0.0624  1.8516
 7683SOL    HW234683   3.814   1.904   7.576  0.1864 -1.8257  0.2173
 7684SOL     OW34684   1.300   4.360   5.288  0.2072  0.0456  0.5391
 7684SOL    HW134685   1.240   4.406   5.348  1.5483  0.6796  1.3869
 7684SOL    HW234686   1.253   4.277   5.292 -0.3915  0.3046 -1.3197
 7685SOL     OW34687   2.304   3.888  14.200  0.7458 -0.2717 -0.3749
 7685SOL    HW134688   2.342   3.935  14.126 -0.5602  1.5544  0.1212
 7685SOL    HW234689   2.332   3.799  14.178 -1.7161 -1.6005  1.8939
 7686SOL     OW34690   2.417   3.863   1.067  0.1012  0.8816 -0.5034
 7686SOL    HW134691   2.424   3.808   0.989 -0.9224  1.5152 -1.0499
 7686SOL    HW234692   2.510   3.878   1.083  0.0914  1.3813 -0.9142
 7687SOL     OW34693   2.169   0.464   8.252 -0.0329  0.0979  0.8045
 7687SOL    HW134694   2.105   0.503   8.311 -0.4545 -0.9474  1.0308
 7687SOL    HW234695   2.124   0.463   8.168  2.1020  0.8672 -0.3593
 7688SOL     OW34696   2.281   1.159   1.722 -0.1495  0.3471  0.5348
 7688SOL    HW134697   2.286   1.205   1.638  1.1480 -1.6686 -0.4898
 7688SOL    HW234698   2.321   1.080   1.689 -1.2272 -0.2549  0.6566
 7689SOL     OW34699   2.179   1.387   0.676  0.2079  0.1098  0.3470
 7689SOL    HW134700   2.087   1.391   0.700  0.4817 -1.5913  1.7100
 7689SOL    HW234701   2.190   1.294   0.657 -0.7184 -0.0453  0.5843
 7690SOL     OW34702   2.727   2.558   7.475  0.0253  0.0938  0.1037
 7690SOL    HW134703   2.669   2.490   7.442 -0.6820 -0.0925  1.7081
 7690SOL    HW234704   2.809   2.509   7.472  0.2194  0.3748  0.7166
 7691SOL     OW34705   1.810   3.535   4.726 -0.0464  0.6416 -0.4498
 7691SOL    HW134706   1.811   3.467   4.794 -0.5744 -0.0132 -1.0855
 7691SOL    HW234707   1.903   3.555   4.720  0.1393 -0.3610 -0.8811
 7692SOL     OW34708   2.834   2.520   4.151  0.3333  0.5602 -0.0714
 7692SOL    HW134709   2.845   2.462   4.076  0.1055  0.0584  0.2816
 7692SOL    HW234710   2.758   2.570   4.121 -0.6192 -1.0429 -0.3160
 7693SOL     OW34711   3.304   4.277   1.989  0.5621  0.5170 -0.6504
 7693SOL    HW134712   3.316   4.368   1.961  0.3229  1.1825  1.4099
 7693SOL    HW234713   3.219   4.282   2.033  0.2072  0.8184 -1.3617
 7694SOL     OW34714   3.743   0.888   5.747  0.0059  0.4512  0.2822
 7694SOL    HW134715   3.820   0.837   5.722 -0.8845 -0.8180  0.1794
 7694SOL    HW234716   3.681   0.868   5.677  0.0799 -0.1638  0.3931
 7695SOL     OW34717   4.263   0.154  11.721 -0.1417  0.0853  0.9180
 7695SOL    HW134718   4.198   0.085  11.734  0.3384 -0.7983 -1.3171
 7695SOL    HW234719   4.294   0.130  11.634  0.4680 -0.0515  1.1746
 7696SOL     OW34720   3.614   1.739  17.293  0.4911 -0.4383  0.7077
 7696SOL    HW134721   3.616   1.659  17.241 -0.2714 -0.9250  1.4158
 7696SOL    HW234722   3.675   1.731  17.367  0.9406 -2.3279  0.1335
 7697SOL     OW34723   1.645   0.151   5.400  0.1637  0.0965 -0.5127
 7697SOL    HW134724   1.608   0.081   5.455  0.3827 -1.1264 -1.9221
 7697SOL    HW234725   1.704   0.111   5.337  1.2526 -0.1421  0.6628
 7698SOL     OW34726   1.959   1.838  12.079 -0.7168  0.3518 -0.2014
 7698SOL    HW134727   1.940   1.822  12.172 -1.6640  1.0550 -0.2794
 7698SOL    HW234728   2.017   1.764  12.057 -0.0296  0.6841  0.4958
 7699SOL     OW34729   1.275   1.813   8.497 -0.0270  0.0435  0.0543
 7699SOL    HW134730   1.357   1.860   8.512  0.2272 -0.1261 -0.8088
 7699SOL    HW234731   1.267   1.770   8.582 -1.0225 -1.8349 -0.9927
 7700SOL     OW34732   4.394   2.223   7.113  0.4500 -0.3647  0.1962
 7700SOL    HW134733   4.341   2.144   7.122 -3.6642  2.6835  2.5700
 7700SOL    HW234734   4.442   2.214   7.195 -0.6554 -1.3589  0.7306
 7701SOL     OW34735   2.244   2.182   0.618  0.6350 -0.3382  0.3720
 7701SOL    HW134736   2.296   2.225   0.550  1.2480 -0.2577  0.8916
 7701SOL    HW234737   2.302   2.187   0.695  1.6183  1.7308 -0.5038
 7702SOL     OW34738   1.854   0.621   6.436 -0.1707 -0.7001  0.3150
 7702SOL    HW134739   1.921   0.580   6.381  0.3331  2.6105 -1.5779
 7702SOL    HW234740   1.775   0.576   6.407 -0.0553 -0.5254 -0.2710
 7703SOL     OW34741   0.305   4.454   7.147 -0.3571  0.2152 -0.1132
 7703SOL    HW134742   0.394   4.447   7.179 -0.8247 -1.8166  0.7798
 7703SOL    HW234743   0.245   4.419   7.214  1.9813 -2.9691  0.3283
 7704SOL     OW34744   0.232   4.292   3.513  0.3025  0.0612 -0.1392
 7704SOL    HW134745   0.284   4.261   3.438 -0.1201  0.4448 -0.5900
 7704SOL    HW234746   0.232   4.386   3.495  0.9032  0.0414 -0.2661
 7705SOL     OW34747   4.710   2.984   6.705 -0.2691  0.0343 -0.1535
 7705SOL    HW134748   0.039   2.999   6.774  0.4903  0.4453 -0.9469
 7705SOL    HW234749   4.735   3.053   6.643 -2.1109  1.1101  0.2992
 7706SOL     OW34750   2.754   3.850   6.184 -0.4789  0.1743 -0.2021
 7706SOL    HW134751   2.836   3.900   6.187 -0.7912  0.8324 -2.0680
 7706SOL    HW234752   2.708   3.886   6.107 -0.9229 -0.5474 -0.2828
 7707SOL     OW34753   1.652   3.826   7.842 -0.1142 -0.1322 -0.0537
 7707SOL    HW134754   1.599   3.755   7.879 -0.9930  0.3537 -0.4029
 7707SOL    HW234755   1.597   3.892   7.884  0.9843  0.1921  0.8936
 7708SOL     OW34756   0.628   2.827   6.913  0.7129  0.3158  0.0809
 7708SOL    HW134757   0.680   2.748   6.904 -0.3476 -0.2761 -0.9224
 7708SOL    HW234758   0.648   2.874   6.832 -1.6308 -1.5176 -1.5675
 7709SOL     OW34759   1.292   1.744   7.502 -0.3745  0.2522 -0.0935
 7709SOL    HW134760   1.346   1.670   7.476  1.0929  0.8325  1.3532
 7709SOL    HW234761   1.220   1.698   7.545  1.6656 -1.1856  1.7932
 7710SOL     OW34762   2.033   2.710   4.186  0.2246  0.0221 -0.3141
 7710SOL    HW134763   2.011   2.796   4.150  1.8653  1.0925  1.2543
 7710SOL    HW234764   2.126   2.705   4.209 -0.7539 -3.2492  2.8402
 7711SOL     OW34765   0.527   2.115   5.896  0.0186  0.2641 -0.3739
 7711SOL    HW134766   0.489   2.052   5.835  1.0635  1.2710 -2.0499
 7711SOL    HW234767   0.487   2.195   5.862 -0.3320 -0.3026 -1.3053
 7712SOL     OW34768   3.896   1.613  14.327 -0.6934  0.1069 -0.2009
 7712SOL    HW134769   3.959   1.591  14.259 -0.8314 -1.0970  0.0696
 7712SOL    HW234770   3.833   1.547  14.298  1.0048 -1.2972 -0.7361
 7713SOL     OW34771   3.812   0.244   3.584 -0.0333  0.1839 -0.3402
 7713SOL    HW134772   3.845   0.291   3.508 -0.1518  1.4184  0.3722
 7713SOL    HW234773   3.870   0.283   3.650 -1.2627 -1.7684  1.9257
 7714SOL     OW34774   2.787   3.345  11.512 -0.3982 -0.6565 -0.3606
 7714SOL    HW134775   2.873   3.344  11.554 -0.2876 -2.4892 -0.6049
 7714SOL    HW234776   2.814   3.332  11.421  0.9516  2.2531 -0.3612
 7715SOL     OW34777   2.519   4.547   8.183  0.6313 -0.2983 -0.2065
 7715SOL    HW134778   2.550   4.615   8.124 -0.1187 -0.4361 -0.7604
 7715SOL    HW234779   2.592   4.537   8.245  0.4687 -0.4310 -0.0329
 7716SOL     OW34780   2.168   2.486  12.456  0.1391  0.0872 -0.3320
 7716SOL    HW134781   2.162   2.507  12.363 -0.9868 -1.2237 -0.5575
 7716SOL    HW234782   2.215   2.563  12.487 -0.6393 -0.8836  3.2700
 7717SOL     OW34783   4.606   4.552   1.117 -0.5638  0.0134  0.1650
 7717SOL    HW134784   4.701   4.542   1.110 -0.1699  1.3947  3.4325
 7717SOL    HW234785   4.589   4.633   1.165  1.0320  0.5988 -0.2872
 7718SOL     OW34786   4.444   0.728   3.900 -0.2437  0.0448  0.4481
 7718SOL    HW134787   4.363   0.735   3.951 -1.6106 -1.9124 -1.4240
 7718SOL    HW234788   4.508   0.695   3.962  1.1273  1.5112 -0.2079
 7719SOL     OW34789   3.797   0.299   1.611 -0.3349 -1.1248 -0.6536
 7719SOL    HW134790   3.823   0.246   1.687 -2.0203 -0.2845  0.5117
 7719SOL    HW234791   3.881   0.283   1.567  0.7497  0.3077  0.8871
 7720SOL     OW34792   0.606   2.082   3.607  0.4049 -0.0384  0.1313
 7720SOL    HW134793   0.577   2.113   3.693  3.4497  0.6970  0.8816
 7720SOL    HW234794   0.668   2.150   3.579  1.8637 -1.4886 -0.1645
 7721SOL     OW34795   0.446   1.761  12.114  0.2203  0.0286  0.1238
 7721SOL    HW134796   0.444   1.857  12.111 -0.4438 -0.0309 -0.9267
 7721SOL    HW234797   0.541   1.751  12.113  0.4469  2.0079  0.7978
 7722SOL     OW34798   0.094   2.717  15.579 -0.2885  0.1698 -0.3089
 7722SOL    HW134799   0.162   2.745  15.518  0.5713 -1.5469 -0.1252
 7722SOL    HW234800   0.078   2.802  15.619  0.2528  0.1402 -0.0339
 7723SOL     OW34801   3.739   1.831  15.520  0.5121  0.2428  0.0227
 7723SOL    HW134802   3.660   1.806  15.569  1.2046  0.7107  1.3779
 7723SOL    HW234803   3.801   1.764  15.548 -2.1489 -1.1443  2.6651
 7724SOL     OW34804   0.454   3.792  15.316  0.0655  0.3041 -0.1665
 7724SOL    HW134805   0.530   3.744  15.349  0.2586 -1.1560 -2.7681
 7724SOL    HW234806   0.402   3.798  15.396  0.9327  0.1942  0.4102
 7725SOL     OW34807   2.259   0.231   0.478 -0.7313 -0.3489  0.8443
 7725SOL    HW134808   2.171   0.202   0.501 -1.1523  0.7702  0.6458
 7725SOL    HW234809   2.274   0.192   0.391 -1.0612  0.5826  0.3783
 7726SOL     OW34810   0.016   1.119  11.804 -0.1410 -0.2754  0.0143
 7726SOL    HW134811   4.686   1.057  11.838 -0.3879 -0.8782 -1.5418
 7726SOL    HW234812   0.016   1.099  11.710 -1.7102  2.0396 -0.4687
 7727SOL     OW34813   2.841   2.027   4.576  0.1467  0.2584  0.2688
 7727SOL    HW134814   2.755   2.005   4.540 -0.5817  1.2861  1.3519
 7727SOL    HW234815   2.887   2.048   4.495 -2.2378  1.8459 -0.6867
 7728SOL     OW34816   2.699   2.994   5.819 -0.4540  0.0243 -0.3057
 7728SOL    HW134817   2.744   2.986   5.903  0.0007 -2.0472 -0.7475
 7728SOL    HW234818   2.766   3.040   5.768 -0.8193  0.2562 -0.5761
 7729SOL     OW34819   4.326   1.690   2.783 -0.3598 -0.4076  0.0498
 7729SOL    HW134820   4.406   1.710   2.734  0.3487 -0.6501  1.1050
 7729SOL    HW234821   4.372   1.642   2.852  0.5936  1.5966  0.7946
 7730SOL     OW34822   1.483   0.649   7.241  0.2001 -0.6144  0.0375
 7730SOL    HW134823   1.495   0.741   7.265 -1.3977 -0.1482 -0.9724
 7730SOL    HW234824   1.423   0.649   7.166  0.9683 -2.2008 -0.5719
 7731SOL     OW34825   1.983   2.859   4.926 -0.3762  0.1596 -0.4821
 7731SOL    HW134826   1.993   2.782   4.982 -0.2332 -1.3094 -2.5474
 7731SOL    HW234827   2.059   2.912   4.949 -1.2450  1.0314  0.3785
 7732SOL     OW34828   0.159   1.651   4.487  0.3340 -0.7795 -0.0184
 7732SOL    HW134829   0.143   1.719   4.552  1.7231  0.5968 -1.1282
 7732SOL    HW234830   0.219   1.595   4.537  1.3989  0.7352  0.3746
 7733SOL     OW34831   2.770   0.326   7.064  0.0889  0.0250 -0.0427
 7733SOL    HW134832   2.839   0.329   7.131  1.6107 -1.2000 -1.5490
 7733SOL    HW234833   2.736   0.238   7.084  1.8055 -0.3576  1.1915
 7734SOL     OW34834   4.089   1.277  17.286 -0.0616  0.1419 -0.3250
 7734SOL    HW134835   4.019   1.315  17.340  1.1377  1.3368  0.3817
 7734SOL    HW234836   4.152   1.347  17.298  1.0784 -1.1000  0.9955
 7735SOL     OW34837   1.303   1.788   2.486 -0.2253 -0.0197 -0.1104
 7735SOL    HW134838   1.392   1.782   2.520  0.6231 -0.3990 -2.3576
 7735SOL    HW234839   1.310   1.853   2.416 -0.2885 -0.0376 -0.1335
 7736SOL     OW34840   3.932   0.818   3.168  0.0184  0.4421  0.1764
 7736SOL    HW134841   3.891   0.776   3.243  0.4183 -0.1426  0.0680
 7736SOL    HW234842   3.854   0.814   3.112 -1.3364  4.5843  1.7335
 7737SOL     OW34843   2.864   1.525  12.209 -0.0201 -0.1235 -0.3150
 7737SOL    HW134844   2.949   1.484  12.219 -1.3966 -2.6934  0.6974
 7737SOL    HW234845   2.800   1.458  12.235  0.3775  0.0635  1.1541
 7738SOL     OW34846   0.589   0.757   8.382  0.3359  0.1409 -0.3918
 7738SOL    HW134847   0.500   0.744   8.348 -0.0600  0.0464  0.6744
 7738SOL    HW234848   0.619   0.832   8.330 -0.2846  2.4989  2.6442
 7739SOL     OW34849   0.945   2.121   3.598  0.0117  0.3061  0.1235
 7739SOL    HW134850   0.903   2.168   3.670 -1.2810  1.6922 -1.5396
 7739SOL    HW234851   1.038   2.114   3.620 -0.1945  0.4936  1.0373
 7740SOL     OW34852   3.199   2.247  11.824 -0.1042 -0.3984 -0.4569
 7740SOL    HW134853   3.212   2.287  11.910 -1.6455 -0.9726  0.0505
 7740SOL    HW234854   3.247   2.304  11.764 -0.7300  1.5752  0.9584
 7741SOL     OW34855   1.267   2.524  12.653 -0.3434  0.2247 -0.3003
 7741SOL    HW134856   1.179   2.555  12.678 -1.0359 -0.1182 -2.3620
 7741SOL    HW234857   1.280   2.467  12.729  2.7482  3.1526  1.3675
 7742SOL     OW34858   1.599   1.410  14.962 -0.3743 -0.3217  0.1210
 7742SOL    HW134859   1.548   1.482  14.926  0.2813  0.7187  1.2476
 7742SOL    HW234860   1.528   1.359  15.001 -0.5986  1.0369  1.4974
 7743SOL     OW34861   4.306   0.052   4.168 -0.1293  0.4003 -0.0333
 7743SOL    HW134862   4.386   0.000   4.175 -1.0608 -0.9727  0.4734
 7743SOL    HW234863   4.291   0.067   4.261 -0.6674 -0.5922  0.0383
 7744SOL     OW34864   1.429   1.531   2.411 -0.5167  0.1183  0.1868
 7744SOL    HW134865   1.393   1.531   2.500  0.6704  2.7635  0.6750
 7744SOL    HW234866   1.521   1.554   2.425 -0.8541  1.3972  0.3242
 7745SOL     OW34867   2.561   0.718   5.395  0.2210 -0.2937  0.6573
 7745SOL    HW134868   2.639   0.755   5.434 -0.5144  1.2035  0.6870
 7745SOL    HW234869   2.587   0.627   5.379  0.3077 -0.3655  1.2079
 7746SOL     OW34870   3.532   2.008   3.722 -0.0265 -0.1285  0.1879
 7746SOL    HW134871   3.437   2.009   3.709  0.1458 -2.9342 -1.3085
 7746SOL    HW234872   3.557   1.929   3.675  0.5047 -0.4906  1.0773
 7747SOL     OW34873   2.273   4.235   2.805  0.3060 -0.1555 -0.1004
 7747SOL    HW134874   2.219   4.306   2.840  1.5661 -0.3799  2.2756
 7747SOL    HW234875   2.318   4.278   2.733 -0.4822 -3.4109 -2.5709
 7748SOL     OW34876   0.271   1.407   7.546 -0.0054 -0.1034 -0.5670
 7748SOL    HW134877   0.257   1.500   7.563 -0.9361 -0.4661  0.6663
 7748SOL    HW234878   0.216   1.367   7.614  0.9771 -0.6213 -0.0698
 7749SOL     OW34879   1.578   0.140  11.280  0.3185  0.0061 -0.2246
 7749SOL    HW134880   1.611   0.221  11.316  2.0969 -0.7523 -0.1570
 7749SOL    HW234881   1.609   0.081  11.348 -1.9535 -0.1515  0.6987
 7750SOL     OW34882   2.873   1.483   9.115  0.0467 -0.9863 -0.2400
 7750SOL    HW134883   2.839   1.419   9.051 -0.5554 -1.4070  0.4981
 7750SOL    HW234884   2.887   1.426   9.190 -1.0766  0.6017  1.1551
 7751SOL     OW34885   0.430   0.321   8.920 -0.0525 -0.8446  0.2090
 7751SOL    HW134886   0.415   0.396   8.978 -1.4490 -2.6859  2.1971
 7751SOL    HW234887   0.365   0.269   8.966  0.0997 -2.3860 -1.2967
 7752SOL     OW34888   1.206   2.809  11.643  0.4146 -0.1492  0.1127
 7752SOL    HW134889   1.274   2.808  11.710  0.6043  1.5873 -0.0576
 7752SOL    HW234890   1.265   2.787  11.570  0.0126 -0.2502 -0.1807
 7753SOL     OW34891   2.556   2.765   8.011 -0.4744 -0.1229 -0.3315
 7753SOL    HW134892   2.493   2.770   8.082  1.0852 -1.4363  1.1598
 7753SOL    HW234893   2.615   2.700   8.050 -0.3119 -0.6215 -1.4030
 7754SOL     OW34894   4.429   2.218  17.317  0.6210  0.1698  0.2030
 7754SOL    HW134895   4.344   2.176  17.301 -0.1153  0.4201  3.4417
 7754SOL    HW234896   4.451   2.217  17.224  0.1915 -1.6252  0.1116
 7755SOL     OW34897   3.912   1.950   9.276  0.3097 -0.1448  0.1886
 7755SOL    HW134898   3.903   1.882   9.343 -0.0860 -1.5290 -1.2655
 7755SOL    HW234899   3.824   1.961   9.241 -0.5339 -3.3229  1.3077
 7756SOL     OW34900   1.502   1.990   9.618  0.3377 -0.2281 -0.5965
 7756SOL    HW134901   1.513   1.934   9.696 -0.0379 -0.6226 -0.8263
 7756SOL    HW234902   1.412   2.017   9.636  0.9267  0.7435  0.8753
 7757SOL     OW34903   0.387   3.658   5.576  0.3861  0.2021  0.2231
 7757SOL    HW134904   0.401   3.698   5.662 -2.6633  2.7409 -0.4552
 7757SOL    HW234905   0.474   3.620   5.565 -0.2683 -0.8688 -1.2631
 7758SOL     OW34906   4.620   1.481   6.284  0.2900  0.2835  0.4254
 7758SOL    HW134907   4.627   1.572   6.313 -0.8671 -0.0156  1.6405
 7758SOL    HW234908   4.714   1.463   6.289 -0.2981 -2.0337  2.7786
 7759SOL     OW34909   3.226   2.089   6.887  0.6410  0.0081 -0.4203
 7759SOL    HW134910   3.286   2.160   6.908 -0.1803  0.4448  0.4395
 7759SOL    HW234911   3.182   2.071   6.970  0.9284 -4.2891 -1.1838
 7760SOL     OW34912   1.300   1.403   7.616 -0.8385  0.1643  0.0655
 7760SOL    HW134913   1.258   1.342   7.555  0.3924 -0.7780  0.1496
 7760SOL    HW234914   1.351   1.339   7.668 -0.3031  1.5484  1.2531
 7761SOL     OW34915   3.920   1.350   0.961  0.8205 -0.0498 -0.0732
 7761SOL    HW134916   3.926   1.446   0.961 -1.2178  0.0705  1.8694
 7761SOL    HW234917   3.939   1.338   1.054 -0.1808  0.2457  0.1671
 7762SOL     OW34918   4.280   0.945   0.931  0.8657  0.3684 -0.5923
 7762SOL    HW134919   4.371   0.974   0.925 -0.0858  3.0384 -1.7800
 7762SOL    HW234920   4.278   0.869   0.872 -1.1140 -0.1894  0.1701
 7763SOL     OW34921   4.279   1.124  16.242 -0.5504 -0.7262 -0.2588
 7763SOL    HW134922   4.358   1.080  16.272  0.1195  0.7523  0.1530
 7763SOL    HW234923   4.278   1.105  16.148 -1.6343 -2.6591  0.1335
 7764SOL     OW34924   2.735   3.012   4.862 -0.0048 -0.2655 -0.5730
 7764SOL    HW134925   2.756   2.946   4.796 -0.1913 -0.3556 -0.5427
 7764SOL    HW234926   2.722   3.088   4.804 -1.7232  0.0581  0.2475
 7765SOL     OW34927   1.102   4.185   7.024  0.9010  0.0706  0.3286
 7765SOL    HW134928   1.116   4.132   7.103  0.3370 -1.4494 -0.5890
 7765SOL    HW234929   1.007   4.198   7.020  0.9016 -0.5271 -1.4847
 7766SOL     OW34930   3.492   2.820   5.082  0.2160 -0.4014  0.5710
 7766SOL    HW134931   3.519   2.837   5.172  2.0114  1.7599 -0.3610
 7766SOL    HW234932   3.405   2.859   5.079  0.5643  0.1991 -1.5539
 7767SOL     OW34933   3.025   2.177   3.225  0.0767  0.1646 -0.2464
 7767SOL    HW134934   2.984   2.090   3.224  0.3654  0.0174  0.7462
 7767SOL    HW234935   3.012   2.200   3.133 -0.9322  1.8324  0.3249
 7768SOL     OW34936   2.526   0.702  14.986 -0.8089  0.3560  0.2274
 7768SOL    HW134937   2.544   0.612  15.013  2.0818  0.3004 -1.7758
 7768SOL    HW234938   2.523   0.740  15.073  1.5525 -2.8198  1.7331
 7769SOL     OW34939   4.496   2.138   7.852  0.2944  0.2122 -0.0113
 7769SOL    HW134940   4.490   2.048   7.885  0.2727 -0.1672 -1.0548
 7769SOL    HW234941   4.591   2.149   7.860  0.0597  3.1910 -1.2127
 7770SOL     OW34942   3.716   3.787   6.606  0.7835  0.2162  0.1131
 7770SOL    HW134943   3.736   3.778   6.699 -0.1181 -2.3207  0.0705
 7770SOL    HW234944   3.716   3.882   6.595  0.9057 -0.2183 -3.6789
 7771SOL     OW34945   0.054   1.085   9.081 -0.3346 -0.3695  0.0906
 7771SOL    HW134946   4.717   1.130   9.125 -0.2167 -0.3654  0.2798
 7771SOL    HW234947   0.010   1.026   9.021 -1.9712  1.3831 -0.4198
 7772SOL     OW34948   1.506   1.640  15.201  0.4984  0.1164 -0.1448
 7772SOL    HW134949   1.543   1.585  15.271 -2.5581  1.2584  2.3720
 7772SOL    HW234950   1.430   1.590  15.172 -0.7222  0.6032  2.2111
 7773SOL     OW34951   2.477   1.512   8.230 -0.3157  0.9858  0.5921
 7773SOL    HW134952   2.541   1.453   8.269  3.0660  2.7774 -2.1905
 7773SOL    HW234953   2.440   1.458   8.161 -0.0932 -1.1959  2.1886
 7774SOL     OW34954   2.324   1.445   9.119 -0.1249  0.7549  0.0612
 7774SOL    HW134955   2.275   1.375   9.075  0.2112 -0.1409  1.1310
 7774SOL    HW234956   2.415   1.417   9.107  0.0698  0.7332  1.6422
 7775SOL     OW34957   1.121   0.350  11.906 -0.4529 -0.4037  0.3394
 7775SOL    HW134958   1.181   0.325  11.835  0.4821  0.2464  0.9005
 7775SOL    HW234959   1.109   0.443  11.887  2.3173  0.4419  2.7350
 7776SOL     OW34960   2.399   1.049   3.447 -0.4029  0.0792  0.0200
 7776SOL    HW134961   2.478   1.032   3.498  0.4792 -1.0933 -1.7170
 7776SOL    HW234962   2.341   1.094   3.508  1.0814  2.7335 -0.5329
 7777SOL     OW34963   1.809   1.358   9.503  0.2295 -0.0342 -0.3315
 7777SOL    HW134964   1.817   1.433   9.561  0.4080 -0.7615  0.5781
 7777SOL    HW234965   1.874   1.386   9.438  1.1545 -0.0580  0.5885
 7778SOL     OW34966   0.507   4.351   1.764  0.1508  0.2074 -0.1490
 7778SOL    HW134967   0.521   4.299   1.844 -0.7287  1.1747  0.6433
 7778SOL    HW234968   0.511   4.441   1.797 -0.3742  0.0964  0.2323
 7779SOL     OW34969   4.731   1.073   8.007  0.0225  0.3024  0.1726
 7779SOL    HW134970   4.666   1.134   8.043  1.4844  2.0519 -0.1795
 7779SOL    HW234971   4.674   1.015   7.955  2.3006 -0.9549 -0.9129
 7780SOL     OW34972   0.791   2.608   6.209 -0.1731  0.1705  0.3209
 7780SOL    HW134973   0.725   2.540   6.220 -0.5412  0.4166 -0.3511
 7780SOL    HW234974   0.735   2.684   6.224 -0.8096 -0.9802  3.7501
 7781SOL     OW34975   4.481   1.125  13.336  0.1497 -0.4511 -0.5631
 7781SOL    HW134976   4.502   1.207  13.380 -1.6425 -0.1818 -0.2060
 7781SOL    HW234977   4.562   1.075  13.350 -0.2858 -0.4491  1.8602
 7782SOL     OW34978   2.315   2.689   4.269  0.2347 -0.4161  0.1259
 7782SOL    HW134979   2.338   2.598   4.286  0.5092 -0.8269 -2.4579
 7782SOL    HW234980   2.317   2.719   4.360  0.2176 -0.0538  0.0084
 7783SOL     OW34981   2.553   3.309   6.009  0.0406 -0.0355 -0.4080
 7783SOL    HW134982   2.640   3.270   6.014  0.1687  0.2173 -0.6520
 7783SOL    HW234983   2.563   3.385   5.952  0.8977  1.7957  2.1839
 7784SOL     OW34984   1.565   2.228   5.759  0.1625  0.0636 -0.4355
 7784SOL    HW134985   1.573   2.318   5.725  2.0773  1.1346  2.8099
 7784SOL    HW234986   1.607   2.180   5.687 -0.9570  0.3003 -1.2382
 7785SOL     OW34987   1.621   4.662   3.075  0.1729  0.2097  0.2237
 7785SOL    HW134988   1.671   4.619   3.145  1.2412  1.8663  0.4895
 7785SOL    HW234989   1.669   0.010   3.069  1.0443 -0.4252 -1.5848
 7786SOL     OW34990   1.958   0.543   8.098  0.1481 -0.0831 -0.6009
 7786SOL    HW134991   1.909   0.565   8.019 -0.8245  0.0786  0.0473
 7786SOL    HW234992   1.887   0.531   8.162  1.1420 -0.6927  0.3900
 7787SOL     OW34993   2.807   3.023  10.061 -0.3551  0.0102 -0.2603
 7787SOL    HW134994   2.844   3.012   9.974  0.6437 -1.5606  0.3585
 7787SOL    HW234995   2.790   3.116  10.072 -0.2380  0.2796 -2.5172
 7788SOL     OW34996   2.743   0.704   7.803  0.1564  0.5931 -0.4227
 7788SOL    HW134997   2.785   0.768   7.746  1.6394  1.2261  1.4039
 7788SOL    HW234998   2.721   0.642   7.733 -0.3003 -2.0450  2.0709
 7789SOL     OW34999   3.740   3.100   8.430  0.8320  0.5587  0.1463
 7789SOL    HW135000   3.686   3.090   8.352 -0.5231  2.6568  0.8221
 7789SOL    HW235001   3.687   3.163   8.479  1.9865  0.0963  1.9946
 7790SOL     OW35002   4.079   2.654   3.431 -0.4895 -0.2007  0.0476
 7790SOL    HW135003   4.053   2.595   3.361  0.9116  0.4408 -1.0085
 7790SOL    HW235004   3.996   2.697   3.454 -0.1311  0.7393 -0.4460
 7791SOL     OW35005   0.441   1.272  10.229 -0.1173  0.1681 -0.1217
 7791SOL    HW135006   0.520   1.311  10.267 -0.3205 -0.0029  0.4745
 7791SOL    HW235007   0.394   1.248  10.309 -0.7777  2.2706  0.1301
 7792SOL     OW35008   2.067   1.968   6.157 -0.4379 -0.2485  0.1138
 7792SOL    HW135009   2.155   1.993   6.185  0.0710 -2.5946  0.5982
 7792SOL    HW235010   2.044   1.887   6.202  0.6289  0.5098  2.0536
 7793SOL     OW35011   0.546   0.351   5.438 -0.2638 -0.6540 -0.5190
 7793SOL    HW135012   0.570   0.441   5.417 -2.3367 -0.3654 -1.6373
 7793SOL    HW235013   0.468   0.335   5.384 -0.9402  0.3909  0.1573
 7794SOL     OW35014   0.482   4.537   8.235  0.4786  0.6314  0.7771
 7794SOL    HW135015   0.544   4.511   8.304 -0.9934 -1.1051  1.4616
 7794SOL    HW235016   0.408   4.561   8.291  0.5399 -0.6721  1.4479
 7795SOL     OW35017   3.377   2.487   1.891  0.2569  1.0488 -0.0235
 7795SOL    HW135018   3.428   2.474   1.811  1.6677  0.4837  0.9647
 7795SOL    HW235019   3.321   2.563   1.876  0.6311  1.2046 -0.6263
 7796SOL     OW35020   1.731   2.805   7.853 -0.6310 -0.4133  0.4839
 7796SOL    HW135021   1.764   2.717   7.832  2.8629  0.5255  2.0206
 7796SOL    HW235022   1.648   2.781   7.892 -0.5634  0.7929  1.3797
 7797SOL     OW35023   0.150   1.620  17.336 -0.3883  0.1853  0.2392
 7797SOL    HW135024   0.069   1.608  17.388  0.0082 -0.3904  0.7273
 7797SOL    HW235025   0.125   1.589  17.249  0.1483  0.2136  0.0770
 7798SOL     OW35026   3.351   3.989  10.663  0.1555  0.6307  0.3560
 7798SOL    HW135027   3.363   4.069  10.611  1.8891  0.2401  0.1239
 7798SOL    HW235028   3.273   4.014  10.712 -1.4718 -2.9783 -0.4386
 7799SOL     OW35029   2.502   0.999   6.033  0.9564 -1.1626 -0.3456
 7799SOL    HW135030   2.492   1.054   5.955  1.7443  0.7374  0.8966
 7799SOL    HW235031   2.549   0.924   5.997  1.7812 -1.9090  2.3692
 7800SOL     OW35032   3.047   2.972  16.601  0.6585 -0.4134  0.0194
 7800SOL    HW135033   2.991   2.895  16.605 -1.4120  1.1289  0.8630
 7800SOL    HW235034   2.975   3.032  16.580 -0.0016  0.0999  3.7503
 7801SOL     OW35035   4.027   1.539   7.802  0.0508 -0.4249  0.0262
 7801SOL    HW135036   4.057   1.459   7.845  0.6382 -1.1209 -1.6832
 7801SOL    HW235037   3.935   1.513   7.796 -0.1237  0.1056  0.4168
 7802SOL     OW35038   3.767   2.446  11.523  0.1251 -0.8305  0.0060
 7802SOL    HW135039   3.759   2.444  11.618  2.1103 -2.3542  0.1391
 7802SOL    HW235040   3.829   2.374  11.513  2.0266  0.6425  1.2011
 7803SOL     OW35041   0.836   1.068   1.930 -0.6652  0.2059  0.2135
 7803SOL    HW135042   0.921   1.081   1.973 -0.7676 -1.9658  1.0861
 7803SOL    HW235043   0.813   1.159   1.910 -0.4648 -0.0934 -1.3705
 7804SOL     OW35044   2.327   2.042   3.312  0.0673 -0.8010  0.3995
 7804SOL    HW135045   2.381   2.109   3.268 -2.9762  2.0821  1.0137
 7804SOL    HW235046   2.398   2.005   3.364 -1.5570 -2.0689  1.7140
 7805SOL     OW35047   4.683   4.504   5.519 -0.0231  0.0886 -0.2186
 7805SOL    HW135048   0.005   4.575   5.490  0.0214  0.0893 -0.1268
 7805SOL    HW235049   4.687   4.431   5.457 -0.6358  0.0608 -0.2273
 7806SOL     OW35050   0.839   0.680   8.543 -0.7521  0.4476 -0.6021
 7806SOL    HW135051   0.760   0.647   8.501 -1.8586  0.3228  1.6439
 7806SOL    HW235052   0.821   0.774   8.538  1.7718  0.8700 -2.3455
 7807SOL     OW35053   2.935   4.143   5.655 -0.1728 -0.2762 -0.4912
 7807SOL    HW135054   2.978   4.187   5.728 -1.7426  0.2741  0.1032
 7807SOL    HW235055   2.854   4.192   5.642  0.1397  0.4961  0.4541
 7808SOL     OW35056   3.406   3.801   8.600 -0.0388  0.2532  1.1154
 7808SOL    HW135057   3.317   3.778   8.624 -0.3523  0.9147  0.5646
 7808SOL    HW235058   3.415   3.884   8.647  2.3851  0.4596  0.3008
 7809SOL     OW35059   4.483   0.721   5.179  0.0146 -0.0428  0.2874
 7809SOL    HW135060   4.573   0.744   5.157 -0.5360 -0.7514 -2.7195
 7809SOL    HW235061   4.486   0.751   5.270 -1.9170 -0.6957  0.5832
 7810SOL     OW35062   1.239   3.835   2.728  0.1848  0.1966 -0.1976
 7810SOL    HW135063   1.334   3.827   2.722  0.3572 -0.4332  2.9247
 7810SOL    HW235064   1.210   3.871   2.644  1.8531  0.5450 -0.6218
 7811SOL     OW35065   1.978   1.477  14.989 -0.0474 -0.6013  0.2856
 7811SOL    HW135066   1.998   1.390  15.023  2.0668 -0.6037 -0.9932
 7811SOL    HW235067   2.049   1.526  15.028 -1.4835  2.4319 -0.9363
 7812SOL     OW35068   2.542   0.671   8.586 -0.7286 -0.0938 -0.0065
 7812SOL    HW135069   2.572   0.651   8.674 -2.5057 -1.8185  0.2228
 7812SOL    HW235070   2.524   0.578   8.567 -0.8247  0.5900 -3.2309
 7813SOL     OW35071   3.495   4.688   6.570 -0.0280  0.3349  0.3335
 7813SOL    HW135072   3.436   4.622   6.606 -0.1099  0.0623 -0.3047
 7813SOL    HW235073   3.492   4.651   6.482 -2.2717  0.1531  0.4696
 7814SOL     OW35074   4.179   3.563   7.564  0.6275  0.0077 -0.0003
 7814SOL    HW135075   4.152   3.645   7.606 -0.9531 -1.8417  2.5821
 7814SOL    HW235076   4.239   3.541   7.635  1.0690 -2.1229 -1.0272
 7815SOL     OW35077   2.642   0.414   6.767 -0.3992 -0.0954 -0.2709
 7815SOL    HW135078   2.677   0.472   6.835  2.2525 -0.0559 -1.6391
 7815SOL    HW235079   2.592   0.345   6.809  2.8087 -0.7964  2.3785
 7816SOL     OW35080   4.154   1.441   5.494  0.5749 -0.3443 -0.2692
 7816SOL    HW135081   4.219   1.505   5.524  1.3505 -1.6791  0.9213
 7816SOL    HW235082   4.118   1.420   5.580  0.9641 -0.8530 -0.2268
 7817SOL     OW35083   0.006   2.046   2.307 -0.1925 -0.3863 -0.0729
 7817SOL    HW135084   0.039   2.129   2.275  1.2994 -1.0917 -0.3605
 7817SOL    HW235085   4.653   2.035   2.271  0.0898 -2.1782 -0.2429
 7818SOL     OW35086   0.374   4.705   2.971 -0.3422  0.4196 -0.3854
 7818SOL    HW135087   0.430   4.683   2.897  1.9426 -2.1450  2.0894
 7818SOL    HW235088   0.285   4.681   2.944 -0.0492 -1.7133  0.4951
 7819SOL     OW35089   1.929   3.463  13.306 -0.1092  0.3113 -0.1734
 7819SOL    HW135090   1.956   3.490  13.218  2.8160  1.2957  1.0095
 7819SOL    HW235091   1.989   3.514  13.360  0.1121 -0.2471  0.1082
 7820SOL     OW35092   3.970   1.862   4.612 -0.1133 -0.5633  0.0690
 7820SOL    HW135093   3.903   1.924   4.640  0.7776  0.0838  0.7730
 7820SOL    HW235094   3.991   1.884   4.522  1.8754 -2.2764  0.0924
 7821SOL     OW35095   0.791   3.969   0.437  0.2634 -0.3581  0.2804
 7821SOL    HW135096   0.797   4.021   0.517  1.6841  0.6457 -0.4972
 7821SOL    HW235097   0.696   3.954   0.430  0.5336 -1.5338 -0.9268
 7822SOL     OW35098   3.809   0.134   8.770  0.1656 -0.0044  0.2637
 7822SOL    HW135099   3.861   0.200   8.724 -1.0729  0.7377 -0.0599
 7822SOL    HW235100   3.846   0.048   8.750  1.4414  0.3494  1.1186
 7823SOL     OW35101   3.552   3.680  11.059  0.0343 -0.0116  0.2289
 7823SOL    HW135102   3.514   3.733  10.988  0.6767 -1.3912 -1.1292
 7823SOL    HW235103   3.536   3.741  11.131 -0.8987 -2.3538  2.0068
 7824SOL     OW35104   3.553   0.359   2.251  0.4688 -0.3154 -0.2336
 7824SOL    HW135105   3.562   0.264   2.245 -2.2240 -0.4871 -1.5621
 7824SOL    HW235106   3.557   0.382   2.159 -1.6947 -2.6722 -0.9310
 7825SOL     OW35107   2.403   3.938   3.566  0.4815  0.1835 -0.8021
 7825SOL    HW135108   2.496   3.935   3.545  0.9014 -0.2500  1.1340
 7825SOL    HW235109   2.378   3.887   3.489  1.7936 -1.4750 -0.1211
 7826SOL     OW35110   4.186   1.615   7.575 -0.0320  0.5157 -0.1566
 7826SOL    HW135111   4.268   1.605   7.624 -0.0417 -1.6278 -0.5895
 7826SOL    HW235112   4.128   1.571   7.638 -0.0207 -0.4309 -0.8192
 7827SOL     OW35113   3.271   1.657  16.756 -0.2259  0.2150 -0.4614
 7827SOL    HW135114   3.218   1.657  16.836 -1.7150  1.8064 -1.4509
 7827SOL    HW235115   3.283   1.752  16.746 -0.8218  0.4950  1.3543
 7828SOL     OW35116   1.469   2.224   5.002 -0.3239 -0.5493 -0.2722
 7828SOL    HW135117   1.413   2.249   5.075  1.0764  0.6986  0.3756
 7828SOL    HW235118   1.499   2.136   5.026  0.8406 -0.1665 -0.3529
 7829SOL     OW35119   0.597   2.132  11.466 -0.7684  0.9191 -0.0646
 7829SOL    HW135120   0.543   2.095  11.396  0.4233 -0.9786  0.0021
 7829SOL    HW235121   0.678   2.081  11.472 -0.8432  0.8525  0.3730
 7830SOL     OW35122   4.117   4.042   5.060  0.1290  0.2754 -0.2835
 7830SOL    HW135123   4.198   4.056   5.011  0.7785  0.1109  0.7417
 7830SOL    HW235124   4.064   4.031   4.981  1.0785 -0.9056 -0.7531
 7831SOL     OW35125   2.978   3.816   2.828  0.4056 -0.2955 -0.1275
 7831SOL    HW135126   2.929   3.755   2.773 -0.4895  0.1446  0.1769
 7831SOL    HW235127   3.038   3.759   2.874 -0.6682 -1.0458  0.3271
 7832SOL     OW35128   2.115   4.275   5.610 -0.2741  0.0615  0.1079
 7832SOL    HW135129   2.110   4.190   5.567 -0.0507  0.6897 -1.1454
 7832SOL    HW235130   2.211   4.276   5.605 -0.3070  1.5028 -0.2156
 7833SOL     OW35131   1.695   3.223   5.449  0.6698  0.0100  0.0128
 7833SOL    HW135132   1.676   3.217   5.356  1.2206 -2.2350  0.0554
 7833SOL    HW235133   1.622   3.274   5.483 -0.4214 -0.8593 -1.0182
 7834SOL     OW35134   0.754   4.670  12.726  0.8947 -0.0864  0.3052
 7834SOL    HW135135   0.662   4.648  12.736  0.4823  0.7601 -1.7878
 7834SOL    HW235136   0.799   4.609  12.784  0.4220 -0.9282 -0.2230
 7835SOL     OW35137   4.117   1.088   6.144 -0.2344  0.5206  0.2233
 7835SOL    HW135138   4.147   1.001   6.171 -2.4576 -0.5133 -0.6183
 7835SOL    HW235139   4.082   1.115   6.229  1.9796 -2.0933  1.9757
 7836SOL     OW35140   2.943   4.027   2.333 -0.1371  0.5621 -0.3749
 7836SOL    HW135141   2.890   4.087   2.385  2.4293  1.6408  0.9888
 7836SOL    HW235142   3.031   4.051   2.363  0.2310  0.5714 -1.4670
 7837SOL     OW35143   3.101   0.575   7.828 -0.3730 -0.0303  0.1508
 7837SOL    HW135144   3.126   0.483   7.833 -1.1364 -0.1973  0.8073
 7837SOL    HW235145   3.183   0.620   7.806 -0.9932  0.6565 -0.8153
 7838SOL     OW35146   2.336   2.932   2.759 -0.8780 -0.3313 -0.1839
 7838SOL    HW135147   2.413   2.977   2.724 -0.6756 -0.6040 -0.0868
 7838SOL    HW235148   2.380   2.860   2.805 -1.3304 -0.0719  0.6518
 7839SOL     OW35149   2.646   4.244  12.541  0.3794  0.2637  0.6207
 7839SOL    HW135150   2.584   4.271  12.610 -1.2242 -1.4830 -0.1259
 7839SOL    HW235151   2.728   4.273  12.580 -0.1267  2.9821 -0.3743
 7840SOL     OW35152   1.368   4.593  12.338 -0.4964  0.0610  0.2095
 7840SOL    HW135153   1.337   4.578  12.248 -1.6631 -1.0635  0.7943
 7840SOL    HW235154   1.416   4.674  12.322 -0.3194  0.1402  1.1445
 7841SOL     OW35155   3.493   1.700   3.572 -0.4018 -0.8309  0.6723
 7841SOL    HW135156   3.550   1.637   3.529  2.2163  1.7038  0.4711
 7841SOL    HW235157   3.439   1.714   3.495 -0.1976 -0.5171  0.5864
 7842SOL     OW35158   0.788   4.528  12.496  0.0627 -0.3068 -0.2255
 7842SOL    HW135159   0.856   4.479  12.543 -0.4625  0.7703  1.6643
 7842SOL    HW235160   0.780   4.598  12.560  1.0030 -0.1179 -0.3124
 7843SOL     OW35161   0.192   2.914   7.287  0.6229  0.1704  0.1738
 7843SOL    HW135162   0.120   2.926   7.225 -0.9827  0.7618  2.1479
 7843SOL    HW235163   0.234   2.833   7.258  1.3539  0.7524 -0.3467
 7844SOL     OW35164   2.444   3.029   7.992 -0.1895  0.1274  0.5666
 7844SOL    HW135165   2.416   2.953   8.043 -0.1063 -0.2211  0.0890
 7844SOL    HW235166   2.427   3.008   7.901  1.8324 -1.4991  0.5605
 7845SOL     OW35167   1.364   3.759   4.002 -0.0164  0.0174  0.1371
 7845SOL    HW135168   1.338   3.805   3.922 -1.8346  0.0082  0.7198
 7845SOL    HW235169   1.322   3.675   3.988 -1.5596  0.6563  0.9555
 7846SOL     OW35170   1.737   0.446  13.577 -0.0357  0.0545  0.5623
 7846SOL    HW135171   1.829   0.472  13.577 -0.0487  0.1026  0.4852
 7846SOL    HW235172   1.728   0.365  13.626  0.1947  0.3615  1.1174
 7847SOL     OW35173   3.239   3.360   5.350 -0.4140 -0.2209  0.3647
 7847SOL    HW135174   3.248   3.294   5.418 -1.1366 -0.7086 -0.0179
 7847SOL    HW235175   3.286   3.323   5.275 -0.2992 -1.9517  1.3083
 7848SOL     OW35176   3.463   0.369   4.839 -0.0331  0.0448 -0.4935
 7848SOL    HW135177   3.497   0.319   4.766  0.1704 -1.3264  0.5520
 7848SOL    HW235178   3.433   0.301   4.899 -1.1845  2.0923  1.3066
 7849SOL     OW35179   1.228   1.920   3.563  0.0096 -0.2524 -0.0812
 7849SOL    HW135180   1.229   1.908   3.658  2.9490  1.6163  0.1284
 7849SOL    HW235181   1.222   2.015   3.575  0.6510 -0.2021 -0.1496
 7850SOL     OW35182   1.968   2.042   8.600  0.7681  0.6055  0.1051
 7850SOL    HW135183   2.033   2.111   8.594 -0.1143  1.3356 -1.0007
 7850SOL    HW235184   1.989   2.001   8.516 -0.0201 -1.6926  1.0224
 7851SOL     OW35185   1.523   2.141   2.422 -0.3486  0.1214  0.6736
 7851SOL    HW135186   1.538   2.065   2.364 -0.6276  1.4025 -1.0829
 7851SOL    HW235187   1.576   2.134   2.501  0.7200 -0.0547 -0.0606
 7852SOL     OW35188   4.613   4.616   7.989 -0.0782 -0.8182 -0.2283
 7852SOL    HW135189   4.684   4.597   8.050  0.2462 -0.2153 -0.4222
 7852SOL    HW235190   4.589   4.530   7.953 -1.8685 -0.1679 -0.5757
 7853SOL     OW35191   4.725   2.563   7.535  0.3478 -0.2876  0.3868
 7853SOL    HW135192   0.016   2.494   7.473  2.4180  1.1149 -0.2901
 7853SOL    HW235193   4.705   2.630   7.470 -1.0116 -0.0331  1.0752
 7854SOL     OW35194   0.680   1.366   4.048  0.0837 -0.8051  0.7685
 7854SOL    HW135195   0.688   1.373   3.953 -0.7767  2.0723  0.9012
 7854SOL    HW235196   0.638   1.447   4.079  0.1884 -0.8183  0.9434
 7855SOL     OW35197   3.736   4.383   0.476 -0.0638 -0.5666  0.7848
 7855SOL    HW135198   3.755   4.296   0.512  0.9117 -0.6406  0.0938
 7855SOL    HW235199   3.788   4.382   0.395 -0.2701 -1.0685  0.6576
 7856SOL     OW35200   3.635   0.184   0.455  0.8043 -0.2609 -0.9412
 7856SOL    HW135201   3.603   0.161   0.368  0.9755  1.4023 -1.4406
 7856SOL    HW235202   3.583   0.135   0.519 -2.2897  0.8515 -2.5897
 7857SOL     OW35203   2.112   4.416   8.049 -0.5100  0.0745  0.2727
 7857SOL    HW135204   2.124   4.382   8.137 -2.2957 -2.7453 -0.5916
 7857SOL    HW235205   2.099   4.330   8.010  2.5442 -0.1473 -0.2639
 7858SOL     OW35206   2.605   1.421   2.593  0.3905  0.1120 -0.1347
 7858SOL    HW135207   2.588   1.371   2.672  1.0483 -0.4812 -0.3710
 7858SOL    HW235208   2.610   1.508   2.633 -0.5367  0.0364  0.1429
 7859SOL     OW35209   2.769   0.996  13.990 -0.1619  0.1026 -0.0649
 7859SOL    HW135210   2.748   1.071  14.045 -1.7060  0.6920 -1.4580
 7859SOL    HW235211   2.778   1.028  13.900  1.6264 -0.2876 -0.0189
 7860SOL     OW35212   1.651   1.584   8.313  0.1412  0.2721 -0.6391
 7860SOL    HW135213   1.747   1.585   8.309  0.2310 -1.6936  0.6617
 7860SOL    HW235214   1.648   1.594   8.409  1.5957  1.3419 -0.6997
 7861SOL     OW35215   2.279   2.817  11.283 -0.2180  0.2647  0.4176
 7861SOL    HW135216   2.368   2.825  11.247 -0.1115 -0.6944  0.4709
 7861SOL    HW235217   2.308   2.808  11.373 -1.0811 -2.6321  0.4119
 7862SOL     OW35218   1.206   2.624   4.661 -0.1077 -0.0825  0.5224
 7862SOL    HW135219   1.160   2.558   4.610  1.1591 -0.4787 -0.1004
 7862SOL    HW235220   1.181   2.591   4.748 -0.5577 -0.2913  0.3152
 7863SOL     OW35221   1.598   3.680  16.254  0.2399  0.9142  0.2332
 7863SOL    HW135222   1.657   3.630  16.310  0.3483  0.1843 -0.5393
 7863SOL    HW235223   1.539   3.610  16.226  1.0391 -1.0248  3.4206
 7864SOL     OW35224   0.042   3.041  10.843  0.1019 -0.6135  0.4224
 7864SOL    HW135225   0.098   3.096  10.898 -0.7506  1.0068 -0.3329
 7864SOL    HW235226   0.062   2.963  10.896 -1.5876 -1.4167 -0.1163
 7865SOL     OW35227   1.437   4.478   8.241  0.1092 -0.3497  0.3465
 7865SOL    HW135228   1.444   4.408   8.177  1.0296 -0.0950  0.1711
 7865SOL    HW235229   1.524   4.518   8.243 -0.5789  1.1369  0.0743
 7866SOL     OW35230   1.640   1.353   7.176  0.2626 -0.0119 -0.1238
 7866SOL    HW135231   1.718   1.382   7.128 -0.3986  3.2222  0.7478
 7866SOL    HW235232   1.666   1.384   7.263  5.5222 -1.0003 -1.3842
 7867SOL     OW35233   3.654   1.387   3.013  0.0966  0.1584  0.2002
 7867SOL    HW135234   3.597   1.338   3.072 -1.3152 -0.6450 -1.8338
 7867SOL    HW235235   3.708   1.328   2.962  1.0164  1.9915 -0.9257
 7868SOL     OW35236   1.113   1.183   6.500  0.1915  0.2198 -0.5136
 7868SOL    HW135237   1.066   1.200   6.582 -0.4214 -1.5275 -0.5181
 7868SOL    HW235238   1.044   1.146   6.446 -0.7784  3.1583 -1.3083
 7869SOL     OW35239   3.981   4.128   2.505  0.0289 -0.4570  0.0307
 7869SOL    HW135240   3.993   4.176   2.587  1.0206 -1.7793  0.6610
 7869SOL    HW235241   4.014   4.040   2.526  3.0767  1.3735  2.9881
 7870SOL     OW35242   3.454   2.186   3.347 -0.5366  0.3045  0.7890
 7870SOL    HW135243   3.371   2.233   3.353 -0.4623  0.7718 -1.7644
 7870SOL    HW235244   3.430   2.123   3.279 -0.3918  1.2122 -0.1131
 7871SOL     OW35245   2.957   1.100   1.929  0.0949 -0.5389  0.0716
 7871SOL    HW135246   2.934   1.024   1.983 -0.7157 -0.2136  0.1892
 7871SOL    HW235247   2.884   1.096   1.867 -0.4185  2.2779  0.5106
 7872SOL     OW35248   0.092   3.191   9.297  0.3755 -0.0155 -0.4334
 7872SOL    HW135249   0.041   3.126   9.248 -1.2911  1.6025 -0.8468
 7872SOL    HW235250   0.057   3.176   9.384  0.9183 -2.3834 -0.6383
 7873SOL     OW35251   4.715   2.506   2.742 -0.4315  0.1488 -0.0411
 7873SOL    HW135252   4.641   2.556   2.709 -0.8869  0.0839  0.8819
 7873SOL    HW235253   4.715   2.431   2.683 -1.8555  0.1708 -0.0572
 7874SOL     OW35254   4.190   1.234   0.990 -0.6721  0.0890 -0.1143
 7874SOL    HW135255   4.186   1.147   1.030  1.9511 -1.1592 -2.5407
 7874SOL    HW235256   4.114   1.230   0.931  1.2812 -1.5115 -2.5214
 7875SOL     OW35257   4.113   3.190   8.243  0.0892  0.0734  0.1675
 7875SOL    HW135258   4.126   3.095   8.250 -3.4240 -0.5942 -2.0378
 7875SOL    HW235259   4.092   3.201   8.150 -2.0403 -0.7159  0.5401
 7876SOL     OW35260   3.094   3.975   8.415  0.7176 -0.4572  0.0927
 7876SOL    HW135261   3.065   3.926   8.492  0.4108  1.5429  1.2549
 7876SOL    HW235262   3.019   4.029   8.391  0.4090  0.1906  2.5388
 7877SOL     OW35263   4.550   0.275   2.551 -0.4310  0.1738 -0.3948
 7877SOL    HW135264   4.577   0.289   2.460  0.1425 -1.5581 -0.4945
 7877SOL    HW235265   4.634   0.234   2.569 -0.8968 -1.1336 -1.1876
 7878SOL     OW35266   2.310   1.154   9.637 -0.0875 -0.3137  0.4170
 7878SOL    HW135267   2.372   1.082   9.646 -0.7662 -1.0625 -0.9201
 7878SOL    HW235268   2.309   1.190   9.726 -0.5698 -0.9356  0.6619
 7879SOL     OW35269   3.058   2.175  14.236  0.2549 -0.7634 -0.2809
 7879SOL    HW135270   3.054   2.269  14.221  3.1924 -0.4826  0.7134
 7879SOL    HW235271   3.139   2.183  14.286 -0.1473  1.1024  0.0710
 7880SOL     OW35272   1.219   1.804  15.342 -0.0725 -0.0410 -0.6099
 7880SOL    HW135273   1.243   1.817  15.434 -3.4282  1.6335  0.0277
 7880SOL    HW235274   1.283   1.863  15.303 -0.6717  0.1466 -1.3060
 7881SOL     OW35275   2.665   1.891   4.915 -0.0885  0.8155 -0.9537
 7881SOL    HW135276   2.589   1.937   4.880 -3.1011 -2.1846  1.6714
 7881SOL    HW235277   2.658   1.924   5.004  0.0883  0.4399 -0.8011
 7882SOL     OW35278   4.550   4.576   7.291  0.2810 -0.2301 -0.0493
 7882SOL    HW135279   4.514   4.630   7.362  2.0752 -0.9763  1.4225
 7882SOL    HW235280   4.636   4.563   7.332 -0.1053  1.7482  1.4204
 7883SOL     OW35281   0.133   4.109   9.113 -0.6113  0.2612  0.9032
 7883SOL    HW135282   0.141   4.037   9.050  0.1924  1.1028  0.0452
 7883SOL    HW235283   0.178   4.061   9.183  1.5382 -1.9409 -2.0079
 7884SOL     OW35284   1.554   0.368   3.242  0.0386 -0.5346  0.5589
 7884SOL    HW135285   1.532   0.460   3.227 -1.4957 -1.0990 -0.6520
 7884SOL    HW235286   1.631   0.379   3.298  0.5993  1.0264 -0.5202
 7885SOL     OW35287   1.593   2.433   9.041  0.0023 -0.4912 -0.3162
 7885SOL    HW135288   1.543   2.371   9.093  1.5067 -1.8961 -0.5472
 7885SOL    HW235289   1.536   2.469   8.972 -0.7759 -0.9563  0.0790
 7886SOL     OW35290   3.982   0.196   0.287  0.0070  0.4275 -0.4273
 7886SOL    HW135291   3.958   0.196   0.380 -1.6291  1.1990 -0.8521
 7886SOL    HW235292   3.962   0.287   0.268  0.8351  0.2453 -2.1579
 7887SOL     OW35293   3.787   1.273   5.025 -0.2112 -0.4390 -0.2277
 7887SOL    HW135294   3.867   1.220   5.016  0.2698  0.0462  1.1592
 7887SOL    HW235295   3.766   1.285   4.933 -3.0636 -0.5919  0.4181
 7888SOL     OW35296   1.196   1.330   7.072 -0.5344 -0.4263 -0.2451
 7888SOL    HW135297   1.105   1.313   7.047 -0.4163 -0.4021 -0.6904
 7888SOL    HW235298   1.242   1.264   7.019  1.2961  0.8557 -0.2248
 7889SOL     OW35299   3.578   3.750  17.284  0.1156 -0.2776 -0.7006
 7889SOL    HW135300   3.624   3.667  17.272  0.7738 -0.1052  0.5541
 7889SOL    HW235301   3.504   3.734  17.226 -0.5605 -3.2762  1.0329
 7890SOL     OW35302   3.038   0.899   3.976 -0.0455  1.0862 -0.0893
 7890SOL    HW135303   3.118   0.849   3.991 -0.0211  1.0495 -0.3453
 7890SOL    HW235304   3.023   0.869   3.887 -1.2295 -1.0053  0.8043
 7891SOL     OW35305   3.608   3.608   2.432  0.4060 -0.3297  0.2588
 7891SOL    HW135306   3.557   3.543   2.480  0.5452  0.0900  0.9681
 7891SOL    HW235307   3.640   3.549   2.364 -1.4873  1.2421 -2.0177
 7892SOL     OW35308   1.718   3.322   1.838  0.0355  0.2850  0.0470
 7892SOL    HW135309   1.717   3.241   1.888  2.1002  0.2741  0.0341
 7892SOL    HW235310   1.694   3.390   1.902  0.1284 -0.2295  0.6335
 7893SOL     OW35311   0.046   3.250   1.630  0.0800 -0.1091  0.0960
 7893SOL    HW135312   0.096   3.169   1.640  0.5580  0.2036  0.2177
 7893SOL    HW235313   0.009   3.242   1.543 -2.8163 -2.1548  1.4951
 7894SOL     OW35314   1.766   2.530   9.230  0.1395 -0.2083  0.2651
 7894SOL    HW135315   1.794   2.444   9.261 -0.2275  0.1688  1.6684
 7894SOL    HW235316   1.707   2.503   9.160  0.5637 -1.3026  0.3342
 7895SOL     OW35317   3.075   1.657   7.534  0.7517  0.6172  0.5388
 7895SOL    HW135318   3.028   1.640   7.616 -1.2266  1.9223 -0.3303
 7895SOL    HW235319   3.146   1.712   7.568  1.9537 -0.3536 -0.4560
 7896SOL     OW35320   2.091   0.602  14.313 -0.5162 -0.3420  0.6251
 7896SOL    HW135321   2.012   0.570  14.356 -0.4187  0.2503  1.2466
 7896SOL    HW235322   2.145   0.608  14.392  0.2938  1.7772 -0.0915
 7897SOL     OW35323   0.592   3.103  15.400 -0.5675 -0.1031 -0.3212
 7897SOL    HW135324   0.586   3.150  15.483 -0.4846 -0.1146 -0.3092
 7897SOL    HW235325   0.522   3.039  15.413  0.7469 -1.5078 -0.1410
 7898SOL     OW35326   0.033   3.590   0.722 -0.0751  0.2919  0.0080
 7898SOL    HW135327   0.027   3.553   0.634  1.5583  0.8531 -0.3332
 7898SOL    HW235328   0.058   3.508   0.765 -0.5433  0.0248 -0.2304
 7899SOL     OW35329   2.348   1.134   2.534 -0.5502 -0.1990 -0.1907
 7899SOL    HW135330   2.351   1.201   2.465 -0.0494 -1.5568 -1.4983
 7899SOL    HW235331   2.386   1.064   2.481  0.2694 -0.6162  0.9539
 7900SOL     OW35332   3.950   1.510   2.161 -0.5414 -0.6151  0.4126
 7900SOL    HW135333   3.905   1.440   2.113 -1.3174  0.9101 -1.1213
 7900SOL    HW235334   3.974   1.468   2.243 -0.6502 -1.6803 -0.0958
 7901SOL     OW35335   1.296   2.794   6.688 -0.3347  0.3448 -0.5976
 7901SOL    HW135336   1.357   2.867   6.698  1.5332 -1.4652  1.3264
 7901SOL    HW235337   1.335   2.727   6.744  3.7966  0.9416 -2.7230
 7902SOL     OW35338   3.633   1.815   5.262 -0.4388  0.5521  0.0657
 7902SOL    HW135339   3.631   1.766   5.180 -0.1399 -0.4981  0.6912
 7902SOL    HW235340   3.562   1.876   5.243  1.4132  3.1582  1.5045
 7903SOL     OW35341   1.343   0.489   4.383  0.3473  0.1489  0.2857
 7903SOL    HW135342   1.404   0.508   4.312 -0.7966  0.7823 -0.5406
 7903SOL    HW235343   1.336   0.395   4.366  0.0241  0.2155  0.0353
 7904SOL     OW35344   4.424   0.842   5.438 -0.5881 -0.0382  0.0035
 7904SOL    HW135345   4.344   0.810   5.481  0.5730 -0.9854  1.4539
 7904SOL    HW235346   4.389   0.920   5.396  0.6571  1.0948  1.0967
 7905SOL     OW35347   2.429   4.486   8.850  1.2199 -0.1730 -0.4513
 7905SOL    HW135348   2.515   4.475   8.809  0.5377 -1.9662 -1.3767
 7905SOL    HW235349   2.420   4.581   8.857  0.3217 -0.3602  0.9185
 7906SOL     OW35350   3.793   2.778  14.302 -0.2478  0.4779 -0.5401
 7906SOL    HW135351   3.887   2.783  14.284 -0.2416 -2.5595 -1.2392
 7906SOL    HW235352   3.761   2.691  14.280 -0.7512  0.8635 -1.3760
 7907SOL     OW35353   3.660   2.840   2.959 -0.5863  0.4776 -0.0225
 7907SOL    HW135354   3.664   2.837   2.863  0.6650  1.8594 -0.0047
 7907SOL    HW235355   3.743   2.799   2.982  0.3011  0.3190 -3.4575
 7908SOL     OW35356   0.447   0.813  14.350  0.2582 -0.1762 -0.1315
 7908SOL    HW135357   0.540   0.809  14.327 -0.3404  1.5859 -2.9571
 7908SOL    HW235358   0.417   0.723  14.344  0.0028 -0.0359 -0.9401
 7909SOL     OW35359   4.130   1.001   8.334  0.1990  0.4803 -0.4784
 7909SOL    HW135360   4.060   0.961   8.282 -1.4666  3.6145 -0.6489
 7909SOL    HW235361   4.194   0.931   8.340 -1.8116 -1.3812 -0.6253
 7910SOL     OW35362   0.086   2.565  15.350  0.1056  0.2280  0.7738
 7910SOL    HW135363   0.149   2.636  15.344  0.5700  0.0423  3.4473
 7910SOL    HW235364   0.031   2.582  15.427 -1.5539 -0.4530 -0.2365
 7911SOL     OW35365   3.491   3.158   9.411 -0.5526  0.3565 -0.0839
 7911SOL    HW135366   3.540   3.240   9.420 -0.6242  0.3613  0.2465
 7911SOL    HW235367   3.500   3.118   9.497  1.1045 -1.0670 -0.8993
 7912SOL     OW35368   0.938   1.663  10.457 -1.0118  0.0762 -0.4607
 7912SOL    HW135369   1.016   1.663  10.401 -0.8956  1.6476 -0.2819
 7912SOL    HW235370   0.907   1.753  10.451  2.1209  1.0304 -2.1833
 7913SOL     OW35371   3.983   1.702   3.267 -0.2008 -0.1423  0.4813
 7913SOL    HW135372   3.928   1.668   3.337 -0.7862 -2.2531 -1.0098
 7913SOL    HW235373   3.943   1.659   3.191 -2.5549 -1.2533  2.3598
 7914SOL     OW35374   3.529   3.387   7.772 -0.5181  0.2149  0.7775
 7914SOL    HW135375   3.485   3.336   7.704  0.9661 -1.0149  0.7291
 7914SOL    HW235376   3.546   3.471   7.728 -1.1905 -1.3175 -2.4419
 7915SOL     OW35377   2.224   0.988   6.153  0.4588 -0.3701  0.3304
 7915SOL    HW135378   2.155   1.024   6.096  1.7316 -1.5350 -1.9462
 7915SOL    HW235379   2.308   1.012   6.113  0.2410  1.4451  0.9428
 7916SOL     OW35380   4.313   4.663   8.171  0.1036  0.4105  0.1369
 7916SOL    HW135381   4.380   4.667   8.240 -0.3019  1.9156  0.4336
 7916SOL    HW235382   4.254   4.600   8.212  0.2383  0.5386  0.5306
 7917SOL     OW35383   0.756   0.176   1.777 -0.4418  0.1896 -0.7166
 7917SOL    HW135384   0.687   0.243   1.778  1.5344  2.2032  1.3076
 7917SOL    HW235385   0.751   0.149   1.685 -0.8248 -2.1115 -0.0194
 7918SOL     OW35386   3.939   2.657   4.820  0.0967  0.7030 -0.4212
 7918SOL    HW135387   3.918   2.715   4.747 -0.2999 -0.2824 -1.0827
 7918SOL    HW235388   3.872   2.685   4.884  0.8910 -1.4015  1.3395
 7919SOL     OW35389   0.997   3.421  11.576 -1.1258 -0.2162  0.0444
 7919SOL    HW135390   0.981   3.490  11.511 -1.7116 -1.2357 -0.8897
 7919SOL    HW235391   0.910   3.383  11.575 -2.0364  1.7834  3.2066
 7920SOL     OW35392   3.896   4.398  17.210  0.2896  0.4507  0.5610
 7920SOL    HW135393   3.954   4.472  17.189 -2.2002  1.9948 -0.9051
 7920SOL    HW235394   3.898   4.356  17.124  1.0104 -1.4861  1.5528
 7921SOL     OW35395   2.919   0.945  11.982 -0.3206 -0.4773 -0.4876
 7921SOL    HW135396   2.910   0.893  12.062 -1.9972 -0.0149 -0.3668
 7921SOL    HW235397   2.861   0.889  11.929 -1.3113  1.6098 -1.6379
 7922SOL     OW35398   1.664   3.904   1.236 -0.4403 -0.1974 -0.8070
 7922SOL    HW135399   1.745   3.881   1.190 -0.0205 -1.4035  0.5526
 7922SOL    HW235400   1.605   3.891   1.162 -1.1156  2.7191 -0.7998
 7923SOL     OW35401   0.273   4.174   6.050 -0.2367 -0.2955 -0.8633
 7923SOL    HW135402   0.188   4.153   6.089 -0.7138  1.7618 -0.7984
 7923SOL    HW235403   0.254   4.181   5.956 -0.0123  1.7209 -0.7622
 7924SOL     OW35404   1.126   0.567   8.372  0.3149  0.4237  0.0934
 7924SOL    HW135405   1.044   0.535   8.409  1.2005 -3.8545 -1.5864
 7924SOL    HW235406   1.188   0.495   8.368 -0.2981  0.0399 -2.3784
 7925SOL     OW35407   3.657   2.581   3.943 -0.4890 -0.8186  0.0090
 7925SOL    HW135408   3.720   2.540   4.003 -1.7180 -3.9230 -0.8178
 7925SOL    HW235409   3.576   2.560   3.988 -1.8394 -1.2330 -2.6096
 7926SOL     OW35410   1.256   4.452   2.065 -0.3560 -0.1377  0.3164
 7926SOL    HW135411   1.349   4.474   2.070 -0.0077 -1.7319  0.8623
 7926SOL    HW235412   1.240   4.463   1.971  0.6270 -2.4063 -0.1072
 7927SOL     OW35413   1.512   1.140  15.586  0.6216  0.1402 -0.6421
 7927SOL    HW135414   1.449   1.071  15.565 -0.4614  0.1962  2.3766
 7927SOL    HW235415   1.467   1.222  15.564  1.3520  0.5582 -0.5736
 7928SOL     OW35416   1.024   0.865  16.069  0.0641  0.0953  0.3547
 7928SOL    HW135417   1.084   0.929  16.029  0.2860 -0.0651  0.4322
 7928SOL    HW235418   0.944   0.917  16.079 -1.0753 -1.1675 -2.0521
 7929SOL     OW35419   3.549   4.431   4.329 -0.8147 -0.0883 -0.3276
 7929SOL    HW135420   3.566   4.503   4.390 -0.9901  0.0311 -0.4184
 7929SOL    HW235421   3.635   4.390   4.335 -1.1337 -0.1131  4.1929
 7930SOL     OW35422   2.226   3.432   5.604 -0.1056  0.1980 -0.1635
 7930SOL    HW135423   2.176   3.458   5.526  0.9039 -1.8184 -1.4774
 7930SOL    HW235424   2.196   3.342   5.596 -1.0771  0.5307 -0.3374
 7931SOL     OW35425   4.729   1.533   9.493  0.0351 -0.5831 -0.6548
 7931SOL    HW135426   4.718   1.467   9.562  5.4328  0.1721  0.9662
 7931SOL    HW235427   4.636   1.538   9.476 -0.3391  0.0675  1.5195
 7932SOL     OW35428   0.786   0.344   4.408  0.3135  0.2844 -0.0374
 7932SOL    HW135429   0.797   0.320   4.316  4.0188 -2.7044  1.1980
 7932SOL    HW235430   0.800   0.258   4.448  1.2632  0.8040  0.7484
 7933SOL     OW35431   4.420   2.949   6.535 -0.0408  0.0812 -0.0083
 7933SOL    HW135432   4.426   2.937   6.630 -3.0282 -0.4504  0.0972
 7933SOL    HW235433   4.486   3.014   6.512 -1.1356  0.2451 -2.6494
 7934SOL     OW35434   3.484   2.666   4.377  0.6602  0.0121 -0.1022
 7934SOL    HW135435   3.502   2.714   4.457  1.3155 -0.5135  0.0663
 7934SOL    HW235436   3.540   2.590   4.394  0.1816 -0.4215 -0.4638
 7935SOL     OW35437   1.699   3.628   6.527 -0.3617 -0.0121  0.0280
 7935SOL    HW135438   1.667   3.577   6.452  0.0174  0.7145 -0.6297
 7935SOL    HW235439   1.632   3.695   6.519 -0.7903 -0.5843 -1.1799
 7936SOL     OW35440   1.472   4.182  12.271 -0.0740 -0.2506 -0.0995
 7936SOL    HW135441   1.514   4.222  12.347  0.1064  1.5325 -1.1538
 7936SOL    HW235442   1.540   4.116  12.256 -0.1392 -0.2513 -0.3842
 7937SOL     OW35443   3.137   1.779   2.730  0.0428 -0.4210 -0.2969
 7937SOL    HW135444   3.231   1.787   2.712 -0.2950 -2.6413 -2.9236
 7937SOL    HW235445   3.125   1.868   2.762  1.0730 -1.4156  2.8629
 7938SOL     OW35446   2.733   0.178  15.418  0.6976 -0.0005  0.3856
 7938SOL    HW135447   2.774   0.150  15.500  2.1503 -0.0219 -0.3411
 7938SOL    HW235448   2.769   0.111  15.359  0.6036  1.6005 -1.5033
 7939SOL     OW35449   4.711   1.695   7.317 -0.6539 -0.1955  0.3522
 7939SOL    HW135450   4.670   1.779   7.339 -0.9188  0.2878 -2.0280
 7939SOL    HW235451   0.013   1.700   7.229 -1.8217 -0.6644 -0.1656
 7940SOL     OW35452   3.340   2.009   7.286 -0.0071  0.4200 -0.0378
 7940SOL    HW135453   3.293   1.941   7.238  0.4734 -0.6583  1.0239
 7940SOL    HW235454   3.390   1.949   7.342 -0.9327 -0.7467 -0.4425
 7941SOL     OW35455   1.632   2.724  16.184 -0.5231  0.0525  0.6327
 7941SOL    HW135456   1.716   2.740  16.141 -0.9898 -0.0578 -0.3125
 7941SOL    HW235457   1.573   2.701  16.113 -0.8603  1.1301  0.5667
 7942SOL     OW35458   1.316   3.086   0.573 -0.3239  0.1973 -0.3780
 7942SOL    HW135459   1.403   3.047   0.575  0.2571  1.4664 -1.1150
 7942SOL    HW235460   1.280   3.015   0.626  2.2672  0.3884  1.6656
 7943SOL     OW35461   1.838   1.472   9.826 -0.1850  0.4197 -0.2583
 7943SOL    HW135462   1.769   1.511   9.772  0.4699  2.1090  0.1311
 7943SOL    HW235463   1.810   1.486   9.917  1.2928  1.1524  0.0774
 7944SOL     OW35464   2.663   3.991   3.756 -0.5553 -0.3628 -0.3084
 7944SOL    HW135465   2.750   3.951   3.760  0.0263  0.7416 -1.6806
 7944SOL    HW235466   2.670   4.032   3.669  0.6235  0.4045  0.1369
 7945SOL     OW35467   3.957   1.142   4.664  0.1880 -0.0454 -0.2167
 7945SOL    HW135468   3.926   1.075   4.724  2.5237 -1.3043 -0.3974
 7945SOL    HW235469   3.896   1.214   4.678  0.7383 -0.0148  1.9640
 7946SOL     OW35470   0.197   4.089  14.427  0.4457 -0.2444  0.4317
 7946SOL    HW135471   0.265   4.150  14.399 -1.6306  1.2191 -1.3775
 7946SOL    HW235472   0.125   4.141  14.391  0.2973 -0.7623 -0.0274
 7947SOL     OW35473   1.483   3.304  17.310  0.0712  0.6829 -0.1279
 7947SOL    HW135474   1.474   3.304  17.214 -1.8685  0.2503  0.0502
 7947SOL    HW235475   1.409   3.350  17.350  0.6223  0.9346  0.5989
 7948SOL     OW35476   2.324   0.010   9.163 -0.3138 -0.0039 -0.0147
 7948SOL    HW135477   2.292   4.669   9.212 -0.4929  0.2643  0.2806
 7948SOL    HW235478   2.333   0.077   9.230 -0.6326 -0.4727  0.4951
 7949SOL     OW35479   0.452   0.122  14.059 -0.2496 -0.3976 -0.3361
 7949SOL    HW135480   0.539   0.162  14.059  0.0873 -1.0899 -1.9162
 7949SOL    HW235481   0.479   0.031  14.075 -2.8707 -0.8922  1.2072
 7950SOL     OW35482   0.277   0.269   1.174 -0.1079  0.4498  0.4920
 7950SOL    HW135483   0.232   0.185   1.167  0.5022  0.5048 -4.0553
 7950SOL    HW235484   0.209   0.323   1.214 -1.1706  0.2326 -0.9999
 7951SOL     OW35485   1.863   0.807  11.435 -0.0925 -0.0786  0.5010
 7951SOL    HW135486   1.796   0.831  11.370 -1.1281 -0.2837  1.4922
 7951SOL    HW235487   1.823   0.728  11.471  0.3953 -0.7676 -0.4616
 7952SOL     OW35488   2.170   0.303   7.280 -0.5955 -0.2714 -0.3178
 7952SOL    HW135489   2.217   0.265   7.354  2.5481  2.2960 -1.0046
 7952SOL    HW235490   2.214   0.387   7.275  1.0660 -1.1449 -0.3977
 7953SOL     OW35491   3.127   2.765   5.476 -0.0610  0.3091 -0.3765
 7953SOL    HW135492   3.130   2.742   5.383  0.9466 -0.7865 -0.0794
 7953SOL    HW235493   3.221   2.784   5.480 -0.0890  0.2727  0.4671
 7954SOL     OW35494   3.191   4.352   5.606  0.3537  0.3020  0.3292
 7954SOL    HW135495   3.113   4.387   5.563 -0.4986  0.4833  2.0158
 7954SOL    HW235496   3.234   4.320   5.527 -1.5011  0.5306 -0.7846
 7955SOL     OW35497   1.605   2.963   8.454  0.3087  0.1384  0.4934
 7955SOL    HW135498   1.609   3.059   8.449  0.3668 -0.0601 -2.9442
 7955SOL    HW235499   1.670   2.952   8.523  1.2572  1.3300 -0.1994
 7956SOL     OW35500   0.729   3.952  13.961 -0.6436  0.4647  0.0897
 7956SOL    HW135501   0.651   3.997  13.931 -0.3504  1.4409  0.8045
 7956SOL    HW235502   0.785   4.029  13.970 -3.3645  2.6124 -1.8180
 7957SOL     OW35503   1.951   3.653   4.023 -0.6845 -0.4722 -0.0283
 7957SOL    HW135504   1.880   3.637   3.959 -0.9829 -3.4894  1.0384
 7957SOL    HW235505   2.007   3.720   3.984 -1.5448 -0.0427 -0.5316
 7958SOL     OW35506   1.310   1.322  15.592 -0.3328 -0.1238  0.2052
 7958SOL    HW135507   1.296   1.351  15.502  0.4446 -2.7888 -0.7686
 7958SOL    HW235508   1.305   1.403  15.644  0.4720  0.7322 -1.0624
 7959SOL     OW35509   0.213   4.182   1.640  0.1568 -0.3139  0.1404
 7959SOL    HW135510   0.248   4.123   1.707 -0.4416 -3.1318 -1.9946
 7959SOL    HW235511   0.170   4.128   1.573  0.3159 -1.2126  0.7605
 7960SOL     OW35512   1.508   4.022   3.996 -0.4927  0.2513  0.2370
 7960SOL    HW135513   1.585   4.037   3.940 -0.7088  0.9710  0.1269
 7960SOL    HW235514   1.531   3.943   4.044  1.1683 -0.1901 -1.2915
 7961SOL     OW35515   2.481   0.158   6.030  0.3907 -0.4102  1.0011
 7961SOL    HW135516   2.447   0.233   6.079 -1.7290 -2.2110  2.2752
 7961SOL    HW235517   2.575   0.166   6.051  0.1114 -1.5828  2.6950
 7962SOL     OW35518   2.828   2.001  10.062 -0.5145  0.7009  0.7350
 7962SOL    HW135519   2.829   1.964  10.150  0.2161 -1.1699 -0.0579
 7962SOL    HW235520   2.736   2.027  10.058 -1.0286 -1.3101 -0.4090
 7963SOL     OW35521   1.354   0.409   0.523  0.2818 -0.0213  0.3706
 7963SOL    HW135522   1.363   0.444   0.435 -0.1087  0.5025  0.5331
 7963SOL    HW235523   1.443   0.374   0.527  0.4624  0.0791 -3.2162
 7964SOL     OW35524   1.683   0.455   6.269 -0.1282  0.2314 -0.3554
 7964SOL    HW135525   1.602   0.405   6.272  0.2714 -0.4834 -1.2565
 7964SOL    HW235526   1.743   0.390   6.232  1.0614 -0.4016  2.6863
 7965SOL     OW35527   2.047   0.054   3.112 -0.1859  0.2801 -0.3617
 7965SOL    HW135528   2.131   0.035   3.070 -0.1046  0.8132 -0.4380
 7965SOL    HW235529   2.011   4.702   3.127 -0.8742  0.3319 -1.7551
 7966SOL     OW35530   3.040   0.925  10.883 -0.5789 -0.0729 -0.1768
 7966SOL    HW135531   3.019   1.009  10.842 -0.1667  0.6197  1.0366
 7966SOL    HW235532   2.963   0.882  10.848 -0.3369 -1.1950  0.6990
 7967SOL     OW35533   2.189   3.901   5.811  0.8547  0.2939  0.2706
 7967SOL    HW135534   2.234   3.985   5.802  0.3016  0.5808  0.1671
 7967SOL    HW235535   2.184   3.908   5.906  1.0017 -4.0882  0.6203
 7968SOL     OW35536   3.454   4.723   7.126 -0.1781  0.0108 -0.5812
 7968SOL    HW135537   3.402   0.005   7.205  1.3032  0.6117  0.2724
 7968SOL    HW235538   3.543   4.707   7.156 -0.6212 -2.2743 -0.4388
 7969SOL     OW35539   1.634   0.899   7.011  0.4046  0.3882  0.2163
 7969SOL    HW135540   1.565   0.848   6.968  0.1760  0.3819  0.5910
 7969SOL    HW235541   1.703   0.904   6.944 -0.5960 -2.0166 -1.0076
 7970SOL     OW35542   3.557   2.414   4.342 -0.0673  0.0665  0.8481
 7970SOL    HW135543   3.593   2.325   4.339  0.7896  0.5098 -1.4426
 7970SOL    HW235544   3.533   2.423   4.250  2.8639 -0.5792 -0.0016
 7971SOL     OW35545   4.443   4.371   5.093  0.0099 -0.5609  0.1136
 7971SOL    HW135546   4.371   4.401   5.037  1.1624  0.3861 -0.8741
 7971SOL    HW235547   4.497   4.311   5.042 -0.2217  0.4597 -1.3133
 7972SOL     OW35548   1.535   1.657   5.289  0.3965 -0.1328 -0.4102
 7972SOL    HW135549   1.491   1.710   5.223 -1.5767 -0.7531  0.3863
 7972SOL    HW235550   1.463   1.620   5.341  3.2888 -1.6897  2.4916
 7973SOL     OW35551   0.408   0.891   8.956  0.3081 -0.4446 -0.0384
 7973SOL    HW135552   0.380   0.837   9.030 -0.1333 -1.1182 -0.6958
 7973SOL    HW235553   0.384   0.974   8.997 -0.0099 -1.1604  1.2437
 7974SOL     OW35554   0.472   0.944  17.234  0.0806 -0.4485  0.0903
 7974SOL    HW135555   0.491   0.928  17.327 -1.4795  1.3600  0.7261
 7974SOL    HW235556   0.438   1.033  17.243  0.4056 -0.2426 -0.7501
 7975SOL     OW35557   4.368   2.897  11.722 -0.5040  0.3318  0.3221
 7975SOL    HW135558   4.349   2.861  11.636 -0.1877  0.8305  0.0463
 7975SOL    HW235559   4.458   2.873  11.745  0.0179  0.0402 -2.0165
 7976SOL     OW35560   1.427   0.648   0.873 -0.0227  0.0923 -0.3491
 7976SOL    HW135561   1.439   0.703   0.950 -0.0235 -0.6732  0.1892
 7976SOL    HW235562   1.436   0.716   0.805 -2.7252  0.9676  0.1777
 7977SOL     OW35563   4.594   2.737  11.793 -0.7314 -0.5793 -0.4467
 7977SOL    HW135564   4.665   2.676  11.771  1.2347  0.8013  2.0564
 7977SOL    HW235565   4.545   2.675  11.846 -0.5093 -0.3638  0.0074
 7978SOL     OW35566   4.646   1.529   1.214  0.1828  0.1165 -0.3609
 7978SOL    HW135567   0.004   1.551   1.221  0.3495 -2.0935  3.9571
 7978SOL    HW235568   4.603   1.611   1.237 -0.7660 -0.1028 -1.3835
 7979SOL     OW35569   3.177   1.081  16.742  0.2940  0.2703  0.0739
 7979SOL    HW135570   3.250   1.135  16.714  0.9732 -0.6441  0.0793
 7979SOL    HW235571   3.112   1.151  16.734  0.5359  0.0723 -3.5043
 7980SOL     OW35572   4.564   1.498   1.952 -0.2756 -0.2410  0.2270
 7980SOL    HW135573   4.523   1.515   2.036  3.4603 -0.2722  2.0593
 7980SOL    HW235574   4.495   1.537   1.898  0.0641 -2.6372 -1.9916
 7981SOL     OW35575   0.639   1.089   5.500  0.1932  0.1935  0.2194
 7981SOL    HW135576   0.727   1.082   5.465 -0.4373  2.3841 -1.8364
 7981SOL    HW235577   0.606   1.150   5.434 -0.5124 -2.6286 -2.0247
 7982SOL     OW35578   3.164   0.025   3.981 -1.1074  0.1478 -0.3902
 7982SOL    HW135579   3.141   4.671   3.954 -1.0917 -0.0251  0.1731
 7982SOL    HW235580   3.143   0.028   4.074  0.7459 -4.2092  0.1422
 7983SOL     OW35581   3.327   1.817  12.929 -0.0540 -0.3251  0.2293
 7983SOL    HW135582   3.284   1.791  12.847 -0.0083 -0.4542  0.2474
 7983SOL    HW235583   3.251   1.809  12.986 -1.7046  0.8647 -1.7782
 7984SOL     OW35584   0.058   2.087   7.895  0.3635 -0.1860 -0.9578
 7984SOL    HW135585   0.152   2.090   7.877  0.5418  0.5356  0.1182
 7984SOL    HW235586   0.042   2.176   7.925  1.0209 -0.6850  0.9124
 7985SOL     OW35587   4.631   4.318   9.225  0.1055 -0.5103  0.1781
 7985SOL    HW135588   4.722   4.289   9.233 -0.0575 -1.0839 -0.0647
 7985SOL    HW235589   4.595   4.231   9.240 -1.5300 -0.3177 -2.7657
 7986SOL     OW35590   0.892   0.155   5.313 -0.0680 -0.4191 -0.0199
 7986SOL    HW135591   0.832   0.165   5.239 -0.8260 -0.0843  0.6268
 7986SOL    HW235592   0.870   0.230   5.368 -1.8522 -1.0773  0.1631
 7987SOL     OW35593   2.297   2.143  10.695 -1.0070 -0.5118  0.3423
 7987SOL    HW135594   2.343   2.222  10.722 -0.7344 -0.2871 -0.7917
 7987SOL    HW235595   2.306   2.163  10.602  1.7107 -1.0802  0.4765
 7988SOL     OW35596   3.959   1.292   0.596 -1.1662  0.5049  0.5065
 7988SOL    HW135597   4.023   1.360   0.619  0.4044 -1.3938  1.7594
 7988SOL    HW235598   3.890   1.341   0.551 -1.9945 -0.1693  1.0669
 7989SOL     OW35599   1.494   4.167   9.750  0.1887  0.5373  0.4966
 7989SOL    HW135600   1.506   4.125   9.665  2.3669  0.8778  0.6452
 7989SOL    HW235601   1.563   4.232   9.736  0.0117  0.2632 -1.6038
 7990SOL     OW35602   2.982   1.167   9.835 -0.0853  0.5472  0.1505
 7990SOL    HW135603   3.054   1.211   9.789  1.0434 -0.9930  0.4097
 7990SOL    HW235604   2.930   1.245   9.854 -2.2317 -0.6083 -0.9457
 7991SOL     OW35605   2.608   1.528   9.312  0.7105  0.5983  0.1330
 7991SOL    HW135606   2.630   1.437   9.332 -0.5868  0.2375 -0.0706
 7991SOL    HW235607   2.513   1.522   9.299  0.7136 -0.1576  0.4428
 7992SOL     OW35608   0.793   0.677   9.432 -0.5372  0.4359 -0.9991
 7992SOL    HW135609   0.700   0.696   9.437 -0.4862  1.3216 -3.3986
 7992SOL    HW235610   0.795   0.628   9.514  2.3216  1.0331 -0.6933
 7993SOL     OW35611   4.063   3.875  12.680 -0.2507  0.2600 -0.2947
 7993SOL    HW135612   3.977   3.853  12.717  0.2750 -1.6500 -0.2041
 7993SOL    HW235613   4.117   3.851  12.755  2.0172  2.2631 -1.2991
 7994SOL     OW35614   1.987   4.071   6.383 -0.0863 -0.3068  0.3614
 7994SOL    HW135615   1.968   3.978   6.371 -0.8096  0.0558 -1.1881
 7994SOL    HW235616   2.051   4.054   6.452  0.3855  0.6564  0.1677
 7995SOL     OW35617   3.899   1.480  17.396 -0.3600 -0.1383  0.1702
 7995SOL    HW135618   3.952   1.557  17.377 -0.3854  0.0253  0.7668
 7995SOL    HW235619   3.832   1.494  17.329 -1.5715  0.3582  1.4942
 7996SOL     OW35620   3.220   1.242  14.024  0.4583  0.2515  0.0965
 7996SOL    HW135621   3.130   1.274  14.015 -0.1501 -0.9630  1.9732
 7996SOL    HW235622   3.250   1.267  13.936 -0.0365  0.2975 -0.0655
 7997SOL     OW35623   1.317   0.006   6.456 -0.6604 -0.5206  0.2254
 7997SOL    HW135624   1.222   0.015   6.454 -0.5898  0.3474  0.6397
 7997SOL    HW235625   1.343   0.047   6.373 -1.6634 -0.6170 -0.1241
 7998SOL     OW35626   2.131   0.793   5.558 -0.5622  0.0583 -0.1584
 7998SOL    HW135627   2.117   0.705   5.523 -0.8565 -0.1546  0.5024
 7998SOL    HW235628   2.207   0.818   5.504  0.1074 -0.5615  0.4976
 7999SOL     OW35629   4.418   0.196   7.228 -0.2250  0.3673  0.1342
 7999SOL    HW135630   4.361   0.269   7.204  0.6553  1.3598  1.1000
 7999SOL    HW235631   4.477   0.240   7.289  2.2780 -1.7947 -0.7403
 8000SOL     OW35632   3.994   0.379   3.708  0.0316 -0.5985  0.2506
 8000SOL    HW135633   4.073   0.384   3.762 -1.6640  1.2496  2.5609
 8000SOL    HW235634   4.005   0.457   3.654  1.8854  0.4319  2.0891
 8001SOL     OW35635   3.477   0.071  17.392  0.4267  0.0350  0.1163
 8001SOL    HW135636   3.547   0.006  17.392 -1.9823 -2.5258  1.0445
 8001SOL    HW235637   3.417   0.024  17.450 -1.1161  1.4756 -0.3066
 8002SOL     OW35638   2.092   1.261  16.341 -0.1786 -0.2721  0.4354
 8002SOL    HW135639   2.130   1.323  16.279 -1.9512 -1.5644 -1.9602
 8002SOL    HW235640   2.001   1.281  16.317  0.5141  1.3322 -0.8665
 8003SOL     OW35641   2.214   1.864  14.088  0.0102  0.2159  0.4424
 8003SOL    HW135642   2.166   1.945  14.103 -0.8587 -0.6149  2.2108
 8003SOL    HW235643   2.247   1.871  13.999 -1.5571 -2.1773 -0.3231
 8004SOL     OW35644   0.700   3.606   9.013 -0.0344  0.1317  0.1293
 8004SOL    HW135645   0.614   3.611   9.055 -1.0769 -0.1572 -1.9650
 8004SOL    HW235646   0.699   3.513   8.990  0.8669 -0.2102  1.4694
 8005SOL     OW35647   3.808   1.052  11.893 -0.1002  0.1320  0.2331
 8005SOL    HW135648   3.716   1.080  11.892 -0.0427  0.3908  1.3833
 8005SOL    HW235649   3.813   1.004  11.976  2.2301 -3.5954 -2.0700
 8006SOL     OW35650   1.531   0.319   6.534 -0.3528 -0.0676 -0.1188
 8006SOL    HW135651   1.509   0.412   6.530  2.2849  0.5157 -1.3046
 8006SOL    HW235652   1.458   0.284   6.585  0.0255 -1.8501 -0.8030
 8007SOL     OW35653   2.626   1.355  10.776  0.1665  0.8852  0.2339
 8007SOL    HW135654   2.650   1.425  10.836  0.0123  0.9653  0.2040
 8007SOL    HW235655   2.580   1.296  10.836  1.9560  0.0446  0.7696
 8008SOL     OW35656   4.604   4.340   3.793  0.2651  0.0106 -0.0283
 8008SOL    HW135657   4.539   4.400   3.756 -0.8623 -2.1249 -1.4798
 8008SOL    HW235658   4.652   4.317   3.714  1.2103 -0.2492  0.6307
 8009SOL     OW35659   0.314   4.330   4.258  0.1217 -0.1210  0.2494
 8009SOL    HW135660   0.354   4.370   4.181  0.8209 -0.7339  0.3008
 8009SOL    HW235661   0.290   4.242   4.229  0.1674  0.3353 -1.1640
 8010SOL     OW35662   3.372   2.802  12.642  0.1224 -0.5923 -0.3142
 8010SOL    HW135663   3.424   2.879  12.620 -0.4560 -0.0720  0.1122
 8010SOL    HW235664   3.441   2.740  12.664 -0.7999 -1.5531 -0.1024
 8011SOL     OW35665   3.696   3.178   2.729 -0.6266 -0.1779  0.3754
 8011SOL    HW135666   3.780   3.141   2.702 -1.2791 -1.5978  0.2841
 8011SOL    HW235667   3.725   3.240   2.797 -0.8656  1.6228 -1.1599
 8012SOL     OW35668   0.440   2.488   5.422  0.4382 -0.2831 -0.2702
 8012SOL    HW135669   0.370   2.534   5.468  3.4026  3.3432  0.6519
 8012SOL    HW235670   0.503   2.554   5.394  1.4471 -1.3213 -0.4699
 8013SOL     OW35671   4.123   2.616   6.399 -0.0350  0.0536  0.4619
 8013SOL    HW135672   4.117   2.694   6.454 -0.3880  0.5532 -0.2787
 8013SOL    HW235673   4.188   2.559   6.441  0.1993  0.0441  0.0875
 8014SOL     OW35674   4.545   0.426   5.881  0.3806 -0.1322 -0.5124
 8014SOL    HW135675   4.504   0.342   5.901 -1.5172  0.7762 -0.6262
 8014SOL    HW235676   4.508   0.451   5.797 -0.8955 -1.0606 -0.2290
 8015SOL     OW35677   0.845   0.600  13.910 -0.6143 -0.4475 -0.1979
 8015SOL    HW135678   0.840   0.565  13.821 -2.0763 -0.6077 -0.0609
 8015SOL    HW235679   0.761   0.647  13.909  0.6708  1.7804 -2.1677
 8016SOL     OW35680   1.522   0.425   4.765 -0.4380 -0.2284 -0.2355
 8016SOL    HW135681   1.564   0.428   4.679 -0.1514 -0.9627 -0.1192
 8016SOL    HW235682   1.513   0.330   4.778  1.0531 -0.1953  0.9492
 8017SOL     OW35683   3.331   1.505  16.559 -0.1239 -0.7954 -0.6785
 8017SOL    HW135684   3.300   1.560  16.631  2.1649  0.2340 -0.4894
 8017SOL    HW235685   3.422   1.531  16.548  0.1703  0.2948  4.1835
 8018SOL     OW35686   2.876   4.189  14.119  0.4219  0.3483 -0.3028
 8018SOL    HW135687   2.804   4.176  14.181 -0.2303  0.6834 -0.9918
 8018SOL    HW235688   2.906   4.276  14.146  2.0745  0.1666 -1.5566
 8019SOL     OW35689   0.220   0.744   2.317  0.2415  0.1703  0.3956
 8019SOL    HW135690   0.234   0.760   2.410 -1.8958 -0.7532  0.8828
 8019SOL    HW235691   0.131   0.776   2.302  0.8174  2.0011  0.9134
 8020SOL     OW35692   4.512   4.644   6.129 -0.4079  0.0223  0.4140
 8020SOL    HW135693   4.498   0.004   6.131 -2.8345 -0.3164 -0.4747
 8020SOL    HW235694   4.500   4.626   6.035 -0.7495 -1.0835  0.6706
 8021SOL     OW35695   3.423   2.273   8.835 -0.3336  0.4472 -0.4789
 8021SOL    HW135696   3.425   2.178   8.831 -2.3745  0.3753  0.1821
 8021SOL    HW235697   3.463   2.290   8.920 -3.4249  1.7023  0.7199
 8022SOL     OW35698   2.808   2.641   9.191  0.2793  0.4081 -0.4459
 8022SOL    HW135699   2.903   2.646   9.187  0.3724 -0.3546  0.9213
 8022SOL    HW235700   2.784   2.549   9.184 -0.7900  0.6327  0.2178
 8023SOL     OW35701   4.473   3.710   8.206  0.2124  0.0092  0.1583
 8023SOL    HW135702   4.543   3.668   8.256  1.1773  0.8352 -0.4981
 8023SOL    HW235703   4.393   3.711   8.258 -0.0723 -1.8531 -0.2505
 8024SOL     OW35704   1.044   2.104  16.074  0.1516  0.2092 -0.0687
 8024SOL    HW135705   1.028   2.134  15.985 -3.2847  1.8320  1.0819
 8024SOL    HW235706   1.033   2.190  16.115  2.3397  0.7142 -0.5250
 8025SOL     OW35707   2.347   1.122  10.152  0.3582 -0.2318  0.5063
 8025SOL    HW135708   2.264   1.102  10.196  1.9829  0.0851  3.7830
 8025SOL    HW235709   2.309   1.137  10.066 -1.2850  2.0393  1.6285
 8026SOL     OW35710   2.346   0.436   5.839 -0.0578 -0.4256  0.3054
 8026SOL    HW135711   2.427   0.442   5.788  0.0132  2.2016  0.7015
 8026SOL    HW235712   2.362   0.497   5.911  0.8658  2.1623 -2.0813
 8027SOL     OW35713   1.921   4.267  14.122  0.6241  0.2492 -0.6131
 8027SOL    HW135714   1.904   4.313  14.204 -0.7815  2.9122 -2.4230
 8027SOL    HW235715   2.014   4.245  14.131  0.4664 -0.9247 -1.8747
 8028SOL     OW35716   4.035   0.046   8.266  0.0441  0.0375 -0.9366
 8028SOL    HW135717   4.032   0.069   8.174  3.0737  0.4705 -0.9492
 8028SOL    HW235718   4.088   4.702   8.255 -0.1655  0.2004 -3.0179
 8029SOL     OW35719   4.497   4.087   7.324  0.0904 -0.2811 -0.1901
 8029SOL    HW135720   4.414   4.117   7.288  1.3466 -0.5360 -3.3383
 8029SOL    HW235721   4.556   4.089   7.248 -2.3065  1.2001 -1.9922
 8030SOL     OW35722   4.490   2.666   5.257 -0.5305  0.6703 -0.0919
 8030SOL    HW135723   4.509   2.639   5.167 -0.6664  2.1753 -0.5645
 8030SOL    HW235724   4.422   2.601   5.275  0.0701  0.1782  0.3882
 8031SOL     OW35725   2.588   4.516   0.862 -0.4382  0.0529  0.0549
 8031SOL    HW135726   2.571   4.424   0.839 -0.8053  0.0998  0.1423
 8031SOL    HW235727   2.666   4.538   0.810 -0.8454 -1.5955 -1.2789
 8032SOL     OW35728   1.353   0.319  11.142 -0.4310  0.1679 -0.3209
 8032SOL    HW135729   1.402   0.396  11.115 -0.9657 -0.3521 -2.8028
 8032SOL    HW235730   1.421   0.253  11.154 -1.7254 -1.6219 -2.7577
 8033SOL     OW35731   0.402   4.592   3.242  0.4485  0.3642 -0.2575
 8033SOL    HW135732   0.324   4.536   3.233 -0.6494  1.6118  1.4565
 8033SOL    HW235733   0.417   4.597   3.147  0.0319  0.0204 -0.3428
 8034SOL     OW35734   3.438   3.001   2.371  0.9421  0.3143  0.0625
 8034SOL    HW135735   3.463   3.092   2.354  1.5241  0.5295  2.0946
 8034SOL    HW235736   3.371   3.014   2.439  0.9868 -0.6132  0.2881
 8035SOL     OW35737   1.522   4.529   3.530 -0.5050  0.0164  0.6385
 8035SOL    HW135738   1.527   4.617   3.492 -0.5931 -0.7579 -1.1435
 8035SOL    HW235739   1.605   4.515   3.574 -0.3650 -2.5542 -0.4648
 8036SOL     OW35740   2.481   3.174   9.997 -0.4119  0.1161 -0.8183
 8036SOL    HW135741   2.419   3.138  10.060  1.7894  0.4407  1.5616
 8036SOL    HW235742   2.486   3.111   9.926 -1.3462 -0.8467 -0.0228
 8037SOL     OW35743   0.264   2.476   9.377 -0.4628 -0.0650  0.7446
 8037SOL    HW135744   0.170   2.489   9.393 -0.5606 -1.1621  1.0346
 8037SOL    HW235745   0.299   2.511   9.459 -1.4213  1.1227  0.6435
 8038SOL     OW35746   2.084   3.533   4.724 -0.4146  0.1716  0.0165
 8038SOL    HW135747   2.116   3.558   4.637 -0.2956  1.3002  0.3826
 8038SOL    HW235748   2.161   3.539   4.780  0.3113 -0.7924 -0.8672
 8039SOL     OW35749   4.324   3.367   9.989 -0.0173  0.7073  0.3727
 8039SOL    HW135750   4.328   3.384  10.083  1.5402  0.0265  0.4324
 8039SOL    HW235751   4.238   3.398   9.960 -0.6475 -1.3035  0.0385
 8040SOL     OW35752   4.099   4.597  16.664  0.0973 -0.0256 -0.7246
 8040SOL    HW135753   4.003   4.598  16.668 -0.0005  0.3979 -3.1278
 8040SOL    HW235754   4.118   4.685  16.631 -0.4259 -0.1915 -1.4489
 8041SOL     OW35755   0.343   4.286   6.405  0.1812 -1.1370  0.2201
 8041SOL    HW135756   0.341   4.376   6.435 -1.0532 -1.2410  0.4417
 8041SOL    HW235757   0.370   4.289   6.313  1.4306 -2.2410  0.5403
 8042SOL     OW35758   0.246   3.417   8.152 -0.2836 -0.3986 -0.1369
 8042SOL    HW135759   0.314   3.353   8.174 -0.4417 -1.2025 -1.9483
 8042SOL    HW235760   0.170   3.359   8.155  1.0604 -2.3935 -3.1314
 8043SOL     OW35761   2.502   2.400   7.088 -0.4037 -0.5371  0.1359
 8043SOL    HW135762   2.533   2.381   6.999  1.9541  1.2162  0.5827
 8043SOL    HW235763   2.415   2.425   7.057 -0.1015  0.8378  0.3938
 8044SOL     OW35764   1.855   0.245   6.174 -0.1080 -0.4362 -0.5833
 8044SOL    HW135765   1.849   0.172   6.235 -0.2586 -1.4270 -1.7827
 8044SOL    HW235766   1.947   0.268   6.188 -0.0221 -1.4596  0.5446
 8045SOL     OW35767   4.494   3.869   5.047 -0.4397  0.3430 -0.2625
 8045SOL    HW135768   4.553   3.827   4.985 -0.5443  3.4183 -2.4719
 8045SOL    HW235769   4.424   3.812   5.014 -1.2501  0.7683  0.7225
 8046SOL     OW35770   4.226   3.228   5.628  0.3253 -0.1867 -0.2553
 8046SOL    HW135771   4.150   3.268   5.585  0.1498 -2.5775 -2.1812
 8046SOL    HW235772   4.182   3.204   5.709  0.7638 -0.7369 -0.1795
 8047SOL     OW35773   2.411   1.455   6.907 -0.6131 -0.1217 -0.4226
 8047SOL    HW135774   2.372   1.543   6.903  0.9831  0.5527 -1.3255
 8047SOL    HW235775   2.495   1.453   6.862 -0.5424  0.3202 -0.3100
 8048SOL     OW35776   3.842   3.989   0.111 -0.1578  0.0089 -0.2622
 8048SOL    HW135777   3.802   4.072   0.137  1.4545  0.8495 -0.4915
 8048SOL    HW235778   3.761   3.938   0.118  0.3376 -0.3865  2.5480
 8049SOL     OW35779   1.734   2.114  12.355 -0.3481  0.0450 -0.2488
 8049SOL    HW135780   1.660   2.174  12.364 -1.2663 -1.1711  0.2277
 8049SOL    HW235781   1.698   2.032  12.323 -2.5606  0.9344 -0.0228
 8050SOL     OW35782   3.295   4.628   2.515  0.1878  0.2151  0.4183
 8050SOL    HW135783   3.295   4.638   2.420  1.3461 -2.5377  0.1341
 8050SOL    HW235784   3.389   4.648   2.523  0.6675 -1.0897 -2.0318
 8051SOL     OW35785   0.311   1.317   8.880  0.6232  0.0496 -0.3634
 8051SOL    HW135786   0.406   1.317   8.863  0.8907  2.3948  1.0965
 8051SOL    HW235787   0.278   1.278   8.800  1.6036  1.6475 -1.5482
 8052SOL     OW35788   1.507   2.540  11.610  0.0121  0.0312 -0.2115
 8052SOL    HW135789   1.454   2.465  11.583  2.0310 -2.6023  3.1059
 8052SOL    HW235790   1.471   2.571  11.693 -0.9816  0.4722 -0.8183
 8053SOL     OW35791   2.980   0.971   3.239  0.4292  0.2641  0.5669
 8053SOL    HW135792   2.941   0.983   3.153  0.0131 -0.1400  0.7007
 8053SOL    HW235793   2.907   0.985   3.299 -0.6191 -1.7619 -0.2493
 8054SOL     OW35794   2.886   0.583  10.118 -0.2130  0.1274  0.2858
 8054SOL    HW135795   2.839   0.643  10.176 -2.9204  0.5080 -2.2997
 8054SOL    HW235796   2.861   0.505  10.168 -1.5893  0.5534  0.2799
 8055SOL     OW35797   3.008   0.591   4.467 -0.1394  0.5680  0.1373
 8055SOL    HW135798   2.915   0.605   4.448 -0.5394 -0.4231  1.4031
 8055SOL    HW235799   3.025   0.511   4.417  1.1181  0.0952  1.3308
 8056SOL     OW35800   1.572   0.028   7.525 -0.6003  0.1562  0.1478
 8056SOL    HW135801   1.526   0.086   7.465 -0.1835  0.5063  0.1668
 8056SOL    HW235802   1.661   0.033   7.491 -0.4273  2.7684  1.0656
 8057SOL     OW35803   2.924   2.141   7.424 -0.1010  0.2514 -0.0414
 8057SOL    HW135804   2.896   2.061   7.378  1.5892 -0.7053  0.5839
 8057SOL    HW235805   2.841   2.187   7.416  0.6526  1.6830  0.3944
 8058SOL     OW35806   3.795   1.541   7.382  0.1624 -0.2734  0.3296
 8058SOL    HW135807   3.890   1.539   7.374  0.1354  0.8040 -0.2735
 8058SOL    HW235808   3.772   1.462   7.431 -1.2930  0.7712  1.3230
 8059SOL     OW35809   2.225   3.795   7.556  0.6245 -0.0752  0.0068
 8059SOL    HW135810   2.238   3.775   7.649  1.2085  0.8029  0.1179
 8059SOL    HW235811   2.262   3.883   7.546  0.6901  0.0420  1.3103
 8060SOL     OW35812   4.616   2.468   1.741  0.3769 -0.1401 -0.2428
 8060SOL    HW135813   4.626   2.376   1.718  0.0892  0.4040 -2.5819
 8060SOL    HW235814   4.706   2.499   1.736 -0.2323  1.8143  1.1579
 8061SOL     OW35815   2.361   0.664   1.274  0.2216 -0.4289  0.4227
 8061SOL    HW135816   2.376   0.738   1.215 -0.1700 -0.7856 -0.1344
 8061SOL    HW235817   2.431   0.605   1.248  0.8130  0.1832  0.6452
 8062SOL     OW35818   3.099   4.169   6.200  0.1479  0.5219  0.6768
 8062SOL    HW135819   3.182   4.194   6.159 -0.1448 -1.2971 -0.9792
 8062SOL    HW235820   3.124   4.088   6.244 -0.7330 -0.5029 -0.7154
 8063SOL     OW35821   4.624   1.296   3.871 -0.0186 -0.8766  0.2984
 8063SOL    HW135822   4.542   1.247   3.872 -1.7635  2.0142 -2.5458
 8063SOL    HW235823   4.657   1.264   3.786 -0.2963  1.6286 -0.7680
 8064SOL     OW35824   4.254   2.316   1.938  0.2060  0.0910 -0.4263
 8064SOL    HW135825   4.193   2.323   2.011  0.1724  1.7041 -0.5997
 8064SOL    HW235826   4.287   2.404   1.919  1.7133  0.1907  2.7595
 8065SOL     OW35827   2.903   2.648  14.112  0.2522 -0.6243 -0.5857
 8065SOL    HW135828   2.871   2.716  14.053  2.2129  1.6596  0.9877
 8065SOL    HW235829   2.884   2.693  14.194  0.1109 -1.8263  0.0340
 8066SOL     OW35830   3.326   4.715  10.289 -0.1124 -0.0885  0.0541
 8066SOL    HW135831   3.282   4.655  10.228  0.2926  1.5670 -1.8762
 8066SOL    HW235832   3.247   0.007  10.335 -0.5913 -1.7340  0.2150
 8067SOL     OW35833   1.746   1.933  16.262 -0.4328 -0.2903 -0.0627
 8067SOL    HW135834   1.813   1.925  16.330 -0.3411  1.9279  0.1226
 8067SOL    HW235835   1.724   2.026  16.269  1.4298  0.0913  0.7477
 8068SOL     OW35836   3.177   3.268   8.879 -0.3094  0.3957 -0.1866
 8068SOL    HW135837   3.136   3.184   8.856 -0.8156  0.1577  1.6222
 8068SOL    HW235838   3.103   3.302   8.929 -0.7396 -1.1372  0.2097
 8069SOL     OW35839   1.442   3.185  13.626 -0.9836  0.3794 -0.0686
 8069SOL    HW135840   1.459   3.182  13.532 -2.2926 -1.0645 -0.2528
 8069SOL    HW235841   1.454   3.278  13.643  2.1347 -0.2983  1.4306
 8070SOL     OW35842   1.843   3.823   3.481 -0.6476 -0.6834 -0.0948
 8070SOL    HW135843   1.831   3.728   3.483 -0.6737 -0.7148 -2.0127
 8070SOL    HW235844   1.763   3.843   3.529  0.5848 -1.6482  2.3984
 8071SOL     OW35845   1.977   4.252   6.659 -0.2932  0.6373  0.4894
 8071SOL    HW135846   1.900   4.218   6.613  0.0717 -1.9556  1.8162
 8071SOL    HW235847   2.020   4.310   6.596  0.2792 -2.1592 -1.7017
 8072SOL     OW35848   0.555   1.296   2.038  0.0921 -0.0711 -0.0571
 8072SOL    HW135849   0.563   1.377   1.988 -2.7038  0.2150 -0.0178
 8072SOL    HW235850   0.633   1.299   2.094  0.1147 -1.5880  0.0041
 8073SOL     OW35851   4.052   1.894  17.183 -0.2563 -0.1772  0.3426
 8073SOL    HW135852   4.050   1.937  17.269 -0.9588  2.4853 -1.0169
 8073SOL    HW235853   4.087   1.806  17.199  0.2155  0.0263  0.4384
 8074SOL     OW35854   0.878   3.509   7.547  0.5369 -0.4470 -0.1831
 8074SOL    HW135855   0.815   3.488   7.478 -1.5472 -0.0081  1.6032
 8074SOL    HW235856   0.962   3.506   7.501  0.5749 -0.6033 -0.1069
 8075SOL     OW35857   2.492   1.710   7.232 -0.6369  0.0695 -0.6962
 8075SOL    HW135858   2.531   1.726   7.146  1.4428 -2.2683 -0.1845
 8075SOL    HW235859   2.422   1.648   7.209 -1.5535  1.6136 -2.0554
 8076SOL     OW35860   0.742   3.747   7.529 -0.6771 -0.4664  0.4851
 8076SOL    HW135861   0.667   3.718   7.581  0.0137  1.1656  2.3757
 8076SOL    HW235862   0.782   3.660   7.528  0.1068 -0.0870 -1.4091
 8077SOL     OW35863   3.407   1.756  15.927 -0.0846 -0.4220 -0.2583
 8077SOL    HW135864   3.425   1.797  16.012  2.8582  2.0185 -2.0957
 8077SOL    HW235865   3.493   1.772  15.888 -1.0530  0.4327 -2.0590
 8078SOL     OW35866   1.731   1.193   2.666  0.2500  0.2478  0.3434
 8078SOL    HW135867   1.745   1.107   2.626 -0.4353  0.7222 -0.9233
 8078SOL    HW235868   1.688   1.164   2.746  2.9803 -3.3377  0.5168
 8079SOL     OW35869   3.180   2.609   4.384 -0.9248  0.3738  0.0166
 8079SOL    HW135870   3.165   2.576   4.472  0.3279 -0.6555 -0.1567
 8079SOL    HW235871   3.274   2.626   4.381 -0.7875 -0.8419 -2.6371
 8080SOL     OW35872   1.467   0.901   8.354  0.0371  0.6427 -0.1128
 8080SOL    HW135873   1.376   0.927   8.345 -0.1626  0.0521  0.2283
 8080SOL    HW235874   1.509   0.965   8.412 -2.1516  0.8653  1.2023
 8081SOL     OW35875   4.606   2.931  13.451 -0.2396  0.1564  0.1283
 8081SOL    HW135876   4.523   2.962  13.488 -0.1561  0.9074 -0.3233
 8081SOL    HW235877   4.653   2.926  13.534 -0.1710 -0.1770  0.0693
 8082SOL     OW35878   3.884   1.753  17.447  0.0732  0.1435 -0.5477
 8082SOL    HW135879   3.864   1.842  17.416  0.6768  1.0628  1.6989
 8082SOL    HW235880   3.936   1.776  17.524  1.0111 -2.0316 -0.5444
 8083SOL     OW35881   1.381   1.050  10.667  0.2499  0.4756  0.0340
 8083SOL    HW135882   1.452   1.058  10.732 -0.2605 -1.0768  0.7712
 8083SOL    HW235883   1.305   1.024  10.720  0.0113 -1.1703 -1.1556
 8084SOL     OW35884   2.414   2.779   7.305  0.1738 -0.1016 -0.4064
 8084SOL    HW135885   2.493   2.826   7.330  1.1871 -1.7074 -0.5479
 8084SOL    HW235886   2.426   2.693   7.346  0.5584 -0.9779 -2.3367
 8085SOL     OW35887   0.807   1.362  10.081  0.4207  0.2281  0.2315
 8085SOL    HW135888   0.812   1.441  10.135 -0.6375  0.6179 -0.2416
 8085SOL    HW235889   0.714   1.349  10.067  0.0883 -0.5572  3.1553
 8086SOL     OW35890   0.663   1.917   4.312 -0.9376 -0.4616  0.6145
 8086SOL    HW135891   0.739   1.897   4.367  0.1024 -1.2995 -1.1319
 8086SOL    HW235892   0.667   2.012   4.314 -0.8520 -0.4499 -0.1186
 8087SOL     OW35893   0.446   1.073   4.343 -0.6980  0.4842  0.6698
 8087SOL    HW135894   0.521   1.097   4.289 -0.4696 -1.0712  0.2755
 8087SOL    HW235895   0.485   1.005   4.399 -0.4545 -0.4260 -0.6125
 8088SOL     OW35896   4.011   1.614  10.467 -0.1626 -0.3049  0.2596
 8088SOL    HW135897   4.054   1.616  10.381 -0.8110  0.2376 -0.0469
 8088SOL    HW235898   3.962   1.532  10.474 -0.5252 -0.1191 -0.1068
 8089SOL     OW35899   0.532   2.101   9.943 -0.0931  0.2903  0.0061
 8089SOL    HW135900   0.621   2.086   9.909 -0.2686 -1.1780  0.1872
 8089SOL    HW235901   0.490   2.015   9.945  1.8967 -0.6692  0.2889
 8090SOL     OW35902   4.169   2.177   6.391  0.2386 -0.1831 -0.7770
 8090SOL    HW135903   4.159   2.163   6.485  2.2786  1.9385 -0.2459
 8090SOL    HW235904   4.260   2.153   6.373  0.2757  0.1588 -1.0597
 8091SOL     OW35905   1.246   0.006  11.846  0.1263 -0.0506 -0.6061
 8091SOL    HW135906   1.172   0.032  11.791 -0.4237  0.5418  0.4275
 8091SOL    HW235907   1.320   0.006  11.784 -0.4417 -1.1262 -1.2804
 8092SOL     OW35908   3.949   3.978   6.952 -0.2456  0.4935  0.0187
 8092SOL    HW135909   3.989   3.895   6.978  0.8339  1.4414  1.3922
 8092SOL    HW235910   3.871   3.954   6.902  0.0775  1.5717 -0.9856
 8093SOL     OW35911   4.440   2.782   9.766 -0.2180  0.4807  0.1038
 8093SOL    HW135912   4.435   2.768   9.861  0.3916 -2.0374 -0.2430
 8093SOL    HW235913   4.500   2.718   9.728 -0.8805 -1.4112  2.2684
 8094SOL     OW35914   0.615   0.659  13.136 -0.1847 -0.4080 -0.0485
 8094SOL    HW135915   0.703   0.621  13.145  0.1485  0.2268 -0.6031
 8094SOL    HW235916   0.620   0.736  13.193 -1.9123  1.2791 -2.1907
 8095SOL     OW35917   3.878   0.306   8.381 -0.4573  0.3540  0.7571
 8095SOL    HW135918   3.925   0.230   8.345 -2.2331  0.4069 -1.6501
 8095SOL    HW235919   3.786   0.285   8.367 -0.6678  1.3747  0.6056
 8096SOL     OW35920   1.144   2.115   5.421  0.3301  0.1637 -0.2895
 8096SOL    HW135921   1.149   2.041   5.361 -1.4398 -2.5433  2.8714
 8096SOL    HW235922   1.111   2.181   5.360  0.6011 -1.6377 -2.3835
 8097SOL     OW35923   3.966   3.597  13.862  0.6385  1.0822  0.3895
 8097SOL    HW135924   3.945   3.680  13.819  1.1839  0.5997 -0.8225
 8097SOL    HW235925   4.055   3.596  13.827  0.2876  0.7685 -0.5060
 8098SOL     OW35926   4.292   4.470   3.055  0.1200 -0.1171  0.0562
 8098SOL    HW135927   4.204   4.496   3.026 -0.5018 -0.6650  1.4603
 8098SOL    HW235928   4.295   4.497   3.146 -0.0686 -1.5931  0.4973
 8099SOL     OW35929   0.643   4.045   1.611  0.3636 -0.1171  0.1666
 8099SOL    HW135930   0.608   4.093   1.687 -1.6262 -1.1975 -0.0528
 8099SOL    HW235931   0.734   4.073   1.614 -0.5641  3.1062 -1.7966
 8100SOL     OW35932   0.576   0.951   6.171 -0.1604  0.2622  0.4346
 8100SOL    HW135933   0.544   0.916   6.255  1.4527  1.5292  1.5703
 8100SOL    HW235934   0.663   0.913   6.169 -0.6026 -0.8443  1.6217
 8101SOL     OW35935   1.454   3.227   0.369  0.7566 -0.1428  0.8021
 8101SOL    HW135936   1.541   3.218   0.408  1.2713 -0.6772 -0.4924
 8101SOL    HW235937   1.395   3.208   0.442 -0.6849 -0.3157 -0.4017
 8102SOL     OW35938   1.262   1.162  17.177  0.2532  0.2127 -0.0057
 8102SOL    HW135939   1.326   1.110  17.129 -1.4333 -0.2382 -1.7669
 8102SOL    HW235940   1.194   1.095  17.188  1.0419 -1.0767 -2.8492
 8103SOL     OW35941   0.093   3.263   7.010  0.2903  0.0448 -0.5447
 8103SOL    HW135942   0.098   3.331   7.078 -0.5231  0.6343 -1.0659
 8103SOL    HW235943   0.031   3.197   7.042  1.5848 -1.6170 -1.4919
 8104SOL     OW35944   0.530   0.969   3.564 -0.1870  0.2671 -0.1277
 8104SOL    HW135945   0.450   0.947   3.516  0.6167 -2.1481 -0.3681
 8104SOL    HW235946   0.506   1.055   3.597  0.4557  0.3217  0.2066
 8105SOL     OW35947   0.245   4.463   9.834 -0.4605 -0.5042  0.1506
 8105SOL    HW135948   0.211   4.376   9.813 -1.7723  0.2654 -0.9056
 8105SOL    HW235949   0.233   4.461   9.929  0.0422  0.2625  0.2289
 8106SOL     OW35950   3.982   1.516   1.680 -0.5554  0.0612 -0.0616
 8106SOL    HW135951   4.021   1.569   1.750 -1.8759  0.8021  0.1146
 8106SOL    HW235952   3.925   1.583   1.642 -0.2804 -0.0272 -0.6235
 8107SOL     OW35953   2.717   0.409   3.629  0.0775  0.0770 -0.2892
 8107SOL    HW135954   2.621   0.409   3.629  0.0825 -0.2818 -2.4450
 8107SOL    HW235955   2.736   0.368   3.545 -1.1497  0.8953 -0.9709
 8108SOL     OW35956   4.130   0.713   8.477  0.2558 -0.0173  0.0254
 8108SOL    HW135957   4.050   0.683   8.520 -0.3325  1.2667 -0.1734
 8108SOL    HW235958   4.163   0.787   8.528 -0.7110 -0.9480  1.9814
 8109SOL     OW35959   1.792   1.705  11.886 -0.6779 -0.2059  0.0358
 8109SOL    HW135960   1.863   1.650  11.915  0.7749  0.6112 -1.9372
 8109SOL    HW235961   1.735   1.638  11.847 -0.9042 -0.2353  0.4220
 8110SOL     OW35962   1.857   4.335   2.241 -0.5027 -0.8331  0.2781
 8110SOL    HW135963   1.808   4.255   2.258 -2.8647  0.4951 -0.3396
 8110SOL    HW235964   1.838   4.387   2.319 -1.1314 -0.1860 -0.3045
 8111SOL     OW35965   1.804   4.486   5.420 -0.2305 -0.0389  0.4571
 8111SOL    HW135966   1.796   4.559   5.358 -0.1565  0.5947  1.1861
 8111SOL    HW235967   1.768   4.535   5.494 -1.1373  0.1617 -0.1167
 8112SOL     OW35968   1.556   2.417   8.011 -0.3758 -0.6673 -0.3537
 8112SOL    HW135969   1.570   2.506   8.045  0.2433 -0.9294  0.0630
 8112SOL    HW235970   1.621   2.392   7.946 -0.7053 -0.2630 -0.8455
 8113SOL     OW35971   4.152   0.508   2.942 -0.3905 -0.0063  0.1489
 8113SOL    HW135972   4.165   0.414   2.952 -2.8338 -0.5519 -1.8745
 8113SOL    HW235973   4.242   0.534   2.962 -0.7887  1.6199 -0.2192
 8114SOL     OW35974   1.330   0.182   1.750  0.2214 -0.8073 -0.5927
 8114SOL    HW135975   1.277   0.189   1.671  2.7149  0.0823 -2.1669
 8114SOL    HW235976   1.410   0.215   1.708 -0.1396 -1.0720 -1.4813
 8115SOL     OW35977   2.297   3.668   4.012 -0.2979 -0.3083  0.8993
 8115SOL    HW135978   2.355   3.697   3.942 -1.0396  0.2856  0.5368
 8115SOL    HW235979   2.246   3.601   3.967  0.3527 -0.0152 -0.2703
 8116SOL     OW35980   0.529   0.248   0.957 -0.0794 -0.1299  0.1355
 8116SOL    HW135981   0.504   0.165   0.996 -2.6363  0.0725 -1.0871
 8116SOL    HW235982   0.448   0.297   0.972 -1.4705 -2.3774 -0.1062
 8117SOL     OW35983   1.032   0.905   7.013 -0.0940 -0.4147  0.4486
 8117SOL    HW135984   0.980   0.828   6.989  1.1089 -0.9323 -0.5047
 8117SOL    HW235985   0.976   0.968   6.967  0.3105 -0.6128 -0.3122
 8118SOL     OW35986   3.488   2.293   5.786 -0.3608 -0.0532 -0.3733
 8118SOL    HW135987   3.492   2.376   5.738 -1.3609  0.5243  0.5399
 8118SOL    HW235988   3.580   2.284   5.810  0.0318 -0.3095 -1.9835
 8119SOL     OW35989   1.311   2.982   5.645  0.0415 -0.1793  0.2106
 8119SOL    HW135990   1.388   2.937   5.612  0.3048  0.2258  0.2661
 8119SOL    HW235991   1.276   2.929   5.717  1.0599 -0.6825  0.3370
 8120SOL     OW35992   1.005   4.286   8.827 -0.5756  0.4818  0.5774
 8120SOL    HW135993   1.065   4.269   8.900 -0.3282 -0.7587  0.1013
 8120SOL    HW235994   1.066   4.336   8.772 -2.6945  1.1090 -1.1859
 8121SOL     OW35995   3.418   0.574   3.597 -0.4713  0.3390 -0.1581
 8121SOL    HW135996   3.430   0.562   3.503  1.5170 -1.9500  0.3822
 8121SOL    HW235997   3.327   0.555   3.621 -0.0629 -2.1648 -0.6625
 8122SOL     OW35998   3.130   2.445  17.235  0.3466 -0.0534  0.3497
 8122SOL    HW135999   3.127   2.500  17.156  2.3517 -0.0301  0.2988
 8122SOL    HW236000   3.187   2.504  17.284  0.8097  1.0929 -1.5314
 8123SOL     OW36001   2.536   1.139   3.225 -0.4446  0.2268 -0.7285
 8123SOL    HW136002   2.448   1.127   3.190 -0.5230 -0.8565 -0.1450
 8123SOL    HW236003   2.513   1.144   3.318 -0.3748  0.0496 -0.7006
 8124SOL     OW36004   3.209   2.964   9.280 -0.0849 -0.2213 -0.7575
 8124SOL    HW136005   3.221   2.881   9.234  0.2407  0.8831 -2.6514
 8124SOL    HW236006   3.115   2.958   9.262 -0.0127 -1.1553 -0.8380
 8125SOL     OW36007   0.497   1.965  15.440  0.2807 -0.6959 -0.1217
 8125SOL    HW136008   0.421   1.943  15.494  0.4025  1.9887  1.1676
 8125SOL    HW236009   0.455   1.963  15.354  1.7452 -0.0317 -0.8372
 8126SOL     OW36010   3.112   2.995   6.790 -0.3420  0.1534 -0.6684
 8126SOL    HW136011   3.063   2.976   6.870 -2.4692 -0.4050 -2.0883
 8126SOL    HW236012   3.049   2.997   6.718  1.9085  0.7249 -2.6201
 8127SOL     OW36013   0.128   1.254  15.664 -0.1279 -0.1911  0.0092
 8127SOL    HW136014   0.188   1.327  15.683 -0.3510 -0.2401  0.8974
 8127SOL    HW236015   0.172   1.200  15.599 -0.8153 -1.6636  0.7794
 8128SOL     OW36016   4.388   3.180   3.051  0.1624  0.1753  0.7803
 8128SOL    HW136017   4.462   3.171   2.990  0.5112 -1.1485  1.3865
 8128SOL    HW236018   4.372   3.090   3.080  0.9861 -0.5035 -0.8778
 8129SOL     OW36019   3.852   3.404   3.219 -0.4205  0.3036  0.4318
 8129SOL    HW136020   3.900   3.322   3.207 -0.4174  0.4030 -0.2215
 8129SOL    HW236021   3.922   3.455   3.260  0.2137 -1.5558  1.6417
 8130SOL     OW36022   3.981   4.493   4.841  0.5463  0.1050 -0.0983
 8130SOL    HW136023   4.070   4.464   4.820  1.0959  2.0011 -0.4313
 8130SOL    HW236024   3.989   4.475   4.935 -0.2239 -0.3822 -0.1333
 8131SOL     OW36025   0.598   2.837   6.557 -0.3829  0.4856  0.1018
 8131SOL    HW136026   0.603   2.809   6.466 -0.5452 -0.0154  0.2461
 8131SOL    HW236027   0.505   2.819   6.569 -0.0800 -2.0937 -1.5373
 8132SOL     OW36028   4.402   2.042   9.277 -0.2514  0.1236  0.6267
 8132SOL    HW136029   4.383   1.954   9.309  2.1644 -0.9362 -0.8139
 8132SOL    HW236030   4.398   2.033   9.182 -1.8332 -2.7377  0.9867
 8133SOL     OW36031   3.909   0.570   1.408 -0.4628  0.4549 -0.3031
 8133SOL    HW136032   3.864   0.509   1.350 -0.1746 -0.0392 -0.0070
 8133SOL    HW236033   4.003   0.558   1.394 -0.2906  0.3600  1.0142
 8134SOL     OW36034   0.234   0.096   2.302 -0.9544  0.2013  0.1401
 8134SOL    HW136035   0.209   0.029   2.238  1.6487 -0.6910  0.0214
 8134SOL    HW236036   0.148   0.105   2.341 -1.9184  1.5184 -2.2430
 8135SOL     OW36037   0.248   1.676   7.541 -0.4187 -0.0315  0.4548
 8135SOL    HW136038   0.255   1.671   7.446  2.0477  3.2913  0.4872
 8135SOL    HW236039   0.264   1.768   7.560  0.3744 -0.4065  1.6304
 8136SOL     OW36040   1.486   1.327   1.910 -0.2948  0.1640 -0.0728
 8136SOL    HW136041   1.540   1.279   1.848 -0.2177 -0.1332  0.2252
 8136SOL    HW236042   1.564   1.369   1.947 -0.3603  1.3818 -1.3278
 8137SOL     OW36043   3.549   1.366  15.576  0.4061 -0.7218  0.8248
 8137SOL    HW136044   3.562   1.429  15.647  2.1475  2.0264 -1.8888
 8137SOL    HW236045   3.483   1.305  15.607  1.2058 -2.0770 -0.1197
 8138SOL     OW36046   4.690   0.975   5.940 -0.3182 -0.3554  0.2278
 8138SOL    HW136047   4.690   0.995   6.034  1.1456  2.7057 -0.4050
 8138SOL    HW236048   4.687   0.880   5.948 -0.0592 -0.3197  0.7189
 8139SOL     OW36049   2.790   0.844   5.481  0.4250 -0.4087  0.2404
 8139SOL    HW136050   2.788   0.921   5.538 -0.3173 -1.1964  1.2847
 8139SOL    HW236051   2.867   0.846   5.424  0.0254  1.6665 -0.2369
 8140SOL     OW36052   0.030   3.502   9.202 -0.2784  0.5172  0.0600
 8140SOL    HW136053   0.093   3.548   9.258 -0.0069  0.9489 -0.6053
 8140SOL    HW236054   0.079   3.433   9.157 -1.2848  0.4435 -0.9123
 8141SOL     OW36055   0.317   4.265  16.158 -0.0633 -0.2375  0.0993
 8141SOL    HW136056   0.353   4.190  16.206 -1.7667 -1.7766 -0.9834
 8141SOL    HW236057   0.231   4.272  16.199  1.6488  1.6652  3.3090
 8142SOL     OW36058   3.551   2.186   6.747  0.1226  0.2767  0.0867
 8142SOL    HW136059   3.480   2.247   6.765  0.9801  1.1153  0.6801
 8142SOL    HW236060   3.525   2.151   6.662 -1.2256  3.8375 -0.9695
 8143SOL     OW36061   0.545   2.364   7.726 -0.9883  0.5417  0.0490
 8143SOL    HW136062   0.629   2.353   7.681  0.0472  1.6765  1.6824
 8143SOL    HW236063   0.562   2.315   7.806  1.3819 -2.1237 -2.0937
 8144SOL     OW36064   2.980   1.751   9.138  0.2460 -0.5757 -0.0019
 8144SOL    HW136065   2.978   1.774   9.045  0.2572  0.7599  0.3294
 8144SOL    HW236066   2.941   1.665   9.128  1.2399 -1.0259  0.0434
 8145SOL     OW36067   2.424   4.453  15.879 -0.7182  0.0901  0.2709
 8145SOL    HW136068   2.353   4.451  15.942 -0.0922 -0.2216  0.9676
 8145SOL    HW236069   2.462   4.538  15.899  0.7874 -0.4962 -0.0641
 8146SOL     OW36070   3.618   4.324  11.781  0.2299  0.4903  0.3581
 8146SOL    HW136071   3.642   4.288  11.867 -3.5150 -0.5295  0.9691
 8146SOL    HW236072   3.685   4.287  11.724  0.3326 -0.9548  1.4028
 8147SOL     OW36073   2.118   0.149  12.649  0.6261 -0.4636 -0.0002
 8147SOL    HW136074   2.126   0.126  12.556  0.1393 -0.2535 -0.0945
 8147SOL    HW236075   2.210   0.145  12.675  0.4895 -2.4883  0.1666
 8148SOL     OW36076   2.903   0.141   4.695  0.4504 -0.1822 -0.5398
 8148SOL    HW136077   2.997   0.156   4.686  0.9851 -1.3730  3.2913
 8148SOL    HW236078   2.871   0.231   4.709 -1.7452 -0.9057 -0.8164
 8149SOL     OW36079   3.330   4.266   8.850  0.1890 -0.4540  0.0131
 8149SOL    HW136080   3.313   4.351   8.891 -3.0149 -0.9344 -0.3118
 8149SOL    HW236081   3.296   4.274   8.761  0.1122  2.5971  0.3267
 8150SOL     OW36082   0.800   0.428   6.893 -0.0131 -0.5836  0.7458
 8150SOL    HW136083   0.720   0.467   6.928  1.3028  1.8591  1.0296
 8150SOL    HW236084   0.778   0.390   6.808  0.2279  0.8023  0.0559
 8151SOL     OW36085   4.510   3.633   9.959 -0.2665 -0.2516  0.5213
 8151SOL    HW136086   4.558   3.633   9.877 -0.3785 -2.6720  0.4401
 8151SOL    HW236087   4.573   3.579  10.007 -1.2371 -0.1282  1.9586
 8152SOL     OW36088   1.641   3.259   5.177  0.4897  0.3319 -0.6792
 8152SOL    HW136089   1.668   3.351   5.179  1.8771 -0.0695 -0.4336
 8152SOL    HW236090   1.565   3.265   5.120  0.2188  0.8839 -0.2543
 8153SOL     OW36091   2.254   3.449   3.808  0.1814 -0.5702  0.3442
 8153SOL    HW136092   2.283   3.450   3.716  2.0696 -1.7264  0.9413
 8153SOL    HW236093   2.176   3.392   3.807 -1.3097  1.4525  0.8829
 8154SOL     OW36094   4.135   3.549   0.245 -0.5352  0.0241  0.3428
 8154SOL    HW136095   4.131   3.562   0.340  2.1054 -2.4474  0.7723
 8154SOL    HW236096   4.227   3.568   0.229 -1.1955  1.7907 -1.3680
 8155SOL     OW36097   3.281   0.057   8.976  0.5353  0.3093 -0.2803
 8155SOL    HW136098   3.201   0.037   9.024  0.5469  1.2060  0.1124
 8155SOL    HW236099   3.269   0.137   8.924 -0.5963  1.2216  1.3948
 8156SOL     OW36100   4.516   4.612   4.192 -0.4017  0.4553 -0.1921
 8156SOL    HW136101   4.596   4.662   4.212 -0.1255 -0.9329  2.1886
 8156SOL    HW236102   4.517   4.530   4.242 -2.5859  1.3558  1.2843
 8157SOL     OW36103   1.583   3.725  10.313  0.0892  0.0360  0.5518
 8157SOL    HW136104   1.522   3.785  10.356  1.1670  1.0156  0.7138
 8157SOL    HW236105   1.572   3.753  10.222  1.6678 -1.1842 -0.0091
 8158SOL     OW36106   2.696   0.026   3.641 -0.0441 -0.5661  0.6423
 8158SOL    HW136107   2.765   0.016   3.707 -0.3304 -0.9892  0.8736
 8158SOL    HW236108   2.747   0.041   3.561 -3.5150  1.6761 -1.1510
 8159SOL     OW36109   0.256   4.097   4.129 -0.3165  0.3793 -0.2675
 8159SOL    HW136110   0.199   4.042   4.183 -1.8571  0.3938 -1.8666
 8159SOL    HW236111   0.259   4.043   4.050 -0.0057  0.9025 -0.6127
 8160SOL     OW36112   2.520   2.675  11.643  0.0423  0.1111  0.3265
 8160SOL    HW136113   2.606   2.689  11.683 -0.6578  0.0954  1.8289
 8160SOL    HW236114   2.493   2.758  11.605 -1.0197 -1.4810 -2.4425
 8161SOL     OW36115   4.184   3.992   6.791 -0.3969  0.3626 -0.7941
 8161SOL    HW136116   4.160   4.015   6.881 -0.7401  1.9855 -1.3040
 8161SOL    HW236117   4.105   4.002   6.738  0.6847  0.4857 -2.3988
 8162SOL     OW36118   1.670   4.120   8.873 -0.0074 -0.2400 -0.1589
 8162SOL    HW136119   1.677   4.066   8.794 -0.4595  1.4516 -1.3629
 8162SOL    HW236120   1.624   4.055   8.926  1.1604  0.0197  1.1799
 8163SOL     OW36121   3.461   0.909   4.052  0.1268 -0.6158  0.0179
 8163SOL    HW136122   3.444   0.817   4.073  1.5461 -0.7842  0.3682
 8163SOL    HW236123   3.394   0.963   4.094  0.7729 -1.1448  1.6943
 8164SOL     OW36124   0.808   1.372   5.516 -0.5464  0.1769  0.4790
 8164SOL    HW136125   0.755   1.331   5.448 -0.8769  0.9262  0.2853
 8164SOL    HW236126   0.874   1.305   5.534 -0.7795 -0.7540 -2.2908
 8165SOL     OW36127   1.500   0.627   2.512  0.3340  0.1210 -0.6254
 8165SOL    HW136128   1.529   0.631   2.604  2.9429 -2.8129 -1.3085
 8165SOL    HW236129   1.551   0.700   2.478  1.7073 -0.2043  0.6835
 8166SOL     OW36130   0.407   1.142   7.845  0.5401 -0.7622 -0.2713
 8166SOL    HW136131   0.359   1.148   7.763  1.1010  2.5158 -0.3835
 8166SOL    HW236132   0.375   1.060   7.882 -1.4988  1.4310  2.8445
 8167SOL     OW36133   4.336   1.298   3.292  0.0487 -0.6749  0.0653
 8167SOL    HW136134   4.256   1.332   3.251 -0.2345  0.4944  1.5788
 8167SOL    HW236135   4.341   1.215   3.245 -1.4214 -1.1922  0.8394
 8168SOL     OW36136   0.682   1.173  17.407 -0.1228  0.2701 -0.4898
 8168SOL    HW136137   0.658   1.090  17.446  0.5796  1.6744  2.9199
 8168SOL    HW236138   0.613   1.185  17.341  0.1622 -0.3732 -0.9000
 8169SOL     OW36139   4.624   2.587   9.713 -0.0274 -0.6619  0.4650
 8169SOL    HW136140   4.575   2.505   9.728  0.1859 -1.0453 -0.9517
 8169SOL    HW236141   4.676   2.591   9.793  1.2975  2.3518 -0.5626
 8170SOL     OW36142   2.592   1.191  14.045  0.1802  0.8090 -0.4346
 8170SOL    HW136143   2.540   1.215  13.968 -0.2060 -0.6978 -0.6461
 8170SOL    HW236144   2.555   1.247  14.114  0.2279 -1.0905  1.1446
 8171SOL     OW36145   2.334   4.656   9.779 -0.0872 -0.4092 -0.2190
 8171SOL    HW136146   2.404   4.688   9.836 -0.7843 -0.0770  0.4423
 8171SOL    HW236147   2.333   4.562   9.798 -0.2291 -0.6867 -1.6099
 8172SOL     OW36148   1.987   3.360   6.476 -0.0266  0.1627 -0.3847
 8172SOL    HW136149   1.927   3.334   6.406 -2.2275  0.4108  1.4240
 8172SOL    HW236150   1.998   3.452   6.451  3.3702 -0.4681 -1.2287
 8173SOL     OW36151   2.013   0.105  16.652  0.0850 -0.5259  0.2435
 8173SOL    HW136152   1.938   0.143  16.607  0.6228  2.4849  1.8949
 8173SOL    HW236153   2.073   0.180  16.653  0.6726 -0.9509 -2.0875
 8174SOL     OW36154   3.401   3.598   5.050 -0.1555  0.1457 -0.0140
 8174SOL    HW136155   3.351   3.603   5.132 -0.3774 -1.5326 -0.0481
 8174SOL    HW236156   3.335   3.616   4.984 -1.8599 -0.8442  1.4023
 8175SOL     OW36157   0.808   4.123  14.154  0.5418  0.1784  0.1109
 8175SOL    HW136158   0.794   4.143  14.247  2.0496 -1.5389  0.7216
 8175SOL    HW236159   0.897   4.089  14.143  0.8583  0.8763  0.5083
 8176SOL     OW36160   3.866   4.613   0.306  0.5242 -0.8027 -0.0918
 8176SOL    HW136161   3.780   4.617   0.264 -0.3766  0.6831  1.8479
 8176SOL    HW236162   3.908   4.532   0.277  1.0279  0.3087 -2.4295
 8177SOL     OW36163   1.224   0.768  16.698  0.2247  0.1083 -0.4310
 8177SOL    HW136164   1.209   0.800  16.787  2.4297 -1.2587  0.4364
 8177SOL    HW236165   1.171   0.689  16.703  0.3003  0.1921  1.6939
 8178SOL     OW36166   0.060   1.849   1.069 -0.2552  0.2488  0.5209
 8178SOL    HW136167   0.137   1.794   1.054 -0.9277 -0.3313 -0.7769
 8178SOL    HW236168   0.004   1.789   1.021 -0.7508  0.7990  0.4162
 8179SOL     OW36169   1.461   1.981   6.819  0.2623  0.0199 -0.0122
 8179SOL    HW136170   1.427   1.963   6.732  0.6463  0.9367 -0.3517
 8179SOL    HW236171   1.445   1.892   6.850 -1.6112  0.9683  1.7406
 8180SOL     OW36172   0.941   3.532  13.335  0.8225  0.2847  0.4910
 8180SOL    HW136173   0.955   3.558  13.244  2.0329  2.0970  1.1965
 8180SOL    HW236174   0.960   3.620  13.369  1.8439  0.2505 -0.0023
 8181SOL     OW36175   2.916   1.986  12.575  0.1711  0.0429  0.0107
 8181SOL    HW136176   2.912   2.023  12.486  1.7536 -0.3274 -0.2065
 8181SOL    HW236177   2.824   1.958  12.580  0.2028 -0.0472  0.0797
 8182SOL     OW36178   0.343   1.432   4.309  0.3667  0.2919  0.2911
 8182SOL    HW136179   0.269   1.372   4.321 -0.5208  1.5710  1.3387
 8182SOL    HW236180   0.370   1.453   4.399  1.5477 -1.7734  0.4113
 8183SOL     OW36181   2.427   2.789  14.414 -0.1876  0.1276  0.3335
 8183SOL    HW136182   2.455   2.861  14.357 -0.8017 -0.0638 -0.2226
 8183SOL    HW236183   2.332   2.807  14.415  0.0194  1.2484  0.3156
 8184SOL     OW36184   4.595   3.052   8.404  0.1576 -0.0751  0.2842
 8184SOL    HW136185   4.521   3.030   8.347 -0.0640  1.4084  0.0076
 8184SOL    HW236186   4.568   3.007   8.484  1.4249 -0.6821  0.3785
 8185SOL     OW36187   1.675   1.503   1.108  0.0726 -0.0249 -0.0729
 8185SOL    HW136188   1.685   1.409   1.122 -0.4912 -0.1460 -0.4661
 8185SOL    HW236189   1.701   1.519   1.017 -1.4848  2.2594 -0.1360
 8186SOL     OW36190   3.251   4.567   4.848 -0.3803  0.3069 -0.0032
 8186SOL    HW136191   3.294   4.651   4.860 -0.4996  0.5378 -1.2477
 8186SOL    HW236192   3.318   4.508   4.813  1.4562  1.5229  1.4935
 8187SOL     OW36193   1.331   3.253   5.990  0.5064  0.0893 -0.8037
 8187SOL    HW136194   1.401   3.190   6.009 -0.3895 -1.5337 -2.8015
 8187SOL    HW236195   1.263   3.222   6.050 -0.0284  1.0586 -0.9057
 8188SOL     OW36196   2.766   1.401   3.570  0.1373  0.1073  0.1008
 8188SOL    HW136197   2.742   1.309   3.581 -2.8018  1.0030  1.2681
 8188SOL    HW236198   2.737   1.426   3.482  0.0696  0.3531  0.1908
 8189SOL     OW36199   3.827   1.506  16.596  0.2062 -0.1546  0.1326
 8189SOL    HW136200   3.861   1.416  16.594  2.0977  0.5463  1.2268
 8189SOL    HW236201   3.739   1.492  16.562  0.3369  1.2200 -0.7619
 8190SOL     OW36202   0.595   2.079   9.009 -0.5453 -0.0975  0.1998
 8190SOL    HW136203   0.561   2.020   9.075  0.3551  0.3748  1.0872
 8190SOL    HW236204   0.602   2.022   8.932 -1.0923  0.1658 -0.0421
 8191SOL     OW36205   1.059   2.351  15.565 -0.1421  0.7996 -0.0069
 8191SOL    HW136206   1.092   2.338  15.476  1.0770  1.2930  0.3745
 8191SOL    HW236207   0.968   2.324  15.564  0.5778 -1.5802 -0.1365
 8192SOL     OW36208   0.541   1.316   7.987  0.1454  0.3952  0.5835
 8192SOL    HW136209   0.585   1.292   7.905 -2.5040  1.1485 -1.0463
 8192SOL    HW236210   0.463   1.263   7.969 -0.1577  1.8103 -2.3332
 8193SOL     OW36211   4.344   4.498   3.821  0.1051  0.4356 -0.1754
 8193SOL    HW136212   4.321   4.455   3.904  2.4818 -0.4944  0.0045
 8193SOL    HW236213   4.276   4.464   3.764 -0.5770 -0.8360  1.3798
 8194SOL     OW36214   2.315   2.512   3.726 -0.1704 -0.1156 -0.4640
 8194SOL    HW136215   2.239   2.506   3.785  0.5252  0.1075  0.4529
 8194SOL    HW236216   2.284   2.592   3.682 -1.0065 -0.1224  0.0942
 8195SOL     OW36217   0.025   3.322   0.863 -0.1529 -0.5421  0.2071
 8195SOL    HW136218   4.673   3.317   0.902 -0.2284  0.3930  0.1387
 8195SOL    HW236219   0.038   3.227   0.856 -2.5003 -0.7839 -0.7311
 8196SOL     OW36220   3.915   3.457  11.777 -0.3380  0.1191 -0.6648
 8196SOL    HW136221   3.836   3.460  11.831  0.7263 -4.6199  1.1138
 8196SOL    HW236222   3.936   3.364  11.777 -1.2989 -0.0977  1.3387
 8197SOL     OW36223   3.969   3.535   3.904  0.4291 -0.3100  0.0859
 8197SOL    HW136224   3.923   3.456   3.930  1.1157 -1.2944 -1.6939
 8197SOL    HW236225   3.916   3.557   3.827  0.3137 -0.7762  0.0351
 8198SOL     OW36226   2.002   1.340   0.208  0.4189 -0.3052  0.0139
 8198SOL    HW136227   1.984   1.246   0.209 -1.4228  0.0721  1.6259
 8198SOL    HW236228   2.032   1.352   0.117 -0.8668 -1.3359 -0.5449
 8199SOL     OW36229   4.090   4.048  12.286  0.2052  0.1376 -0.4463
 8199SOL    HW136230   4.181   4.025  12.306  0.5593  3.0244  1.2205
 8199SOL    HW236231   4.057   4.069  12.373  2.0677 -0.6185  0.4385
 8200SOL     OW36232   4.021   0.861   0.901  0.2982 -0.5226 -0.3201
 8200SOL    HW136233   4.087   0.922   0.933  0.3913  0.8273 -3.0892
 8200SOL    HW236234   4.004   0.888   0.811  0.4609  1.7351  0.3257
 8201SOL     OW36235   1.454   1.077   7.443 -0.7272 -0.0349  0.3083
 8201SOL    HW136236   1.411   0.999   7.477  1.5836 -1.1024  0.7996
 8201SOL    HW236237   1.380   1.117   7.398  0.8223  3.7774  1.0703
 8202SOL     OW36238   3.258   4.675  15.434 -0.1975 -0.0757  0.1723
 8202SOL    HW136239   3.219   4.608  15.378  3.0096 -1.7271 -0.1180
 8202SOL    HW236240   3.202   0.015  15.413 -0.6065 -0.7918 -1.3019
 8203SOL     OW36241   3.787   1.610   3.037  0.2080 -0.8974 -0.1420
 8203SOL    HW136242   3.776   1.650   2.951  2.1325 -1.0907 -0.4741
 8203SOL    HW236243   3.759   1.521   3.017  0.2766 -1.2683  1.4734
 8204SOL     OW36244   2.522   2.856   4.690  0.0778 -0.1280  0.2177
 8204SOL    HW136245   2.501   2.939   4.731  1.1316  1.3867 -2.2932
 8204SOL    HW236246   2.454   2.850   4.623 -0.0853  1.7540  0.2132
 8205SOL     OW36247   1.377   3.409  12.042  0.0433 -0.2068  0.5815
 8205SOL    HW136248   1.371   3.447  11.954 -1.0289  0.1983  0.8249
 8205SOL    HW236249   1.319   3.472  12.085  0.5321  0.3848  0.3689
 8206SOL     OW36250   2.454   1.794   5.167 -0.0334 -0.3258  0.9271
 8206SOL    HW136251   2.484   1.704   5.155  2.8150  0.8259 -0.5057
 8206SOL    HW236252   2.396   1.790   5.243  0.5918  1.4903  1.4892
 8207SOL     OW36253   1.432   1.398  11.927  0.5538  0.6228  0.2084
 8207SOL    HW136254   1.385   1.466  11.975 -0.0365 -0.0697  0.5901
 8207SOL    HW236255   1.488   1.459  11.877 -1.9634  2.3850 -0.4508
 8208SOL     OW36256   0.410   1.303  11.237  0.6729 -0.4080 -0.0305
 8208SOL    HW136257   0.437   1.214  11.214 -1.8082 -0.9970 -0.6498
 8208SOL    HW236258   0.486   1.338  11.283  1.5469 -1.4786 -0.6463
 8209SOL     OW36259   4.393   1.109   6.539  0.1252 -0.1299 -0.1482
 8209SOL    HW136260   4.472   1.150   6.505  0.5077 -1.2711 -0.6285
 8209SOL    HW236261   4.382   1.146   6.626 -0.5802  1.2206 -0.8058
 8210SOL     OW36262   1.547   1.785  16.164 -0.3791  0.2403  0.1952
 8210SOL    HW136263   1.478   1.852  16.164 -1.0325 -0.4283 -0.8531
 8210SOL    HW236264   1.609   1.836  16.214 -1.2445 -1.2553  2.8028
 8211SOL     OW36265   0.272   2.332   4.865  0.4855  0.3115  0.4403
 8211SOL    HW136266   0.331   2.379   4.924  0.8161  1.8958 -1.1678
 8211SOL    HW236267   0.225   2.404   4.824 -2.0769 -0.8446  1.2955
 8212SOL     OW36268   0.289   3.727  15.092  0.2838 -0.2388 -0.0282
 8212SOL    HW136269   0.218   3.749  15.152 -0.1812 -1.3068 -0.1811
 8212SOL    HW236270   0.353   3.783  15.136  1.9115  0.5683 -3.4845
 8213SOL     OW36271   3.069   0.991  12.237 -0.1341 -0.9614  0.1558
 8213SOL    HW136272   3.071   0.971  12.143  1.2770  1.9017 -0.4237
 8213SOL    HW236273   3.158   0.972  12.266 -0.3307  1.8243  2.6120
 8214SOL     OW36274   2.230   1.256   8.197 -0.0434 -0.2857  0.2111
 8214SOL    HW136275   2.323   1.235   8.201 -0.7659 -3.1813  1.9148
 8214SOL    HW236276   2.213   1.213   8.113 -1.9381  0.9063 -0.0035
 8215SOL     OW36277   1.195   1.225  16.851 -0.0925 -0.2205 -0.6297
 8215SOL    HW136278   1.136   1.296  16.825 -1.5498 -1.2759 -0.1546
 8215SOL    HW236279   1.223   1.253  16.938 -0.0470 -1.3184 -0.2929
 8216SOL     OW36280   3.123   4.243   0.687 -0.9334 -0.1853  0.2999
 8216SOL    HW136281   3.106   4.283   0.772 -0.8714 -1.4473  0.9064
 8216SOL    HW236282   3.139   4.321   0.634 -0.8218 -0.4766 -0.0976
 8217SOL     OW36283   4.188   2.885  10.951 -0.1443 -0.4300 -0.6409
 8217SOL    HW136284   4.109   2.844  10.915 -0.5753 -0.6186  0.5269
 8217SOL    HW236285   4.148   2.950  11.009  0.8068 -0.8833  0.5274
 8218SOL     OW36286   1.862   1.989  11.429  0.1498  0.5054  0.0423
 8218SOL    HW136287   1.843   1.991  11.522 -0.0837  3.5460 -0.0629
 8218SOL    HW236288   1.826   1.905  11.402 -0.0252 -0.1798  2.3930
 8219SOL     OW36289   2.951   1.411   7.720  0.5577 -0.3077  0.0897
 8219SOL    HW136290   3.029   1.357   7.709  0.4205  0.1095 -3.0811
 8219SOL    HW236291   2.951   1.434   7.812  0.1988  0.0129  0.0111
 8220SOL     OW36292   2.545   4.602   2.567 -0.0185  0.1473 -0.0139
 8220SOL    HW136293   2.580   4.516   2.545  1.6792  0.7584  0.3402
 8220SOL    HW236294   2.621   4.655   2.544 -1.6624  1.7639 -1.7781
 8221SOL     OW36295   2.721   3.091  17.614 -0.0955  0.0674 -0.3764
 8221SOL    HW136296   2.813   3.111  17.631 -0.8383  0.7068  3.0300
 8221SOL    HW236297   2.671   3.108  17.694 -1.4033 -0.2045 -1.1455
 8222SOL     OW36298   1.023   0.390   7.982  0.2771 -0.2013 -0.1426
 8222SOL    HW136299   0.955   0.334   8.020 -1.9744  0.8714 -2.6416
 8222SOL    HW236300   0.993   0.474   8.017 -2.4074 -1.0346 -0.4820
 8223SOL     OW36301   3.819   4.200   7.572 -0.0882  0.0962 -0.0476
 8223SOL    HW136302   3.858   4.206   7.660 -0.3951 -1.7875  0.2136
 8223SOL    HW236303   3.893   4.219   7.515 -0.7356  0.4645 -0.7544
 8224SOL     OW36304   2.846   3.616   8.563  0.0345  0.1220  0.3229
 8224SOL    HW136305   2.820   3.622   8.655 -1.0479  0.6740 -0.0261
 8224SOL    HW236306   2.840   3.709   8.539 -0.5308  0.3492  1.3687
 8225SOL     OW36307   4.397   4.230   4.686 -0.4949  0.5682  0.1997
 8225SOL    HW136308   4.452   4.153   4.667 -1.8098  0.4808 -3.2714
 8225SOL    HW236309   4.356   4.255   4.603  2.6525  0.4249 -1.4061
 8226SOL     OW36310   0.055   2.345   7.379 -0.1645  0.6737 -0.1877
 8226SOL    HW136311   0.071   2.401   7.304  2.3226  0.5578  0.2662
 8226SOL    HW236312   4.703   2.310   7.359 -0.6866  1.4110  0.7514
 8227SOL     OW36313   0.244   4.509   8.465 -0.1690  0.0046 -0.4685
 8227SOL    HW136314   0.299   4.512   8.543 -1.1072  0.7854  0.1586
 8227SOL    HW236315   0.245   4.414   8.453  0.1239  0.2621 -2.5803
 8228SOL     OW36316   3.133   1.999   2.878 -0.2426  0.4241 -0.5715
 8228SOL    HW136317   3.056   2.049   2.905  1.1926  1.9785  0.6462
 8228SOL    HW236318   3.204   2.063   2.883  0.0868  0.0827 -0.8917
 8229SOL     OW36319   4.706   2.621   6.254  0.5974  0.0034 -0.0537
 8229SOL    HW136320   4.664   2.674   6.187  0.8870  0.6685  0.2882
 8229SOL    HW236321   4.656   2.541   6.237  0.2082  0.6115 -1.8019
 8230SOL     OW36322   3.192   4.607  17.043 -0.0412 -0.2553  0.1210
 8230SOL    HW136323   3.250   4.589  16.969 -3.4118 -3.4755 -1.7627
 8230SOL    HW236324   3.187   4.525  17.092 -1.7259 -0.1554  0.0986
 8231SOL     OW36325   3.220   1.107   4.093 -0.4226  0.3506 -0.6230
 8231SOL    HW136326   3.246   1.136   4.006 -1.8123  1.9516 -0.5079
 8231SOL    HW236327   3.125   1.117   4.087 -0.6202 -1.3017 -0.2070
 8232SOL     OW36328   0.797   0.506   3.427  0.6004  0.3279  0.6663
 8232SOL    HW136329   0.867   0.555   3.383  0.5846 -0.5093 -0.2904
 8232SOL    HW236330   0.801   0.423   3.378  0.7469  1.0520 -0.5703
 8233SOL     OW36331   1.420   0.470   0.263  0.1636 -0.4281 -0.1704
 8233SOL    HW136332   1.382   0.555   0.241  1.0755  0.4311  1.6389
 8233SOL    HW236333   1.480   0.441   0.194  0.8952  0.2791  0.1829
 8234SOL     OW36334   0.785   0.281   9.880 -0.2159 -0.2533  0.6993
 8234SOL    HW136335   0.787   0.295   9.974  3.0193  0.8197  0.4846
 8234SOL    HW236336   0.847   0.211   9.863 -0.6143 -0.2266 -0.9018
 8235SOL     OW36337   0.710   2.849   4.785 -0.2615 -0.1668  0.1519
 8235SOL    HW136338   0.659   2.776   4.819 -1.1540 -0.0734 -0.9688
 8235SOL    HW236339   0.675   2.914   4.846 -0.7145 -0.8083  0.5664
 8236SOL     OW36340   0.566   1.615  13.311  0.0314 -0.0768  0.2751
 8236SOL    HW136341   0.569   1.710  13.325  0.6306 -0.2787  1.5570
 8236SOL    HW236342   0.483   1.598  13.267  0.6139  1.7499 -1.5454
 8237SOL     OW36343   2.960   3.128   2.385  0.4696 -0.1567  0.1792
 8237SOL    HW136344   2.877   3.167   2.413  0.7072  0.3850  0.1207
 8237SOL    HW236345   2.948   3.033   2.393 -1.2486 -0.1628 -2.4486
 8238SOL     OW36346   2.826   3.527   4.355  0.0159 -0.8444  0.1461
 8238SOL    HW136347   2.783   3.612   4.368 -1.3911 -1.2806 -1.7398
 8238SOL    HW236348   2.749   3.475   4.335 -1.0407 -0.5208  3.3385
 8239SOL     OW36349   3.413   0.686   5.030  0.0941 -0.0753  0.0407
 8239SOL    HW136350   3.477   0.661   5.098 -1.2022  1.1361  1.6897
 8239SOL    HW236351   3.468   0.727   4.963  0.0861  0.3090  0.2661
 8240SOL     OW36352   0.193   2.760   3.052  0.3250  0.1472  0.0089
 8240SOL    HW136353   0.156   2.687   3.100  0.0552  1.2690  1.4931
 8240SOL    HW236354   0.181   2.839   3.104 -1.0646  0.2704 -0.4858
 8241SOL     OW36355   1.613   1.085   4.170 -0.1120  0.5161  0.0896
 8241SOL    HW136356   1.645   1.029   4.241  0.7187  0.1990 -0.5358
 8241SOL    HW236357   1.521   1.058   4.166 -0.2170  1.1851 -1.9070
 8242SOL     OW36358   1.879   4.281   1.010 -0.1901 -0.5114  0.7711
 8242SOL    HW136359   1.849   4.370   1.026  1.4676 -0.2284  2.2509
 8242SOL    HW236360   1.809   4.241   0.958 -0.4491  0.1368  0.6221
 8243SOL     OW36361   2.960   2.676   6.633  0.2587  0.0264 -0.3734
 8243SOL    HW136362   2.879   2.723   6.614  0.5412  0.8976  0.5424
 8243SOL    HW236363   2.925   2.595   6.597  0.6952  0.1865 -1.1580
 8244SOL     OW36364   4.206   0.425   0.396 -0.3733  0.1388  0.1058
 8244SOL    HW136365   4.248   0.418   0.482 -0.9488  0.4270  0.4031
 8244SOL    HW236366   4.116   0.456   0.407  0.1629  1.0431  1.9665
 8245SOL     OW36367   0.393   4.088   6.957 -0.2351  0.0156 -0.0936
 8245SOL    HW136368   0.333   4.028   7.002  0.5189 -0.6416  0.0334
 8245SOL    HW236369   0.445   4.015   6.921  0.9983  0.4583  0.8064
 8246SOL     OW36370   1.720   3.462   6.746 -0.1248  0.7338 -0.3492
 8246SOL    HW136371   1.717   3.534   6.684  2.4053  1.3400  0.2581
 8246SOL    HW236372   1.784   3.490   6.812  0.7304  0.2068 -0.9594
 8247SOL     OW36373   1.585   1.447   9.246 -0.1635 -0.6462 -0.2171
 8247SOL    HW136374   1.642   1.520   9.267 -1.4462  0.1093  0.6275
 8247SOL    HW236375   1.531   1.487   9.178 -1.0584 -1.8288 -0.2148
 8248SOL     OW36376   3.973   4.307   4.501  0.3400 -0.0732 -0.1461
 8248SOL    HW136377   3.916   4.353   4.439 -2.8669 -1.5701  1.7022
 8248SOL    HW236378   3.931   4.223   4.517 -0.1264  0.1660 -0.1139
 8249SOL     OW36379   4.084   2.504   7.562 -0.2480  0.1547  0.0198
 8249SOL    HW136380   4.170   2.542   7.578  0.1418 -0.6921 -0.0440
 8249SOL    HW236381   4.052   2.576   7.508  1.1154  0.9606  0.2890
 8250SOL     OW36382   0.865   0.418  14.098 -0.1761 -0.0649 -0.1700
 8250SOL    HW136383   0.843   0.490  14.038  0.5092 -1.0419 -1.6101
 8250SOL    HW236384   0.925   0.463  14.157 -0.5803  0.5339 -0.2159
 8251SOL     OW36385   2.358   1.639   1.613 -0.0982  0.0869 -0.0721
 8251SOL    HW136386   2.414   1.569   1.646  1.5553  1.2343 -0.4561
 8251SOL    HW236387   2.368   1.707   1.680  2.1973 -0.3289 -0.0000
 8252SOL     OW36388   0.255   2.063  14.712 -0.1752 -0.2829  0.0287
 8252SOL    HW136389   0.182   2.016  14.674  0.3014 -2.6201  2.0435
 8252SOL    HW236390   0.324   1.998  14.721 -0.3420 -0.6025 -1.0261
 8253SOL     OW36391   0.737   4.528   3.694 -0.0081  0.2158 -0.5715
 8253SOL    HW136392   0.794   4.471   3.642  0.0667  0.8509 -1.1856
 8253SOL    HW236393   0.703   4.585   3.624  1.1166  1.5092 -0.0778
 8254SOL     OW36394   3.358   0.780  12.785 -0.0748  0.0538  0.3277
 8254SOL    HW136395   3.300   0.747  12.854  1.3017  0.4581  1.6989
 8254SOL    HW236396   3.432   0.799  12.843 -0.5600 -0.2717  1.0582
 8255SOL     OW36397   4.512   0.165   6.802  0.0026 -0.4417  0.1357
 8255SOL    HW136398   4.579   0.184   6.868  0.2605 -0.9308  0.0108
 8255SOL    HW236399   4.435   0.207   6.841 -1.2148 -0.7708 -1.8802
 8256SOL     OW36400   0.861   0.497   4.618 -0.2846 -0.0002  0.2340
 8256SOL    HW136401   0.894   0.408   4.626  2.6987  1.0548  0.0029
 8256SOL    HW236402   0.796   0.477   4.551 -1.3505  0.5360  1.1019
 8257SOL     OW36403   1.329   3.934   1.820 -0.4515  0.1019  0.4347
 8257SOL    HW136404   1.414   3.936   1.775 -1.4182 -0.9868 -1.4013
 8257SOL    HW236405   1.269   3.992   1.775 -2.7770 -1.6110  1.3205
 8258SOL     OW36406   2.272   1.193   1.387 -0.2439  0.5912  0.4911
 8258SOL    HW136407   2.187   1.149   1.393 -0.0391  0.3463  1.5521
 8258SOL    HW236408   2.324   1.119   1.356 -0.4539  0.9507 -0.7418
 8259SOL     OW36409   4.615   3.944   1.155 -0.6020  0.2237 -0.1011
 8259SOL    HW136410   4.673   4.020   1.163  1.5343 -1.4899  0.8526
 8259SOL    HW236411   4.545   3.971   1.214  0.0333  0.5492  0.5035
 8260SOL     OW36412   1.402   2.685   5.631  0.3723  0.0975  0.3290
 8260SOL    HW136413   1.464   2.672   5.559  0.5276 -2.2511  0.8767
 8260SOL    HW236414   1.453   2.644   5.702 -0.8064  0.6915  1.5158
 8261SOL     OW36415   1.391   3.542   7.528 -0.5085 -0.0285  0.0267
 8261SOL    HW136416   1.392   3.450   7.555 -1.2662 -0.3697 -1.1114
 8261SOL    HW236417   1.306   3.544   7.484 -0.6991  0.0897  0.4078
 8262SOL     OW36418   1.602   2.163   6.663  0.0083  0.7080 -0.1538
 8262SOL    HW136419   1.525   2.141   6.716  1.6902 -2.2170  1.0481
 8262SOL    HW236420   1.634   2.074   6.647 -0.8492  0.4970 -0.7408
 8263SOL     OW36421   4.660   0.106   5.727  0.2532  0.6110  0.1209
 8263SOL    HW136422   4.716   0.039   5.689  0.0007  0.5393 -0.1240
 8263SOL    HW236423   4.712   0.186   5.738 -0.5387  1.1469 -0.0479
 8264SOL     OW36424   0.346   0.376   1.750  0.1440  0.3114  0.5122
 8264SOL    HW136425   0.350   0.285   1.719  1.8569  0.9306 -1.0682
 8264SOL    HW236426   0.278   0.361   1.815 -0.5241 -1.9053 -0.7008
 8265SOL     OW36427   1.214   2.704   9.690  0.4710 -0.1028  0.1912
 8265SOL    HW136428   1.152   2.655   9.636  0.4847  2.7188 -2.3711
 8265SOL    HW236429   1.157   2.746   9.755  0.0961 -0.5450  0.1455
 8266SOL     OW36430   2.390   4.702   1.632 -0.1770  0.1446  0.4541
 8266SOL    HW136431   2.343   0.025   1.572  1.7359  1.7452  0.5128
 8266SOL    HW236432   2.466   0.023   1.642 -1.4196  1.4660  2.3079
 8267SOL     OW36433   1.787   1.650   9.548  0.3622  0.2990  0.2761
 8267SOL    HW136434   1.847   1.710   9.593 -0.6620  1.3805  0.2017
 8267SOL    HW236435   1.707   1.653   9.601 -0.6375 -2.0947 -1.0893
 8268SOL     OW36436   2.132   2.772   7.523 -0.3667  0.2337 -0.1630
 8268SOL    HW136437   2.174   2.691   7.496 -2.0861 -0.9244  0.6925
 8268SOL    HW236438   2.042   2.740   7.525 -0.1474 -0.2721  1.6022
 8269SOL     OW36439   1.232   3.819   6.674  0.3101  0.1473 -1.0746
 8269SOL    HW136440   1.295   3.759   6.634  1.1910  0.4440 -0.1517
 8269SOL    HW236441   1.274   3.825   6.761 -1.5692 -0.3769 -0.1381
 8270SOL     OW36442   0.527   4.005   4.964  0.1072  0.2590  0.3217
 8270SOL    HW136443   0.567   3.986   4.879 -1.3502  0.1480 -0.3349
 8270SOL    HW236444   0.514   4.100   4.966 -0.2345  0.2369 -0.6552
 8271SOL     OW36445   3.619   1.548  15.784  0.1288 -0.0870 -0.1566
 8271SOL    HW136446   3.675   1.616  15.823 -0.2791  1.2334 -1.8481
 8271SOL    HW236447   3.595   1.504  15.865  2.1274 -0.7864  0.0603
 8272SOL     OW36448   1.648   1.465   6.569  0.2073  0.2490  0.2253
 8272SOL    HW136449   1.669   1.539   6.625 -1.7826  0.9148  0.0853
 8272SOL    HW236450   1.554   1.466   6.585  0.3340 -1.7222  1.1314
 8273SOL     OW36451   0.358   0.263   0.282 -0.2215 -0.1199 -0.2053
 8273SOL    HW136452   0.301   0.339   0.270 -0.3573 -0.3368 -0.9692
 8273SOL    HW236453   0.294   0.191   0.285 -0.5686  0.2184  0.4028
 8274SOL     OW36454   0.265   0.568   5.301  0.7253  0.0759 -0.0049
 8274SOL    HW136455   0.328   0.600   5.236  0.7391  0.4577  0.1941
 8274SOL    HW236456   0.298   0.601   5.385 -1.0296 -1.1295  1.1789
 8275SOL     OW36457   3.894   2.083   8.872  0.2777 -0.2209 -0.1912
 8275SOL    HW136458   3.877   2.168   8.832 -0.4337  0.2140  1.0147
 8275SOL    HW236459   3.806   2.056   8.898 -0.0549  0.2965 -0.8037
 8276SOL     OW36460   3.615   3.334   3.139 -0.2885 -0.2890 -0.3813
 8276SOL    HW136461   3.686   3.381   3.181 -0.5168  0.0528 -0.3746
 8276SOL    HW236462   3.661   3.253   3.117 -1.2525 -0.7152 -0.8595
 8277SOL     OW36463   2.518   3.992   8.866  0.6960 -0.0613 -0.2257
 8277SOL    HW136464   2.465   4.013   8.943 -0.5431  0.1661 -1.1495
 8277SOL    HW236465   2.446   3.981   8.803 -0.5126  0.4729  1.0608
 8278SOL     OW36466   2.154   3.935   8.168 -0.4267 -0.1150 -0.0809
 8278SOL    HW136467   2.123   4.025   8.159 -2.8370 -0.7686  1.7220
 8278SOL    HW236468   2.102   3.901   8.095 -2.8656  1.7857  0.7740
 8279SOL     OW36469   2.834   2.114  17.149 -0.0171 -0.6739  0.0734
 8279SOL    HW136470   2.785   2.141  17.071 -0.5750  0.9092  0.9683
 8279SOL    HW236471   2.764   2.095  17.211  1.1585 -1.7571  1.0642
 8280SOL     OW36472   2.895   1.680   7.137 -0.0714  0.0009 -0.5655
 8280SOL    HW136473   2.880   1.626   7.215 -0.0164 -0.8341 -1.1419
 8280SOL    HW236474   2.952   1.620   7.089 -1.3272 -1.1506 -0.6294
 8281SOL     OW36475   4.681   2.617   8.512 -0.3656 -0.0196  0.3490
 8281SOL    HW136476   4.687   2.705   8.548 -0.8669  0.0620  0.2215
 8281SOL    HW236477   0.030   2.577   8.537  0.1257  0.0746 -1.1937
 8282SOL     OW36478   0.332   0.304   6.633 -0.0956 -0.3554  0.3109
 8282SOL    HW136479   0.349   0.271   6.721  0.1950  0.5773  0.6054
 8282SOL    HW236480   0.421   0.301   6.598 -0.4391 -0.9774 -0.5219
 8283SOL     OW36481   2.119   3.848  16.046  0.4429  0.4243  0.1150
 8283SOL    HW136482   2.122   3.938  16.013 -1.0982 -0.0332 -1.2482
 8283SOL    HW236483   2.028   3.830  16.022  1.6837 -1.5751 -3.2170
 8284SOL     OW36484   2.231   4.450  17.365  0.6464  0.2901 -0.5084
 8284SOL    HW136485   2.267   4.484  17.283 -0.2357 -0.4551 -1.2029
 8284SOL    HW236486   2.187   4.526  17.405  4.4236  2.1792  0.0064
 8285SOL     OW36487   4.420   3.743   3.878 -0.4956  0.1292 -0.1507
 8285SOL    HW136488   4.447   3.698   3.798 -2.7801  1.7284 -1.8037
 8285SOL    HW236489   4.379   3.818   3.834  1.4446  1.0494 -0.3726
 8286SOL     OW36490   2.350   2.109   1.657 -0.4185 -0.3850  0.3910
 8286SOL    HW136491   2.389   2.041   1.602 -0.0310  0.1377  0.0207
 8286SOL    HW236492   2.422   2.127   1.718 -0.6721 -0.8610  0.8261
 8287SOL     OW36493   1.693   1.071   4.821  0.1114  0.2861 -0.3094
 8287SOL    HW136494   1.693   1.074   4.916 -1.9791  0.6180 -0.3217
 8287SOL    HW236495   1.632   0.999   4.806  1.3884 -1.0985  1.1604
 8288SOL     OW36496   3.627   1.595  12.185 -0.1975 -0.0941  0.1935
 8288SOL    HW136497   3.616   1.622  12.094  0.0388  1.4215  0.6164
 8288SOL    HW236498   3.649   1.503  12.169  1.5081  0.7734 -2.4268
 8289SOL     OW36499   0.126   1.208  15.282  0.0982 -0.5040  0.5791
 8289SOL    HW136500   0.080   1.289  15.305 -0.9741 -0.8620 -0.2570
 8289SOL    HW236501   0.181   1.190  15.357 -0.6566 -1.3521  0.9302
 8290SOL     OW36502   3.931   3.256   1.340  0.2053 -0.3121 -0.0489
 8290SOL    HW136503   3.935   3.305   1.422 -1.2149  1.1866 -0.8832
 8290SOL    HW236504   4.023   3.256   1.312 -0.1885  1.2938 -1.3378
 8291SOL     OW36505   2.280   0.798   9.981 -0.6401 -0.1577  0.0877
 8291SOL    HW136506   2.314   0.743  10.051  0.5139 -1.0972 -1.2078
 8291SOL    HW236507   2.359   0.850   9.965 -0.0158 -0.4466  2.3264
 8292SOL     OW36508   1.159   0.452   6.037 -0.2632 -0.3377 -0.0004
 8292SOL    HW136509   1.174   0.468   5.944 -0.0957 -1.3098 -0.1456
 8292SOL    HW236510   1.119   0.537   6.055 -0.4563  0.1053 -2.4218
 8293SOL     OW36511   3.066   0.823   2.860 -0.1575  0.2544 -0.1171
 8293SOL    HW136512   2.986   0.832   2.911  0.1072  1.3157  0.1000
 8293SOL    HW236513   3.058   0.877   2.782  0.8236 -1.1711 -1.1837
 8294SOL     OW36514   0.127   0.899  10.146 -0.7369  0.8702 -0.1561
 8294SOL    HW136515   0.191   0.887  10.076  0.4888  1.9302  0.7945
 8294SOL    HW236516   0.065   0.836  10.109 -0.1386 -0.0502  0.4108
 8295SOL     OW36517   3.773   2.343  15.817 -0.4341  0.4238  0.2142
 8295SOL    HW136518   3.773   2.346  15.722  0.6653  0.0900  0.1994
 8295SOL    HW236519   3.682   2.321  15.836 -0.5066  0.3250 -0.2502
 8296SOL     OW36520   4.642   1.557  17.483  0.1769 -0.3558 -0.1015
 8296SOL    HW136521   4.624   1.523  17.570  2.7182  1.4854  1.1281
 8296SOL    HW236522   4.583   1.498  17.436  0.4211  0.6696 -1.6849
 8297SOL     OW36523   2.120   1.242   7.467  0.2448 -0.0573 -0.0008
 8297SOL    HW136524   2.129   1.206   7.378 -1.1306 -0.2467 -0.0592
 8297SOL    HW236525   2.178   1.316   7.453  1.9139 -1.4430 -0.4505
 8298SOL     OW36526   0.937   3.139   1.005  0.0620 -0.1217 -0.2574
 8298SOL    HW136527   0.855   3.149   1.055 -0.5317 -0.2447 -1.1987
 8298SOL    HW236528   1.005   3.150   1.071  0.0649 -1.5910 -0.0232
 8299SOL     OW36529   2.116   3.488   9.464  0.4684 -0.3149  0.6978
 8299SOL    HW136530   2.108   3.579   9.435  3.5739 -0.1001  0.4919
 8299SOL    HW236531   2.103   3.489   9.559  1.1981 -0.9865  0.8083
 8300SOL     OW36532   2.250   2.941   9.673 -0.1994 -0.2860  0.0213
 8300SOL    HW136533   2.157   2.955   9.692 -0.1809 -0.2977  0.1173
 8300SOL    HW236534   2.253   2.871   9.607  0.3746 -0.2192 -0.0238
 8301SOL     OW36535   2.276   0.819   5.867 -0.1725  0.4807 -0.0706
 8301SOL    HW136536   2.344   0.841   5.804 -0.2230 -1.5334 -0.8286
 8301SOL    HW236537   2.241   0.902   5.899  0.1315 -0.2386  2.1368
 8302SOL     OW36538   0.778   2.209   5.520  0.2108  0.2459  0.1308
 8302SOL    HW136539   0.812   2.244   5.602 -1.1430  2.4505 -0.2436
 8302SOL    HW236540   0.688   2.239   5.526  1.1236  2.5632  2.2682
 8303SOL     OW36541   3.498   1.468   1.311  0.5132 -0.0891 -0.1240
 8303SOL    HW136542   3.413   1.494   1.274  0.9015 -1.8212 -2.2543
 8303SOL    HW236543   3.476   1.375   1.323  1.6051 -0.2957  0.2120
 8304SOL     OW36544   0.832   1.815   8.446  0.3652  0.1578 -0.5494
 8304SOL    HW136545   0.792   1.872   8.380 -1.5932 -1.2303 -0.5650
 8304SOL    HW236546   0.912   1.857   8.478 -0.0759  0.8845 -0.4057
 8305SOL     OW36547   0.704   0.054   6.060 -0.7566  0.2895 -0.0831
 8305SOL    HW136548   0.670   0.003   6.133  0.4607 -1.0215 -0.4454
 8305SOL    HW236549   0.714   0.140   6.102 -0.4570 -0.0216  0.4725
 8306SOL     OW36550   3.718   4.007   3.459 -0.1085  0.1805  0.3576
 8306SOL    HW136551   3.784   4.055   3.508  0.9758 -0.9954  0.0413
 8306SOL    HW236552   3.765   3.924   3.458 -2.1673 -0.9948  0.3940
 8307SOL     OW36553   4.092   2.167   4.760 -0.4436  0.0118 -0.0390
 8307SOL    HW136554   4.089   2.151   4.854 -1.5763  0.8061  0.0701
 8307SOL    HW236555   4.092   2.262   4.748  1.4454 -0.0573 -0.6471
 8308SOL     OW36556   0.412   4.088   2.340 -0.6991  0.7459 -0.0417
 8308SOL    HW136557   0.467   4.013   2.317  0.1933  0.0929  4.1643
 8308SOL    HW236558   0.336   4.084   2.283 -0.8892 -1.9823  0.3712
 8309SOL     OW36559   2.885   3.887   3.275 -0.2218 -0.4111  0.0319
 8309SOL    HW136560   2.903   3.794   3.291  0.4621 -0.2114  0.4024
 8309SOL    HW236561   2.957   3.912   3.218 -0.0281  0.7875  0.8034
 8310SOL     OW36562   4.150   3.894   2.968 -0.1162  0.2739 -0.0389
 8310SOL    HW136563   4.191   3.844   3.038 -1.0719  2.1175  1.8319
 8310SOL    HW236564   4.112   3.824   2.914 -1.1349  1.1090 -0.4164
 8311SOL     OW36565   0.202   2.267   5.911 -0.1613  0.0589  0.4620
 8311SOL    HW136566   0.170   2.315   5.834 -0.0471 -1.1925 -0.3646
 8311SOL    HW236567   0.282   2.319   5.920  0.0619  0.0208 -1.3498
 8312SOL     OW36568   1.584   4.479   5.952  0.4518  0.1354 -0.3647
 8312SOL    HW136569   1.537   4.432   6.022  0.5826  0.6857  0.0938
 8312SOL    HW236570   1.662   4.424   5.948 -1.3152 -2.4157 -0.3811
 8313SOL     OW36571   0.418   0.603   8.695  0.4837 -0.2062  0.0952
 8313SOL    HW136572   0.355   0.636   8.631  0.6272 -0.9188 -0.4137
 8313SOL    HW236573   0.383   0.515   8.706 -0.5884 -0.0763 -2.5079
 8314SOL     OW36574   4.207   4.558   6.735 -0.3908 -0.2603 -0.0807
 8314SOL    HW136575   4.162   4.574   6.818 -0.2310  4.3349 -0.8661
 8314SOL    HW236576   4.177   4.635   6.687 -0.6424 -0.1023  0.3269
 8315SOL     OW36577   4.076   4.203   0.093  0.2578  0.0560 -0.1390
 8315SOL    HW136578   4.073   4.216  17.738 -2.2243  1.5418  0.1536
 8315SOL    HW236579   4.095   4.111   0.113 -2.0783 -0.4005 -0.0402
 8316SOL     OW36580   3.267   1.125   3.835 -0.3035 -0.5328  0.2951
 8316SOL    HW136581   3.267   1.043   3.785  0.0771 -0.6966  0.5619
 8316SOL    HW236582   3.310   1.176   3.767 -0.0391  1.8739  2.2567
 8317SOL     OW36583   4.709   3.473  12.151 -0.1151 -0.3885  0.4804
 8317SOL    HW136584   0.022   3.401  12.193  1.5044  0.0149 -0.7134
 8317SOL    HW236585   0.038   3.541  12.174  1.0659 -1.9092  1.7652
 8318SOL     OW36586   1.794   1.562   0.008  0.2387 -0.3099  0.4304
 8318SOL    HW136587   1.872   1.597   0.051 -1.3629  0.8708  2.3547
 8318SOL    HW236588   1.832   1.501  17.684 -1.6297 -0.1926 -0.7877
 8319SOL     OW36589   1.569   2.019   5.333  0.2218 -0.1225 -0.2643
 8319SOL    HW136590   1.493   2.003   5.278  0.6105 -2.4956 -0.1115
 8319SOL    HW236591   1.535   1.993   5.419  1.9134  2.2726  1.1442
 8320SOL     OW36592   4.456   0.895  16.651  0.2869  0.0397 -0.4336
 8320SOL    HW136593   4.500   0.818  16.613 -0.0731 -0.4589  0.1553
 8320SOL    HW236594   4.533   0.936  16.690 -0.1002 -1.2616  1.7133
 8321SOL     OW36595   0.513   1.549   9.037 -0.1742 -0.3236  0.3358
 8321SOL    HW136596   0.418   1.554   9.032 -0.3193 -1.8972  1.5734
 8321SOL    HW236597   0.538   1.632   9.078 -4.2996  0.8983  0.2778
 8322SOL     OW36598   0.246   1.025  16.836 -0.2459 -0.3195 -0.0864
 8322SOL    HW136599   0.294   0.959  16.886 -0.7973  0.2523  1.2104
 8322SOL    HW236600   0.305   1.050  16.766 -0.3322  1.2358  0.3861
 8323SOL     OW36601   2.738   4.327   5.660  0.3005 -0.1192  0.2725
 8323SOL    HW136602   2.793   4.399   5.694  1.1083 -0.8031  0.4256
 8323SOL    HW236603   2.695   4.374   5.589  1.3181  0.0077 -0.2696
 8324SOL     OW36604   2.173   4.517   7.790 -0.1961  0.1968  0.0720
 8324SOL    HW136605   2.201   4.440   7.739  0.5534 -0.7131  1.8686
 8324SOL    HW236606   2.136   4.478   7.869  1.5307 -1.3364  0.1372
 8325SOL     OW36607   0.934   2.953   6.029 -0.4632 -0.3203  0.4998
 8325SOL    HW136608   1.028   2.936   6.038  0.3647  3.0833 -1.4688
 8325SOL    HW236609   0.905   2.894   5.959  0.0786  0.8639 -0.7386
 8326SOL     OW36610   4.412   0.142  14.063 -0.1438  0.0547 -0.2377
 8326SOL    HW136611   4.480   0.192  14.107  1.3348 -1.0711 -1.2230
 8326SOL    HW236612   4.471   0.114  13.992  2.9460 -0.0366  2.3778
 8327SOL     OW36613   0.026   1.428  16.726  0.2876  0.0574 -0.2140
 8327SOL    HW136614   0.095   1.494  16.730  0.3937 -0.1793  1.7602
 8327SOL    HW236615   4.697   1.450  16.794  1.7198 -1.3273  1.5870
 8328SOL     OW36616   0.534   0.216   4.892 -0.0458  0.7250  0.3547
 8328SOL    HW136617   0.488   0.138   4.863 -0.0626  0.4617  1.0849
 8328SOL    HW236618   0.499   0.285   4.835 -0.1433  2.5796  2.6365
 8329SOL     OW36619   2.234   2.991   3.441  0.3576  0.2914  0.3711
 8329SOL    HW136620   2.153   3.020   3.399  0.4635 -1.9266 -1.3629
 8329SOL    HW236621   2.239   3.066   3.500 -2.3348  1.4923 -0.9097
 8330SOL     OW36622   0.022   1.577  12.909  0.2861  0.9442  0.7881
 8330SOL    HW136623   0.043   1.588  12.816 -0.9967  0.9956  0.4936
 8330SOL    HW236624   0.090   1.513  12.931  0.3046  1.8088  3.1672
 8331SOL     OW36625   2.261   3.991   7.822  0.0951 -0.6185 -0.5091
 8331SOL    HW136626   2.345   4.016   7.784  0.2340 -0.6518 -0.2260
 8331SOL    HW236627   2.268   3.896   7.830  0.2323 -0.8573 -3.5376
 8332SOL     OW36628   4.421   4.149   5.372 -0.0087 -0.1999 -0.3648
 8332SOL    HW136629   4.436   4.137   5.465 -1.7392  2.7539  0.2957
 8332SOL    HW236630   4.477   4.088   5.324  1.7220 -0.3589  1.9048
 8333SOL     OW36631   3.862   3.490  16.285 -0.1422 -0.0611 -0.1619
 8333SOL    HW136632   3.911   3.423  16.238  0.4896  0.7810 -0.7169
 8333SOL    HW236633   3.775   3.452  16.277  0.2972 -0.6603 -2.2038
 8334SOL     OW36634   3.966   3.708   7.780  0.7955 -0.2505 -0.0574
 8334SOL    HW136635   4.031   3.770   7.813  0.9044  0.9043 -2.4529
 8334SOL    HW236636   3.902   3.711   7.851  0.4630  2.7652 -0.5147
 8335SOL     OW36637   4.489   1.101   0.012 -0.0747  0.3334 -0.0679
 8335SOL    HW136638   4.456   1.040   0.078  0.8948  1.0341  1.0533
 8335SOL    HW236639   4.569   1.056  17.724 -0.6384 -0.2700 -0.7617
 8336SOL     OW36640   4.233   2.042   1.911  0.2718 -0.0079 -0.5168
 8336SOL    HW136641   4.255   2.046   2.004 -2.8455  0.9979  0.1882
 8336SOL    HW236642   4.275   2.122   1.881 -0.0656  0.5924  0.5965
 8337SOL     OW36643   3.177   3.627   3.505 -0.5006  0.1352 -0.3083
 8337SOL    HW136644   3.223   3.547   3.480 -0.5368  0.1515 -0.4272
 8337SOL    HW236645   3.253   3.683   3.519 -0.4094 -0.4298  1.4546
 8338SOL     OW36646   4.493   3.132  10.792 -0.1759  0.0490 -0.0981
 8338SOL    HW136647   4.508   3.041  10.817 -1.6470  0.0348  0.7360
 8338SOL    HW236648   4.575   3.162  10.832 -1.1119  1.0507  1.0873
 8339SOL     OW36649   3.885   4.126   8.067 -0.0441  0.2487  0.0643
 8339SOL    HW136650   3.958   4.186   8.056  0.3754 -0.3690 -0.5310
 8339SOL    HW236651   3.937   4.046   8.080 -0.7452 -0.7039 -2.7666
 8340SOL     OW36652   0.147   0.054  14.234  0.6515 -0.6048  0.5058
 8340SOL    HW136653   0.055   0.049  14.258 -0.5080 -0.3057 -3.7853
 8340SOL    HW236654   0.142   0.037  14.140  2.0772  1.9593 -0.0589
 8341SOL     OW36655   1.496   1.900   3.881 -0.3817  0.1755  0.4643
 8341SOL    HW136656   1.564   1.940   3.828 -0.2508 -1.8666 -0.9097
 8341SOL    HW236657   1.489   1.813   3.842 -1.8630 -0.7267  2.7305
 8342SOL     OW36658   2.552   3.241   6.672  0.1885  0.0126 -0.4527
 8342SOL    HW136659   2.602   3.253   6.752 -1.8861  0.0830  0.8449
 8342SOL    HW236660   2.463   3.259   6.703  0.5206  0.5939  0.1532
 8343SOL     OW36661   1.144   0.021  17.257  0.0773 -0.3773 -0.4121
 8343SOL    HW136662   1.231   0.037  17.220  0.6431 -1.8579  0.2994
 8343SOL    HW236663   1.093   0.059  17.185  0.8212  3.6641  1.2039
 8344SOL     OW36664   1.067   3.051   8.915 -0.3829  0.0607 -0.3079
 8344SOL    HW136665   1.041   3.143   8.920 -1.6314 -0.4152  1.7870
 8344SOL    HW236666   1.143   3.055   8.857 -0.8173  0.0476 -0.8828
 8345SOL     OW36667   1.481   3.661   7.169 -0.1392 -0.3679  0.5806
 8345SOL    HW136668   1.469   3.712   7.089  1.2223 -1.1636 -0.1243
 8345SOL    HW236669   1.510   3.724   7.235 -0.5713  0.7807 -0.3361
 8346SOL     OW36670   4.260   4.121   7.152  0.0273  0.6258  0.2865
 8346SOL    HW136671   4.172   4.106   7.186 -1.1473  0.3595 -2.9345
 8346SOL    HW236672   4.249   4.208   7.112 -2.1207  0.3801  0.3562
 8347SOL     OW36673   0.300   1.080  11.482 -0.1421 -0.3742  0.3981
 8347SOL    HW136674   0.258   1.155  11.440  0.6122 -0.5962 -0.7295
 8347SOL    HW236675   0.358   1.119  11.548  1.3857  1.0384 -1.8093
 8348SOL     OW36676   2.912   4.359   4.596 -0.1344  0.3523 -0.2463
 8348SOL    HW136677   2.822   4.389   4.613 -0.7615 -2.2458  1.0513
 8348SOL    HW236678   2.947   4.409   4.670  1.4590 -1.1520  0.0091
 8349SOL     OW36679   1.571   2.414  15.234  0.3199  0.1986 -0.3302
 8349SOL    HW136680   1.517   2.370  15.301  0.5111  0.6906  0.1509
 8349SOL    HW236681   1.646   2.444  15.285  1.0658  0.4101 -1.5672
 8350SOL     OW36682   1.391   3.537  12.882  0.5033  0.3172 -0.3684
 8350SOL    HW136683   1.445   3.594  12.828  1.4567  0.3668  0.6411
 8350SOL    HW236684   1.347   3.602  12.937 -2.8267 -0.5804 -1.9622
 8351SOL     OW36685   1.431   4.464  14.843  0.5566 -0.3801 -0.3858
 8351SOL    HW136686   1.437   4.506  14.929  2.2839 -1.6454  0.1127
 8351SOL    HW236687   1.498   4.396  14.851  1.1089  0.1981 -0.0426
 8352SOL     OW36688   3.713   2.275   6.514  0.1642 -0.4247  0.2568
 8352SOL    HW136689   3.641   2.303   6.571 -1.4265 -2.0669 -0.9355
 8352SOL    HW236690   3.789   2.327   6.540  0.0355  0.1103 -0.4045
 8353SOL     OW36691   4.287   2.725   3.923 -0.5744  0.1016  0.3903
 8353SOL    HW136692   4.285   2.697   3.832 -0.1673  2.1469 -0.2579
 8353SOL    HW236693   4.344   2.802   3.922 -2.1381  1.2794  1.8176
 8354SOL     OW36694   3.190   3.745   4.388  0.3696 -0.6466 -0.6908
 8354SOL    HW136695   3.108   3.765   4.342  0.2854 -0.3378 -0.4084
 8354SOL    HW236696   3.154   3.722   4.474  0.6168 -0.9417 -0.6674
 8355SOL     OW36697   0.186   3.229   3.359 -0.1126 -0.7520 -0.0421
 8355SOL    HW136698   0.248   3.250   3.289  1.1953  0.4772  1.5128
 8355SOL    HW236699   0.234   3.159   3.402 -0.7620 -1.5486 -0.6027
 8356SOL     OW36700   3.102   1.805  14.727  0.0801  0.4939 -0.2099
 8356SOL    HW136701   3.009   1.796  14.748  0.1741 -0.5077 -0.2360
 8356SOL    HW236702   3.107   1.746  14.652 -0.7933 -0.2175  0.2886
 8357SOL     OW36703   2.925   1.574  16.839 -0.3874  0.1489  0.4198
 8357SOL    HW136704   2.975   1.603  16.916 -0.5044 -0.6645  0.7976
 8357SOL    HW236705   2.959   1.630  16.770  1.5157 -1.2295  0.2451
 8358SOL     OW36706   2.396   4.273   8.654 -0.1965  0.0690  0.2550
 8358SOL    HW136707   2.367   4.330   8.724  1.2738 -0.3593  1.2133
 8358SOL    HW236708   2.317   4.242   8.610 -1.0264 -0.7330  2.3004
 8359SOL     OW36709   3.270   1.601  11.630  0.2394 -0.0447  0.3319
 8359SOL    HW136710   3.211   1.531  11.658 -2.1389  1.7609 -0.1215
 8359SOL    HW236711   3.288   1.587  11.537 -0.1448  1.1823  0.0716
 8360SOL     OW36712   0.301   2.447   3.805  0.1485  0.2584  0.0121
 8360SOL    HW136713   0.230   2.441   3.868  0.2078 -2.5418 -0.1846
 8360SOL    HW236714   0.278   2.372   3.748  2.2470  1.0754 -1.9118
 8361SOL     OW36715   3.096   2.031  14.560  0.0970 -0.3517  0.5100
 8361SOL    HW136716   3.118   1.956  14.614 -0.6460 -1.4201 -0.6620
 8361SOL    HW236717   3.040   1.989  14.494 -0.7546  0.1232  0.9243
 8362SOL     OW36718   1.865   2.701   7.513 -0.4919  0.1874 -0.3004
 8362SOL    HW136719   1.843   2.619   7.557 -0.9331  1.6660  2.1706
 8362SOL    HW236720   1.777   2.731   7.489  0.1418  1.2044 -1.3989
 8363SOL     OW36721   2.819   3.483   0.843 -0.1147  0.0353  0.0428
 8363SOL    HW136722   2.748   3.429   0.879 -1.0215  0.7209 -0.7072
 8363SOL    HW236723   2.808   3.567   0.889  1.6774  0.3959 -0.1844
 8364SOL     OW36724   2.334   3.965   2.799 -0.0788  0.1758  0.5841
 8364SOL    HW136725   2.301   4.053   2.814  0.1371  0.3213  0.1969
 8364SOL    HW236726   2.293   3.915   2.870 -3.2367  1.8141 -0.1188
 8365SOL     OW36727   3.337   1.280  15.711  0.2036  0.1034  0.0408
 8365SOL    HW136728   3.258   1.279  15.658  0.2554  0.4313 -0.0423
 8365SOL    HW236729   3.333   1.360  15.764  0.0689 -0.0956  0.3302
 8366SOL     OW36730   3.138   2.567   3.151 -0.5282 -0.0633 -0.4731
 8366SOL    HW136731   3.187   2.638   3.109  1.8405 -2.2961 -1.5192
 8366SOL    HW236732   3.172   2.493   3.102 -2.6141 -1.5880  0.3796
 8367SOL     OW36733   2.545   0.963   2.410 -0.3010 -0.0290  0.0732
 8367SOL    HW136734   2.625   0.914   2.426  0.4467  1.1932  0.0443
 8367SOL    HW236735   2.558   1.012   2.329  2.4212 -1.1219 -0.1489
 8368SOL     OW36736   1.290   1.248   4.221  0.0586 -0.5067  0.3398
 8368SOL    HW136737   1.302   1.331   4.174 -0.0343  0.1406  1.4603
 8368SOL    HW236738   1.203   1.219   4.193 -1.4009  3.4730  0.7430
 8369SOL     OW36739   1.737   2.584   3.204  0.1106 -0.0871 -0.4615
 8369SOL    HW136740   1.679   2.512   3.229  1.3380 -0.9661 -0.1620
 8369SOL    HW236741   1.704   2.647   3.268  2.1017 -0.5968  1.0464
 8370SOL     OW36742   2.814   4.348  12.227  0.2525  0.6830 -0.3346
 8370SOL    HW136743   2.857   4.298  12.157 -1.0302  0.1902 -0.7654
 8370SOL    HW236744   2.723   4.334  12.202  0.1632 -0.2103  0.5065
 8371SOL     OW36745   1.073   2.538   3.517  0.0430 -0.4665  0.2331
 8371SOL    HW136746   1.057   2.458   3.467 -1.3381 -0.6915  1.0371
 8371SOL    HW236747   1.007   2.589   3.470  0.1367 -1.5002 -1.0145
 8372SOL     OW36748   3.342   1.165  17.643 -0.7220 -0.7080  0.0121
 8372SOL    HW136749   3.309   1.085  17.683 -1.7409  0.9148  2.3777
 8372SOL    HW236750   3.433   1.137  17.626 -1.1791 -2.3434  0.2109
 8373SOL     OW36751   0.074   1.999   6.409  0.0605  0.1029  0.4721
 8373SOL    HW136752   0.060   1.922   6.354 -2.5998 -0.4231  1.8429
 8373SOL    HW236753   0.072   2.063   6.338  0.3876  1.3396  1.5965
 8374SOL     OW36754   3.128   0.717  17.049  0.0239 -0.1824 -0.5115
 8374SOL    HW136755   3.194   0.741  16.984 -0.6609 -0.1655 -1.1995
 8374SOL    HW236756   3.161   0.776  17.117  2.6644 -2.9236  0.6197
 8375SOL     OW36757   0.719   3.725   5.070  0.3129 -0.8879 -0.0630
 8375SOL    HW136758   0.703   3.804   5.018  1.1993 -1.4335 -1.1730
 8375SOL    HW236759   0.665   3.656   5.034  1.3641 -0.7782 -1.8231
 8376SOL     OW36760   1.305   4.588   7.156  0.3792 -0.1025 -0.2403
 8376SOL    HW136761   1.283   4.678   7.181  0.5870 -0.2784  0.5523
 8376SOL    HW236762   1.294   4.589   7.061  0.3438  0.0919 -0.2346
 8377SOL     OW36763   1.772   1.321  10.999  0.1863  0.2116 -0.2468
 8377SOL    HW136764   1.738   1.404  11.032  0.8901  0.2934  0.2829
 8377SOL    HW236765   1.863   1.342  11.021 -0.3226  0.9584  1.1284
 8378SOL     OW36766   3.756   2.789   4.373  0.3229  0.1009 -0.0932
 8378SOL    HW136767   3.674   2.784   4.324 -0.9104  0.3409  1.9500
 8378SOL    HW236768   3.813   2.737   4.317  0.8452  1.5045 -0.8540
 8379SOL     OW36769   3.707   1.371   1.606 -0.5742  0.3173 -0.2468
 8379SOL    HW136770   3.763   1.362   1.683 -0.1317  1.4529 -0.4327
 8379SOL    HW236771   3.678   1.463   1.601 -1.0632  0.1319 -0.8562
 8380SOL     OW36772   1.278   1.646   3.610  0.8798  0.5580 -0.1347
 8380SOL    HW136773   1.373   1.655   3.619  0.8331 -0.1557  1.0001
 8380SOL    HW236774   1.254   1.737   3.625  0.4613  0.4796 -0.3303
 8381SOL     OW36775   3.677   1.390   0.165 -0.3882  0.0956  0.2803
 8381SOL    HW136776   3.586   1.413   0.144 -0.8670 -1.6925  0.3825
 8381SOL    HW236777   3.707   1.458   0.104 -0.7160  1.1874  1.3520
 8382SOL     OW36778   3.139   2.115  12.679 -0.1918  0.9453 -0.4363
 8382SOL    HW136779   3.133   2.149  12.768  2.6720 -1.2291  0.5840
 8382SOL    HW236780   3.057   2.068  12.661 -0.8241  0.7723  3.0003
 8383SOL     OW36781   4.523   0.563   7.190 -0.0823 -0.2744 -0.1500
 8383SOL    HW136782   4.536   0.578   7.096  0.1077 -1.7099 -0.3479
 8383SOL    HW236783   4.442   0.513   7.196 -1.5099  2.2644  1.8205
 8384SOL     OW36784   0.991   4.578   0.375  0.5692 -0.5642 -0.0992
 8384SOL    HW136785   1.042   4.536   0.444  1.3659 -0.7048 -0.7751
 8384SOL    HW236786   1.056   4.623   0.321  1.0714 -2.5141 -1.1172
 8385SOL     OW36787   0.767   2.212  15.586  0.1293  0.1413 -0.1732
 8385SOL    HW136788   0.727   2.299  15.588 -0.5852 -0.1750 -0.7840
 8385SOL    HW236789   0.724   2.180  15.665  0.0004 -0.8514 -0.6471
 8386SOL     OW36790   2.720   3.065   1.622 -0.2712  0.1075  0.0175
 8386SOL    HW136791   2.793   3.119   1.653  0.3517 -0.2477 -0.8197
 8386SOL    HW236792   2.768   3.036   1.544 -0.7332 -0.5988 -0.0041
 8387SOL     OW36793   3.407   4.341   1.358  0.3053  0.0835 -0.4713
 8387SOL    HW136794   3.461   4.420   1.367 -1.2126  0.9919  0.8032
 8387SOL    HW236795   3.471   4.278   1.390  1.6242  2.9673  2.6191
 8388SOL     OW36796   3.395   2.333   7.697 -0.5827 -0.0973 -0.3163
 8388SOL    HW136797   3.309   2.343   7.738  0.2054  2.1647  0.7329
 8388SOL    HW236798   3.367   2.359   7.609 -2.7195 -2.6686 -0.3994
 8389SOL     OW36799   1.959   2.919   0.110 -0.6750 -0.3511  0.0749
 8389SOL    HW136800   1.983   2.845   0.166 -1.8494  0.6993  1.9341
 8389SOL    HW236801   1.872   2.936   0.145  0.1244 -1.3401  2.4993
 8390SOL     OW36802   0.799   1.871   8.916  0.4528 -0.2954  0.0378
 8390SOL    HW136803   0.775   1.812   8.987 -1.0895  1.2318  0.7969
 8390SOL    HW236804   0.891   1.886   8.939  0.2764  2.5355 -1.0998
 8391SOL     OW36805   0.333   4.440  16.905 -0.2110  0.1946 -0.7066
 8391SOL    HW136806   0.240   4.433  16.928  0.4797  0.0469  2.0750
 8391SOL    HW236807   0.357   4.350  16.928 -1.2567 -0.6256 -2.8827
 8392SOL     OW36808   4.307   3.102   5.292 -0.1006 -0.2230  0.1312
 8392SOL    HW136809   4.229   3.111   5.238 -1.4805  0.5183  2.2815
 8392SOL    HW236810   4.282   3.026   5.345  1.4812 -0.6570  0.2693
 8393SOL     OW36811   0.411   3.150  16.784 -0.2126 -0.1408 -0.1138
 8393SOL    HW136812   0.465   3.223  16.752 -0.7880 -0.1817 -1.1597
 8393SOL    HW236813   0.412   3.182  16.874  0.8876  1.0039 -0.5178
 8394SOL     OW36814   1.295   2.232  13.801  0.1007 -0.2890  0.2438
 8394SOL    HW136815   1.215   2.183  13.817 -0.7500  1.5670  1.6639
 8394SOL    HW236816   1.313   2.228  13.707 -2.3468  0.3819 -0.2289
 8395SOL     OW36817   0.963   2.320   9.621  0.0700  0.2531 -0.2650
 8395SOL    HW136818   1.046   2.352   9.656  1.2795 -2.3957 -0.7280
 8395SOL    HW236819   0.922   2.390   9.571 -1.7943 -1.2237 -0.8462
 8396SOL     OW36820   1.796   1.355   1.641 -0.4903 -0.1262 -0.2266
 8396SOL    HW136821   1.864   1.353   1.573 -1.3406 -0.9500 -1.0566
 8396SOL    HW236822   1.834   1.393   1.721  0.1468  1.2734 -1.1878
 8397SOL     OW36823   2.738   1.343  16.748  0.1716  0.6671 -0.7180
 8397SOL    HW136824   2.731   1.428  16.791 -1.2816  0.7684 -1.1614
 8397SOL    HW236825   2.656   1.334  16.699 -0.6753 -0.6507  0.9326
 8398SOL     OW36826   0.180   1.123   3.503 -0.3240  0.4106  0.2034
 8398SOL    HW136827   0.177   1.212   3.469 -2.3457 -0.3214 -1.5419
 8398SOL    HW236828   0.251   1.126   3.567 -0.7470 -2.9940  0.8522
 8399SOL     OW36829   4.048   1.813   8.798 -0.9549  0.2783  0.4801
 8399SOL    HW136830   4.117   1.850   8.853 -0.0947 -1.4806  0.5768
 8399SOL    HW236831   3.971   1.864   8.825 -0.8555  0.3225  0.6782
 8400SOL     OW36832   3.605   3.216   0.556  0.0910 -0.5540  0.4247
 8400SOL    HW136833   3.560   3.156   0.495  2.1656  1.2418 -2.8714
 8400SOL    HW236834   3.528   3.271   0.574 -1.1377 -2.5562  1.3124
 8401SOL     OW36835   2.253   0.962   0.384  0.2515  0.1042 -0.0292
 8401SOL    HW136836   2.274   0.966   0.290 -0.5067  2.0447 -0.1158
 8401SOL    HW236837   2.182   0.898   0.385  2.1030 -1.8845  1.7296
 8402SOL     OW36838   3.891   4.430   1.812 -0.3062  0.2432 -0.4832
 8402SOL    HW136839   3.871   4.337   1.825 -1.8191  0.9619  2.2665
 8402SOL    HW236840   3.823   4.465   1.870  1.9044 -1.5036  3.1969
 8403SOL     OW36841   2.855   2.267   9.283  0.1593 -0.1255  0.5528
 8403SOL    HW136842   2.858   2.213   9.204  2.1368 -0.3118  0.7615
 8403SOL    HW236843   2.796   2.227   9.347  2.1561 -1.7393  1.3828
 8404SOL     OW36844   1.267   1.130   3.463  0.0167  0.9591 -0.5003
 8404SOL    HW136845   1.243   1.223   3.462  0.8087  1.1710 -0.0611
 8404SOL    HW236846   1.268   1.114   3.557 -1.7686  3.3371 -0.0762
 8405SOL     OW36847   1.083   1.365   9.638  0.0399 -0.1449 -0.7118
 8405SOL    HW136848   1.052   1.360   9.729  3.1588  0.9564  0.4415
 8405SOL    HW236849   1.100   1.273   9.615 -0.7311 -0.7244  1.0589
 8406SOL     OW36850   3.242   3.049   0.016  0.1553 -0.1077 -0.1779
 8406SOL    HW136851   3.303   3.122   0.031 -0.2215  0.2510 -0.3720
 8406SOL    HW236852   3.216   3.032   0.106 -0.3604 -0.0098 -0.3091
 8407SOL     OW36853   2.443   3.686  16.308  0.2199  0.2193  0.6708
 8407SOL    HW136854   2.460   3.600  16.347  0.2817  0.4420  1.1300
 8407SOL    HW236855   2.350   3.692  16.285  1.0546  0.7534 -2.5801
 8408SOL     OW36856   3.341   4.491   7.413 -0.4947 -0.1585 -0.5725
 8408SOL    HW136857   3.338   4.441   7.495 -1.6127 -0.4751 -0.8004
 8408SOL    HW236858   3.255   4.488   7.371  0.0341 -0.2483 -1.6539
 8409SOL     OW36859   1.468   3.661  15.519 -0.2552 -0.2404  0.0929
 8409SOL    HW136860   1.450   3.613  15.438 -1.3060  2.0823 -1.0525
 8409SOL    HW236861   1.387   3.661  15.569 -0.3316 -1.9284 -0.0331
 8410SOL     OW36862   1.337   0.125   2.116  0.4797  0.2510  0.1525
 8410SOL    HW136863   1.298   0.173   2.043 -1.2267 -3.2406 -1.1967
 8410SOL    HW236864   1.287   0.160   2.190 -0.7333  0.2063 -0.6596
 8411SOL     OW36865   1.669   3.931  16.404 -0.2179 -0.4858 -0.1207
 8411SOL    HW136866   1.660   3.836  16.396 -1.8457 -0.1749 -1.9588
 8411SOL    HW236867   1.578   3.958  16.400  0.5085  1.7535 -1.6851
 8412SOL     OW36868   0.248   2.817   1.526  0.6927  0.4060  0.3465
 8412SOL    HW136869   0.184   2.873   1.481  1.2459 -0.5964 -1.6564
 8412SOL    HW236870   0.314   2.807   1.458  0.6506 -1.5969  0.6165
 8413SOL     OW36871   1.826   0.587   5.290  0.1487 -0.0486 -0.5673
 8413SOL    HW136872   1.858   0.563   5.377  2.3669  0.1539 -1.3229
 8413SOL    HW236873   1.733   0.565   5.294 -0.5084  2.8395  0.5124
 8414SOL     OW36874   3.132   1.845   3.536 -0.1236 -0.0397  0.1652
 8414SOL    HW136875   3.113   1.768   3.588 -0.4920 -1.1100 -1.5492
 8414SOL    HW236876   3.216   1.821   3.495 -0.2665 -0.6229  0.2223
 8415SOL     OW36877   3.690   2.427   8.333  0.1945 -0.1934  0.0532
 8415SOL    HW136878   3.735   2.359   8.283 -0.2122 -0.0819 -0.4732
 8415SOL    HW236879   3.664   2.487   8.263 -0.5076  0.0841  0.5526
 8416SOL     OW36880   4.580   3.265  10.041  0.1938 -0.3778 -0.1725
 8416SOL    HW136881   4.497   3.306  10.014  0.2142  0.0662  0.4342
 8416SOL    HW236882   4.555   3.180  10.079  1.5253 -0.5627  0.2633
 8417SOL     OW36883   0.531   0.115   7.864 -0.3212  0.1893  0.3909
 8417SOL    HW136884   0.453   0.117   7.810  1.1975  0.2267 -1.7750
 8417SOL    HW236885   0.489   0.157   7.939  0.2294 -1.2085  1.5001
 8418SOL     OW36886   4.203   2.015   7.127 -0.2595 -0.0325 -0.2772
 8418SOL    HW136887   4.195   1.952   7.056 -1.9777  2.2275 -2.1172
 8418SOL    HW236888   4.125   2.070   7.119 -0.2089  0.2495  1.2332
 8419SOL     OW36889   3.460   1.931   4.667  0.0544 -0.0585 -0.5325
 8419SOL    HW136890   3.386   1.913   4.609  2.0297 -0.4179 -2.9242
 8419SOL    HW236891   3.530   1.927   4.602 -1.5066  1.0123 -2.2389
 8420SOL     OW36892   3.377   0.518   3.348  0.4512  0.4808  0.0478
 8420SOL    HW136893   3.308   0.560   3.295 -0.6482  0.4317  1.4466
 8420SOL    HW236894   3.353   0.426   3.345 -1.7280  1.1496 -3.6286
 8421SOL     OW36895   2.773   3.102  15.380 -0.1252  0.5202  0.1796
 8421SOL    HW136896   2.709   3.030  15.385  0.0330  0.4890  2.0027
 8421SOL    HW236897   2.761   3.118  15.287 -1.4996  0.0221  0.2683
 8422SOL     OW36898   0.111   3.592   7.987 -0.0575  0.2036  0.2939
 8422SOL    HW136899   0.046   3.595   8.058 -0.2096  0.5357  0.1390
 8422SOL    HW236900   0.171   3.531   8.030 -0.0920 -0.4081 -0.5086
 8423SOL     OW36901   2.580   2.940  14.895  0.9290 -0.3860  0.2020
 8423SOL    HW136902   2.578   2.883  14.818 -0.5604 -1.9736  1.4218
 8423SOL    HW236903   2.674   2.926  14.906  1.2813  2.1216  0.2696
 8424SOL     OW36904   1.717   1.809   5.673  1.1981  0.4510  0.4954
 8424SOL    HW136905   1.633   1.788   5.632  2.4380  0.7221 -2.1504
 8424SOL    HW236906   1.750   1.722   5.694 -1.1800 -0.9673 -1.5792
 8425SOL     OW36907   4.596   3.101   7.048  0.4965  0.3967  0.4053
 8425SOL    HW136908   4.570   3.182   7.090 -2.1174  0.3546 -1.1573
 8425SOL    HW236909   4.512   3.086   7.005  1.0517 -2.0112  0.1730
 8426SOL     OW36910   0.331   1.119   9.069 -0.6375  0.0756 -0.1995
 8426SOL    HW136911   0.301   1.176   8.999 -0.2063  2.1899  1.3303
 8426SOL    HW236912   0.243   1.103   9.103  0.2355 -0.9110  1.5855
 8427SOL     OW36913   1.190   2.111   9.196 -0.5934  0.3369  0.3510
 8427SOL    HW136914   1.264   2.125   9.137 -1.0356  0.1844 -0.2446
 8427SOL    HW236915   1.232   2.127   9.280  0.1398  1.5994 -0.2462
 8428SOL     OW36916   3.184   4.725   6.464  0.2353 -0.0862 -0.1919
 8428SOL    HW136917   3.118   4.670   6.504 -1.9362  1.8122 -1.1792
 8428SOL    HW236918   3.264   4.673   6.468  1.0621  1.2992  1.4724
 8429SOL     OW36919   3.040   0.025   7.659 -0.4688 -0.0187 -0.5612
 8429SOL    HW136920   3.023   4.702   7.585 -2.7809 -1.2538  0.9204
 8429SOL    HW236921   3.080   4.708   7.729 -0.7487  0.3078 -0.1548
 8430SOL     OW36922   2.812   0.378   5.046 -0.7183 -0.0095 -0.1422
 8430SOL    HW136923   2.798   0.464   5.007  0.7315 -0.6749 -2.1459
 8430SOL    HW236924   2.747   0.384   5.116 -0.0830 -0.2155  0.4643
 8431SOL     OW36925   2.773   1.420   6.550  0.2948 -0.3184  0.3484
 8431SOL    HW136926   2.854   1.369   6.558  0.4703  0.3421  2.9833
 8431SOL    HW236927   2.789   1.504   6.593 -0.6623 -0.6822  1.4340
 8432SOL     OW36928   0.050   0.862   7.249  0.0991 -0.3683  0.7719
 8432SOL    HW136929   0.145   0.873   7.255 -0.0961  0.9071  1.3827
 8432SOL    HW236930   0.024   0.884   7.159  0.7364 -2.2115  0.1295
 8433SOL     OW36931   1.149   0.777   0.569 -0.4816 -0.7697 -0.0894
 8433SOL    HW136932   1.077   0.749   0.625  0.1465  1.3999  1.7536
 8433SOL    HW236933   1.224   0.747   0.621  0.9583  1.3517 -0.9452
 8434SOL     OW36934   0.961   1.611   5.405  0.1013  0.0756  0.2356
 8434SOL    HW136935   0.931   1.587   5.317  0.5590  2.5639 -0.6234
 8434SOL    HW236936   0.941   1.527   5.446 -1.0732 -0.9026 -2.2942
 8435SOL     OW36937   0.938   4.373  12.650 -0.3331 -0.4508 -0.1047
 8435SOL    HW136938   0.923   4.287  12.688  2.6583 -0.9689 -0.0607
 8435SOL    HW236939   0.936   4.436  12.722  1.0611 -0.5088 -0.0084
 8436SOL     OW36940   1.528   1.346   6.228  0.0876 -0.5028  0.7502
 8436SOL    HW136941   1.563   1.297   6.153  3.1268 -0.0526  1.8768
 8436SOL    HW236942   1.552   1.288   6.300  0.2902  1.9987  2.6824
 8437SOL     OW36943   0.605   0.798   4.283 -0.7182 -0.5108 -0.4411
 8437SOL    HW136944   0.674   0.758   4.336  0.5834  2.6773  0.2978
 8437SOL    HW236945   0.637   0.881   4.247 -0.6028  0.0835  1.0511
 8438SOL     OW36946   3.653   2.820   9.436 -0.0327 -0.5566  0.0244
 8438SOL    HW136947   3.666   2.870   9.517 -0.2585 -0.7405  0.1764
 8438SOL    HW236948   3.669   2.730   9.463 -0.5660 -0.6418  0.0484
 8439SOL     OW36949   4.213   3.183   3.895  0.4678 -0.7905  0.0517
 8439SOL    HW136950   4.285   3.244   3.880  0.9245 -1.2305  0.4612
 8439SOL    HW236951   4.164   3.214   3.819  1.8820 -1.9076 -1.3006
 8440SOL     OW36952   4.419   2.387   5.555 -0.6917  0.0125  0.7888
 8440SOL    HW136953   4.368   2.367   5.633  0.4154 -2.9423  0.7461
 8440SOL    HW236954   4.506   2.417   5.582 -0.8053  0.3185  0.8224
 8441SOL     OW36955   2.377   3.800  17.395 -0.0039 -0.0424 -0.7548
 8441SOL    HW136956   2.380   3.885  17.441  1.2124 -0.2150 -0.5205
 8441SOL    HW236957   2.392   3.827  17.305 -0.8534  0.8621 -0.6290
 8442SOL     OW36958   3.297   1.397   4.303 -0.1969  0.2679 -0.5137
 8442SOL    HW136959   3.248   1.321   4.271  2.6588 -2.1051  0.7616
 8442SOL    HW236960   3.374   1.362   4.348  0.3172 -1.0107 -2.3593
 8443SOL     OW36961   0.533   0.633   9.884  0.2208  0.2839  0.0964
 8443SOL    HW136962   0.533   0.715   9.834 -1.0481  1.5022  2.1071
 8443SOL    HW236963   0.627   0.615   9.896  0.4016  0.6234 -0.8201
 8444SOL     OW36964   2.496   0.926   9.718  0.0602  0.3116  0.0115
 8444SOL    HW136965   2.524   0.884   9.637  1.8367  2.0031 -0.2416
 8444SOL    HW236966   2.575   0.921   9.771 -0.7329  0.5169  1.2179
 8445SOL     OW36967   3.211   2.736   1.895  0.5958 -0.6036  0.4809
 8445SOL    HW136968   3.118   2.728   1.875  0.8128 -2.5921  0.2301
 8445SOL    HW236969   3.210   2.825   1.859 -0.9149 -0.3717  1.0824
 8446SOL     OW36970   0.042   0.028   4.191 -0.3228  0.8245  0.2491
 8446SOL    HW136971   0.101   0.079   4.246  0.3090  0.9404 -0.5396
 8446SOL    HW236972   0.054   4.675   4.227 -4.1829  1.1610  2.3944
 8447SOL     OW36973   4.502   0.031   8.349 -0.3057  0.0841 -0.0854
 8447SOL    HW136974   4.534   0.114   8.315  0.6643 -1.3990 -2.8160
 8447SOL    HW236975   4.581   4.715   8.366 -0.2805  1.0381  2.6959
 8448SOL     OW36976   3.865   1.680   3.984 -0.2418  0.0254  0.5806
 8448SOL    HW136977   3.802   1.609   3.973  0.9270 -1.1364  1.3201
 8448SOL    HW236978   3.930   1.642   4.044  1.1421 -1.7356 -2.0225
 8449SOL     OW36979   3.175   3.020   1.738  0.2426 -0.0335  0.7008
 8449SOL    HW136980   3.103   3.022   1.675  1.1620 -1.8867 -0.3889
 8449SOL    HW236981   3.171   3.107   1.779 -0.6690  0.5135 -0.5571
 8450SOL     OW36982   0.313   1.009   2.136 -0.6262  0.4081  0.4954
 8450SOL    HW136983   0.220   0.988   2.146 -0.9045  0.8607 -1.0060
 8450SOL    HW236984   0.310   1.079   2.070  0.4706 -0.9983 -1.0648
 8451SOL     OW36985   3.369   2.144   2.929 -0.0229  0.6494  0.6289
 8451SOL    HW136986   3.404   2.185   2.850 -0.1427  2.8256  1.7030
 8451SOL    HW236987   3.431   2.073   2.949 -0.9517  0.1133  1.6240
 8452SOL     OW36988   3.277   2.139  16.898  0.4620 -0.3088 -0.1315
 8452SOL    HW136989   3.296   2.060  16.847  0.6574  0.8781 -1.8921
 8452SOL    HW236990   3.189   2.110  16.921 -0.4939  0.2290 -3.1626
 8453SOL     OW36991   2.249   4.550  10.906 -0.2854 -0.9167  0.5764
 8453SOL    HW136992   2.256   4.460  10.874  0.0120 -0.5497 -0.3970
 8453SOL    HW236993   2.206   4.532  10.990 -2.1351 -0.9315 -0.3636
 8454SOL     OW36994   1.867   0.687   7.109 -0.1479  0.5201  0.9160
 8454SOL    HW136995   1.825   0.605   7.133 -1.8199  0.6555 -1.5133
 8454SOL    HW236996   1.910   0.712   7.191  2.4584 -3.3513  0.7123
 8455SOL     OW36997   2.937   1.052   6.223  0.1152  0.1753 -0.1451
 8455SOL    HW136998   2.877   1.061   6.297  0.4252  0.4062  0.0770
 8455SOL    HW236999   3.018   1.035   6.271  0.3051 -1.1163 -0.9193
 8456SOL     OW37000   4.375   4.263  12.118  0.1573 -0.0314  0.4058
 8456SOL    HW137001   4.362   4.168  12.117 -1.1296  0.1810 -2.1813
 8456SOL    HW237002   4.318   4.294  12.048  0.8413  0.9489  0.2747
 8457SOL     OW37003   3.810   0.217   5.630  0.2433  0.7961  0.0984
 8457SOL    HW137004   3.828   0.171   5.548  1.0219 -0.7399  1.1237
 8457SOL    HW237005   3.729   0.181   5.667  0.8804 -1.4002 -0.6101
 8458SOL     OW37006   2.803   1.915  14.144 -0.2596  0.2669  0.0431
 8458SOL    HW137007   2.848   1.888  14.063  1.2854  2.3696  0.2209
 8458SOL    HW237008   2.724   1.860  14.149 -1.0214  1.3946  0.2923
 8459SOL     OW37009   2.106   4.234  12.031  0.8157  0.2960  0.0668
 8459SOL    HW137010   2.122   4.181  11.953 -1.3697 -1.0549  0.5344
 8459SOL    HW237011   2.078   4.166  12.091  1.0354  1.6595  1.7124
 8460SOL     OW37012   1.046   0.820   8.331  0.1389  0.1995 -0.0839
 8460SOL    HW137013   1.067   0.735   8.368  1.3515  0.1354 -0.9401
 8460SOL    HW237014   1.046   0.871   8.412  0.6576  1.3286 -0.7978
 8461SOL     OW37015   4.100   1.416   3.653  0.2884  0.5200 -0.8817
 8461SOL    HW137016   4.135   1.484   3.596  1.2479 -0.9084 -2.0005
 8461SOL    HW237017   4.151   1.418   3.735 -0.2238  0.0186 -0.5492
 8462SOL     OW37018   2.713   4.296   2.721 -0.3446 -0.2784  0.1545
 8462SOL    HW137019   2.708   4.275   2.814  0.8960  1.0111  0.5192
 8462SOL    HW237020   2.778   4.366   2.724 -0.1550 -0.3989 -0.9980
 8463SOL     OW37021   1.271   2.012   2.847  0.5698  0.1524 -1.0241
 8463SOL    HW137022   1.360   1.989   2.820  1.1206  0.7182  0.3422
 8463SOL    HW237023   1.218   1.988   2.771 -2.2754 -0.0048  1.0157
 8464SOL     OW37024   4.248   0.160   3.330  0.3670 -0.0375 -0.2756
 8464SOL    HW137025   4.313   0.185   3.265 -0.9454  4.1179  0.0420
 8464SOL    HW237026   4.215   0.247   3.353 -0.2347 -0.5433  0.7932
 8465SOL     OW37027   2.127   1.817   8.415 -0.4787 -0.2134 -0.5371
 8465SOL    HW137028   2.189   1.746   8.403  1.8854  1.5642  1.2336
 8465SOL    HW237029   2.064   1.767   8.467  2.4823 -0.6745  2.5768
 8466SOL     OW37030   3.926   1.434   6.449 -0.4419 -0.0795  0.2496
 8466SOL    HW137031   3.996   1.457   6.510  1.1197 -3.0181 -0.4261
 8466SOL    HW237032   3.952   1.488   6.375 -1.2366  0.1308  0.1318
 8467SOL     OW37033   2.261   4.135   0.390  0.3183  0.0100 -0.9885
 8467SOL    HW137034   2.314   4.215   0.385  0.5520 -0.1414 -0.8994
 8467SOL    HW237035   2.198   4.135   0.317 -0.4668  1.2484 -0.3159
 8468SOL     OW37036   0.504   4.521   4.663  0.4440  0.3200  0.4763
 8468SOL    HW137037   0.568   4.590   4.648  0.4812  0.2914  0.5028
 8468SOL    HW237038   0.447   4.557   4.730  1.6682  0.7655  1.2686
 8469SOL     OW37039   0.163   0.673   9.588  0.2560 -0.1144  0.3899
 8469SOL    HW137040   0.170   0.694   9.495  0.9645  0.2166  0.5180
 8469SOL    HW237041   0.236   0.614   9.607 -0.1785 -0.9469 -0.4713
 8470SOL     OW37042   4.336   2.677   1.689  0.4247 -0.5690 -0.5182
 8470SOL    HW137043   4.431   2.667   1.690  0.2095 -2.7093  0.1473
 8470SOL    HW237044   4.337   2.751   1.628  2.1374 -0.2297 -0.0531
 8471SOL     OW37045   3.616   2.615   8.158  0.3510 -0.1532  0.0344
 8471SOL    HW137046   3.541   2.606   8.099 -0.3277  0.7745  0.7468
 8471SOL    HW237047   3.580   2.682   8.216 -0.9237  0.5911 -1.6027
 8472SOL     OW37048   1.835   1.998   6.354  0.3512  0.4565  0.1199
 8472SOL    HW137049   1.885   1.920   6.329 -1.4932 -0.6338 -0.1706
 8472SOL    HW237050   1.780   1.968   6.426  0.0304  2.1604  0.5931
 8473SOL     OW37051   1.559   2.393   2.263 -0.8392 -0.0233 -0.2530
 8473SOL    HW137052   1.538   2.301   2.277 -1.3138  0.1145 -0.0808
 8473SOL    HW237053   1.636   2.401   2.320  0.4859 -0.8551 -1.8921
 8474SOL     OW37054   1.743   2.852   5.332  0.2171 -0.7864  0.0377
 8474SOL    HW137055   1.815   2.809   5.379  1.5361  0.5744 -0.7073
 8474SOL    HW237056   1.670   2.792   5.344  1.7422 -3.2671 -2.9946
 8475SOL     OW37057   3.701   1.353  10.768  0.4140 -0.0689  0.2171
 8475SOL    HW137058   3.724   1.300  10.692  1.1947 -0.4567  0.7257
 8475SOL    HW237059   3.606   1.357  10.757  0.2583 -0.0691  1.5268
 8476SOL     OW37060   0.651   4.253   3.225 -0.2670  0.2851 -0.4058
 8476SOL    HW137061   0.667   4.166   3.189  0.7052 -0.5546  2.0207
 8476SOL    HW237062   0.694   4.318   3.168  2.2759 -0.6676  0.4285
 8477SOL     OW37063   1.805   4.381   7.074 -0.4084 -0.5376  0.8219
 8477SOL    HW137064   1.835   4.299   7.034  2.5649  1.7325 -1.4993
 8477SOL    HW237065   1.814   4.446   7.005 -1.2927 -0.8773  0.3721
 8478SOL     OW37066   3.536   3.739   7.293  0.0190 -0.1315 -0.2701
 8478SOL    HW137067   3.631   3.727   7.287  0.3648  1.1960  2.9054
 8478SOL    HW237068   3.516   3.651   7.324 -0.7229  0.2087  0.2291
 8479SOL     OW37069   0.429   3.483   2.429  0.4520  0.4149  0.3634
 8479SOL    HW137070   0.379   3.404   2.450 -0.3578  0.3723 -1.7252
 8479SOL    HW237071   0.388   3.556   2.475 -0.0734  0.3562 -0.0118
 8480SOL     OW37072   1.049   1.823   6.491  0.3252  0.0814  0.6441
 8480SOL    HW137073   1.055   1.733   6.461 -0.8821  1.0124 -2.3826
 8480SOL    HW237074   1.128   1.866   6.460 -0.0355  0.3365  0.0781
 8481SOL     OW37075   4.148   1.354   1.551  0.4153  0.1414  0.7837
 8481SOL    HW137076   4.084   1.418   1.581  1.0718  1.5443 -0.8112
 8481SOL    HW237077   4.132   1.282   1.613 -1.2001  0.6813  0.9820
 8482SOL     OW37078   4.256   3.735   3.277  0.0303 -1.5944  0.5515
 8482SOL    HW137079   4.296   3.822   3.286 -2.6922 -0.3298  0.4628
 8482SOL    HW237080   4.319   3.694   3.336  0.7487 -2.0743 -0.5521
 8483SOL     OW37081   2.232   1.010   0.096 -0.3026  0.4922 -0.3265
 8483SOL    HW137082   2.146   0.977   0.124 -0.4120  0.5990 -0.5371
 8483SOL    HW237083   2.227   0.974   0.007 -0.3957  0.2250 -0.2148
 8484SOL     OW37084   3.549   4.668   8.306 -0.1041  0.6159 -0.3751
 8484SOL    HW137085   3.475   4.660   8.366  0.9684 -2.8174  0.4883
 8484SOL    HW237086   3.529   4.594   8.249 -1.3991  0.7904 -0.1486
 8485SOL     OW37087   4.321   2.334  11.602 -0.2361 -0.6561 -0.4973
 8485SOL    HW137088   4.352   2.294  11.684  1.5198  0.7831 -0.4492
 8485SOL    HW237089   4.236   2.291  11.590 -1.4633  2.1250 -1.7170
 8486SOL     OW37090   0.059   4.541   1.435 -0.1818 -0.5326  0.0419
 8486SOL    HW137091   4.708   4.508   1.462 -0.9228  1.1533 -0.2952
 8486SOL    HW237092   0.110   4.504   1.507  1.1737  0.0680 -0.6146
 8487SOL     OW37093   1.003   1.459   6.851  0.3113  0.6718 -0.2089
 8487SOL    HW137094   0.958   1.541   6.870 -1.6856  0.0596 -2.2680
 8487SOL    HW237095   1.087   1.497   6.827  0.3142 -0.5444 -2.1980
 8488SOL     OW37096   4.697   0.782   6.678 -0.1912 -0.3957 -0.0739
 8488SOL    HW137097   4.696   0.872   6.711 -0.0446 -1.5959  3.2307
 8488SOL    HW237098   0.021   0.743   6.742  0.3197  0.1559 -0.2143
 8489SOL     OW37099   4.086   2.537  14.540 -0.3525  0.5231 -0.4514
 8489SOL    HW137100   4.010   2.496  14.581  0.8113 -0.8927  0.2907
 8489SOL    HW237101   4.111   2.600  14.608 -0.5629  0.7024 -0.5398
 8490SOL     OW37102   3.280   3.230   2.936  0.0274  0.1101  0.0719
 8490SOL    HW137103   3.261   3.234   3.029  0.8174 -0.9531  0.2784
 8490SOL    HW237104   3.327   3.147   2.930 -1.6226 -0.8452  0.3243
 8491SOL     OW37105   1.565   0.022   0.537  0.0035  0.5679  0.5900
 8491SOL    HW137106   1.472   0.022   0.516  0.4425  2.0587 -1.4457
 8491SOL    HW237107   1.598   0.047   0.451 -1.9505 -0.4233 -0.4402
 8492SOL     OW37108   2.963   3.879   8.681  0.3471 -0.5075 -0.7251
 8492SOL    HW137109   2.873   3.850   8.697  0.2063  1.1823  1.4236
 8492SOL    HW237110   2.996   3.919   8.761  2.3619 -1.1175 -1.2621
 8493SOL     OW37111   3.030   1.890   8.471  0.4341 -0.4829 -0.6423
 8493SOL    HW137112   2.979   1.815   8.499 -1.0886  1.1152  0.8443
 8493SOL    HW237113   3.026   1.876   8.376 -0.4760  1.1385 -0.8393
 8494SOL     OW37114   2.246   4.201   6.664  0.2059  0.3018 -0.1604
 8494SOL    HW137115   2.153   4.218   6.674 -0.2341 -1.9912 -0.2724
 8494SOL    HW237116   2.254   4.245   6.579 -3.3073  0.6690 -0.2754
 8495SOL     OW37117   3.237   2.389   2.998  0.2914  0.3434 -0.2013
 8495SOL    HW137118   3.312   2.329   2.999  0.1125  0.1409  0.9703
 8495SOL    HW237119   3.205   2.386   2.908 -0.2395  1.6657 -0.0571
 8496SOL     OW37120   4.326   3.304   9.132  0.0493 -0.0875  0.4104
 8496SOL    HW137121   4.350   3.326   9.041  1.4589 -2.5626  0.1726
 8496SOL    HW237122   4.390   3.342   9.191  0.6609 -1.5764  0.7260
 8497SOL     OW37123   1.006   4.547  15.037  0.7938  0.4055  0.3802
 8497SOL    HW137124   1.072   4.519  15.101 -0.1467  0.2170  1.2604
 8497SOL    HW237125   1.017   4.491  14.960  0.1165  0.4843  0.2303
 8498SOL     OW37126   3.351   0.688   8.063  0.6534 -0.1112  0.5870
 8498SOL    HW137127   3.334   0.602   8.103 -0.8896  1.0353  2.4015
 8498SOL    HW237128   3.327   0.745   8.137 -1.3618  0.7431 -0.7214
 8499SOL     OW37129   0.260   0.417  11.528 -0.1728 -0.0035  0.5982
 8499SOL    HW137130   0.214   0.333  11.528 -0.3027  0.0647  0.0541
 8499SOL    HW237131   0.208   0.468  11.590 -0.2923  1.1914 -0.4780
 8500SOL     OW37132   1.744   2.647   2.414  0.2172 -0.2094  0.6511
 8500SOL    HW137133   1.766   2.554   2.414 -2.1926 -0.7737  1.1442
 8500SOL    HW237134   1.725   2.664   2.506  0.1367  0.0181  0.5935
 8501SOL     OW37135   2.058   0.111   8.138  0.0151  0.1847 -0.0379
 8501SOL    HW137136   2.034   0.018   8.134  0.3447  0.0039  2.0120
 8501SOL    HW237137   1.978   0.153   8.107 -1.3177 -1.4758  1.1909
 8502SOL     OW37138   0.173   3.011   6.897 -0.0861  0.0858  0.0863
 8502SOL    HW137139   0.169   3.100   6.931 -0.1739  0.1944 -0.2058
 8502SOL    HW237140   0.264   2.986   6.913  0.2726  1.7459  0.5665
 8503SOL     OW37141   0.171   4.177   5.798  0.3229 -0.0497  0.3262
 8503SOL    HW137142   0.095   4.120   5.811 -0.5411  1.0336  0.0105
 8503SOL    HW237143   0.130   4.262   5.786  2.5375  1.2124  1.8591
 8504SOL     OW37144   2.066   0.928   4.286  0.6547  0.5299 -0.3767
 8504SOL    HW137145   2.157   0.921   4.257 -0.0332  0.8739 -2.6480
 8504SOL    HW237146   2.080   0.884   4.369 -1.1941 -0.5416 -0.6329
 8505SOL     OW37147   3.238   4.162  12.480  0.8448  0.2685 -0.2355
 8505SOL    HW137148   3.144   4.177  12.471  0.7517 -0.2539 -0.1006
 8505SOL    HW237149   3.252   4.088  12.539 -2.3630  1.3695  1.8548
 8506SOL     OW37150   4.024   3.373   1.569 -1.1960  0.0527 -0.4383
 8506SOL    HW137151   4.105   3.371   1.621 -1.1545  1.0488 -0.4554
 8506SOL    HW237152   3.962   3.394   1.639 -0.6869  1.9918 -0.5729
 8507SOL     OW37153   2.624   3.333  12.546  0.6889 -0.0930 -0.2093
 8507SOL    HW137154   2.694   3.269  12.555  2.2992  1.8479  1.2929
 8507SOL    HW237155   2.668   3.411  12.582  2.5470 -0.8818 -0.7671
 8508SOL     OW37156   3.960   1.577   9.910 -0.3206 -0.9063 -0.9317
 8508SOL    HW137157   3.966   1.558   9.817  0.3751 -0.1982 -1.0276
 8508SOL    HW237158   3.867   1.556   9.920 -0.6207  0.9236  0.2801
 8509SOL     OW37159   3.060   2.912  12.573  0.0456 -0.1039 -0.0997
 8509SOL    HW137160   2.997   2.847  12.541  0.0033  0.5771 -1.3856
 8509SOL    HW237161   3.146   2.880  12.546  0.5970 -1.3553  3.1350
 8510SOL     OW37162   4.565   4.663   3.193 -0.1378 -0.6669 -0.7574
 8510SOL    HW137163   4.626   0.001   3.202  0.6040 -1.4231  0.3709
 8510SOL    HW237164   4.553   4.631   3.283  0.0331  0.5777 -0.2843
 8511SOL     OW37165   1.564   0.771   7.625  0.1991 -0.0636 -0.6250
 8511SOL    HW137166   1.646   0.748   7.583 -1.2122 -2.8636 -1.8482
 8511SOL    HW237167   1.529   0.686   7.654  0.6328 -0.2998 -0.8086
 8512SOL     OW37168   4.018   0.279   5.148 -0.1008  0.9155 -0.0400
 8512SOL    HW137169   4.086   0.229   5.194  0.1178  2.6383  1.5356
 8512SOL    HW237170   4.029   0.363   5.193  2.5132  0.7300 -0.3133
 8513SOL     OW37171   4.358   3.041  16.336  0.2605  0.6441  0.3481
 8513SOL    HW137172   4.441   3.006  16.303  0.9517  1.3358  1.3740
 8513SOL    HW237173   4.346   2.975  16.403 -0.4914  2.5004  2.0460
 8514SOL     OW37174   0.839   2.739   3.946  0.3861 -0.2861  0.2206
 8514SOL    HW137175   0.919   2.788   3.932 -0.3347  1.0818  0.9118
 8514SOL    HW237176   0.770   2.798   3.914  4.1166  1.4683 -4.5677
 8515SOL     OW37177   0.985   4.615  11.536 -0.7948  0.1602  0.4754
 8515SOL    HW137178   0.974   4.538  11.592  2.1512  0.8797  2.0479
 8515SOL    HW237179   0.942   4.574  11.461 -1.4990  0.5106  0.6872
 8516SOL     OW37180   3.129   3.200   6.412  0.5381  0.1163  0.4416
 8516SOL    HW137181   3.138   3.234   6.501 -1.0988 -0.8912  0.9869
 8516SOL    HW237182   3.041   3.162   6.420  0.3382  0.4597 -0.1261
 8517SOL     OW37183   3.853   3.380   4.435 -0.8533  0.3773  0.1647
 8517SOL    HW137184   3.765   3.347   4.416  0.1834 -2.4938  0.4519
 8517SOL    HW237185   3.859   3.445   4.366  3.9089  0.4858  0.7111
 8518SOL     OW37186   0.639   3.121   7.323  0.2838 -0.5684  0.2358
 8518SOL    HW137187   0.710   3.062   7.298 -0.8083 -1.9698  0.4079
 8518SOL    HW237188   0.592   3.067   7.387 -0.3404 -0.8791 -0.4723
 8519SOL     OW37189   0.408   0.543   9.603 -0.4215  0.1014  0.2856
 8519SOL    HW137190   0.378   0.458   9.570 -0.2009  0.4838 -0.8944
 8519SOL    HW237191   0.469   0.525   9.675 -1.9904 -2.8363  0.9005
 8520SOL     OW37192   4.091   0.781  10.141 -0.2319  0.6800 -0.1208
 8520SOL    HW137193   4.035   0.745  10.211 -1.7060 -0.5971 -1.9729
 8520SOL    HW237194   4.133   0.857  10.182 -0.1784 -0.4466  1.9617
 8521SOL     OW37195   1.077   4.012   2.197  0.0734  0.4295  0.0274
 8521SOL    HW137196   1.098   4.087   2.140  2.6251  0.1234  0.5655
 8521SOL    HW237197   0.997   4.030   2.245  0.0253 -2.7583  1.0977
 8522SOL     OW37198   3.228   4.147  16.600 -0.0530  0.1703  0.1476
 8522SOL    HW137199   3.162   4.078  16.597  0.3905 -0.3347  1.9044
 8522SOL    HW237200   3.189   4.222  16.554  1.1792 -0.4181 -1.8592
 8523SOL     OW37201   3.281   4.540   5.356 -0.4826  0.4825 -0.5042
 8523SOL    HW137202   3.342   4.614   5.356 -1.0779  0.9772 -1.3970
 8523SOL    HW237203   3.207   4.596   5.380 -2.4271 -1.1988 -2.6245
 8524SOL     OW37204   4.503   3.359   3.592 -1.0706 -0.3803  0.7633
 8524SOL    HW137205   4.499   3.265   3.606 -1.3606 -0.3343  0.9860
 8524SOL    HW237206   4.571   3.368   3.525 -0.3907  0.4233  1.5526
 8525SOL     OW37207   2.191   3.737  10.601 -0.4918  0.3118 -0.1275
 8525SOL    HW137208   2.190   3.666  10.538 -0.7011 -0.9965  1.3613
 8525SOL    HW237209   2.283   3.759  10.618 -0.2361 -1.1206  0.2879
 8526SOL     OW37210   2.886   0.945   8.796 -0.1553 -0.2177  0.1528
 8526SOL    HW137211   2.878   0.857   8.831  0.2338 -0.0160  0.7483
 8526SOL    HW237212   2.946   0.930   8.724  0.2751 -1.4074  0.7734
 8527SOL     OW37213   3.982   1.678   5.038  0.0401 -0.0548  0.0345
 8527SOL    HW137214   3.915   1.610   5.039  0.7072 -0.6817  1.6960
 8527SOL    HW237215   4.051   1.642   5.094 -0.3495  0.6981  0.9771
 8528SOL     OW37216   2.500   0.347   1.446  0.2620  0.1577 -0.0845
 8528SOL    HW137217   2.501   0.308   1.358  0.6260 -0.3722  0.1480
 8528SOL    HW237218   2.550   0.284   1.498 -0.4327 -0.6725 -0.4077
 8529SOL     OW37219   1.462   1.955   9.896 -0.2047  0.0463 -0.2484
 8529SOL    HW137220   1.536   1.907   9.934  1.0485  2.9842  1.0320
 8529SOL    HW237221   1.434   2.000   9.976 -1.3762  1.1898 -1.3119
 8530SOL     OW37222   4.195   3.815   9.365  0.0682  0.8644  0.1331
 8530SOL    HW137223   4.119   3.824   9.307 -0.6034 -1.1892  0.6862
 8530SOL    HW237224   4.190   3.719   9.373  1.5129  0.9841  2.4354
 8531SOL     OW37225   1.432   0.295  15.778  0.2088 -0.7023 -0.1521
 8531SOL    HW137226   1.380   0.366  15.815 -0.4671 -2.2415  1.8031
 8531SOL    HW237227   1.521   0.310  15.811  0.8267 -2.5192 -1.0035
 8532SOL     OW37228   3.162   0.860   6.924  0.3076 -0.2167  0.5022
 8532SOL    HW137229   3.215   0.922   6.874  0.5462 -2.2368 -1.7704
 8532SOL    HW237230   3.238   0.816   6.963  0.0082 -2.3072 -1.2539
 8533SOL     OW37231   3.247   1.797   5.585  0.1528  0.2391 -0.0054
 8533SOL    HW137232   3.330   1.825   5.547 -0.5624 -1.8718 -3.1491
 8533SOL    HW237233   3.196   1.866   5.543 -1.2034 -0.0841  1.1123
 8534SOL     OW37234   2.431   3.073   6.083  0.2498 -0.0663  0.0932
 8534SOL    HW137235   2.341   3.058   6.053 -0.0135 -0.5464  1.1093
 8534SOL    HW237236   2.445   3.158   6.042  0.0860  0.3933  0.9929
 8535SOL     OW37237   0.543   3.836   2.330 -0.1801  0.1274  0.0496
 8535SOL    HW137238   0.634   3.836   2.302  0.4407  1.6193  2.0486
 8535SOL    HW237239   0.537   3.742   2.318 -0.9256  0.1048  0.5846
 8536SOL     OW37240   4.325   1.275   3.931  0.3717  0.0673  0.3309
 8536SOL    HW137241   4.254   1.329   3.967 -0.4473 -1.2091  0.6110
 8536SOL    HW237242   4.312   1.192   3.976  2.4377 -0.1659  0.4891
 8537SOL     OW37243   0.732   0.531   4.030  0.1342  0.1405  0.3269
 8537SOL    HW137244   0.665   0.463   4.020  0.2297  0.2156 -0.8723
 8537SOL    HW237245   0.688   0.615   4.023  2.2569  1.1097 -1.7507
 8538SOL     OW37246   0.527   0.047   5.851  0.1771  0.6349  0.2589
 8538SOL    HW137247   0.506   0.137   5.826 -2.6202 -0.2264 -0.4671
 8538SOL    HW237248   0.601   0.065   5.910 -0.2432 -2.3506  1.7099
 8539SOL     OW37249   1.405   2.452   8.388  0.1714  0.0844 -0.2891
 8539SOL    HW137250   1.348   2.523   8.419 -1.1351 -0.8579 -0.5440
 8539SOL    HW237251   1.478   2.501   8.350 -0.0018  0.4310 -0.1784
 8540SOL     OW37252   1.475   4.071   2.039 -0.3424 -0.5868 -0.1865
 8540SOL    HW137253   1.540   4.036   1.978  0.5010 -1.9862  1.5089
 8540SOL    HW237254   1.416   4.105   1.972  1.1046  1.7985 -0.2398
 8541SOL     OW37255   0.638   1.804   5.819  0.3038 -0.4701  0.3149
 8541SOL    HW137256   0.603   1.720   5.790 -0.3677  0.6831 -2.1339
 8541SOL    HW237257   0.572   1.863   5.783  1.0469 -0.0556 -0.3820
 8542SOL     OW37258   1.784   0.112   3.307  0.1648 -0.1965 -0.7364
 8542SOL    HW137259   1.850   0.177   3.332  1.5382 -1.2379 -1.6384
 8542SOL    HW237260   1.782   0.119   3.212  1.3591  0.9536 -0.6913
 8543SOL     OW37261   1.376   0.668   1.318  0.0930  0.1841  0.1934
 8543SOL    HW137262   1.318   0.730   1.275  1.8711  0.2811 -2.0473
 8543SOL    HW237263   1.376   0.596   1.255  0.5509 -0.4528  0.9069
 8544SOL     OW37264   0.458   3.898  14.374  0.2400 -0.2728  0.0669
 8544SOL    HW137265   0.504   3.958  14.316  1.2480 -1.3660 -0.2852
 8544SOL    HW237266   0.381   3.949  14.398 -0.2796 -1.1676  0.3022
 8545SOL     OW37267   2.094   0.502   9.579  0.1872  0.3834 -0.1856
 8545SOL    HW137268   2.178   0.549   9.587  0.4389 -0.5308  2.3837
 8545SOL    HW237269   2.118   0.437   9.513  1.0085 -0.9703  1.4599
 8546SOL     OW37270   4.581   3.493   8.600  0.1874  0.0919  0.0836
 8546SOL    HW137271   4.498   3.513   8.642  0.4944  0.5243  0.4879
 8546SOL    HW237272   4.629   3.569   8.635 -0.0672  0.1413  0.3282
 8547SOL     OW37273   3.011   1.539   8.734  0.1737  0.2172  0.2465
 8547SOL    HW137274   3.088   1.483   8.722  0.7076  0.7758  1.0775
 8547SOL    HW237275   2.957   1.480   8.788 -0.5792  0.5721 -0.1153
 8548SOL     OW37276   4.039   3.164   5.307 -0.0573  0.1323 -0.0154
 8548SOL    HW137277   4.002   3.130   5.225 -1.9083 -1.1956  1.3843
 8548SOL    HW237278   3.991   3.107   5.367  1.9969 -0.7013  0.8415
 8549SOL     OW37279   4.636   3.754   7.379  0.4959  0.2690 -0.2145
 8549SOL    HW137280   4.675   3.673   7.346  2.3687  1.4812 -0.9331
 8549SOL    HW237281   4.543   3.754   7.355  0.3938 -1.3569  0.1637
 8550SOL     OW37282   4.573   3.787   6.959  0.3598 -0.1403 -0.3441
 8550SOL    HW137283   4.566   3.881   6.974  0.3756 -0.0668 -0.8109
 8550SOL    HW237284   4.504   3.758   7.019 -0.0225  1.9315  0.2315
 8551SOL     OW37285   2.811   1.146   2.205 -0.0068 -0.0120  0.1596
 8551SOL    HW137286   2.808   1.227   2.154 -1.9442 -1.7496 -2.4929
 8551SOL    HW237287   2.763   1.180   2.280 -0.7614 -1.1829  0.2035
 8552SOL     OW37288   1.229   0.839  14.780  0.2206  0.5541  0.4422
 8552SOL    HW137289   1.315   0.879  14.792  0.2003 -0.1263  2.9874
 8552SOL    HW237290   1.240   0.805  14.692 -1.3486 -0.4471  0.6502
 8553SOL     OW37291   1.963   4.574   8.229  0.2013 -0.2633  0.1841
 8553SOL    HW137292   1.985   4.532   8.313 -0.7607 -0.5248  0.3079
 8553SOL    HW237293   2.020   4.529   8.168 -0.4825 -1.1997  0.2294
 8554SOL     OW37294   3.836   4.498  16.639  0.0135  0.2852  0.3251
 8554SOL    HW137295   3.876   4.430  16.584 -0.2698  0.0107  0.4604
 8554SOL    HW237296   3.756   4.448  16.658 -0.2581  0.1646 -1.1651
 8555SOL     OW37297   4.680   2.826   3.797 -0.1329 -0.0902 -0.0314
 8555SOL    HW137298   0.016   2.887   3.816  2.0676 -2.0128 -2.1842
 8555SOL    HW237299   4.600   2.870   3.828 -1.7696 -2.8154 -0.4035
 8556SOL     OW37300   3.489   1.112   7.689  0.0273 -0.1692  0.7673
 8556SOL    HW137301   3.509   1.019   7.704  1.4524 -0.2496 -1.6750
 8556SOL    HW237302   3.526   1.153   7.767  1.7051 -2.7231  1.3096
 8557SOL     OW37303   2.421   0.269   5.081 -0.1201 -0.1149 -0.0628
 8557SOL    HW137304   2.481   0.211   5.033 -0.1928  1.0041 -1.5061
 8557SOL    HW237305   2.337   0.223   5.089 -0.2193  0.0961  0.0902
 8558SOL     OW37306   2.557   0.696   0.149  0.2464 -0.0513 -0.2168
 8558SOL    HW137307   2.652   0.688   0.156  0.0871 -0.0212  2.1569
 8558SOL    HW237308   2.532   0.614   0.193 -1.2937  0.6518  0.2198
 8559SOL     OW37309   3.804   2.200   6.827  0.3608  0.6505  0.0254
 8559SOL    HW137310   3.722   2.179   6.781  0.5331  0.8169 -0.3574
 8559SOL    HW237311   3.844   2.272   6.778 -1.6997  1.5858 -0.2835
 8560SOL     OW37312   4.438   2.700   0.292  0.1145  0.3778 -0.0170
 8560SOL    HW137313   4.428   2.795   0.305 -2.7139 -0.2636  2.3544
 8560SOL    HW237314   4.507   2.711   0.226  0.6398 -2.8634 -0.0128
 8561SOL     OW37315   1.104   2.431   7.939 -0.5983 -0.1336 -0.0620
 8561SOL    HW137316   1.031   2.492   7.944 -1.6232 -1.2362 -1.7187
 8561SOL    HW237317   1.066   2.358   7.890  0.3810 -0.4434 -0.3579
 8562SOL     OW37318   4.347   4.049   2.269  0.1229  0.1874  0.0729
 8562SOL    HW137319   4.267   4.102   2.270  0.8826  1.2929  1.8591
 8562SOL    HW237320   4.334   4.011   2.356  1.8548  0.5358  0.4727
 8563SOL     OW37321   1.012   0.255   8.462 -0.6295  0.0511 -0.3110
 8563SOL    HW137322   1.056   0.171   8.446  1.1918  0.9490  0.0017
 8563SOL    HW237323   1.069   0.299   8.525  0.6482  0.5286 -1.8169
 8564SOL     OW37324   4.030   2.606   3.175  0.0412 -0.1155  0.1783
 8564SOL    HW137325   4.106   2.553   3.151 -0.0526  0.7196 -1.9451
 8564SOL    HW237326   4.058   2.696   3.159  0.6091 -0.8379 -2.8356
 8565SOL     OW37327   2.550   4.137   3.001  0.4027 -0.1875 -0.1185
 8565SOL    HW137328   2.572   4.052   3.039  1.4897 -0.4462 -1.3207
 8565SOL    HW237329   2.489   4.112   2.932  1.4299 -1.8587 -0.4103
 8566SOL     OW37330   0.006   3.575   8.256 -0.3380  0.3328 -0.1819
 8566SOL    HW137331   4.702   3.499   8.300  1.5659 -0.7419 -0.3766
 8566SOL    HW237332   0.062   3.607   8.326 -0.7553  0.2496  0.1939
 8567SOL     OW37333   0.735   4.619   9.634 -0.8536 -0.3055 -0.3674
 8567SOL    HW137334   0.715   4.530   9.662 -1.7026  0.6307  2.0401
 8567SOL    HW237335   0.678   4.665   9.696 -0.3948  0.2482 -0.3548
 8568SOL     OW37336   0.854   1.723  17.506 -0.0178 -0.3119  0.2581
 8568SOL    HW137337   0.835   1.720  17.600 -1.5131  0.2499 -0.0214
 8568SOL    HW237338   0.862   1.818  17.497 -1.9855 -0.1796 -0.2254
 8569SOL     OW37339   4.160   1.315  16.468  0.1545 -0.1149  0.0988
 8569SOL    HW137340   4.090   1.256  16.496  0.2599 -1.3389 -2.2304
 8569SOL    HW237341   4.233   1.273  16.515  2.5077  2.3894 -1.3062
 8570SOL     OW37342   1.999   0.793   5.242  0.2955  0.1893  0.1230
 8570SOL    HW137343   2.076   0.737   5.245  1.0719  1.2736  0.3215
 8570SOL    HW237344   1.926   0.730   5.247 -0.2139  0.6658 -1.4386
 8571SOL     OW37345   2.850   3.418  15.480 -0.3134  0.1923  0.2539
 8571SOL    HW137346   2.772   3.473  15.489 -0.9522 -0.7954  0.8149
 8571SOL    HW237347   2.912   3.466  15.535 -1.4019  0.7237  1.0072
 8572SOL     OW37348   2.769   1.876   3.014  0.3584  0.3919  0.7358
 8572SOL    HW137349   2.789   1.939   3.083  0.1940  0.6044  0.5921
 8572SOL    HW237350   2.724   1.804   3.057  1.7617 -1.0548 -0.2072
 8573SOL     OW37351   2.937   0.854   0.874 -0.4144 -0.3326  0.0983
 8573SOL    HW137352   2.877   0.790   0.912 -0.4293 -0.4575 -0.1423
 8573SOL    HW237353   2.929   0.834   0.781 -0.5927  1.9673 -0.3744
 8574SOL     OW37354   2.667   2.346   6.082 -0.1159  0.1544 -0.3239
 8574SOL    HW137355   2.703   2.405   6.148 -1.2306  1.8868 -1.2366
 8574SOL    HW237356   2.713   2.366   6.000  3.0930 -0.6795  1.3032
 8575SOL     OW37357   1.376   3.468   4.986 -0.1594  0.2777  0.4461
 8575SOL    HW137358   1.337   3.426   5.063  2.3217 -0.1452  1.4951
 8575SOL    HW237359   1.420   3.397   4.939  0.8079  1.1427  0.0518
 8576SOL     OW37360   4.134   2.104   6.664 -0.1664 -0.4534 -0.1847
 8576SOL    HW137361   4.078   2.038   6.704 -0.4680  0.5031  0.9894
 8576SOL    HW237362   4.223   2.078   6.687  0.2460  0.2609 -0.9843
 8577SOL     OW37363   3.773   1.501   3.445 -0.1708 -0.4210  0.6327
 8577SOL    HW137364   3.808   1.424   3.401  0.9435 -0.1466  1.0424
 8577SOL    HW237365   3.774   1.469   3.536  1.8599  0.0271  0.7581
 8578SOL     OW37366   3.339   4.308   3.048 -0.0318  0.2795  0.0578
 8578SOL    HW137367   3.339   4.240   3.116  1.0608 -0.7953 -1.0379
 8578SOL    HW237368   3.385   4.268   2.975 -0.0161  1.3789 -0.5280
 8579SOL     OW37369   3.369   1.071   8.422  0.0085 -0.1059  0.2943
 8579SOL    HW137370   3.457   1.060   8.386  0.3574 -1.9418  1.7130
 8579SOL    HW237371   3.387   1.018   8.499  1.4116 -0.6995 -0.4478
 8580SOL     OW37372   0.882   2.945   2.940 -0.1259  0.1558 -0.5319
 8580SOL    HW137373   0.976   2.955   2.925 -0.0076 -0.8592 -0.4990
 8580SOL    HW237374   0.851   3.031   2.968 -0.6194  0.1487 -1.0672
 8581SOL     OW37375   3.863   2.269  10.974  0.0835 -0.5747  0.9247
 8581SOL    HW137376   3.789   2.310  11.018 -1.2683 -1.7327 -0.3068
 8581SOL    HW237377   3.942   2.301  11.019  1.2009 -3.2333  0.8624
 8582SOL     OW37378   4.089   1.174   8.555 -0.1570 -0.1163  0.1177
 8582SOL    HW137379   4.108   1.111   8.485  5.3924  0.2059  1.3492
 8582SOL    HW237380   4.164   1.230   8.538  0.2212  0.4642  3.7540
 8583SOL     OW37381   2.871   1.159   8.597  0.1286  0.5535  0.0660
 8583SOL    HW137382   2.849   1.068   8.615  0.8837  0.2502 -0.5453
 8583SOL    HW237383   2.787   1.187   8.560 -1.6851 -1.4167  2.6599
 8584SOL     OW37384   3.245   2.826   3.033  0.0623 -0.5477 -0.1836
 8584SOL    HW137385   3.217   2.899   3.089 -0.3513 -0.0627 -1.0138
 8584SOL    HW237386   3.244   2.861   2.944  0.3020  0.2717  0.1320
 8585SOL     OW37387   3.615   0.091   7.752 -0.0941 -0.5826 -0.0713
 8585SOL    HW137388   3.536   0.038   7.750 -0.3066 -0.2406 -0.6832
 8585SOL    HW237389   3.673   0.032   7.704 -0.2880 -1.2344  0.5071
 8586SOL     OW37390   0.692   1.284   7.343 -0.1857  0.2811  0.6038
 8586SOL    HW137391   0.630   1.354   7.363 -0.6329  0.2292 -0.6064
 8586SOL    HW237392   0.709   1.262   7.434  0.4931  2.0666  0.9192
 8587SOL     OW37393   2.004   0.793   5.996 -0.0906 -0.1280  0.1109
 8587SOL    HW137394   1.930   0.736   6.017 -0.1561 -0.8415 -2.0926
 8587SOL    HW237395   2.073   0.749   6.046 -1.0849 -0.9137  0.7994
 8588SOL     OW37396   2.391   3.211   9.679 -0.2122  0.4115 -0.0956
 8588SOL    HW137397   2.376   3.250   9.593 -2.4120 -1.4673 -0.5563
 8588SOL    HW237398   2.349   3.125   9.676  0.5092  0.0430  0.2978
 8589SOL     OW37399   3.056   3.597   9.301 -0.6320  0.1095  0.1693
 8589SOL    HW137400   3.060   3.503   9.321  1.9118  0.0619 -0.5417
 8589SOL    HW237401   2.990   3.633   9.360 -2.0519 -1.5722 -0.4058
 8590SOL     OW37402   1.297   1.838   4.648  0.1563  0.4094 -0.0902
 8590SOL    HW137403   1.313   1.772   4.580  0.1250 -1.6280  1.8772
 8590SOL    HW237404   1.248   1.906   4.602  0.5452 -0.0586 -1.2172
 8591SOL     OW37405   3.298   1.925   6.685  0.4945 -0.1427 -0.1635
 8591SOL    HW137406   3.258   1.975   6.613  0.3627  1.7516  1.2381
 8591SOL    HW237407   3.263   1.981   6.754 -1.3444  0.3078 -1.4293
 8592SOL     OW37408   2.775   0.359  12.412 -0.1983  0.5916 -0.6319
 8592SOL    HW137409   2.757   0.272  12.378  0.8602 -0.3168  1.1504
 8592SOL    HW237410   2.707   0.365  12.480  0.6029  0.0380  0.2174
 8593SOL     OW37411   3.082   4.448   6.267 -0.8772 -0.1576 -0.1150
 8593SOL    HW137412   3.061   4.354   6.273  0.6296 -0.4857  0.1704
 8593SOL    HW237413   3.048   4.475   6.352  2.0855  0.0554  0.9838
 8594SOL     OW37414   2.010   4.482   0.110  0.5012  0.2058 -0.0335
 8594SOL    HW137415   2.031   4.424   0.037 -2.3104 -0.0656 -0.6044
 8594SOL    HW237416   1.981   4.420   0.176 -0.0467 -1.1740 -1.5768
 8595SOL     OW37417   3.410   0.344   6.185 -0.3451 -0.5255 -0.3067
 8595SOL    HW137418   3.353   0.419   6.198 -0.1103 -0.1377 -1.4381
 8595SOL    HW237419   3.390   0.298   6.266  1.0875 -2.5756 -1.1265
 8596SOL     OW37420   2.862   0.250   3.372  0.1484  0.1107  0.4867
 8596SOL    HW137421   2.943   0.259   3.422  0.8482  1.1096 -0.8300
 8596SOL    HW237422   2.851   0.156   3.384  3.4317 -0.2336  0.7648
 8597SOL     OW37423   3.350   3.778   6.443  0.1375 -0.0898  0.2118
 8597SOL    HW137424   3.364   3.759   6.536 -2.3323 -2.8243  0.0233
 8597SOL    HW237425   3.438   3.775   6.406  1.2941 -0.6111  2.9792
 8598SOL     OW37426   3.458   0.804  17.278 -0.7424 -0.1602  0.1714
 8598SOL    HW137427   3.435   0.761  17.361 -4.6424  0.1206 -0.7696
 8598SOL    HW237428   3.375   0.848  17.263 -0.3913 -0.3615 -2.2681
 8599SOL     OW37429   3.126   4.564   7.790 -0.6539  0.0119  0.1182
 8599SOL    HW137430   3.049   4.526   7.831 -1.5114  0.7513 -0.7880
 8599SOL    HW237431   3.154   4.485   7.744 -1.1703  0.3950 -0.8573
 8600SOL     OW37432   2.417   2.799   6.163  0.1774 -0.3855  0.3192
 8600SOL    HW137433   2.458   2.882   6.139 -1.2446 -0.2663 -1.6800
 8600SOL    HW237434   2.325   2.824   6.175 -0.0645 -1.4176  0.6678
 8601SOL     OW37435   0.164   2.317   4.013  0.4127  0.2642  0.2280
 8601SOL    HW137436   0.138   2.238   4.060  1.3423 -1.1022 -1.5595
 8601SOL    HW237437   0.102   2.379   4.051  0.7504  1.5459 -1.3297
 8602SOL     OW37438   0.022   0.071   0.888  0.0379  0.0770  0.2925
 8602SOL    HW137439   0.033   0.056   0.794  0.3764  0.0976  0.3320
 8602SOL    HW237440   0.005   0.165   0.890 -0.3571  0.0044  0.3672
 8603SOL     OW37441   1.243   0.607   7.055 -0.3115  0.2100 -0.3897
 8603SOL    HW137442   1.188   0.684   7.071  1.6050  1.2849  1.1636
 8603SOL    HW237443   1.196   0.585   6.974 -0.4208 -0.5222 -0.1267
 8604SOL     OW37444   2.763   2.403   7.190  0.2840  0.4062  0.1480
 8604SOL    HW137445   2.748   2.317   7.229  2.6655 -0.2704 -0.4451
 8604SOL    HW237446   2.679   2.433   7.154 -0.3394 -0.8973  0.5223
 8605SOL     OW37447   2.757   0.595   6.943  0.0027  0.0503 -0.0370
 8605SOL    HW137448   2.747   0.518   6.998 -0.9100  1.1697  1.3624
 8605SOL    HW237449   2.851   0.597   6.922  0.2549  0.0055  1.1083
 8606SOL     OW37450   2.047   2.680   4.653 -0.4840 -0.9245  0.2826
 8606SOL    HW137451   2.129   2.718   4.686  0.3821 -1.5347 -1.2148
 8606SOL    HW237452   2.081   2.603   4.608  2.2108  0.0357  0.6264
 8607SOL     OW37453   2.921   4.715   3.797 -0.1711 -0.0731  0.1033
 8607SOL    HW137454   2.981   0.053   3.805  0.8528 -0.9325  0.3536
 8607SOL    HW237455   2.965   4.630   3.793  0.9898  0.6364 -2.1113
 8608SOL     OW37456   1.960   2.944   5.998  0.5318  0.3476  0.4911
 8608SOL    HW137457   1.947   2.853   5.969  0.7912  0.4057  0.1915
 8608SOL    HW237458   2.036   2.965   5.945 -1.3654  3.0755 -1.1108
 8609SOL     OW37459   3.550   3.297  17.521 -0.0348  0.2736  0.1909
 8609SOL    HW137460   3.555   3.289  17.426 -0.3690 -0.3949  0.2345
 8609SOL    HW237461   3.592   3.216  17.551 -2.2037 -0.3952  1.4337
 8610SOL     OW37462   3.863   3.873  11.671 -0.3158  0.0353  0.6231
 8610SOL    HW137463   3.841   3.839  11.758  0.2786 -1.4425  0.1961
 8610SOL    HW237464   3.854   3.805  11.604 -1.2792  0.7712  0.0055
 8611SOL     OW37465   2.308   2.226   6.930  0.0417 -0.2787 -0.4251
 8611SOL    HW137466   2.275   2.299   6.982  0.9196 -2.2807  2.9537
 8611SOL    HW237467   2.257   2.232   6.849 -2.6445 -1.2152  1.1991
 8612SOL     OW37468   3.909   1.354   8.660  0.2730 -0.0264 -0.0128
 8612SOL    HW137469   3.970   1.425   8.680  2.4049 -1.0738 -2.8334
 8612SOL    HW237470   3.978   1.289   8.654  0.5098 -0.0614  2.8361
 8613SOL     OW37471   0.779   0.310   3.720 -0.4144  0.1333  0.1171
 8613SOL    HW137472   0.774   0.244   3.651  1.2410 -1.2704  1.3456
 8613SOL    HW237473   0.821   0.249   3.780  1.7865  1.1327 -0.4102
 8614SOL     OW37474   1.799   0.487   8.297 -0.1741 -0.2922  0.5432
 8614SOL    HW137475   1.850   0.471   8.377  0.2039  0.0810  0.3813
 8614SOL    HW237476   1.718   0.506   8.344  0.9557  3.4010  0.9945
 8615SOL     OW37477   3.331   4.445   9.280 -0.6541  0.8731  0.0836
 8615SOL    HW137478   3.298   4.394   9.354 -0.6995 -0.3921 -0.8019
 8615SOL    HW237479   3.424   4.448   9.299 -0.2978  1.4913 -1.7702
 8616SOL     OW37480   0.809   2.933   7.281  0.3663 -0.7266 -0.0098
 8616SOL    HW137481   0.839   2.873   7.212  1.3244 -0.3864  0.1044
 8616SOL    HW237482   0.889   2.940   7.333 -0.3408  1.5942  0.7190
 8617SOL     OW37483   2.740   3.325   8.910 -0.7171  0.0842 -0.0640
 8617SOL    HW137484   2.665   3.328   8.852 -0.3063  1.5252 -0.5189
 8617SOL    HW237485   2.718   3.253   8.970 -1.5353  0.9576  0.6909
 8618SOL     OW37486   2.356   2.217  10.449  0.1267 -0.0439  0.4164
 8618SOL    HW137487   2.291   2.210  10.379  1.0899 -0.0299 -0.4884
 8618SOL    HW237488   2.442   2.240  10.414 -0.2745 -0.0217 -0.5623
 8619SOL     OW37489   1.395   0.404   6.207 -0.1106 -0.2465 -0.0060
 8619SOL    HW137490   1.326   0.412   6.140  0.4737  0.1746 -0.5571
 8619SOL    HW237491   1.368   0.465   6.275  4.7395 -0.5884  2.1954
 8620SOL     OW37492   2.763   1.535   5.466 -0.2558 -0.3988 -0.0472
 8620SOL    HW137493   2.684   1.558   5.515 -0.4720  0.1570 -0.6564
 8620SOL    HW237494   2.801   1.623   5.462  0.0988 -0.4598  1.8764
 8621SOL     OW37495   1.204   4.467   2.333 -0.0660  0.3725 -0.1973
 8621SOL    HW137496   1.231   4.440   2.245 -1.1697 -0.2090 -0.3573
 8621SOL    HW237497   1.188   4.558   2.306 -3.7597 -1.6973 -5.1302
 8622SOL     OW37498   3.906   3.401   6.461  0.4807 -0.3232 -0.1701
 8622SOL    HW137499   3.830   3.457   6.476  0.9593  0.1397  0.5272
 8622SOL    HW237500   3.974   3.468   6.451  1.3135 -1.0742  0.4203
 8623SOL     OW37501   3.265   4.282   8.166 -0.5039 -0.3544  0.0262
 8623SOL    HW137502   3.289   4.225   8.239  1.9557  2.8221  1.6715
 8623SOL    HW237503   3.292   4.225   8.093  2.6058  2.4547 -1.0560
 8624SOL     OW37504   1.975   1.933   4.899  0.4993  0.0377 -0.1848
 8624SOL    HW137505   2.052   1.935   4.956  0.2175 -0.6024  0.2084
 8624SOL    HW237506   1.920   1.878   4.955  1.1865  0.5106  0.9776
 8625SOL     OW37507   3.056   2.521   3.414 -0.1264 -0.1539 -0.0003
 8625SOL    HW137508   3.072   2.556   3.327  1.1176  2.1470  1.1583
 8625SOL    HW237509   3.042   2.603   3.461  1.6021  0.2856 -0.2809
 8626SOL     OW37510   1.200   3.355  10.237  0.2914  0.1014 -0.2693
 8626SOL    HW137511   1.266   3.411  10.195 -0.6627  1.2666 -0.2165
 8626SOL    HW237512   1.170   3.301  10.164  0.7122  0.8560 -1.0025
 8627SOL     OW37513   2.216   3.728   7.014 -0.0181  0.0590 -0.2208
 8627SOL    HW137514   2.135   3.779   7.013  0.3016  0.6427  3.8441
 8627SOL    HW237515   2.233   3.719   7.108 -0.2330 -1.3517 -0.3275
 8628SOL     OW37516   4.453   2.889   1.496 -0.2145 -0.3646 -0.0132
 8628SOL    HW137517   4.367   2.932   1.500 -1.6652 -3.1648 -1.0384
 8628SOL    HW237518   4.479   2.911   1.585  1.6841 -1.3649 -0.3383
 8629SOL     OW37519   3.249   3.068  15.620 -0.1396 -0.6678 -0.0396
 8629SOL    HW137520   3.206   3.035  15.699  1.7928 -0.4877  1.0923
 8629SOL    HW237521   3.333   3.099  15.656 -1.1459  1.3738  0.5280
 8630SOL     OW37522   2.137   2.714   7.047 -0.3206  0.2474  0.2886
 8630SOL    HW137523   2.140   2.767   6.967 -1.6375  1.8463  1.2936
 8630SOL    HW237524   2.131   2.782   7.115  2.3185  1.5724 -0.8055
 8631SOL     OW37525   4.182   2.615  11.079 -0.8089  0.0825  0.4128
 8631SOL    HW137526   4.203   2.704  11.052  0.6201 -0.0830  0.9707
 8631SOL    HW237527   4.261   2.570  11.051 -1.0592 -1.5715  2.3463
 8632SOL     OW37528   0.833   4.367   1.783 -0.0912 -0.0763  0.7892
 8632SOL    HW137529   0.803   4.419   1.858 -0.2389  1.8110 -0.5756
 8632SOL    HW237530   0.851   4.437   1.721  0.5415 -1.5591 -0.6913
 8633SOL     OW37531   4.138   0.303   1.693  0.0196  0.2110  0.0598
 8633SOL    HW137532   4.222   0.329   1.730  0.6040 -0.9581 -0.4433
 8633SOL    HW237533   4.083   0.376   1.724  0.0890  0.5363 -0.5829
 8634SOL     OW37534   3.960   0.567  17.578 -0.9739 -0.0120 -0.1812
 8634SOL    HW137535   3.995   0.498  17.522 -0.5328 -0.7951  1.0645
 8634SOL    HW237536   3.868   0.543  17.566 -1.0668  0.7768 -1.0602
 8635SOL     OW37537   2.878   4.066   4.055 -0.2654 -0.3026  0.1048
 8635SOL    HW137538   2.815   4.138   4.054  0.4406  0.2993 -1.4662
 8635SOL    HW237539   2.834   3.994   4.101  1.1976 -0.7927  0.7567
 8636SOL     OW37540   2.416   0.843   1.894 -0.1316  0.0909  0.0124
 8636SOL    HW137541   2.404   0.911   1.827 -0.7911 -0.0355  0.0054
 8636SOL    HW237542   2.373   0.767   1.857 -0.7540 -0.6524  2.2561
 8637SOL     OW37543   1.694   3.006   6.553  0.0407 -0.4057  0.0220
 8637SOL    HW137544   1.678   3.060   6.475  0.7227  1.7441  1.3651
 8637SOL    HW237545   1.704   3.079   6.615  1.8665  0.3989 -1.2095
 8638SOL     OW37546   1.706   3.196   6.729  0.2814 -0.1905  0.1340
 8638SOL    HW137547   1.695   3.288   6.705  1.6746 -0.2978 -0.9111
 8638SOL    HW237548   1.687   3.198   6.822 -0.2065  1.8027  0.0010
 8639SOL     OW37549   2.411   2.059   5.766 -0.2840  0.3851  0.3177
 8639SOL    HW137550   2.465   2.006   5.825  0.0877  2.5167  1.8799
 8639SOL    HW237551   2.468   2.065   5.690 -1.5140  0.2507 -0.6109
 8640SOL     OW37552   2.003   0.661   0.131  0.0072  0.2717 -0.4199
 8640SOL    HW137553   1.976   0.744   0.091 -1.8282  0.1782  0.6144
 8640SOL    HW237554   2.065   0.629   0.066 -0.7929 -6.0012  1.9321
 8641SOL     OW37555   2.735   1.097   7.253 -0.5079 -0.6432 -0.0923
 8641SOL    HW137556   2.700   1.186   7.262 -1.9838 -1.2372  0.0231
 8641SOL    HW237557   2.744   1.058   7.340  0.1687 -0.6419 -0.1646
 8642SOL     OW37558   3.667   4.287   8.295  0.3297 -0.0970  0.8128
 8642SOL    HW137559   3.752   4.304   8.335  0.6323 -0.3441  0.2710
 8642SOL    HW237560   3.609   4.320   8.364 -0.6405  1.6456 -0.8428
 8643SOL     OW37561   2.704   0.900   7.487 -0.0311  0.1246 -0.0059
 8643SOL    HW137562   2.744   0.958   7.552  2.8541 -0.0448 -1.5869
 8643SOL    HW237563   2.743   0.816   7.510  0.3671  0.3464  0.1243
 8644SOL     OW37564   0.974   2.708  10.897 -0.0969 -0.5137 -0.6896
 8644SOL    HW137565   0.987   2.639  10.832 -1.2910 -0.4952 -0.9425
 8644SOL    HW237566   0.997   2.789  10.851  2.1319 -0.4457  0.5589
 8645SOL     OW37567   1.355   0.991   4.035 -0.6721 -0.0442  0.4532
 8645SOL    HW137568   1.287   1.052   4.064  0.2451  1.8412 -1.3488
 8645SOL    HW237569   1.419   1.050   3.996 -0.8841 -0.9337 -1.2511
 8646SOL     OW37570   0.856   3.593   4.460 -0.3332 -0.9826 -0.1398
 8646SOL    HW137571   0.887   3.515   4.508  0.9962 -0.0864  0.4704
 8646SOL    HW237572   0.939   3.641   4.464 -0.4724 -0.6146 -1.6173
 8647SOL     OW37573   2.809   3.255  13.769  0.1210  0.1434  0.0110
 8647SOL    HW137574   2.795   3.270  13.862 -0.1984 -0.5823  0.0859
 8647SOL    HW237575   2.877   3.314  13.737  0.8836  0.2296  1.8065
 8648SOL     OW37576   2.760   2.895   6.851  0.4710  0.1115 -0.0968
 8648SOL    HW137577   2.676   2.889   6.897  0.1429  0.0413 -0.7001
 8648SOL    HW237578   2.740   2.915   6.759  0.3622  2.4363  0.4368
 8649SOL     OW37579   4.317   3.265  16.661 -0.0768  0.5661  0.4654
 8649SOL    HW137580   4.379   3.192  16.662  1.6433  2.0000 -2.2592
 8649SOL    HW237581   4.243   3.215  16.695  0.3169 -1.7172 -2.0711
 8650SOL     OW37582   2.631   0.220   4.029  0.4484 -0.4155 -0.0515
 8650SOL    HW137583   2.698   0.206   4.096  3.1170  2.8618 -2.0273
 8650SOL    HW237584   2.661   0.300   3.986 -0.8731 -0.8338 -1.7180
 8651SOL     OW37585   1.693   4.126   2.234 -0.0872 -0.5234  0.0089
 8651SOL    HW137586   1.636   4.137   2.158 -0.0948 -2.6786 -0.3014
 8651SOL    HW237587   1.712   4.033   2.227 -1.1419 -0.8373  1.3958
 8652SOL     OW37588   3.221   1.396   2.036  0.1051 -0.7218  0.4919
 8652SOL    HW137589   3.159   1.458   1.997 -0.7337 -3.4398 -2.4370
 8652SOL    HW237590   3.181   1.385   2.123 -2.5526 -1.8608 -0.8765
 8653SOL     OW37591   1.780   4.534   3.682 -0.3570  0.2328  0.0330
 8653SOL    HW137592   1.786   4.614   3.629  2.6064  0.2064  0.3758
 8653SOL    HW237593   1.762   4.577   3.766 -0.3644 -0.9937  0.6547
 8654SOL     OW37594   0.124   2.340   2.542 -0.3268  0.2324  0.2696
 8654SOL    HW137595   0.188   2.281   2.503  0.7316  1.1142  0.6926
 8654SOL    HW237596   0.075   2.360   2.461  1.3803 -0.1303 -0.8529
 8655SOL     OW37597   3.829   2.992   7.113 -0.2995 -0.4509  0.1707
 8655SOL    HW137598   3.855   2.921   7.172  1.5582  0.1686  0.1034
 8655SOL    HW237599   3.882   3.066   7.142 -0.7311 -0.5022  1.0892
 8656SOL     OW37600   1.381   3.380   6.462 -0.4256 -0.3129 -0.7318
 8656SOL    HW137601   1.377   3.285   6.463  2.8786 -0.4438 -1.8729
 8656SOL    HW237602   1.308   3.389   6.524  0.5520  2.4724  0.0347
 8657SOL     OW37603   1.081   3.001   6.961 -0.1934 -0.3674  0.5170
 8657SOL    HW137604   1.172   2.980   6.984 -0.9891 -1.5958  2.5416
 8657SOL    HW237605   1.084   3.094   6.983 -0.5542 -1.0018  3.3314
 8658SOL     OW37606   3.547   3.630  16.383 -0.1098  0.1779  0.2395
 8658SOL    HW137607   3.541   3.642  16.289 -0.1403 -1.0059  0.0944
 8658SOL    HW237608   3.593   3.546  16.389 -0.8116 -0.0676  2.2781
 8659SOL     OW37609   1.371   1.309   6.613 -0.3312  0.0485 -0.1065
 8659SOL    HW137610   1.285   1.268   6.603  0.0916 -0.8513 -0.1095
 8659SOL    HW237611   1.425   1.238   6.578  2.1795  1.9905 -0.1853
 8660SOL     OW37612   4.062   1.604  12.432  0.5073 -0.0774 -0.0313
 8660SOL    HW137613   4.108   1.550  12.496  0.7227  2.0495  1.5871
 8660SOL    HW237614   4.112   1.600  12.350 -0.3846  1.8856 -0.6639
 8661SOL     OW37615   2.343   1.016  12.105  0.4182 -0.5466  0.1370
 8661SOL    HW137616   2.323   0.922  12.101  0.3569 -0.4592 -1.4572
 8661SOL    HW237617   2.434   1.009  12.078 -0.5947 -2.3850 -2.7884
 8662SOL     OW37618   1.209   2.106  10.562 -0.5454  0.1824 -0.4771
 8662SOL    HW137619   1.228   2.049  10.637 -1.2337  0.4477 -0.1055
 8662SOL    HW237620   1.269   2.180  10.568 -1.0770  0.5858 -0.1170
 8663SOL     OW37621   1.406   4.057  13.612  0.0549 -0.4239 -0.1003
 8663SOL    HW137622   1.483   4.083  13.663  0.5084 -0.0208 -0.9755
 8663SOL    HW237623   1.438   4.082  13.525 -0.3771  0.1715 -0.0839
 8664SOL     OW37624   0.323   2.875   8.281  0.2785  0.2143 -0.6063
 8664SOL    HW137625   0.302   2.792   8.324 -1.8174  1.4642  0.7835
 8664SOL    HW237626   0.242   2.923   8.298  2.5314  4.4077 -1.9092
 8665SOL     OW37627   4.338   2.504   4.485  0.2777  0.3250 -0.8229
 8665SOL    HW137628   4.262   2.562   4.476 -1.2112 -1.2008  1.9059
 8665SOL    HW237629   4.300   2.420   4.460 -0.6970  0.6767 -0.5169
 8666SOL     OW37630   1.149   0.975  11.360 -0.4161 -0.2731  0.2656
 8666SOL    HW137631   1.206   1.002  11.432 -2.4864  0.3700  1.6948
 8666SOL    HW237632   1.163   0.881  11.360  2.2024  0.1359  3.7768
 8667SOL     OW37633   0.648   4.290  12.387 -0.2915  0.1291 -0.2787
 8667SOL    HW137634   0.602   4.262  12.467  0.1848  0.0846 -0.0244
 8667SOL    HW237635   0.653   4.385  12.395  2.0587  0.0103 -0.3283
 8668SOL     OW37636   3.100   1.785  13.083 -0.3437 -0.1878 -0.0047
 8668SOL    HW137637   3.027   1.758  13.027  0.5118 -2.1637 -0.1630
 8668SOL    HW237638   3.070   1.767  13.172  2.3442  0.8834  1.0917
 8669SOL     OW37639   3.901   0.029   5.118 -0.1522  0.1967 -0.0090
 8669SOL    HW137640   3.936   0.118   5.115  0.8333 -0.1371  1.7706
 8669SOL    HW237641   3.913   0.019   5.212  2.2208  4.9786  0.2015
 8670SOL     OW37642   3.413   3.203   3.648  0.5321  0.1442 -0.5042
 8670SOL    HW137643   3.353   3.174   3.717 -0.1734 -0.2585 -1.2933
 8670SOL    HW237644   3.432   3.123   3.599 -0.2936 -1.4670  1.8038
 8671SOL     OW37645   2.292   0.523  16.546  0.0516 -0.7534 -0.1104
 8671SOL    HW137646   2.380   0.516  16.509  0.3185  0.8433  0.1888
 8671SOL    HW237647   2.276   0.617  16.544  0.9816 -0.5493  1.3716
 8672SOL     OW37648   2.569   3.679   2.119 -0.3830 -0.0513  0.4194
 8672SOL    HW137649   2.515   3.757   2.132 -0.4812  0.0575 -0.6595
 8672SOL    HW237650   2.649   3.715   2.158 -0.1763 -0.4501  0.3628
 8673SOL     OW37651   0.936   3.099   5.435 -0.6344  0.2685 -0.3940
 8673SOL    HW137652   0.930   3.189   5.469  0.1259 -0.4214  1.5833
 8673SOL    HW237653   1.014   3.076   5.485  0.2392  2.7521 -0.5981
 8674SOL     OW37654   3.088   1.214   4.945  0.0494  0.1408  0.1719
 8674SOL    HW137655   3.151   1.236   4.877 -1.4319 -0.6481 -1.4770
 8674SOL    HW237656   3.150   1.181   5.009  1.0443 -0.5489 -1.1446
 8675SOL     OW37657   0.806   4.476  13.440 -0.1740 -0.0108  0.0047
 8675SOL    HW137658   0.728   4.485  13.494 -0.1936 -0.1780  0.0064
 8675SOL    HW237659   0.881   4.504  13.493  0.0355 -0.8653  0.1709
 8676SOL     OW37660   0.226   3.568   3.635  0.3499  0.0322  0.2829
 8676SOL    HW137661   0.244   3.639   3.574  0.9723 -0.9910 -0.7153
 8676SOL    HW237662   0.282   3.495   3.609  0.6670 -0.3731  2.0819
 8677SOL     OW37663   1.858   0.569   9.700  0.5596  0.2729  0.2862
 8677SOL    HW137664   1.906   0.604   9.775  1.2606 -0.3428  0.1187
 8677SOL    HW237665   1.939   0.553   9.652 -0.3753 -2.2090 -0.4686
 8678SOL     OW37666   2.860   0.443  16.806  0.4221 -0.3413 -0.2780
 8678SOL    HW137667   2.833   0.490  16.885  1.1293 -1.3884  0.5761
 8678SOL    HW237668   2.943   0.488  16.791  1.2379 -1.7223  0.1084
 8679SOL     OW37669   1.718   0.591  11.526 -0.0743  0.4492 -0.1725
 8679SOL    HW137670   1.755   0.555  11.607 -0.5613 -2.4699 -1.2736
 8679SOL    HW237671   1.634   0.615  11.564 -1.0319 -0.5250 -1.6959
 8680SOL     OW37672   1.561   1.934   2.787  0.0810 -0.3757 -0.1068
 8680SOL    HW137673   1.644   1.970   2.819 -0.4190  1.6572 -1.1406
 8680SOL    HW237674   1.591   1.894   2.706  1.4950 -0.7898  0.6123
 8681SOL     OW37675   1.646   3.836   0.591  0.1525 -0.0237  0.1587
 8681SOL    HW137676   1.557   3.817   0.623 -0.3042  1.9762  0.0575
 8681SOL    HW237677   1.631   3.924   0.559  0.0040 -0.0890  0.0506
 8682SOL     OW37678   3.321   1.601  17.394  0.3969 -0.1224 -0.4731
 8682SOL    HW137679   3.257   1.573  17.460  0.1788 -1.3025 -1.1784
 8682SOL    HW237680   3.277   1.583  17.311  1.2390 -0.7087 -0.7974
 8683SOL     OW37681   4.604   1.307   8.428 -0.2022 -0.3867  0.4115
 8683SOL    HW137682   4.587   1.353   8.510 -1.1135 -1.2051  0.6764
 8683SOL    HW237683   4.687   1.350   8.404 -0.2727 -0.7975 -0.5371
 8684SOL     OW37684   4.201   2.919   6.401  0.1283 -0.4767  0.4910
 8684SOL    HW137685   4.156   3.004   6.407  0.2469 -0.4203  0.5798
 8684SOL    HW237686   4.274   2.934   6.460 -1.5520  0.0152  2.4540
 8685SOL     OW37687   3.483   1.067   5.175  0.1085  0.0576  0.2318
 8685SOL    HW137688   3.560   1.124   5.170  0.3984 -0.1646  2.1649
 8685SOL    HW237689   3.451   1.077   5.265  1.5964  2.2269  0.5313
 8686SOL     OW37690   3.820   2.279   8.033  0.3907 -0.0630  0.0597
 8686SOL    HW137691   3.789   2.341   7.967 -1.3529 -2.1111 -1.0434
 8686SOL    HW237692   3.739   2.228   8.040 -1.4802  2.7191 -0.9499
 8687SOL     OW37693   3.256   0.880   7.574 -0.3694  0.4143 -0.0922
 8687SOL    HW137694   3.314   0.828   7.629  3.3427  1.5277 -2.9933
 8687SOL    HW237695   3.324   0.941   7.546  0.6265 -0.7629 -0.2153
 8688SOL     OW37696   0.315   4.493  12.827 -0.0552  0.4713  0.3744
 8688SOL    HW137697   0.232   4.540  12.838 -1.3911 -1.6059 -0.8934
 8688SOL    HW237698   0.356   4.531  12.905 -0.5445 -0.0288  0.8802
 8689SOL     OW37699   4.341   3.625   8.666  0.2516  0.0307  0.2681
 8689SOL    HW137700   4.254   3.597   8.692  0.8460 -1.7610  0.3541
 8689SOL    HW237701   4.357   3.710   8.706  3.8411 -0.4121 -0.1803
 8690SOL     OW37702   4.345   3.671   1.512 -0.4282  0.2720  0.3220
 8690SOL    HW137703   4.399   3.595   1.529 -0.6923 -0.4999 -2.2643
 8690SOL    HW237704   4.284   3.634   1.448 -1.1500 -1.7205  2.1664
 8691SOL     OW37705   4.679   0.083  15.183  0.2778  0.4005  0.6118
 8691SOL    HW137706   0.030   0.098  15.221  1.4579 -2.4198 -0.9986
 8691SOL    HW237707   4.668   0.164  15.133  0.5423 -0.0663 -0.2092
 8692SOL     OW37708   4.722   0.564   8.594  0.0010  0.0979 -0.1990
 8692SOL    HW137709   0.020   0.636   8.647 -1.6677  0.0088  0.9659
 8692SOL    HW237710   4.712   0.602   8.506  0.7538 -0.9378 -0.7304
 8693SOL     OW37711   1.396   1.158   8.975 -0.1622  0.4112 -0.7629
 8693SOL    HW137712   1.405   1.067   8.947  2.2773 -0.1044  1.8216
 8693SOL    HW237713   1.489   1.172   8.963  0.0027 -1.0684 -1.3023
 8694SOL     OW37714   2.729   3.935  17.265 -0.5479  0.0211  0.4062
 8694SOL    HW137715   2.675   3.864  17.228  0.2148 -1.3153  1.8822
 8694SOL    HW237716   2.666   3.970  17.329 -2.7268 -1.7489 -0.7617
 8695SOL     OW37717   3.409   4.599  10.594  0.2993  1.0360  0.3651
 8695SOL    HW137718   3.382   4.619  10.683 -3.2563  0.7988 -0.6483
 8695SOL    HW237719   3.331   4.561  10.553  0.8926  0.0270  0.1716
 8696SOL     OW37720   0.992   2.355  16.189 -0.4294 -0.4610 -0.2437
 8696SOL    HW137721   0.930   2.301  16.237 -2.8401  2.1788 -0.3592
 8696SOL    HW237722   1.030   2.406  16.260 -0.0024 -0.3169 -0.5721
 8697SOL     OW37723   3.691   3.051  17.595  0.3939 -0.0351 -0.0732
 8697SOL    HW137724   3.664   3.050  17.686 -0.1913  0.1944 -0.2411
 8697SOL    HW237725   3.646   2.979  17.550 -2.5965  0.5942  1.8987
 8698SOL     OW37726   0.100   0.450  12.933 -0.4638 -0.5559  0.0557
 8698SOL    HW137727   0.144   0.443  13.018 -0.6224 -0.5040  0.1407
 8698SOL    HW237728   0.160   0.502  12.879 -0.5887 -2.8178 -2.3129
 8699SOL     OW37729   2.925   3.942  14.007  0.5746  0.4537 -0.0522
 8699SOL    HW137730   2.923   4.029  14.046  0.3127  1.4295 -2.2366
 8699SOL    HW237731   3.002   3.903  14.050 -0.0128  1.0045  1.5027
 8700SOL     OW37732   1.654   2.046   6.145  0.3571 -0.3977 -0.4372
 8700SOL    HW137733   1.692   1.985   6.082  2.6450  2.5028 -1.8455
 8700SOL    HW237734   1.715   2.034   6.218  0.0159  0.6724  0.0391
 8701SOL     OW37735   1.201   2.617   8.489  0.4841  0.0535  0.2476
 8701SOL    HW137736   1.124   2.669   8.466  0.2701 -0.3695  0.0112
 8701SOL    HW237737   1.261   2.690   8.506 -1.2236  1.2722  0.9970
 8702SOL     OW37738   0.961   0.369   1.839  0.5062 -0.2525  0.1043
 8702SOL    HW137739   0.934   0.398   1.926  4.0051 -0.3520  1.2164
 8702SOL    HW237740   0.914   0.286   1.830 -1.3312  0.6163  1.8988
 8703SOL     OW37741   1.235   3.745  14.984 -0.1604  0.5132 -1.1202
 8703SOL    HW137742   1.299   3.815  14.970 -0.2732  0.6692 -0.8609
 8703SOL    HW237743   1.201   3.749  15.074 -0.1086  0.7023 -1.1100
 8704SOL     OW37744   4.624   1.371  13.331  0.1056  0.7158 -0.0725
 8704SOL    HW137745   4.539   1.415  13.337 -0.2846  0.2936 -2.3085
 8704SOL    HW237746   4.643   1.363  13.237  0.6091 -1.5744  0.2281
 8705SOL     OW37747   4.110   0.457   8.319 -0.8039 -0.1377  0.2764
 8705SOL    HW137748   4.034   0.405   8.345  0.4172 -2.1156 -0.1366
 8705SOL    HW237749   4.137   0.515   8.391 -0.6262 -0.4126  0.4321
 8706SOL     OW37750   0.539   3.449  11.978  0.4656 -0.3480  0.2945
 8706SOL    HW137751   0.519   3.527  12.031 -1.9270 -2.8567  3.1049
 8706SOL    HW237752   0.627   3.440  12.013  1.8363  0.2415 -2.9974
 8707SOL     OW37753   3.532   2.547   5.655 -0.5136  0.5354 -0.4667
 8707SOL    HW137754   3.623   2.535   5.626 -0.9119 -1.9097 -0.7550
 8707SOL    HW237755   3.544   2.615   5.721  1.1988 -1.0427  0.8623
 8708SOL     OW37756   0.429   4.125   4.583  0.2048  0.1142  0.0276
 8708SOL    HW137757   0.345   4.170   4.574  0.6169  0.9688  0.4698
 8708SOL    HW237758   0.484   4.182   4.637 -1.5234  1.6941  0.1323
 8709SOL     OW37759   2.300   1.458   5.329  0.1013  0.1459  0.6020
 8709SOL    HW137760   2.246   1.485   5.404  0.1122  2.5517 -0.2702
 8709SOL    HW237761   2.287   1.529   5.266  1.2751  1.1958  1.5291
 8710SOL     OW37762   2.389   4.318   5.588 -0.0952  0.4939  0.1727
 8710SOL    HW137763   2.444   4.240   5.579 -1.1351 -0.1708 -0.4384
 8710SOL    HW237764   2.390   4.342   5.680 -0.4784  1.6262 -0.1207
 8711SOL     OW37765   0.391   3.367  13.035 -0.1704  0.5717 -0.2763
 8711SOL    HW137766   0.396   3.293  13.096  0.8527  1.3690  0.6149
 8711SOL    HW237767   0.442   3.439  13.072 -1.0877  0.7523  0.6581
 8712SOL     OW37768   2.040   0.411   4.804  0.2689 -0.5792  0.3673
 8712SOL    HW137769   2.027   0.505   4.822  1.2497 -0.2100 -0.8342
 8712SOL    HW237770   2.135   0.421   4.808  0.5436 -2.3400 -2.5562
 8713SOL     OW37771   1.808   1.965   4.042  0.2732 -0.5798  0.1603
 8713SOL    HW137772   1.726   1.956   4.089  0.5150 -2.6678  0.2005
 8713SOL    HW237773   1.871   1.986   4.111  1.2029 -0.9587 -0.5628
 8714SOL     OW37774   4.096   2.200   5.061  0.2466  0.2774  0.1219
 8714SOL    HW137775   4.113   2.115   5.102  1.6132  0.0612 -0.8664
 8714SOL    HW237776   4.108   2.253   5.140  0.2152  1.2965 -0.5693
 8715SOL     OW37777   3.481   1.569  15.371 -0.1784  0.7308 -0.2240
 8715SOL    HW137778   3.518   1.498  15.319 -2.1504 -0.2399 -0.2999
 8715SOL    HW237779   3.553   1.577  15.433  0.0060 -0.3586 -0.3073
 8716SOL     OW37780   0.684   3.466   8.632 -0.5664 -0.4342 -0.1470
 8716SOL    HW137781   0.617   3.419   8.584 -2.4514  0.5958  1.4734
 8716SOL    HW237782   0.717   3.528   8.566  0.8388 -1.1363 -0.0993
 8717SOL     OW37783   1.252   3.913   7.868  0.2315 -0.2679  0.4380
 8717SOL    HW137784   1.176   3.932   7.924 -0.8174  0.9128 -1.3742
 8717SOL    HW237785   1.214   3.839   7.821  0.2758 -0.5456  0.8480
 8718SOL     OW37786   2.223   2.332   6.463  0.4629  0.1158  0.4308
 8718SOL    HW137787   2.166   2.408   6.460  0.1252 -0.1125  1.0657
 8718SOL    HW237788   2.223   2.307   6.370  1.8256  0.1141  0.4359
 8719SOL     OW37789   1.039   2.564  16.361 -0.2859  0.0960  0.2917
 8719SOL    HW137790   1.089   2.639  16.327  0.5192 -1.7975 -2.6785
 8719SOL    HW237791   0.957   2.609  16.382 -0.2420  0.0806  0.4989
 8720SOL     OW37792   1.778   1.587   5.380 -0.4473 -0.6250 -0.1976
 8720SOL    HW137793   1.828   1.664   5.354 -1.9219  0.5808  0.5450
 8720SOL    HW237794   1.690   1.621   5.363  0.5167  1.2705 -1.3553
 8721SOL     OW37795   2.000   3.843   3.125 -0.8042 -0.1282  0.2944
 8721SOL    HW137796   1.928   3.839   3.187  0.7307  0.6677  2.1011
 8721SOL    HW237797   1.972   3.792   3.048 -0.0164  1.5171 -1.0870
 8722SOL     OW37798   4.535   3.797   0.392  0.2737  0.1540  0.5774
 8722SOL    HW137799   4.459   3.852   0.374 -1.0456 -2.3699 -1.4807
 8722SOL    HW237800   4.533   3.785   0.487  0.9822  1.7414  0.7861
 8723SOL     OW37801   2.739   1.085   1.715 -0.1755  0.1525  0.0705
 8723SOL    HW137802   2.728   1.010   1.656  1.9927  0.3085 -0.5478
 8723SOL    HW237803   2.764   1.153   1.652  1.4135 -0.6921 -0.2028
 8724SOL     OW37804   2.842   1.287  11.661  0.0906 -0.2388 -0.0828
 8724SOL    HW137805   2.910   1.331  11.712 -2.0402  1.2683  1.4962
 8724SOL    HW237806   2.806   1.228  11.726 -2.2576  1.2564 -0.0254
 8725SOL     OW37807   0.370   0.016   4.781  0.7745  0.3984  0.0777
 8725SOL    HW137808   0.305   4.700   4.829 -0.1411 -0.3436 -1.9625
 8725SOL    HW237809   0.315   0.048   4.709 -1.5365 -2.1377  0.7266
 8726SOL     OW37810   1.310   1.151  11.256 -0.0490  0.6391  0.4285
 8726SOL    HW137811   1.332   1.112  11.340  0.9425  1.3329  0.4848
 8726SOL    HW237812   1.252   1.080  11.227 -0.8182  1.4500 -0.0159
 8727SOL     OW37813   0.725   3.164   4.507 -0.3334 -0.1194  0.2026
 8727SOL    HW137814   0.761   3.172   4.595  0.6690  2.0098 -0.4147
 8727SOL    HW237815   0.639   3.202   4.522  0.4853  1.0336  1.9284
 8728SOL     OW37816   2.258   0.251  17.383  1.2463  0.1096 -0.0406
 8728SOL    HW137817   2.213   0.327  17.347 -0.8985 -1.0252  0.2056
 8728SOL    HW237818   2.319   0.292  17.444  0.0102  2.5318 -0.4332
 8729SOL     OW37819   1.495   2.459  13.751 -0.0018 -0.6067 -0.3405
 8729SOL    HW137820   1.447   2.495  13.677  0.5268 -2.0540 -1.3898
 8729SOL    HW237821   1.538   2.531  13.797  2.1096 -2.4118  0.5008
 8730SOL     OW37822   0.225   3.550   4.298 -0.5021 -0.1256  0.4730
 8730SOL    HW137823   0.177   3.474   4.266  0.9225 -0.1115 -1.7078
 8730SOL    HW237824   0.164   3.575   4.367 -1.4609 -1.3730  0.0737
 8731SOL     OW37825   0.701   0.694   1.440 -0.1779  0.1579  0.4304
 8731SOL    HW137826   0.652   0.612   1.427  1.8881 -1.1166  0.6834
 8731SOL    HW237827   0.752   0.668   1.517  0.4305 -0.1077 -0.0626
 8732SOL     OW37828   0.576   1.770   6.339  0.2185  0.1353 -0.3580
 8732SOL    HW137829   0.628   1.788   6.417 -1.4763 -0.2981  0.8739
 8732SOL    HW237830   0.561   1.676   6.350  1.0684  0.0697  0.1826
 8733SOL     OW37831   1.658   3.980   4.466  0.2827 -0.0028  0.0027
 8733SOL    HW137832   1.687   3.909   4.523  1.3991  1.1965  0.9322
 8733SOL    HW237833   1.615   4.042   4.525  1.8214  2.0424 -1.0188
 8734SOL     OW37834   3.898   2.832   6.785 -0.0021 -0.2773  0.2615
 8734SOL    HW137835   3.879   2.921   6.817  1.9742 -0.0505  0.7883
 8734SOL    HW237836   3.993   2.842   6.795 -0.3879  1.7712  1.8291
 8735SOL     OW37837   1.405   2.744  11.461 -0.6132 -0.0366 -0.4872
 8735SOL    HW137838   1.457   2.735  11.381 -1.0598 -2.6332 -0.4757
 8735SOL    HW237839   1.450   2.683  11.520 -1.1911  1.2212  1.2473
 8736SOL     OW37840   1.945   1.471   5.117  0.7641  0.5500  0.3762
 8736SOL    HW137841   1.984   1.556   5.139  1.4226  0.4953 -0.5417
 8736SOL    HW237842   1.967   1.465   5.024 -2.4977 -1.2203 -0.2754
 8737SOL     OW37843   4.205   2.431   4.150 -0.4226 -0.2898 -0.4251
 8737SOL    HW137844   4.224   2.371   4.222  0.2796 -0.5146 -0.7908
 8737SOL    HW237845   4.196   2.367   4.080 -0.2968 -1.7645  0.9053
 8738SOL     OW37846   2.473   0.019   3.248 -0.5665 -0.3403  0.4756
 8738SOL    HW137847   2.530   0.093   3.228 -1.0394 -0.3846 -1.0078
 8738SOL    HW237848   2.418   0.007   3.171 -0.2957  0.5266  0.1416
 8739SOL     OW37849   3.351   3.344   0.370 -0.1322 -0.1586 -0.0243
 8739SOL    HW137850   3.371   3.415   0.431  1.3166 -0.7088  0.1254
 8739SOL    HW237851   3.393   3.378   0.292 -1.2147  0.3285 -0.3931
 8740SOL     OW37852   1.105   1.520   3.774 -0.1035  0.2817  0.2981
 8740SOL    HW137853   1.076   1.593   3.828 -3.3949 -1.3495  0.7156
 8740SOL    HW237854   1.157   1.563   3.705 -0.8432  0.3689 -0.2082
 8741SOL     OW37855   0.720   3.936   6.140  0.6888  0.8580  0.5096
 8741SOL    HW137856   0.804   3.892   6.152  1.2447  1.9367  0.6085
 8741SOL    HW237857   0.701   3.955   6.232  1.5226  1.0199  0.6521
 8742SOL     OW37858   0.665   3.364   9.183 -0.3049  0.0544 -0.2932
 8742SOL    HW137859   0.664   3.412   9.265  1.5729 -0.6601  0.1595
 8742SOL    HW237860   0.575   3.371   9.153 -0.2010  0.4146 -0.5173
 8743SOL     OW37861   1.168   4.169   8.491 -0.0423 -0.0061 -0.2765
 8743SOL    HW137862   1.133   4.250   8.529 -0.7578 -1.0488  1.3210
 8743SOL    HW237863   1.262   4.184   8.502 -0.2290  2.0488 -1.5627
 8744SOL     OW37864   3.149   2.049   1.800 -0.3824  0.1617  0.1498
 8744SOL    HW137865   3.223   2.021   1.746 -2.0080 -0.5587 -1.6959
 8744SOL    HW237866   3.184   2.116   1.858 -1.0040  0.8657 -0.2793
 8745SOL     OW37867   0.718   4.012   4.704 -0.4055  0.2159  0.2958
 8745SOL    HW137868   0.701   4.105   4.694  1.1390  0.5719  1.0306
 8745SOL    HW237869   0.810   4.002   4.677 -0.2523 -1.1512  1.2977
 8746SOL     OW37870   3.899   1.227   7.299  0.4209  0.1595 -0.1307
 8746SOL    HW137871   3.949   1.309   7.307 -1.0434  0.8382  2.3013
 8746SOL    HW237872   3.828   1.245   7.362  0.8190 -2.0541  0.9329
 8747SOL     OW37873   2.624   4.127   8.475  0.2300 -0.2298 -0.2767
 8747SOL    HW137874   2.637   4.202   8.533  1.5576  1.5368 -2.8550
 8747SOL    HW237875   2.532   4.149   8.464  0.7976  2.1331 -0.3335
 8748SOL     OW37876   2.726   3.661   3.587 -0.1409  0.0149 -0.3955
 8748SOL    HW137877   2.794   3.607   3.629 -1.3978 -0.6634  0.7648
 8748SOL    HW237878   2.769   3.717   3.523 -1.0443 -0.1756 -1.1531
 8749SOL     OW37879   3.079   3.270   7.551 -0.0165  0.3740 -0.0280
 8749SOL    HW137880   2.998   3.319   7.537 -0.6892 -0.8010 -0.1676
 8749SOL    HW237881   3.064   3.203   7.618 -0.0163 -0.0341 -0.4402
 8750SOL     OW37882   1.448   2.262   3.941 -0.1470 -0.1498  0.6300
 8750SOL    HW137883   1.506   2.212   3.883 -0.5514  0.6110 -0.4277
 8750SOL    HW237884   1.456   2.351   3.905  0.0563 -0.5795 -0.3753
 8751SOL     OW37885   4.415   0.310   3.171  0.1546  0.1497  0.1488
 8751SOL    HW137886   4.450   0.359   3.246 -2.1632 -0.2707  1.5311
 8751SOL    HW237887   4.417   0.378   3.103  0.1860 -0.8612 -0.8529
 8752SOL     OW37888   4.729   4.617   4.423 -0.2008  0.0780 -0.6396
 8752SOL    HW137889   4.667   4.583   4.488  0.3151  2.3702  1.0331
 8752SOL    HW237890   0.026   4.700   4.457  0.9225 -1.0911  1.1859
 8753SOL     OW37891   3.799   0.871   7.499 -0.1677  0.0936  0.2400
 8753SOL    HW137892   3.836   0.834   7.419  1.0158 -0.1603  0.8942
 8753SOL    HW237893   3.877   0.920   7.526 -0.2846  0.8685 -0.8152
 8754SOL     OW37894   3.712   1.971   8.048  0.5566 -0.2529 -0.2800
 8754SOL    HW137895   3.704   1.886   8.006  0.9887 -0.4374  0.0113
 8754SOL    HW237896   3.688   2.026   7.973 -0.7538 -0.0813  0.2548
 8755SOL     OW37897   1.123   1.170   7.926 -0.0627  0.1028 -0.5256
 8755SOL    HW137898   1.049   1.171   7.866 -0.6968  4.6766  0.3321
 8755SOL    HW237899   1.094   1.179   8.017 -0.9836 -0.0374 -0.8084
 8756SOL     OW37900   2.311   4.345   1.844  0.3331  0.2703 -0.6615
 8756SOL    HW137901   2.233   4.397   1.821 -1.2261 -1.3819  0.8947
 8756SOL    HW237902   2.281   4.267   1.889 -0.2857  1.6929  1.3722
 8757SOL     OW37903   3.256   0.951   0.072  0.4913  0.6775  0.2943
 8757SOL    HW137904   3.187   0.902   0.117  0.5441  0.2941 -0.0411
 8757SOL    HW237905   3.298   0.991   0.148  1.8572  0.6075 -0.4350
 8758SOL     OW37906   2.350   0.813   1.066 -0.5316  0.1001 -0.1090
 8758SOL    HW137907   2.333   0.759   0.989 -0.5721 -0.2654  0.1541
 8758SOL    HW237908   2.370   0.898   1.026  0.3555  0.1880  0.5140
 8759SOL     OW37909   1.159   1.783   9.648 -0.8253 -0.3631  0.0897
 8759SOL    HW137910   1.097   1.812   9.581  0.3460 -0.3273 -0.9690
 8759SOL    HW237911   1.181   1.702   9.601  2.2764  0.8948 -0.6368
 8760SOL     OW37912   1.035   0.223   2.130 -0.8597  0.5204 -0.2458
 8760SOL    HW137913   1.052   0.167   2.054 -0.0358 -0.9042  0.9809
 8760SOL    HW237914   1.063   0.309   2.100  1.5880 -0.1471  0.1354
 8761SOL     OW37915   2.209   4.700   5.985  0.7639 -0.9337 -0.7624
 8761SOL    HW137916   2.141   4.647   5.945 -2.6496  2.8471  0.0870
 8761SOL    HW237917   2.231   0.037   5.926  0.2851  0.2917  0.5455
 8762SOL     OW37918   0.180   1.944   2.752  0.1624  0.6280  0.3645
 8762SOL    HW137919   0.177   1.875   2.819 -1.4352 -0.4836 -0.8382
 8762SOL    HW237920   0.185   1.885   2.677  1.8664  1.3399 -0.0608
 8763SOL     OW37921   0.701   3.116   9.294 -0.0620  0.1212  0.3138
 8763SOL    HW137922   0.724   3.187   9.234 -1.5032  0.2723 -0.0610
 8763SOL    HW237923   0.789   3.114   9.330  0.2154 -0.7479 -0.4175
 8764SOL     OW37924   4.624   4.066   7.005  0.1680 -0.4175  0.0094
 8764SOL    HW137925   4.658   4.096   6.921  0.8948 -0.3280  0.3377
 8764SOL    HW237926   4.579   4.148   7.027 -2.1013 -1.8037  0.6147
 8765SOL     OW37927   2.727   4.261   3.401 -0.2191  0.6344  0.3416
 8765SOL    HW137928   2.766   4.334   3.450  0.7587  1.0276 -1.0207
 8765SOL    HW237929   2.737   4.295   3.312 -1.2020  1.6419  0.6208
 8766SOL     OW37930   1.740   2.324   6.298 -0.0959  0.1523  0.5828
 8766SOL    HW137931   1.695   2.241   6.281  0.9249 -0.3658  0.4003
 8766SOL    HW237932   1.694   2.351   6.377 -1.4717  0.2326 -0.2308
 8767SOL     OW37933   3.709   2.896   9.007  0.3576 -0.1259 -0.0230
 8767SOL    HW137934   3.647   2.902   9.081 -0.5247  1.5920 -0.8940
 8767SOL    HW237935   3.650   2.864   8.939 -1.1564  0.4475  1.0189
 8768SOL     OW37936   3.987   0.027   5.404 -0.3089 -0.1067 -0.5689
 8768SOL    HW137937   4.007   4.668   5.405  2.4733  0.4974 -0.4707
 8768SOL    HW237938   4.039   0.064   5.475  0.2927 -1.2426 -0.4190
 8769SOL     OW37939   0.798   0.936  10.714  0.1966  0.0175 -0.1979
 8769SOL    HW137940   0.886   0.930  10.675 -0.2881  0.7608 -1.3833
 8769SOL    HW237941   0.778   0.843  10.700 -0.7848  0.4754 -1.8001
 8770SOL     OW37942   4.140   2.561   3.678  0.6194 -0.1303 -0.3788
 8770SOL    HW137943   4.131   2.581   3.585  0.6846  0.9812 -0.1416
 8770SOL    HW237944   4.048   2.560   3.706  1.3850 -0.4902  2.1121
 8771SOL     OW37945   3.033   0.241  11.117  0.3602  0.1372  0.2145
 8771SOL    HW137946   3.116   0.253  11.164  0.4146 -1.1823  0.4580
 8771SOL    HW237947   2.998   0.330  11.114 -2.7756 -1.1648 -1.9486
 8772SOL     OW37948   1.362   0.737   2.836 -0.1242  0.3263 -0.5367
 8772SOL    HW137949   1.446   0.753   2.793  0.4725  1.9140  1.1999
 8772SOL    HW237950   1.379   0.785   2.917 -3.6016  0.4766  0.0850
 8773SOL     OW37951   1.895   3.805   3.781  0.0058  0.3264  0.4967
 8773SOL    HW137952   1.944   3.834   3.857  1.2230  0.4478 -0.3426
 8773SOL    HW237953   1.843   3.884   3.764  1.5416  1.0960 -0.6292
 8774SOL     OW37954   2.627   2.653   4.024  0.1718  0.0961  0.4610
 8774SOL    HW137955   2.547   2.685   4.066  1.3544  2.2805  1.0742
 8774SOL    HW237956   2.635   2.710   3.947 -0.8259  3.1280  2.6081
 8775SOL     OW37957   3.154   0.260  14.675 -0.2892  0.3575  0.4942
 8775SOL    HW137958   3.153   0.311  14.756 -1.8742  1.4366 -0.2218
 8775SOL    HW237959   3.189   0.314  14.604  0.5345 -1.9017 -0.8481
 8776SOL     OW37960   2.182   1.991  16.929 -0.3955 -0.0512  0.2755
 8776SOL    HW137961   2.127   2.066  16.953  0.2671  0.9179 -1.2199
 8776SOL    HW237962   2.139   1.921  16.979 -1.6445  1.3411  1.1456
 8777SOL     OW37963   1.685   1.536   0.831 -0.5119  0.6734  0.0206
 8777SOL    HW137964   1.634   1.617   0.825  3.1284  2.8159 -2.0180
 8777SOL    HW237965   1.683   1.497   0.744 -0.4658 -0.2241  0.4187
 8778SOL     OW37966   2.536   1.709   3.851 -0.8033  0.2530  0.0274
 8778SOL    HW137967   2.550   1.799   3.821 -0.6632  0.7879  1.6953
 8778SOL    HW237968   2.448   1.716   3.888 -1.3663 -0.3786 -1.1812
 8779SOL     OW37969   4.065   1.960   3.285  0.0015 -0.8744 -0.4380
 8779SOL    HW137970   4.047   1.866   3.280  2.1641 -1.2906 -0.2853
 8779SOL    HW237971   4.111   1.963   3.201 -0.2675 -0.0210 -0.5608
 8780SOL     OW37972   3.556   3.353   2.567  0.3859  0.0348  0.4323
 8780SOL    HW137973   3.616   3.288   2.603  1.6119 -0.0155 -1.7135
 8780SOL    HW237974   3.518   3.378   2.652 -0.4760  1.8292 -0.4757
 8781SOL     OW37975   3.621   2.771   6.107  0.1015  0.2211 -0.5021
 8781SOL    HW137976   3.580   2.723   6.179  1.2827 -2.2180 -1.4721
 8781SOL    HW237977   3.703   2.802   6.145  1.5834 -1.6720 -2.1733
 8782SOL     OW37978   2.054   2.629   3.230  0.4710 -0.0179  0.3229
 8782SOL    HW137979   2.013   2.611   3.315  0.4084 -0.6086  0.1697
 8782SOL    HW237980   2.105   2.550   3.213  1.0491  0.3577  0.3122
 8783SOL     OW37981   4.631   0.148   4.683 -0.1524 -0.3881  0.1871
 8783SOL    HW137982   4.566   0.217   4.670  0.2521  0.0678  0.6445
 8783SOL    HW237983   4.673   0.151   4.596 -0.1599  1.6316  0.2634
 8784SOL     OW37984   0.016   1.540   5.367  0.1425 -0.4017  0.4084
 8784SOL    HW137985   0.073   1.467   5.388  0.3692 -0.3659 -0.0840
 8784SOL    HW237986   4.731   1.566   5.457 -1.0648  0.5561 -0.1306
 8785SOL     OW37987   1.186   1.159   4.543  0.1240 -0.2696  0.6044
 8785SOL    HW137988   1.093   1.153   4.525 -0.4741  1.1765  3.3106
 8785SOL    HW237989   1.178   1.238   4.596 -1.1104  0.7832 -1.1660
 8786SOL     OW37990   2.238   4.193  13.973  0.0597  0.0571  0.1155
 8786SOL    HW137991   2.301   4.122  13.983 -0.5572 -0.1597  2.5326
 8786SOL    HW237992   2.232   4.214  14.067 -0.5910 -1.9744  0.5153
 8787SOL     OW37993   0.374   2.286   9.796 -0.5881  0.2646  0.1323
 8787SOL    HW137994   0.384   2.349   9.867  3.2195 -0.2570  0.0555
 8787SOL    HW237995   0.428   2.215   9.831 -0.7100 -0.2286 -0.6718
 8788SOL     OW37996   1.560   2.614   5.415  0.6713  0.1646  0.2388
 8788SOL    HW137997   1.599   2.533   5.449 -0.5033 -1.6959 -2.9062
 8788SOL    HW237998   1.520   2.584   5.333  0.0419  1.2602  0.1592
 8789SOL     OW37999   0.099   4.126  15.879 -0.1221 -0.4260 -0.1867
 8789SOL    HW138000   0.118   4.201  15.822 -2.4785  0.0108 -0.4058
 8789SOL    HW238001   0.008   4.142  15.904 -0.2332 -1.1084 -0.1499
 8790SOL     OW38002   2.171   2.421   0.857  0.5716 -0.2091  0.0323
 8790SOL    HW138003   2.214   2.498   0.821  0.2002 -0.8561 -1.8022
 8790SOL    HW238004   2.244   2.360   0.855  2.3275  1.9394 -2.1058
 8791SOL     OW38005   2.196   1.853   4.461 -0.1169 -0.3385  0.2118
 8791SOL    HW138006   2.265   1.917   4.476 -0.1248  0.0688 -1.5361
 8791SOL    HW238007   2.124   1.880   4.518 -1.1497  1.9609 -2.1668
 8792SOL     OW38008   3.210   0.927  17.237  0.0689 -0.5142 -0.2364
 8792SOL    HW138009   3.234   1.014  17.206 -0.2100  0.1380  1.3804
 8792SOL    HW238010   3.164   0.953  17.317  1.4590  0.8409  0.1222
 8793SOL     OW38011   2.419   4.708   2.147  0.3761 -0.6305  0.6293
 8793SOL    HW138012   2.339   4.690   2.097 -0.3081 -0.9022  1.8138
 8793SOL    HW238013   2.457   4.621   2.141  0.8776 -0.1818 -2.6149
 8794SOL     OW38014   0.613   2.556   8.499  0.1058  0.7477 -0.0174
 8794SOL    HW138015   0.536   2.509   8.468  0.2362  0.6528 -0.1952
 8794SOL    HW238016   0.650   2.585   8.416 -1.1461  0.0469 -0.8212
 8795SOL     OW38017   2.818   3.022   8.933  0.5663 -0.2023 -0.2943
 8795SOL    HW138018   2.782   2.993   8.849  0.5000  2.3420 -1.1307
 8795SOL    HW238019   2.741   3.061   8.973 -0.0370 -1.8244  0.1248
 8796SOL     OW38020   0.922   4.058  10.695 -0.3146 -0.2545  0.1179
 8796SOL    HW138021   0.979   3.998  10.744 -2.6918 -3.0706 -0.5683
 8796SOL    HW238022   0.887   4.114  10.764  0.2988  3.4578 -2.5899
 8797SOL     OW38023   3.022   1.303   6.638 -0.1803  0.2365 -0.2350
 8797SOL    HW138024   3.117   1.290   6.636 -0.0636  1.2381 -1.3354
 8797SOL    HW238025   2.981   1.217   6.641 -3.1582  1.6469 -0.6520
 8798SOL     OW38026   0.142   3.685   5.463 -0.5753 -0.2330 -0.0398
 8798SOL    HW138027   0.138   3.605   5.410 -0.7141 -0.3846  0.1984
 8798SOL    HW238028   0.228   3.684   5.506 -0.4921  0.7872 -0.1768
 8799SOL     OW38029   2.479   4.300   0.325 -0.1381  0.1093  0.1296
 8799SOL    HW138030   2.549   4.235   0.327  3.2077  3.6322 -1.4362
 8799SOL    HW238031   2.520   4.385   0.338 -0.6775  0.1664  1.4450
 8800SOL     OW38032   4.502   2.481   8.359  0.4270  0.1990 -0.0541
 8800SOL    HW138033   4.564   2.531   8.413 -1.3932  0.6310  1.6587
 8800SOL    HW238034   4.420   2.480   8.409  0.1517  0.1630 -0.5155
 8801SOL     OW38035   0.136   1.074  13.917 -0.4643  0.1911  0.1339
 8801SOL    HW138036   0.080   1.147  13.945  0.2236 -0.0612  2.1550
 8801SOL    HW238037   0.103   1.069  13.827  0.0990 -1.9928  0.0386
 8802SOL     OW38038   3.655   1.688   1.391  0.0347  0.4033 -0.7945
 8802SOL    HW138039   3.622   1.598   1.386 -1.7775  0.8921  1.9743
 8802SOL    HW238040   3.587   1.739   1.347 -1.4339 -2.2727 -1.5883
 8803SOL     OW38041   1.063   1.022   7.616  0.3899 -0.3280  0.5804
 8803SOL    HW138042   1.013   0.980   7.686 -2.6763  1.0749 -0.7892
 8803SOL    HW238043   1.120   0.950   7.589 -0.2163 -0.6777  0.2346
 8804SOL     OW38044   2.172   2.169  17.616  0.0705 -0.1845  0.1871
 8804SOL    HW138045   2.132   2.154  17.701  0.5686  2.1106  0.8160
 8804SOL    HW238046   2.107   2.228  17.576  0.5432  1.6003  2.0482
 8805SOL     OW38047   1.352   2.830   4.587  0.1494  0.1785  0.0770
 8805SOL    HW138048   1.302   2.750   4.600  2.2086 -1.1490 -0.1470
 8805SOL    HW238049   1.424   2.783   4.545  0.6450  0.7954  0.2264
 8806SOL     OW38050   3.571   3.991   6.231 -0.2344 -0.2191 -0.0915
 8806SOL    HW138051   3.631   3.919   6.212  0.6395 -0.1168  2.2822
 8806SOL    HW238052   3.549   4.023   6.144  1.8555  0.2426 -0.4458
 8807SOL     OW38053   3.489   2.680   7.412  0.4634 -0.0264 -0.0971
 8807SOL    HW138054   3.398   2.655   7.395  0.9051 -1.7927  0.0988
 8807SOL    HW238055   3.500   2.736   7.335  0.3119 -0.5703 -0.5176
 8808SOL     OW38056   0.295   0.914   0.299  0.1161 -0.4822  0.0251
 8808SOL    HW138057   0.215   0.864   0.319  0.0455 -1.5579 -3.0326
 8808SOL    HW238058   0.342   0.914   0.383 -0.5108  2.0822  0.3683
 8809SOL     OW38059   0.102   0.642  12.567 -0.1473  0.1847  0.3238
 8809SOL    HW138060   0.037   0.659  12.635 -0.0362  2.0323 -0.0279
 8809SOL    HW238061   0.181   0.646  12.622 -0.1243 -1.8138  0.4317
 8810SOL     OW38062   0.593   2.938   8.379 -0.0148 -0.3837 -0.2891
 8810SOL    HW138063   0.632   3.008   8.327 -0.9115  0.0305 -0.4033
 8810SOL    HW238064   0.508   2.929   8.336 -2.7518  1.4694  4.7361
 8811SOL     OW38065   1.181   1.558  15.496 -0.7000  0.7429 -0.6020
 8811SOL    HW138066   1.186   1.634  15.437 -1.9304  1.6144  0.4145
 8811SOL    HW238067   1.159   1.490  15.433  2.0529 -1.1382  0.4994
 8812SOL     OW38068   3.167   3.598   6.629 -0.6234 -0.4556 -0.5482
 8812SOL    HW138069   3.124   3.567   6.549 -0.3340 -0.3250 -0.7552
 8812SOL    HW238070   3.253   3.558   6.618 -1.1848 -1.5793 -0.8654
 8813SOL     OW38071   3.338   2.030   5.380  0.0344 -0.1898  0.3544
 8813SOL    HW138072   3.360   2.042   5.288 -2.2045  0.1927 -0.1361
 8813SOL    HW238073   3.395   2.098   5.417 -3.6119  1.3858  3.0913
 8814SOL     OW38074   0.185   3.549  17.717 -0.6770  0.4265 -0.3751
 8814SOL    HW138075   0.236   3.543  17.637 -3.3086 -1.1543 -1.9499
 8814SOL    HW238076   0.251   3.578   0.040  2.1975 -5.3784 -0.7563
 8815SOL     OW38077   2.339   1.595   3.994 -0.0058 -0.4954 -0.3542
 8815SOL    HW138078   2.303   1.507   4.004 -1.2809  0.0983  0.2250
 8815SOL    HW238079   2.323   1.623   4.084  0.8244 -0.6937 -0.1468
 8816SOL     OW38080   0.968   3.711   8.057  0.6065 -0.3970  0.0066
 8816SOL    HW138081   0.901   3.650   8.088  2.2311 -2.0660  0.2673
 8816SOL    HW238082   1.010   3.734   8.140  0.7039  0.8417 -0.3890
 8817SOL     OW38083   0.579   2.333   9.394  0.6771  0.0126 -0.2696
 8817SOL    HW138084   0.672   2.342   9.375  1.3967 -1.2189  2.7164
 8817SOL    HW238085   0.542   2.362   9.310  1.8092  0.2289 -0.6949
 8818SOL     OW38086   2.640   3.836  16.402 -0.3281 -0.5098  0.8058
 8818SOL    HW138087   2.577   3.786  16.350  0.1930  0.7843 -1.0770
 8818SOL    HW238088   2.629   3.928  16.378 -1.3550 -0.5652  1.0715
 8819SOL     OW38089   3.050   1.863  10.857 -0.1155 -0.1883  0.4646
 8819SOL    HW138090   3.079   1.840  10.945  0.4822  2.4756  0.9474
 8819SOL    HW238091   3.026   1.952  10.883 -1.9304 -0.3096 -0.7845
 8820SOL     OW38092   2.510   0.249   2.272  0.4811  0.0141 -0.5303
 8820SOL    HW138093   2.434   0.297   2.240  1.0141 -0.4093 -2.4514
 8820SOL    HW238094   2.511   0.160   2.235 -0.3899 -0.1931 -0.0482
 8821SOL     OW38095   3.278   2.262   9.278  0.1164 -0.7058  0.1699
 8821SOL    HW138096   3.287   2.212   9.359  0.0497 -0.3577  0.3930
 8821SOL    HW238097   3.359   2.238   9.232 -0.2268  0.7211 -1.1963
 8822SOL     OW38098   0.446   1.684   8.020  0.5493  0.5269  0.1423
 8822SOL    HW138099   0.444   1.774   7.985  0.8613  0.6494  0.4422
 8822SOL    HW238100   0.497   1.694   8.101 -1.1014 -1.3100  1.3975
 8823SOL     OW38101   3.188   1.493  17.184 -0.1353 -0.1416  0.5419
 8823SOL    HW138102   3.238   1.426  17.137  0.4315  1.1254 -0.6628
 8823SOL    HW238103   3.098   1.464  17.177 -0.5230  0.8033  1.5647
 8824SOL     OW38104   3.405   1.389  17.018  0.8369 -0.3372 -0.0772
 8824SOL    HW138105   3.460   1.439  16.958  1.4605 -0.8964  0.0306
 8824SOL    HW238106   3.438   1.417  17.103  0.6470 -0.3105 -0.0120
 8825SOL     OW38107   0.517   2.104   0.209 -0.6456 -0.2431  0.7150
 8825SOL    HW138108   0.510   2.026   0.154 -0.2579  0.6169 -0.5339
 8825SOL    HW238109   0.562   2.063   0.283  0.8640  0.3050  0.0954
 8826SOL     OW38110   1.512   0.541   4.185  0.0883  0.1655 -0.4889
 8826SOL    HW138111   1.517   0.635   4.200  2.2892  0.0676 -0.5328
 8826SOL    HW238112   1.493   0.536   4.092 -0.1782 -1.0778 -0.3712
 8827SOL     OW38113   2.655   2.762   9.886 -0.1536 -0.8254 -0.6165
 8827SOL    HW138114   2.741   2.798   9.865 -0.5714 -0.0176 -0.9093
 8827SOL    HW238115   2.596   2.831   9.856  1.0564  1.2264  1.7801
 8828SOL     OW38116   4.720   0.038  17.559 -0.7465  0.4687 -0.1798
 8828SOL    HW138117   0.058   0.098  17.541 -0.1994 -0.2735 -0.4417
 8828SOL    HW238118   4.720   4.707  17.490 -1.0496  1.1871 -0.8716
 8829SOL     OW38119   4.215   2.009  10.407  1.0468 -0.0548  0.2598
 8829SOL    HW138120   4.186   1.921  10.382  1.6704 -0.3044  0.4256
 8829SOL    HW238121   4.194   1.998  10.500 -2.2873 -2.0201 -0.7345
 8830SOL     OW38122   3.025   2.498   8.795 -0.6987  0.2464 -0.2790
 8830SOL    HW138123   3.100   2.503   8.854 -1.2344  0.3824  0.3797
 8830SOL    HW238124   2.966   2.441   8.844 -0.1024  1.5506  1.9311
 8831SOL     OW38125   4.169   4.219   5.271 -0.4396 -0.4249 -0.3549
 8831SOL    HW138126   4.254   4.198   5.311 -0.1052  1.0485 -0.3056
 8831SOL    HW238127   4.154   4.146   5.211 -2.2591 -0.6399  0.3602
 8832SOL     OW38128   0.880   2.978   6.782 -0.1592  0.8665 -0.0832
 8832SOL    HW138129   0.941   2.980   6.856 -0.0469  1.2169 -0.1817
 8832SOL    HW238130   0.810   3.036   6.812  0.0130  0.8433  0.3673
 8833SOL     OW38131   3.674   3.425   2.160 -0.1686 -0.4436 -0.0755
 8833SOL    HW138132   3.614   3.474   2.104 -0.7164 -0.2515  0.6876
 8833SOL    HW238133   3.753   3.478   2.154 -0.1894 -0.2435  1.3659
 8834SOL     OW38134   3.340   2.738  13.016 -0.0869 -0.0499  0.6120
 8834SOL    HW138135   3.390   2.753  12.935 -0.1516 -0.4982  0.4885
 8834SOL    HW238136   3.375   2.653  13.041 -2.6790 -1.1925  0.2582
 8835SOL     OW38137   4.185   3.592   5.476 -0.4169  0.3998  0.2065
 8835SOL    HW138138   4.266   3.613   5.523 -0.7688 -3.5656  2.5598
 8835SOL    HW238139   4.221   3.581   5.388 -0.2461  0.5076  0.2621
 8836SOL     OW38140   2.450   1.441   0.133 -0.5880  0.1397  0.2170
 8836SOL    HW138141   2.411   1.368   0.084 -1.8280  1.0139 -0.0950
 8836SOL    HW238142   2.432   1.516   0.076  2.4065  0.5445 -0.2009
 8837SOL     OW38143   1.326   0.708  11.058 -0.2288  0.4405  0.3153
 8837SOL    HW138144   1.356   0.736  10.971  2.4763  0.9793  1.4443
 8837SOL    HW238145   1.384   0.632  11.066 -3.1848 -1.8252  0.3496
 8838SOL     OW38146   2.124   3.486  16.533  0.1862  0.5618  0.3031
 8838SOL    HW138147   2.135   3.577  16.506  0.7677  0.5445  0.4849
 8838SOL    HW238148   2.030   3.490  16.552  0.2740  1.8775  0.4233
 8839SOL     OW38149   3.830   4.290   6.526  0.4216  0.0688 -0.3677
 8839SOL    HW138150   3.882   4.220   6.487  0.1254 -0.4530  0.1731
 8839SOL    HW238151   3.889   4.364   6.513  0.3370  0.3224  0.6484
 8840SOL     OW38152   1.918   2.994   4.462 -0.3749  0.3781  0.2510
 8840SOL    HW138153   1.882   2.949   4.539 -1.2960  0.0058 -0.3887
 8840SOL    HW238154   1.935   2.927   4.395  0.0393  0.6988  0.0413
 8841SOL     OW38155   1.715   2.171  12.084  0.2536 -0.0295 -0.2028
 8841SOL    HW138156   1.722   2.075  12.087 -0.1698 -0.0462  0.2987
 8841SOL    HW238157   1.645   2.189  12.147 -0.4500  1.6919 -1.4745
 8842SOL     OW38158   3.133   2.359   5.162  0.3048 -0.0295  0.2144
 8842SOL    HW138159   3.190   2.388   5.233 -1.5564 -1.0178  2.1185
 8842SOL    HW238160   3.050   2.402   5.181 -0.2175 -0.7565 -0.4033
 8843SOL     OW38161   1.878   0.508   8.542  0.0334 -0.0176  0.4426
 8843SOL    HW138162   1.863   0.602   8.558 -2.2363 -0.6534  2.1406
 8843SOL    HW238163   1.928   0.500   8.624  0.9652  1.6378  0.0439
 8844SOL     OW38164   0.468   2.770   0.518 -0.5166  0.0365 -0.1081
 8844SOL    HW138165   0.398   2.712   0.487 -1.3377  0.2376  1.3475
 8844SOL    HW238166   0.462   2.840   0.453  0.7749 -0.7185 -1.0348
 8845SOL     OW38167   1.824   1.011   6.027 -0.0581 -0.6121 -0.0433
 8845SOL    HW138168   1.891   0.944   6.034  0.2787 -0.0729  1.9158
 8845SOL    HW238169   1.839   1.030   5.934  0.2432 -1.0140 -0.0733
 8846SOL     OW38170   2.996   0.833   8.373  0.5181 -0.2525  0.6599
 8846SOL    HW138171   2.916   0.781   8.379  0.1401  0.4226  1.5250
 8846SOL    HW238172   3.034   0.817   8.460  0.5909  0.1201  0.6982
 8847SOL     OW38173   2.710   4.243   9.173 -0.0342  0.1958 -0.6650
 8847SOL    HW138174   2.639   4.200   9.126 -0.3014  1.3715 -1.3313
 8847SOL    HW238175   2.664   4.293   9.240 -1.2686 -0.2504 -1.1736
 8848SOL     OW38176   1.350   4.206   4.429  0.0366  0.4699  0.0505
 8848SOL    HW138177   1.392   4.162   4.503  1.5214  0.1564 -0.9808
 8848SOL    HW238178   1.424   4.248   4.385 -0.5401 -1.0896 -2.3829
 8849SOL     OW38179   4.528   4.480   1.544  0.1523 -0.2819 -0.4829
 8849SOL    HW138180   4.443   4.519   1.527  0.0243 -0.5014 -0.3451
 8849SOL    HW238181   4.518   4.391   1.510 -0.9538 -1.2700  2.4320
 8850SOL     OW38182   1.289   1.815  17.466 -0.2071 -0.3054 -1.1521
 8850SOL    HW138183   1.293   1.751  17.394 -1.7754 -1.2107 -0.4094
 8850SOL    HW238184   1.353   1.775  17.525  1.6047  2.2632 -1.3785
 8851SOL     OW38185   3.056   4.500  12.307  0.2439  0.4296 -0.4978
 8851SOL    HW138186   2.981   4.443  12.289  0.4747 -0.7429  2.3448
 8851SOL    HW238187   3.040   4.575  12.248 -1.9630  0.0617 -0.3775
 8852SOL     OW38188   2.666   1.064  15.702 -0.3830  0.0316 -0.2963
 8852SOL    HW138189   2.740   1.113  15.738  0.2979  0.0807 -1.7339
 8852SOL    HW238190   2.704   1.000  15.641 -0.3607 -0.8010  0.5903
 8853SOL     OW38191   3.459   2.681   3.118  0.5577 -0.2106 -0.3049
 8853SOL    HW138192   3.528   2.737   3.082  0.7688  2.0125  3.4979
 8853SOL    HW238193   3.383   2.718   3.074  0.6400  0.7399  0.3368
 8854SOL     OW38194   0.144   1.178   4.830 -0.4685 -0.1215 -0.0246
 8854SOL    HW138195   0.192   1.138   4.902  1.3401 -0.0919 -1.2132
 8854SOL    HW238196   0.148   1.272   4.849  1.7493 -0.3733  0.7290
 8855SOL     OW38197   0.011   0.937   2.283 -0.8805  0.0325  0.4747
 8855SOL    HW138198   4.702   0.979   2.209 -0.3728 -1.2319 -0.5368
 8855SOL    HW238199   4.725   0.999   2.353 -2.5251 -2.9713  2.6576
 8856SOL     OW38200   1.569   0.546   5.385 -0.5103  0.6617  0.2501
 8856SOL    HW138201   1.533   0.483   5.324 -1.2520 -0.1791  1.5560
 8856SOL    HW238202   1.590   0.481   5.453 -0.2478  0.5242  0.0387
 8857SOL     OW38203   1.200   0.063  11.481  0.4796  0.4684  0.5762
 8857SOL    HW138204   1.186   0.108  11.397 -2.1099  1.5525  1.6092
 8857SOL    HW238205   1.151   4.718  11.465  0.5446  0.6276 -0.4226
 8858SOL     OW38206   0.596   1.196   6.810 -0.2865  0.0835 -0.1403
 8858SOL    HW138207   0.614   1.220   6.901  1.2349 -2.1396  0.1471
 8858SOL    HW238208   0.505   1.221   6.796  0.0719  1.9771  0.8976
 8859SOL     OW38209   1.803   4.732   4.225 -0.1905 -0.7687  0.3688
 8859SOL    HW138210   1.816   4.668   4.296  1.8220 -1.1894 -0.3875
 8859SOL    HW238211   1.897   0.002   4.206 -0.1305  1.0654  1.1697
 8860SOL     OW38212   2.318   2.680   2.169 -0.0357 -0.3812 -0.3346
 8860SOL    HW138213   2.225   2.690   2.187  0.4418 -0.2413  2.0605
 8860SOL    HW238214   2.353   2.762   2.135  0.9144 -0.4694  0.4508
 8861SOL     OW38215   4.677   4.209   2.858 -0.4739  0.0781 -0.2962
 8861SOL    HW138216   4.604   4.271   2.848  0.0392  0.7018 -0.1903
 8861SOL    HW238217   4.722   4.261   2.924 -0.6027 -0.4242  0.1831
 8862SOL     OW38218   3.859   0.765   1.861  0.3292  0.1962 -0.7009
 8862SOL    HW138219   3.845   0.852   1.823 -0.8904  1.0955  1.7771
 8862SOL    HW238220   3.764   0.753   1.870  0.7592 -4.2500 -2.2018
 8863SOL     OW38221   2.495   3.932   0.173  0.2697  0.3531  0.2296
 8863SOL    HW138222   2.512   4.016   0.130  1.2140  0.5556  1.0039
 8863SOL    HW238223   2.438   3.881   0.116  1.4216 -0.9472  0.2311
 8864SOL     OW38224   0.457   2.922   1.700 -0.3232 -0.5454 -0.2391
 8864SOL    HW138225   0.392   2.987   1.672  1.5325  2.2039  1.7790
 8864SOL    HW238226   0.415   2.897   1.782  0.3338 -2.0022 -0.3610
 8865SOL     OW38227   3.668   2.026  15.745 -0.1746  0.1207 -0.0372
 8865SOL    HW138228   3.628   2.100  15.791  1.1297 -1.8333  4.2071
 8865SOL    HW238229   3.633   2.042  15.658 -2.7109 -0.2522  0.9170
 8866SOL     OW38230   1.078   0.991   5.630  0.3743  0.2834  0.2825
 8866SOL    HW138231   1.119   0.940   5.560 -0.7825  1.8808 -1.5716
 8866SOL    HW238232   1.041   0.925   5.688  0.7084  0.7373  1.0047
 8867SOL     OW38233   4.321   3.873   4.176 -0.1552  0.2278 -0.1136
 8867SOL    HW138234   4.306   3.796   4.121 -0.2533  1.0083 -1.1950
 8867SOL    HW238235   4.383   3.918   4.119  1.6166 -2.4227 -0.2835
 8868SOL     OW38236   3.559   3.811   1.864 -0.3120 -0.7298 -0.1003
 8868SOL    HW138237   3.652   3.834   1.857 -0.3445 -0.9376 -1.1717
 8868SOL    HW238238   3.554   3.786   1.956  1.5842 -0.4868  0.0745
 8869SOL     OW38239   0.532   3.129  11.475 -0.6250  0.3814  0.0269
 8869SOL    HW138240   0.487   3.143  11.558 -0.1488 -0.8199  0.4833
 8869SOL    HW238241   0.503   3.207  11.427  0.4935 -0.1043 -1.4425
 8870SOL     OW38242   2.442   2.490   1.996  0.1728 -0.0439  0.3276
 8870SOL    HW138243   2.383   2.546   2.047  1.3589  0.5819  1.0068
 8870SOL    HW238244   2.458   2.550   1.923 -0.0688  0.2565  0.5224
 8871SOL     OW38245   1.453   0.410   1.539 -0.0155  0.5030  0.5775
 8871SOL    HW138246   1.360   0.432   1.532 -0.7532 -2.5942  0.6246
 8871SOL    HW238247   1.472   0.388   1.448  0.5796  1.0417  0.5748
 8872SOL     OW38248   1.497   1.676  10.064 -0.2754  0.1671 -0.2246
 8872SOL    HW138249   1.443   1.646   9.991  0.1357  1.6772 -1.1658
 8872SOL    HW238250   1.423   1.682  10.124  0.2183 -0.7062  0.4727
 8873SOL     OW38251   0.945   0.582   5.438  0.2157  0.1365  0.4200
 8873SOL    HW138252   0.977   0.608   5.525 -0.3269  1.9542  0.0834
 8873SOL    HW238253   0.901   0.662   5.411  0.5822  1.0223  2.4153
 8874SOL     OW38254   1.798   2.359   7.902  0.2028  0.9318 -0.2030
 8874SOL    HW138255   1.836   2.425   7.843  1.0486 -0.2499 -0.9835
 8874SOL    HW238256   1.823   2.279   7.856 -1.7858 -0.2761  0.8158
 8875SOL     OW38257   0.841   4.457   0.685 -0.1287 -0.5761  0.3651
 8875SOL    HW138258   0.870   4.526   0.746 -2.4598 -1.0597  2.0686
 8875SOL    HW238259   0.749   4.483   0.683 -0.1491 -0.6262  0.5886
 8876SOL     OW38260   3.668   4.098   3.211  0.1777 -0.1741 -0.1738
 8876SOL    HW138261   3.576   4.121   3.221 -0.2554 -1.8693 -0.2591
 8876SOL    HW238262   3.695   4.049   3.289 -0.4624 -2.4638 -1.3907
 8877SOL     OW38263   2.505   1.776   7.631 -0.5958 -0.2987 -0.2875
 8877SOL    HW138264   2.474   1.862   7.659  2.0710  0.9649 -1.1699
 8877SOL    HW238265   2.594   1.774   7.666 -0.2302 -0.5039 -1.2256
 8878SOL     OW38266   4.225   0.384  15.569 -0.7973 -0.0705 -0.0471
 8878SOL    HW138267   4.206   0.461  15.623 -1.8222  0.4940 -1.2105
 8878SOL    HW238268   4.252   0.327  15.641 -0.2539  1.5704  1.0491
 8879SOL     OW38269   0.989   1.737   2.118 -0.9373 -0.2168  0.4455
 8879SOL    HW138270   0.998   1.771   2.029 -3.3271 -0.0224  0.2889
 8879SOL    HW238271   1.082   1.727   2.138 -0.5641  0.9583 -0.6790
 8880SOL     OW38272   4.640   3.052   2.075  0.4298  0.0695  0.4781
 8880SOL    HW138273   4.729   3.085   2.090  0.8099  0.5968 -2.8911
 8880SOL    HW238274   4.600   3.059   2.161 -0.2751  2.3446 -0.0250
 8881SOL     OW38275   1.349   3.632  16.784 -0.5176 -0.6016  0.2690
 8881SOL    HW138276   1.415   3.564  16.768  0.6846  0.8005 -0.6728
 8881SOL    HW238277   1.390   3.680  16.855  0.3093  0.3764 -0.8784
 8882SOL     OW38278   2.282   3.259  11.978 -0.0520  0.0500 -0.1757
 8882SOL    HW138279   2.341   3.263  11.903 -0.1836  3.2252 -0.1011
 8882SOL    HW238280   2.340   3.246  12.053 -0.5825 -0.6099  0.1148
 8883SOL     OW38281   1.355   2.422   7.794  0.1721  0.1017 -0.0097
 8883SOL    HW138282   1.406   2.417   7.875  0.7200 -1.8433 -0.4893
 8883SOL    HW238283   1.276   2.472   7.814  0.8619  0.4671  1.8353
 8884SOL     OW38284   0.002   0.341   7.966 -0.1924 -0.4376 -0.3163
 8884SOL    HW138285   0.057   0.401   8.017  0.6977  0.7887 -2.7394
 8884SOL    HW238286   0.009   0.263   8.021 -0.6030  1.4958  2.4964
 8885SOL     OW38287   4.483   3.001   1.848  0.0666 -0.4477 -0.2597
 8885SOL    HW138288   4.518   2.920   1.811  1.0524 -0.7855  1.3981
 8885SOL    HW238289   4.521   3.001   1.936  0.2732 -2.8086 -0.3411
 8886SOL     OW38290   1.157   2.693   6.925  0.2668  0.5031 -0.2366
 8886SOL    HW138291   1.210   2.622   6.960  1.9802  1.7522 -0.3153
 8886SOL    HW238292   1.212   2.770   6.941  0.4029  0.2385  0.5632
 8887SOL     OW38293   2.056   2.281   2.371  0.2194  0.2197  0.4320
 8887SOL    HW138294   2.048   2.246   2.282  2.1142  0.7069  0.0669
 8887SOL    HW238295   2.143   2.245   2.387  0.4574 -0.0567 -1.5089
 8888SOL     OW38296   2.578   3.606   7.568  0.0158 -0.0956  0.0317
 8888SOL    HW138297   2.537   3.521   7.578  0.9498 -0.4440  0.8733
 8888SOL    HW238298   2.670   3.585   7.586  0.6591  1.1242 -1.7054
 8889SOL     OW38299   3.626   2.160   5.150 -0.2865  0.2050 -0.2019
 8889SOL    HW138300   3.714   2.127   5.167 -0.8554 -0.8141  0.7566
 8889SOL    HW238301   3.574   2.081   5.131  0.7385 -0.5566  0.1633
 8890SOL     OW38302   3.544   2.034   4.896  0.1961 -0.1947 -0.3705
 8890SOL    HW138303   3.511   2.012   4.808  0.7347  0.1367 -0.6531
 8890SOL    HW238304   3.636   2.015   4.879 -0.3135 -2.6600 -0.4782
 8891SOL     OW38305   0.709   1.335   5.258 -0.4001  0.0021 -0.5573
 8891SOL    HW138306   0.774   1.401   5.233  0.9029 -1.0077  0.1769
 8891SOL    HW238307   0.718   1.272   5.186 -1.3000  0.2576 -0.8961
 8892SOL     OW38308   3.442   2.096   8.528 -0.0825  0.3064 -0.8393
 8892SOL    HW138309   3.388   2.108   8.606  0.5528  3.5536 -0.9078
 8892SOL    HW238310   3.455   2.001   8.533 -0.0486  0.4146  1.3470
 8893SOL     OW38311   1.695   1.130   0.524  0.0757  0.0480  0.3737
 8893SOL    HW138312   1.742   1.088   0.453 -1.0864 -1.2532  0.3798
 8893SOL    HW238313   1.714   1.071   0.598  1.0550 -0.3883 -0.2281
 8894SOL     OW38314   3.334   3.659  10.243 -0.0051 -0.6326 -0.1992
 8894SOL    HW138315   3.375   3.728  10.191  1.0072 -1.7645 -0.8969
 8894SOL    HW238316   3.256   3.708  10.267 -1.1695 -1.4492 -2.3296
 8895SOL     OW38317   0.958   2.972   4.771  0.7500 -0.0135 -0.5054
 8895SOL    HW138318   0.877   2.923   4.784  0.0969  1.4044  0.7149
 8895SOL    HW238319   0.924   3.060   4.781 -1.4979 -0.9175 -0.1816
 8896SOL     OW38320   3.598   1.130   3.884 -0.1318  0.8367  0.1485
 8896SOL    HW138321   3.520   1.076   3.896  0.5347  0.1315  1.3993
 8896SOL    HW238322   3.574   1.221   3.868  1.2163  1.3077  0.7634
 8897SOL     OW38323   3.237   4.520   4.415 -0.4335  0.0831 -0.1315
 8897SOL    HW138324   3.284   4.437   4.426 -0.3221  0.2275  0.4999
 8897SOL    HW238325   3.291   4.577   4.470 -1.1749  1.5570 -0.9139
 8898SOL     OW38326   3.491   0.415   8.153 -0.2447 -0.1182  0.4169
 8898SOL    HW138327   3.504   0.466   8.233  0.5447 -0.6410  0.6231
 8898SOL    HW238328   3.473   0.331   8.194  2.0475 -0.9360 -0.2555
 8899SOL     OW38329   2.131   4.373   2.226 -0.1131 -0.1114 -0.1497
 8899SOL    HW138330   2.037   4.370   2.238 -0.0070  0.0976  0.7425
 8899SOL    HW238331   2.150   4.322   2.305  1.0006  0.4746 -0.0281
 8900SOL     OW38332   3.323   3.802   6.132  0.2898 -0.1259 -0.6213
 8900SOL    HW138333   3.404   3.794   6.183 -0.1314 -1.9023 -0.2385
 8900SOL    HW238334   3.343   3.881   6.081 -0.0835 -0.1712 -0.8356
 8901SOL     OW38335   2.162   3.630   5.142  0.2437  0.1392  0.3610
 8901SOL    HW138336   2.161   3.726   5.143 -1.2642  0.1075  0.8890
 8901SOL    HW238337   2.217   3.617   5.219  1.0417  1.0694 -0.0473
 8902SOL     OW38338   2.233   4.612  11.623  0.0250 -0.6669  0.0735
 8902SOL    HW138339   2.206   4.587  11.535 -0.6736 -2.2682  0.7401
 8902SOL    HW238340   2.185   4.694  11.632  1.6950  0.3809 -0.5926
 8903SOL     OW38341   3.191   3.444   1.618 -0.0228  0.3527  0.8095
 8903SOL    HW138342   3.189   3.530   1.660 -0.9132 -0.4566  2.4189
 8903SOL    HW238343   3.101   3.430   1.588 -0.4221 -2.7070  3.4626
 8904SOL     OW38344   1.422   1.053  11.510 -0.6675 -0.1843 -0.2032
 8904SOL    HW138345   1.481   1.115  11.552  1.0381  0.8598 -4.1566
 8904SOL    HW238346   1.456   0.971  11.545  2.4838  1.4304  0.4636
 8905SOL     OW38347   1.786   0.431   1.476 -0.0622 -0.0416  0.2616
 8905SOL    HW138348   1.760   0.487   1.548  0.9476 -0.0148  0.6027
 8905SOL    HW238349   1.741   0.466   1.400  0.8473 -0.6270 -0.5533
 8906SOL     OW38350   0.868   3.504   2.457  0.2173 -0.1346  0.0867
 8906SOL    HW138351   0.859   3.485   2.550 -2.7420  1.5300  0.1231
 8906SOL    HW238352   0.942   3.564   2.455  0.1611 -0.1035 -0.8418
 8907SOL     OW38353   2.221   4.574  11.881  0.1370 -0.1970  0.2694
 8907SOL    HW138354   2.305   4.609  11.910 -0.0150  0.3510  0.0628
 8907SOL    HW238355   2.228   4.589  11.786  1.4909 -1.4153  0.1861
 8908SOL     OW38356   1.691   4.685  11.472  0.6638  0.5159 -0.5796
 8908SOL    HW138357   1.612   4.640  11.502  1.8972 -1.3247 -0.0551
 8908SOL    HW238358   1.725   4.710  11.558  0.3414 -3.2053  0.6660
 8909SOL     OW38359   4.726   3.699   0.221  0.3973  0.3784 -0.8474
 8909SOL    HW138360   4.719   3.779   0.168  1.2936  2.0695  1.5980
 8909SOL    HW238361   4.646   3.720   0.268 -0.2005 -1.8433 -0.8497
 8910SOL     OW38362   4.191   2.980   1.537  0.0966  0.5879 -0.2066
 8910SOL    HW138363   4.153   2.956   1.622 -1.7000  1.4428 -0.7717
 8910SOL    HW238364   4.132   3.049   1.508 -1.1128  0.4362  1.9225
 8911SOL     OW38365   1.671   1.035   8.039 -0.2698  0.1957 -0.1424
 8911SOL    HW138366   1.643   1.118   8.077 -1.4479  1.0941 -2.9047
 8911SOL    HW238367   1.655   1.043   7.945  1.0621  0.4475 -0.3547
 8912SOL     OW38368   3.832   3.794   3.432 -0.0578  0.5373 -0.6622
 8912SOL    HW138369   3.835   3.722   3.369 -1.1642  0.2100 -0.3377
 8912SOL    HW238370   3.832   3.747   3.515 -0.5156  3.0689  0.7645
 8913SOL     OW38371   4.040   4.489   3.980 -0.3011 -0.1054  0.0007
 8913SOL    HW138372   4.011   4.460   4.066  0.0783  1.9610  0.8300
 8913SOL    HW238373   4.070   4.577   4.004 -2.3502  0.1562  1.6632
 8914SOL     OW38374   3.170   2.947   5.725  0.2576  0.5719 -0.1027
 8914SOL    HW138375   3.136   2.938   5.814  1.4561  2.5152  0.5586
 8914SOL    HW238376   3.249   2.998   5.744 -0.8176  2.9713 -2.0740
 8915SOL     OW38377   0.335   0.729   2.752  0.1784  0.4748  0.0761
 8915SOL    HW138378   0.363   0.788   2.681 -0.8579 -0.7586 -1.3786
 8915SOL    HW238379   0.328   0.790   2.825 -1.4265 -0.0864  0.4089
 8916SOL     OW38380   1.296   0.425   7.566  0.3233  0.0310 -0.2266
 8916SOL    HW138381   1.259   0.435   7.478 -0.6754 -2.0287 -0.0250
 8916SOL    HW238382   1.278   0.332   7.575  1.5907 -0.3322 -1.2660
 8917SOL     OW38383   2.437   1.176  16.944 -0.1015  0.1108  0.7763
 8917SOL    HW138384   2.353   1.209  16.913  0.6203  0.1189 -1.2044
 8917SOL    HW238385   2.439   1.084  16.921  0.7497  0.7682 -1.7797
 8918SOL     OW38386   3.976   0.686   7.926 -0.1781 -0.4058 -0.7604
 8918SOL    HW138387   4.027   0.661   7.850  1.1641 -1.0376  0.3481
 8918SOL    HW238388   3.971   0.595   7.956 -0.2545 -0.8733 -2.2171
 8919SOL     OW38389   1.487   4.645  15.034 -0.4033  0.4489  0.0048
 8919SOL    HW138390   1.552   4.650  15.104 -0.1551 -0.2086 -0.1778
 8919SOL    HW238391   1.474   0.005  15.027  0.8095  0.5925 -0.4204
 8920SOL     OW38392   0.695   4.531   9.136 -0.5356 -0.2154 -0.4688
 8920SOL    HW138393   0.642   4.547   9.214  2.0106 -0.4598  1.3036
 8920SOL    HW238394   0.650   4.581   9.067 -0.4821 -0.3625 -0.6092
 8921SOL     OW38395   1.449   4.229   2.751  0.2311 -0.4774  0.2214
 8921SOL    HW138396   1.450   4.211   2.656 -1.7722 -1.1962  0.3289
 8921SOL    HW238397   1.379   4.293   2.751 -0.2504 -1.0031  0.4042
 8922SOL     OW38398   4.326   3.433  16.443  0.3921 -0.5898 -0.6982
 8922SOL    HW138399   4.307   3.365  16.508 -2.1285  1.5155  0.7709
 8922SOL    HW238400   4.259   3.495  16.473 -0.2983 -2.5686  1.8605
 8923SOL     OW38401   2.256   3.669   8.192  0.3890  0.2575  0.0013
 8923SOL    HW138402   2.276   3.614   8.268 -1.5870  1.1890  1.1942
 8923SOL    HW238403   2.257   3.762   8.216 -1.2877  0.2843 -0.0457
 8924SOL     OW38404   4.136   1.425   4.061 -0.2960 -0.4453  0.0313
 8924SOL    HW138405   4.134   1.521   4.067  4.4463 -0.3582  0.2123
 8924SOL    HW238406   4.046   1.398   4.041  0.5146 -1.6946 -1.8489
 8925SOL     OW38407   2.087   3.896   2.664 -0.3281 -0.1235 -0.5742
 8925SOL    HW138408   2.028   3.971   2.669  1.1247  1.0638 -1.1188
 8925SOL    HW238409   2.172   3.933   2.687 -1.3414  1.0959  1.1909
 8926SOL     OW38410   1.524   0.006  12.912  0.1389 -0.1100 -0.3541
 8926SOL    HW138411   1.570   0.079  12.953 -1.2438  0.8291 -0.4715
 8926SOL    HW238412   1.585   4.708  12.846 -1.6701 -0.1595 -1.9976
 8927SOL     OW38413   2.387   4.587   6.654  0.2916  0.4164  0.0013
 8927SOL    HW138414   2.467   4.535   6.646  0.1126 -0.0632  1.3965
 8927SOL    HW238415   2.424   4.666   6.692  0.3986 -0.1871  1.1559
 8928SOL     OW38416   2.492   3.037   3.688  0.1165  0.1607  0.1933
 8928SOL    HW138417   2.399   3.057   3.677  0.0142  0.4924  1.7006
 8928SOL    HW238418   2.513   3.089   3.766  0.1938 -0.0522  0.3122
 8929SOL     OW38419   1.737   1.826   3.323  0.2704  0.0948 -0.0900
 8929SOL    HW138420   1.806   1.840   3.389  0.4699  4.2316 -1.1508
 8929SOL    HW238421   1.756   1.902   3.268  1.3992  1.6890  2.4822
 8930SOL     OW38422   2.539   1.476   1.740 -0.1914 -0.5156 -0.6368
 8930SOL    HW138423   2.562   1.459   1.831  0.7869  0.7870 -0.6398
 8930SOL    HW238424   2.588   1.408   1.693 -1.7490 -2.1547  0.1213
 8931SOL     OW38425   0.042   3.352  10.564 -0.2116  0.5923  0.5192
 8931SOL    HW138426   4.709   3.382  10.624  0.6779  2.7403  0.4528
 8931SOL    HW238427   0.012   3.389  10.481 -3.1490  2.0375  2.2100
 8932SOL     OW38428   0.956   1.380   2.899 -0.2114 -0.1151  0.2577
 8932SOL    HW138429   0.970   1.290   2.870 -1.8485 -0.7421  1.4233
 8932SOL    HW238430   1.035   1.423   2.866 -0.2293  0.3449  0.8128
 8933SOL     OW38431   1.211   0.547  12.779 -0.5263  0.2655  0.4834
 8933SOL    HW138432   1.262   0.472  12.811  2.0131  1.7578 -0.0566
 8933SOL    HW238433   1.203   0.523  12.687 -2.0299  0.0002  0.6868
 8934SOL     OW38434   1.039   1.927   2.436 -0.3598 -0.1166 -0.3284
 8934SOL    HW138435   1.059   1.834   2.444 -3.5404 -0.9188 -1.3066
 8934SOL    HW238436   1.128   1.955   2.415 -0.8658  0.6773 -1.4156
 8935SOL     OW38437   2.030   2.226   8.877  0.1179 -0.7121 -0.9983
 8935SOL    HW138438   1.936   2.227   8.859 -0.2136  0.3907  0.7642
 8935SOL    HW238439   2.057   2.135   8.890  0.7587 -0.8131 -3.0115
 8936SOL     OW38440   2.818   4.283   6.320  0.1282  0.0728 -0.9195
 8936SOL    HW138441   2.745   4.261   6.378 -0.3293  0.9680 -1.1386
 8936SOL    HW238442   2.886   4.217   6.326 -0.0218 -0.0189 -0.2977
 8937SOL     OW38443   0.814   2.527   2.714 -0.3995  0.5058  0.2148
 8937SOL    HW138444   0.881   2.592   2.695  1.0179 -1.0165  0.0338
 8937SOL    HW238445   0.772   2.521   2.628  0.6904  1.4031 -0.3757
 8938SOL     OW38446   2.230   1.215   2.009 -0.3918  0.1126  0.2555
 8938SOL    HW138447   2.244   1.192   1.917  2.1645 -1.5589  1.0470
 8938SOL    HW238448   2.168   1.148   2.038 -1.2392  0.4548 -0.7897
 8939SOL     OW38449   1.721   1.926   1.576 -0.3107 -0.2024 -0.1593
 8939SOL    HW138450   1.795   1.912   1.517  0.1098  0.1745  0.2722
 8939SOL    HW238451   1.753   1.996   1.633 -1.1513  0.8190 -0.9328
 8940SOL     OW38452   1.242   0.858   9.144  0.2262  0.0078 -0.1208
 8940SOL    HW138453   1.265   0.908   9.066  1.1328 -1.0512 -0.5213
 8940SOL    HW238454   1.199   0.785   9.100  0.4904 -0.9468  1.2065
 8941SOL     OW38455   2.331   2.846   8.159  0.4357  0.3028 -0.0239
 8941SOL    HW138456   2.266   2.908   8.191  1.4295  0.7771  1.0986
 8941SOL    HW238457   2.318   2.776   8.223 -0.0217  1.0467  0.6972
 8942SOL     OW38458   0.313   2.245  16.202  0.6811 -0.0575  0.1570
 8942SOL    HW138459   0.242   2.247  16.138 -0.9288 -0.7787  1.9197
 8942SOL    HW238460   0.392   2.274  16.156  0.7773 -0.6016 -0.0161
 8943SOL     OW38461   3.866   2.832   4.621  0.5057 -0.0937 -0.1402
 8943SOL    HW138462   3.808   2.877   4.682  2.4522 -1.0424  2.4107
 8943SOL    HW238463   3.806   2.830   4.547 -0.1737 -0.1017  0.4043
 8944SOL     OW38464   1.172   4.455   8.373  0.2271 -0.0801 -0.6366
 8944SOL    HW138465   1.150   4.416   8.289 -1.6255  2.2321 -1.2421
 8944SOL    HW238466   1.259   4.487   8.351 -0.5235  1.0723 -2.0084
 8945SOL     OW38467   1.065   4.681   1.349  0.4267  0.3330  0.0229
 8945SOL    HW138468   1.122   4.690   1.273 -0.2714 -0.5347 -0.6051
 8945SOL    HW238469   1.085   4.592   1.377  1.2457  0.8252  1.0083
 8946SOL     OW38470   0.339   4.296   1.219 -1.0458 -0.7293  0.3566
 8946SOL    HW138471   0.383   4.289   1.304  1.7533  1.2525 -0.8895
 8946SOL    HW238472   0.401   4.254   1.159  0.0025  2.3708 -0.7833
 8947SOL     OW38473   4.593   2.586   4.595  0.2304 -0.1177 -0.3619
 8947SOL    HW138474   4.629   2.497   4.594  3.8592  1.3166  3.3742
 8947SOL    HW238475   4.516   2.578   4.539  1.3922 -4.7359 -1.3548
 8948SOL     OW38476   3.648   2.954   4.764  0.8398  0.7717 -0.1481
 8948SOL    HW138477   3.631   3.027   4.705  1.6119  2.1663  1.3596
 8948SOL    HW238478   3.673   3.005   4.841  2.5174 -1.6742  0.9236
 8949SOL     OW38479   3.291   1.439  12.100  0.3046 -0.1250  0.0746
 8949SOL    HW138480   3.225   1.503  12.128  0.8992  0.1852  0.7416
 8949SOL    HW238481   3.363   1.502  12.097 -0.9322  1.3563  2.0068
 8950SOL     OW38482   2.510   0.312   5.530  0.4417  0.1767  0.1370
 8950SOL    HW138483   2.519   0.364   5.611 -1.0313 -0.1834  0.5326
 8950SOL    HW238484   2.543   0.227   5.558 -1.2053 -1.0529 -1.7324
 8951SOL     OW38485   2.009   0.690   1.468 -0.2221  0.4165  0.1429
 8951SOL    HW138486   1.938   0.754   1.465 -0.4028  0.3040  2.5031
 8951SOL    HW238487   2.023   0.675   1.561 -1.8254  0.5446  0.3906
 8952SOL     OW38488   1.547   1.255   9.996  0.1241  0.3597 -0.2194
 8952SOL    HW138489   1.536   1.347  10.021  3.2896  1.0608 -1.5044
 8952SOL    HW238490   1.504   1.220  10.075  0.8447  2.6007  1.1824
 8953SOL     OW38491   3.549   1.572  10.440 -0.1261 -0.1117  0.0436
 8953SOL    HW138492   3.467   1.552  10.486 -0.5640  0.3067 -0.5486
 8953SOL    HW238493   3.579   1.653  10.481  1.5097  0.0851 -1.5630
 8954SOL     OW38494   4.046   1.472   7.370 -0.1247  0.7214  0.0444
 8954SOL    HW138495   4.102   1.528   7.424  0.1239 -2.1115  2.7326
 8954SOL    HW238496   4.054   1.389   7.418 -2.2644  1.0061  0.9344
 8955SOL     OW38497   1.810   1.094   4.574  0.5000 -0.4728  0.1563
 8955SOL    HW138498   1.790   1.104   4.667  1.2299 -1.5174  0.4269
 8955SOL    HW238499   1.743   1.034   4.542  0.8895 -0.3682 -0.8484
 8956SOL     OW38500   0.140   4.101   8.512 -0.1277 -0.0940 -0.0348
 8956SOL    HW138501   0.104   4.079   8.426  1.5820  0.7392 -0.9719
 8956SOL    HW238502   0.121   4.028   8.571  1.6612  0.1658  0.8647
 8957SOL     OW38503   2.667   3.642  13.743 -0.1899  0.2928  0.6003
 8957SOL    HW138504   2.647   3.583  13.815  0.1636 -0.5199  0.0347
 8957SOL    HW238505   2.761   3.644  13.760 -0.3265 -1.0946  1.4898
 8958SOL     OW38506   3.222   1.971   8.930  0.6199 -0.4080 -0.4060
 8958SOL    HW138507   3.243   1.996   8.840  1.8490  2.6950  0.7259
 8958SOL    HW238508   3.145   1.919   8.911  0.5203 -0.5322  0.3365
 8959SOL     OW38509   2.952   4.566   3.242  0.2712  0.1041 -0.1769
 8959SOL    HW138510   3.005   4.502   3.291  0.8367  1.4962  1.0177
 8959SOL    HW238511   3.022   4.612   3.197  0.4137 -0.3111 -0.3863
 8960SOL     OW38512   3.936   0.930   4.120 -0.0033  0.3034 -0.3769
 8960SOL    HW138513   3.943   0.867   4.192  0.7208 -0.5100 -1.1580
 8960SOL    HW238514   3.842   0.943   4.131 -0.2696 -0.4136 -1.8002
 8961SOL     OW38515   0.796   0.136  11.380 -0.2253 -0.2472 -0.5457
 8961SOL    HW138516   0.830   0.179  11.458  1.5161  0.2522 -1.5682
 8961SOL    HW238517   0.752   0.208  11.335  2.4771  0.4131 -2.1155
 8962SOL     OW38518   4.285   4.397   6.361 -0.1076 -0.4411  0.1545
 8962SOL    HW138519   4.306   4.350   6.280  0.6224 -1.3324  0.8641
 8962SOL    HW238520   4.353   4.365   6.420 -1.5635  0.7065  2.4250
 8963SOL     OW38521   3.040   3.191   2.828  0.3582 -0.4178 -0.4343
 8963SOL    HW138522   3.127   3.216   2.859 -0.3457  0.9146  0.4461
 8963SOL    HW238523   3.054   3.149   2.743  1.8078  1.2882 -1.0239
 8964SOL     OW38524   0.002   1.280   7.356  0.0556  0.2398 -0.7908
 8964SOL    HW138525   4.732   1.368   7.392  1.1737 -0.0137 -0.0186
 8964SOL    HW238526   0.012   1.308   7.265 -0.9741 -1.6579 -1.4920
 8965SOL     OW38527   2.271   1.969  12.021  0.6572  0.0897 -0.4891
 8965SOL    HW138528   2.232   1.886  11.992 -1.7248  0.6991  1.0312
 8965SOL    HW238529   2.195   2.023  12.003  0.6465  0.1070 -0.3918
 8966SOL     OW38530   1.753   1.677   6.694  0.2049 -0.2836  0.3793
 8966SOL    HW138531   1.838   1.702   6.731  1.1848 -0.8885 -1.4948
 8966SOL    HW238532   1.700   1.704   6.770  0.0607  2.1240 -0.5626
 8967SOL     OW38533   0.794   2.333   8.990  0.4203 -0.4407  0.2002
 8967SOL    HW138534   0.738   2.257   8.975 -0.5828  0.3205  0.1131
 8967SOL    HW238535   0.779   2.397   8.920  2.5910 -0.5196 -0.3427
 8968SOL     OW38536   3.313   1.188  14.281  0.3166 -0.4270 -0.9665
 8968SOL    HW138537   3.408   1.201  14.281  0.0176  1.8027  0.0647
 8968SOL    HW238538   3.284   1.217  14.195  0.0599  1.5428 -0.2355
 8969SOL     OW38539   0.009   2.505   4.203 -0.0186 -0.1323  0.4401
 8969SOL    HW138540   4.688   2.582   4.202 -0.7591 -0.6658  1.4795
 8969SOL    HW238541   4.695   2.456   4.268 -1.2708  0.6546  0.0777
 8970SOL     OW38542   0.074   0.347   1.833  0.0846  0.5232  0.0612
 8970SOL    HW138543   0.006   0.409   1.805 -0.3868 -0.1566 -0.2946
 8970SOL    HW238544   0.026   0.265   1.842 -0.8614  0.8670 -1.9982
 8971SOL     OW38545   0.284   0.287  14.239 -0.0718 -0.4033  0.0405
 8971SOL    HW138546   0.222   0.217  14.261  0.0160 -1.4924 -3.1719
 8971SOL    HW238547   0.352   0.229  14.203 -0.1325 -0.4186 -0.0494
 8972SOL     OW38548   2.826   4.107   4.899  0.1669  0.1475 -0.2274
 8972SOL    HW138549   2.920   4.097   4.885  0.0763 -0.6873 -0.2368
 8972SOL    HW238550   2.834   4.177   4.963 -1.2905 -1.8368  2.1705
 8973SOL     OW38551   4.152   1.552  10.223  0.0795  0.5314  0.2191
 8973SOL    HW138552   4.237   1.567  10.264 -0.6171 -0.4309  1.9990
 8973SOL    HW238553   4.191   1.571  10.138  0.2071 -2.1402 -0.3102
 8974SOL     OW38554   1.716   1.725   4.622 -0.4620 -0.5317  0.1948
 8974SOL    HW138555   1.792   1.670   4.641  0.6835  1.5677  1.7216
 8974SOL    HW238556   1.723   1.735   4.528  1.6263 -0.6489  0.3363
 8975SOL     OW38557   4.354   0.660   7.515  0.5919  0.6505  0.1152
 8975SOL    HW138558   4.351   0.565   7.510  0.6434  0.6813 -0.5526
 8975SOL    HW238559   4.445   0.686   7.499  1.4679 -1.5430  1.5350
 8976SOL     OW38560   4.015   0.059   4.737 -0.2106 -0.5304  0.5579
 8976SOL    HW138561   4.003   4.713   4.787 -0.7357 -1.4880 -1.1356
 8976SOL    HW238562   3.963   0.127   4.780 -1.3152 -1.8840  1.3811
 8977SOL     OW38563   1.081   2.286  14.654  0.2401  0.5667 -0.2873
 8977SOL    HW138564   1.103   2.334  14.733  1.8429  0.5018 -0.7032
 8977SOL    HW238565   1.118   2.344  14.588 -0.5851 -0.0340 -1.2866
 8978SOL     OW38566   1.710   3.362   1.411  0.3261 -0.8112 -0.0546
 8978SOL    HW138567   1.635   3.421   1.412  1.4061  0.5832 -2.4917
 8978SOL    HW238568   1.769   3.425   1.369  0.7577 -1.9195 -1.1330
 8979SOL     OW38569   0.239   0.761   8.215 -0.5874  0.6187  0.2058
 8979SOL    HW138570   0.301   0.830   8.193  0.2871 -0.0564  0.5651
 8979SOL    HW238571   0.308   0.695   8.211 -0.8260  0.4533 -1.1855
 8980SOL     OW38572   3.180   2.060   6.480  0.4671  0.8424 -0.3156
 8980SOL    HW138573   3.109   2.098   6.428 -0.3987 -0.1014  0.1753
 8980SOL    HW238574   3.208   1.990   6.421  0.2028  1.4602 -1.1809
 8981SOL     OW38575   0.254   4.057  15.213 -0.4392  0.5995  0.5532
 8981SOL    HW138576   0.308   4.118  15.163 -0.2800  0.7506  0.9016
 8981SOL    HW238577   0.196   4.022  15.146 -0.0542  1.4383 -0.2160
 8982SOL     OW38578   2.916   2.525   1.065  0.0548  0.2957 -0.3991
 8982SOL    HW138579   2.913   2.551   1.157  0.8789 -2.3322  0.3726
 8982SOL    HW238580   2.850   2.458   1.049 -0.6168  0.5498  1.2865
 8983SOL     OW38581   3.647   0.857  14.365  0.1835  0.3961  0.0919
 8983SOL    HW138582   3.582   0.909  14.317 -0.9775 -0.4425  0.7696
 8983SOL    HW238583   3.688   0.813  14.290  0.1129  1.6763 -0.7046
 8984SOL     OW38584   2.734   4.371   6.783 -0.0754  0.0219 -0.0577
 8984SOL    HW138585   2.641   4.348   6.781  0.0125 -0.4635  1.5968
 8984SOL    HW238586   2.776   4.301   6.833 -2.3267 -0.8887  0.5342
 8985SOL     OW38587   2.446   0.972  15.587  0.3262  0.2229 -0.2228
 8985SOL    HW138588   2.517   1.003  15.644  0.0234 -0.5304  0.5866
 8985SOL    HW238589   2.372   1.022  15.620 -0.8929 -0.9919 -1.1466
 8986SOL     OW38590   1.943   2.901  16.374  0.2690 -0.5505  0.1811
 8986SOL    HW138591   2.021   2.922  16.426  1.9011 -0.0786 -2.4984
 8986SOL    HW238592   1.892   2.980  16.390  1.7353  0.4730 -0.1663
 8987SOL     OW38593   0.104   0.655   3.059  0.1062 -0.0523  0.5279
 8987SOL    HW138594   0.163   0.628   3.130 -1.7027 -0.2052  1.9796
 8987SOL    HW238595   0.026   0.642   3.113  0.8771 -2.4578  1.0934
 8988SOL     OW38596   3.140   1.879   4.775 -0.2755  0.0394  0.0262
 8988SOL    HW138597   3.068   1.818   4.758  0.3011 -0.1370 -1.6970
 8988SOL    HW238598   3.166   1.896   4.685  1.0086  1.2328  0.6148
 8989SOL     OW38599   0.150   1.865   8.263  0.2980  0.0160  0.5124
 8989SOL    HW138600   0.076   1.810   8.235  0.1597  1.0451 -1.1586
 8989SOL    HW238601   0.110   1.949   8.242  1.8602  0.4592 -0.6367
 8990SOL     OW38602   1.659   2.354   8.504  0.9117  0.4621  0.1565
 8990SOL    HW138603   1.645   2.290   8.575  1.2932  0.9791  0.6919
 8990SOL    HW238604   1.572   2.352   8.464 -0.3790 -0.2989  2.9563
 8991SOL     OW38605   1.768   0.123  12.755 -0.4142 -0.2663  0.0792
 8991SOL    HW138606   1.798   0.159  12.838  1.4933  1.3735 -1.3217
 8991SOL    HW238607   1.695   0.182  12.736 -0.2320  0.0009  0.2065
 8992SOL     OW38608   1.938   3.044   2.759 -0.1010 -0.1194 -0.4053
 8992SOL    HW138609   1.962   3.054   2.667 -2.3573  1.0105 -0.8745
 8992SOL    HW238610   2.019   3.056   2.810  0.1974 -2.2060 -0.3899
 8993SOL     OW38611   0.631   1.301   9.548 -0.6481  0.0413 -0.0990
 8993SOL    HW138612   0.696   1.356   9.503  1.5593 -2.9478 -0.5761
 8993SOL    HW238613   0.625   1.348   9.632  0.4810 -1.5223  0.8458
 8994SOL     OW38614   0.105   0.294   2.965 -0.0768 -0.0473 -0.0209
 8994SOL    HW138615   0.167   0.248   2.909 -0.3501  1.3928 -1.5045
 8994SOL    HW238616   0.138   0.383   2.954  0.5473 -0.1185  1.2260
 8995SOL     OW38617   0.391   0.715  11.825  0.2806  0.2427  0.4079
 8995SOL    HW138618   0.328   0.707  11.752 -0.3245  0.7502  0.8764
 8995SOL    HW238619   0.331   0.745  11.893 -0.1754  1.3986 -0.5030
 8996SOL     OW38620   3.971   1.453   7.085 -0.1703 -0.2587  0.2010
 8996SOL    HW138621   3.978   1.527   7.025  2.1314 -2.1796 -1.8932
 8996SOL    HW238622   4.036   1.482   7.150 -0.3322  1.4924 -0.4093
 8997SOL     OW38623   1.301   1.621  14.346 -0.5980  0.3306  0.8153
 8997SOL    HW138624   1.213   1.591  14.323  0.4184 -0.8223 -1.5348
 8997SOL    HW238625   1.284   1.706  14.386  0.0613  0.5684  0.5835
 8998SOL     OW38626   2.993   3.562   2.076 -0.1213  0.2758  0.1279
 8998SOL    HW138627   3.032   3.599   2.155 -0.5905  2.0769 -0.4874
 8998SOL    HW238628   2.982   3.640   2.022 -4.0146 -0.4315 -0.1446
 8999SOL     OW38629   0.872   4.342  15.226 -0.3247  0.0760  0.1462
 8999SOL    HW138630   0.837   4.400  15.159 -0.1529 -0.7264 -0.6402
 8999SOL    HW238631   0.898   4.399  15.297 -1.7443 -1.1165  1.6333
 9000SOL     OW38632   4.215   3.896   7.355 -0.1593 -0.2499 -0.5392
 9000SOL    HW138633   4.158   3.820   7.358  1.6295 -1.5321  0.9361
 9000SOL    HW238634   4.157   3.956   7.308  0.1278 -0.6983 -1.4689
 9001SOL     OW38635   0.069   0.687   9.293  0.0817  0.2772 -0.3313
 9001SOL    HW138636   0.032   0.676   9.206  0.3964  3.1857 -0.8251
 9001SOL    HW238637   0.155   0.723   9.271 -0.7725  2.9289  0.5643
 9002SOL     OW38638   4.361   3.526   6.994 -0.4522 -0.1196  0.0303
 9002SOL    HW138639   4.441   3.484   6.961 -0.1004 -0.5947  1.4794
 9002SOL    HW238640   4.309   3.542   6.915 -0.4650 -0.4966 -0.0363
 9003SOL     OW38641   2.381   2.560   6.757 -0.0543 -0.1267 -0.1127
 9003SOL    HW138642   2.323   2.485   6.764  0.8987 -0.8859 -0.2485
 9003SOL    HW238643   2.468   2.520   6.745  0.2047  0.1172  0.9061
 9004SOL     OW38644   3.322   4.034   6.839 -0.0309 -0.1942 -0.0774
 9004SOL    HW138645   3.324   4.129   6.823 -1.3085 -0.2577 -0.5855
 9004SOL    HW238646   3.231   4.010   6.824 -0.9120  3.5342 -0.8160
 9005SOL     OW38647   1.013   3.200   2.801 -0.2037  0.4069  0.5720
 9005SOL    HW138648   1.086   3.187   2.862 -0.4322 -0.6793  0.6121
 9005SOL    HW238649   1.038   3.163   2.716 -1.1497  2.5856 -0.6490
 9006SOL     OW38650   3.427   2.597   6.977 -0.1953  0.1827  0.6865
 9006SOL    HW138651   3.521   2.608   6.963 -0.9365  1.9264 -2.9850
 9006SOL    HW238652   3.397   2.635   6.895 -2.2608  0.0343  1.3693
 9007SOL     OW38653   0.681   3.313   2.097 -0.7479 -0.2612 -0.1514
 9007SOL    HW138654   0.687   3.408   2.085 -1.3413 -0.0130  1.4664
 9007SOL    HW238655   0.758   3.294   2.152 -0.2805 -0.5596 -0.9125
 9008SOL     OW38656   4.303   3.815   1.780 -0.2368 -0.5727  0.7718
 9008SOL    HW138657   4.350   3.782   1.703 -1.1446  0.1877 -0.1226
 9008SOL    HW238658   4.371   3.858   1.832 -0.6039  1.0972 -0.1031
 9009SOL     OW38659   4.032   3.080  10.697 -0.1390 -0.6024  0.0668
 9009SOL    HW138660   3.955   3.111  10.744 -1.0562 -1.6135 -0.7530
 9009SOL    HW238661   4.094   3.092  10.769  1.9973 -1.2055 -1.6575
 9010SOL     OW38662   3.498   1.741  15.620  0.4220 -0.5527 -0.5218
 9010SOL    HW138663   3.413   1.776  15.649  0.2666 -0.1716 -1.4491
 9010SOL    HW238664   3.525   1.687  15.695  1.7909  0.9733  0.0690
 9011SOL     OW38665   2.954   1.006   0.421  0.3484 -0.4796 -0.0643
 9011SOL    HW138666   2.969   1.078   0.360 -3.0914 -0.0101 -0.3495
 9011SOL    HW238667   3.027   1.017   0.482  2.0432 -2.0361 -1.7817
 9012SOL     OW38668   2.693   2.189   4.076 -0.1525 -0.7663  1.2582
 9012SOL    HW138669   2.727   2.105   4.107 -0.3571 -1.1718  0.3892
 9012SOL    HW238670   2.766   2.248   4.095  0.1223  0.0782 -2.4528
 9013SOL     OW38671   4.041   3.914   1.667  0.1315  0.4474 -0.5477
 9013SOL    HW138672   4.090   3.933   1.588  0.0037 -0.3164 -0.8071
 9013SOL    HW238673   4.119   3.892   1.718 -1.3723 -1.1083  1.0922
 9014SOL     OW38674   2.001   1.451   5.498 -0.7514  1.0687  0.4951
 9014SOL    HW138675   1.930   1.495   5.450  0.4969  1.3379 -1.1053
 9014SOL    HW238676   2.009   1.373   5.443  0.0316 -0.0783  2.2585
 9015SOL     OW38677   0.778   3.298   7.094 -0.2943 -0.1733 -0.0331
 9015SOL    HW138678   0.828   3.284   7.174  1.7153 -0.3032 -1.2923
 9015SOL    HW238679   0.705   3.353   7.121  1.0668  0.9625  1.3482
 9016SOL     OW38680   3.452   0.920   8.616  0.1936 -0.2631  0.0619
 9016SOL    HW138681   3.494   0.930   8.701 -2.4791  4.0766  0.8716
 9016SOL    HW238682   3.409   0.835   8.620  2.6140 -1.5420 -1.0506
 9017SOL     OW38683   3.655   2.890   3.689  0.6872 -0.0475  0.6287
 9017SOL    HW138684   3.563   2.909   3.669  1.0545  2.0350  0.9980
 9017SOL    HW238685   3.667   2.936   3.772  4.5717  0.4661 -0.2538
 9018SOL     OW38686   2.801   1.685   8.202  0.1314  0.5518  0.1096
 9018SOL    HW138687   2.760   1.627   8.266  1.3100 -0.6945 -0.2715
 9018SOL    HW238688   2.727   1.744   8.188  0.6167  0.9713 -0.7443
 9019SOL     OW38689   0.409   1.915   4.741 -0.8431  0.4043 -0.2009
 9019SOL    HW138690   0.445   1.838   4.698  2.5814  1.4667  0.7801
 9019SOL    HW238691   0.317   1.893   4.725 -0.0610 -0.9088 -2.8791
 9020SOL     OW38692   0.403   4.092  12.504 -0.1135  0.4015  0.0479
 9020SOL    HW138693   0.474   4.106  12.568 -0.0651  1.6502 -0.2800
 9020SOL    HW238694   0.356   4.174  12.521  0.3272  0.2112  2.1965
 9021SOL     OW38695   1.447   3.376   8.384  0.3645 -0.1761 -0.0367
 9021SOL    HW138696   1.356   3.347   8.384  0.2812  0.0893  0.5447
 9021SOL    HW238697   1.443   3.436   8.458 -0.1694 -0.5893  0.2613
 9022SOL     OW38698   0.828   3.279   6.584 -0.1538  0.2629 -0.1877
 9022SOL    HW138699   0.776   3.244   6.657  0.4268  0.8929  0.5355
 9022SOL    HW238700   0.788   3.241   6.506 -1.8620 -1.1843  1.3885
 9023SOL     OW38701   3.389   0.157  14.335 -0.5911 -0.8824  0.7258
 9023SOL    HW138702   3.340   0.238  14.351 -1.9367 -1.3138 -1.2728
 9023SOL    HW238703   3.406   0.182  14.245 -0.6056 -1.5907  0.5257
 9024SOL     OW38704   1.781   1.754   1.204  0.2663  0.2845 -0.6068
 9024SOL    HW138705   1.748   1.803   1.129  0.6924 -0.4326 -1.2570
 9024SOL    HW238706   1.741   1.668   1.192 -0.3601  0.2915  1.4469
 9025SOL     OW38707   1.236   1.894  16.499 -0.1568 -0.4266 -0.3578
 9025SOL    HW138708   1.283   1.948  16.563 -0.9064 -1.1373  0.8050
 9025SOL    HW238709   1.184   1.964  16.460  0.8388  0.6736  0.2564
 9026SOL     OW38710   1.155   2.734  15.654 -0.2466 -0.0063  0.5215
 9026SOL    HW138711   1.206   2.801  15.700  0.7999  1.2152 -2.3820
 9026SOL    HW238712   1.204   2.662  15.694 -0.2402 -0.8062 -0.9175
 9027SOL     OW38713   2.842   3.112   3.925  0.1429 -0.2867 -0.0017
 9027SOL    HW138714   2.749   3.092   3.932  0.1431 -0.1326  0.4672
 9027SOL    HW238715   2.857   3.179   3.992  1.3017  0.1361 -0.6823
 9028SOL     OW38716   3.372   3.430   1.408  0.1884 -0.2379  0.6737
 9028SOL    HW138717   3.330   3.411   1.491 -1.7537  0.2804 -0.2067
 9028SOL    HW238718   3.408   3.517   1.424 -1.9749  0.5208  1.3267
 9029SOL     OW38719   0.962   3.700  12.287 -0.0347  0.6167  0.2158
 9029SOL    HW138720   0.903   3.766  12.251  0.6008  1.1216  0.0990
 9029SOL    HW238721   1.001   3.745  12.363  0.7844  1.7499 -0.8848
 9030SOL     OW38722   3.935   0.941   0.090 -0.3328  0.0538 -0.0591
 9030SOL    HW138723   3.900   1.024   0.058  0.0587  0.1621 -0.2055
 9030SOL    HW238724   3.959   0.978   0.175 -1.9854  0.5948  0.1623
 9031SOL     OW38725   3.741   1.998  13.538  0.2286 -0.2538 -0.6218
 9031SOL    HW138726   3.646   1.997  13.538  0.2305  1.0389 -2.7457
 9031SOL    HW238727   3.752   1.965  13.449  0.6659  1.0744 -1.0607
 9032SOL     OW38728   0.926   2.785  15.815  0.2307  0.5843  0.1303
 9032SOL    HW138729   0.999   2.755  15.760  0.5925  2.1586 -0.2681
 9032SOL    HW238730   0.979   2.834  15.878 -1.9116  0.1506  2.2295
 9033SOL     OW38731   4.214   0.932   6.376 -0.3357 -0.7258 -0.2056
 9033SOL    HW138732   4.292   0.976   6.412 -0.7375  2.6440 -3.4257
 9033SOL    HW238733   4.148   0.987   6.418 -0.3130  0.8591 -2.2395
 9034SOL     OW38734   4.626   2.518  12.071  0.0437  0.3243  0.3273
 9034SOL    HW138735   4.569   2.455  12.116 -0.1299  0.6417  0.5481
 9034SOL    HW238736   4.636   2.470  11.989 -0.7393  1.1847 -0.2752
 9035SOL     OW38737   0.751   0.028   6.474  0.3878  0.0775  0.1720
 9035SOL    HW138738   0.769   4.681   6.520  1.3371 -0.3503 -0.9676
 9035SOL    HW238739   0.811   0.013   6.401  2.5341 -0.1234  1.9861
 9036SOL     OW38740   2.308   4.560  16.263  0.2382 -0.4507  0.3582
 9036SOL    HW138741   2.249   4.547  16.189 -0.6638 -1.1623  1.2141
 9036SOL    HW238742   2.250   4.623  16.304  1.5951  1.5663 -0.8186
 9037SOL     OW38743   0.685   1.169   6.517 -0.2983 -0.0941  0.4001
 9037SOL    HW138744   0.615   1.220   6.475 -0.4521 -1.1413 -0.6176
 9037SOL    HW238745   0.648   1.168   6.606 -0.9006 -3.0832  0.1404
 9038SOL     OW38746   0.485   3.018   0.352  0.0796  0.6825 -0.0190
 9038SOL    HW138747   0.576   2.995   0.335  0.3393  0.6953  1.3865
 9038SOL    HW238748   0.475   3.057   0.264  1.2214 -0.3964 -0.6275
 9039SOL     OW38749   3.012   2.694   8.191 -0.1668  0.5860 -0.7271
 9039SOL    HW138750   2.993   2.764   8.254 -1.5079 -1.1316  0.7916
 9039SOL    HW238751   3.105   2.684   8.212 -0.6056  1.1658  1.5736
 9040SOL     OW38752   2.724   3.756   5.078 -0.2969 -0.3886  0.6970
 9040SOL    HW138753   2.685   3.675   5.045 -2.8900  0.7242  0.9827
 9040SOL    HW238754   2.812   3.733   5.051  0.4927  2.6529  0.6887
 9041SOL     OW38755   2.459   2.238   1.900  0.7190 -0.4795 -0.1191
 9041SOL    HW138756   2.554   2.231   1.901  0.6458 -1.0755  1.5465
 9041SOL    HW238757   2.454   2.334   1.903  0.0629 -0.4484 -2.0184
 9042SOL     OW38758   1.790   0.232   8.143  0.0815  0.2276  0.1266
 9042SOL    HW138759   1.783   0.317   8.186  0.4148  0.0202  0.5996
 9042SOL    HW238760   1.758   0.254   8.055 -2.5017 -1.9050  0.5184
 9043SOL     OW38761   2.027   3.374  15.960  0.3536 -0.3188 -0.1989
 9043SOL    HW138762   2.086   3.406  16.029 -0.7741  2.4854 -0.5630
 9043SOL    HW238763   2.083   3.368  15.883 -0.2263  0.2625 -0.6684
 9044SOL     OW38764   1.242   2.324   4.151  0.4918 -0.3174 -0.2474
 9044SOL    HW138765   1.286   2.270   4.085 -2.2000 -2.9319  0.1521
 9044SOL    HW238766   1.200   2.386   4.091  0.2907 -0.2445 -0.0294
 9045SOL     OW38767   0.897   1.873   7.642 -0.4279 -0.0590 -0.1015
 9045SOL    HW138768   0.987   1.862   7.674 -1.3829 -0.6885  2.3381
 9045SOL    HW238769   0.914   1.930   7.567 -3.5756  1.1336  0.1194
 9046SOL     OW38770   0.181   0.417   4.007  0.4293 -0.3103  0.0019
 9046SOL    HW138771   0.265   0.396   3.966  0.1822 -1.1148 -0.0851
 9046SOL    HW238772   0.191   0.500   4.055  0.5687 -0.8824  0.9746
 9047SOL     OW38773   1.925   1.054   9.481 -0.0342 -0.1404  0.2971
 9047SOL    HW138774   1.882   0.988   9.535 -2.3052  1.5942  0.6017
 9047SOL    HW238775   1.939   1.123   9.546  1.9807 -0.6988  0.4573
 9048SOL     OW38776   3.591   0.831  11.350 -0.1972  0.5623 -0.0779
 9048SOL    HW138777   3.650   0.756  11.361  0.9497  1.2720 -1.3789
 9048SOL    HW238778   3.546   0.811  11.268  0.9482  2.8233 -1.2882
 9049SOL     OW38779   1.101   2.494   8.213 -0.2127 -0.0768  0.7716
 9049SOL    HW138780   1.081   2.587   8.204 -0.3818 -0.0443  1.5236
 9049SOL    HW238781   1.121   2.455   8.128  1.5058  0.2151  1.0526
 9050SOL     OW38782   3.289   2.187   1.973 -0.2567 -0.6771 -0.7218
 9050SOL    HW138783   3.347   2.249   1.929  0.2581  0.2487  1.2915
 9050SOL    HW238784   3.355   2.120   1.988 -0.3553 -0.4231  0.8151
 9051SOL     OW38785   0.277   3.226   4.922 -0.3096 -0.1177  0.9877
 9051SOL    HW138786   0.200   3.282   4.931 -0.3015  0.1682 -0.7966
 9051SOL    HW238787   0.237   3.149   4.881  1.3517  0.2193 -1.2547
 9052SOL     OW38788   2.815   3.424   7.470 -0.5322 -0.7046  0.2860
 9052SOL    HW138789   2.779   3.470   7.394 -0.4266 -0.1023  0.6003
 9052SOL    HW238790   2.767   3.343   7.455  0.1418 -0.9147 -0.7479
 9053SOL     OW38791   1.617   0.446   4.498 -0.3887 -0.1810 -0.1944
 9053SOL    HW138792   1.557   0.378   4.467 -2.2408  1.2926  0.1512
 9053SOL    HW238793   1.701   0.426   4.457  0.2227 -1.2037  1.5722
 9054SOL     OW38794   2.979   3.779   1.913  1.1212  0.3648  0.1189
 9054SOL    HW138795   2.999   3.842   1.844  2.0616 -0.8736 -0.7618
 9054SOL    HW238796   2.933   3.839   1.970 -1.9559  1.7427 -3.7943
 9055SOL     OW38797   3.445   0.429   2.852  0.3725 -0.2554  0.3438
 9055SOL    HW138798   3.520   0.422   2.911 -0.1208  0.3351  1.0522
 9055SOL    HW238799   3.485   0.452   2.768 -2.7478  0.7248 -0.8811
 9056SOL     OW38800   1.059   0.779  12.701 -0.4930 -0.1440  0.1843
 9056SOL    HW138801   1.090   0.695  12.735 -1.1414 -0.7727 -0.7824
 9056SOL    HW238802   1.085   0.834  12.775 -2.6683 -1.0642  1.6244
 9057SOL     OW38803   0.524   3.139   4.920 -0.3395  0.3326 -0.0664
 9057SOL    HW138804   0.561   3.161   5.005  1.5810  1.8214 -1.2744
 9057SOL    HW238805   0.431   3.163   4.916 -0.2928  0.5283  0.0422
 9058SOL     OW38806   1.122   0.024  12.096 -0.5655 -0.1788  0.0680
 9058SOL    HW138807   1.197   0.001  12.150 -1.2350  0.6281  1.3376
 9058SOL    HW238808   1.165   0.017  12.011 -0.5865 -2.5447  0.2448
 9059SOL     OW38809   2.938   3.656   7.530 -0.4521 -0.1804  0.2086
 9059SOL    HW138810   2.909   3.572   7.497 -2.8758  1.0768 -0.8067
 9059SOL    HW238811   3.030   3.655   7.504 -0.1834 -0.8077  1.1778
 9060SOL     OW38812   4.524   1.647  12.065 -0.0347 -0.4493 -0.0661
 9060SOL    HW138813   4.558   1.559  12.082  0.2983 -0.0895  1.1175
 9060SOL    HW238814   4.558   1.658  11.976 -1.1633  1.1544 -0.3064
 9061SOL     OW38815   4.536   0.504   2.067 -0.2257  0.5628 -0.5742
 9061SOL    HW138816   4.621   0.547   2.059  1.2230 -2.1442  0.3363
 9061SOL    HW238817   4.555   0.449   2.143 -1.4705  0.4614 -0.3390
 9062SOL     OW38818   0.333   4.391  12.263 -1.0549  0.0375  0.3611
 9062SOL    HW138819   0.342   4.382  12.358  1.8845  2.3926  0.3299
 9062SOL    HW238820   0.414   4.378  12.214 -1.7258  1.9013 -1.2562
 9063SOL     OW38821   3.215   0.755   1.446  0.2204  0.4094 -0.0672
 9063SOL    HW138822   3.219   0.668   1.407 -1.5984  0.7011 -0.8999
 9063SOL    HW238823   3.163   0.735   1.523 -1.1362  0.5939 -0.9447
 9064SOL     OW38824   1.766   0.014  11.750  0.8011  0.1441 -0.2291
 9064SOL    HW138825   1.779   4.662  11.789 -0.8248  1.1422  2.5153
 9064SOL    HW238826   1.704   0.058  11.807  1.8542  0.7421  0.4646
 9065SOL     OW38827   4.581   0.337   5.019 -0.7604  0.3498  0.0140
 9065SOL    HW138828   4.652   0.278   5.044  1.2721  3.0999  0.7191
 9065SOL    HW238829   4.626   0.411   4.978  2.1454 -0.1541  2.2884
 9066SOL     OW38830   1.529   0.378   2.917 -0.4424 -0.0350  0.2013
 9066SOL    HW138831   1.448   0.329   2.904 -0.7206  0.4389  0.1337
 9066SOL    HW238832   1.576   0.308   2.962 -0.7057  0.2211  0.8714
 9067SOL     OW38833   1.775   3.044   7.975 -0.8422  0.2030  0.2115
 9067SOL    HW138834   1.692   3.087   7.956 -0.4116  0.0401 -2.0354
 9067SOL    HW238835   1.761   2.957   7.936  0.0233  0.6744 -1.1303
 9068SOL     OW38836   2.885   1.256   4.214 -0.5209  0.3061  0.8398
 9068SOL    HW138837   2.798   1.234   4.248  0.2084 -2.4947  0.8611
 9068SOL    HW238838   2.893   1.216   4.128 -0.1357  0.4478  0.8101
 9069SOL     OW38839   3.921   3.004  11.069 -0.0583 -0.1213 -0.1454
 9069SOL    HW138840   3.867   3.052  11.005  1.3919  0.6906 -0.7609
 9069SOL    HW238841   3.863   2.929  11.080  0.9285 -0.5663  1.9277
 9070SOL     OW38842   4.261   3.585  13.853  0.4482  0.1917  0.5281
 9070SOL    HW138843   4.313   3.546  13.923 -0.3329 -2.0189 -0.1134
 9070SOL    HW238844   4.264   3.508  13.797  0.1900  0.5969 -0.0444
 9071SOL     OW38845   0.758   1.578   3.837  0.3844 -0.3452  0.5502
 9071SOL    HW138846   0.720   1.533   3.762 -0.4854  0.6285  0.4027
 9071SOL    HW238847   0.736   1.667   3.808 -0.7905 -0.8275 -0.0412
 9072SOL     OW38848   2.398   0.360   3.599 -0.7369 -0.0373  0.3786
 9072SOL    HW138849   2.396   0.289   3.663 -0.0876  0.3944  0.8797
 9072SOL    HW238850   2.304   0.375   3.589 -0.6639 -1.3137 -2.0900
 9073SOL     OW38851   1.351   2.024   7.404  0.3790  0.5491  0.4688
 9073SOL    HW138852   1.305   1.948   7.441  0.3926 -0.0469 -0.7059
 9073SOL    HW238853   1.381   2.065   7.484  2.3303  0.6762 -0.3461
 9074SOL     OW38854   3.151   2.349   7.786  0.0479  0.0821 -0.0115
 9074SOL    HW138855   3.113   2.427   7.827  0.4715  1.0325 -1.4222
 9074SOL    HW238856   3.177   2.296   7.861 -1.4698  0.4947  0.8055
 9075SOL     OW38857   3.280   2.082   3.610 -0.0219 -0.4863 -0.6042
 9075SOL    HW138858   3.218   2.011   3.593 -1.5083  0.6260  0.2140
 9075SOL    HW238859   3.288   2.121   3.523  3.3096  0.7124  0.2357
 9076SOL     OW38860   1.975   1.554   3.790 -0.0581  0.6061 -0.0905
 9076SOL    HW138861   1.949   1.462   3.801 -3.6225  1.7486  1.1681
 9076SOL    HW238862   1.932   1.594   3.866  0.4134  0.8018  0.0719
 9077SOL     OW38863   3.717   0.239  10.744 -0.0717 -0.2302  0.0280
 9077SOL    HW138864   3.703   0.209  10.655 -1.0754 -0.7063  0.3566
 9077SOL    HW238865   3.684   0.329  10.745 -0.3242 -0.3257  0.0751
 9078SOL     OW38866   2.518   1.718   1.351  0.3114 -0.4702  0.4333
 9078SOL    HW138867   2.590   1.663   1.319  1.2411  1.9538 -1.6384
 9078SOL    HW238868   2.474   1.650   1.403  0.1071 -1.1315 -0.6102
 9079SOL     OW38869   4.011   3.420   8.414 -0.2564  0.3057  0.1298
 9079SOL    HW138870   3.940   3.483   8.404  0.1573  0.4886 -1.7050
 9079SOL    HW238871   3.993   3.361   8.341 -1.2827 -0.9265  1.3615
 9080SOL     OW38872   2.500   3.662   3.335  0.1505  0.2728  0.6272
 9080SOL    HW138873   2.592   3.650   3.355  0.6249 -1.5154 -2.5982
 9080SOL    HW238874   2.482   3.574   3.304 -1.0617  0.7809 -0.1191
 9081SOL     OW38875   2.939   1.436   3.310 -0.2225  0.2347  0.0270
 9081SOL    HW138876   2.858   1.422   3.260  0.8245 -0.8473 -1.3428
 9081SOL    HW238877   2.927   1.397   3.396  1.2251  0.2466  0.2250
 9082SOL     OW38878   0.624   1.677  10.018 -0.3308 -0.4444  0.4694
 9082SOL    HW138879   0.610   1.662  10.112 -1.9968 -1.3947  0.0720
 9082SOL    HW238880   0.534   1.661   9.989 -0.2860 -1.4907  0.8896
 9083SOL     OW38881   4.333   2.091  15.082 -0.1411  0.1244  0.3586
 9083SOL    HW138882   4.258   2.075  15.139 -0.7763 -0.6906 -0.6895
 9083SOL    HW238883   4.344   2.005  15.041  0.8765  0.6348 -0.4396
 9084SOL     OW38884   2.174   2.898  12.840 -0.1990  0.6174  0.2234
 9084SOL    HW138885   2.088   2.928  12.871 -0.3312 -0.7148  1.1107
 9084SOL    HW238886   2.228   2.938  12.907 -0.6376  0.2847  0.7723
 9085SOL     OW38887   1.621   3.008  13.297 -0.3393  0.2011  0.1604
 9085SOL    HW138888   1.623   3.098  13.328  0.0888  0.8929 -1.8888
 9085SOL    HW238889   1.570   3.018  13.216 -0.5108 -1.3817  0.0622
 9086SOL     OW38890   3.899   1.251  16.550  0.1857  0.0025 -0.3161
 9086SOL    HW138891   3.880   1.205  16.469  1.4758 -0.8383 -0.1429
 9086SOL    HW238892   3.866   1.186  16.612 -0.7416  0.7687 -0.0119
 9087SOL     OW38893   4.559   0.557   6.567 -0.1361  0.1755 -0.1137
 9087SOL    HW138894   4.561   0.642   6.611  0.2752 -0.9700  2.0643
 9087SOL    HW238895   4.538   0.582   6.477 -0.0297 -1.5003 -0.5998
 9088SOL     OW38896   0.459   3.173   4.650  0.6080  0.1085  0.1826
 9088SOL    HW138897   0.463   3.150   4.742 -0.7484 -0.0024  0.2245
 9088SOL    HW238898   0.462   3.085   4.614  0.3454  0.6772 -1.2467
 9089SOL     OW38899   2.704   1.686  12.059 -0.3369  0.3521  0.3046
 9089SOL    HW138900   2.748   1.619  12.113 -1.5058 -1.0088 -0.4467
 9089SOL    HW238901   2.773   1.750  12.041 -0.8966  1.0341  0.5974
 9090SOL     OW38902   1.036   4.249   2.039 -0.4576 -0.0521 -0.3241
 9090SOL    HW138903   0.960   4.307   2.048 -0.4528  0.0495 -0.9448
 9090SOL    HW238904   1.111   4.308   2.050  0.0902 -0.7400 -0.3853
 9091SOL     OW38905   2.661   1.728   7.014 -0.1321  0.0920  0.1093
 9091SOL    HW138906   2.742   1.718   7.064 -0.6665 -1.8160  0.5783
 9091SOL    HW238907   2.681   1.666   6.944  0.3098  0.6410 -0.2582
 9092SOL     OW38908   2.543   3.685   2.620  0.1844 -0.3369  0.0295
 9092SOL    HW138909   2.467   3.690   2.678 -0.6456 -1.6658 -0.9477
 9092SOL    HW238910   2.514   3.634   2.544  2.1342  1.3443 -1.8476
 9093SOL     OW38911   0.330   2.892   4.092  0.0544 -0.1010  0.2003
 9093SOL    HW138912   0.383   2.888   4.012 -1.1251  0.5029 -0.6251
 9093SOL    HW238913   0.297   2.802   4.099  2.4505 -1.0570 -0.9209
 9094SOL     OW38914   2.338   3.543   8.424 -0.1537  0.0107  0.4471
 9094SOL    HW138915   2.424   3.583   8.436 -0.8457  1.3073  1.0631
 9094SOL    HW238916   2.303   3.554   8.512  1.2941 -0.5942  1.0866
 9095SOL     OW38917   4.292   0.796   8.217 -0.4111  0.3182  0.4299
 9095SOL    HW138918   4.368   0.758   8.172  0.4077  3.2022 -0.5729
 9095SOL    HW238919   4.218   0.749   8.179  0.6136  0.5701 -1.8849
 9096SOL     OW38920   0.069   2.414   3.514  0.4240  0.4729  0.0987
 9096SOL    HW138921   0.012   2.388   3.441 -1.3657  1.4324  1.1363
 9096SOL    HW238922   0.059   2.342   3.576  2.2024 -0.0617 -0.2404
 9097SOL     OW38923   1.458   0.569   3.932 -0.2682  0.1582  0.0448
 9097SOL    HW138924   1.444   0.657   3.896 -1.1044 -1.7669 -4.3113
 9097SOL    HW238925   1.399   0.518   3.877 -0.2116 -0.1260  0.2481
 9098SOL     OW38926   0.944   3.733   5.808  0.8917  0.1192 -0.0116
 9098SOL    HW138927   0.887   3.781   5.748 -3.2213 -4.5284  0.1787
 9098SOL    HW238928   0.878   3.686   5.860 -0.6819  2.6480  0.2515
 9099SOL     OW38929   3.253   0.840   8.280  0.4238 -0.0397 -0.3491
 9099SOL    HW138930   3.279   0.925   8.316 -1.1342 -0.5239  1.9457
 9099SOL    HW238931   3.159   0.850   8.290  0.9076  1.1032  3.2412
 9100SOL     OW38932   4.456   1.809   1.002 -0.6789  0.0138  0.4418
 9100SOL    HW138933   4.532   1.755   0.982  0.2366  1.9290 -1.2209
 9100SOL    HW238934   4.457   1.789   1.096 -1.9334  0.3249  0.5157
 9101SOL     OW38935   4.387   3.004   8.796 -0.0478  0.2261 -0.3353
 9101SOL    HW138936   4.318   2.986   8.733  0.0299  0.9831 -0.6398
 9101SOL    HW238937   4.421   2.916   8.815 -2.1554 -0.2517  1.2109
 9102SOL     OW38938   3.331   4.255   3.815 -0.7427 -0.4579  0.3763
 9102SOL    HW138939   3.341   4.164   3.788 -0.5751 -0.7893  1.5624
 9102SOL    HW238940   3.389   4.249   3.892  0.1398 -0.6608 -0.3040
 9103SOL     OW38941   2.758   4.668   7.856  0.0818 -0.1598 -0.1137
 9103SOL    HW138942   2.790   4.597   7.912  3.0266  0.2837 -1.2328
 9103SOL    HW238943   2.779   4.641   7.766 -1.4137  0.0538 -0.5217
 9104SOL     OW38944   4.156   2.740   2.641  0.2555  0.2370 -0.0936
 9104SOL    HW138945   4.062   2.725   2.648  0.4134 -0.7194  0.0044
 9104SOL    HW238946   4.180   2.703   2.556 -0.8057 -0.1560 -0.2198
 9105SOL     OW38947   1.581   2.643   8.312 -0.4766 -0.1097 -0.6503
 9105SOL    HW138948   1.659   2.692   8.286 -0.6670  0.7213  0.3458
 9105SOL    HW238949   1.515   2.713   8.302 -0.2343  0.1507 -0.4404
 9106SOL     OW38950   1.849   2.903  13.176 -0.0007 -0.5080 -0.1480
 9106SOL    HW138951   1.790   2.939  13.242 -0.6948  0.2414 -1.1775
 9106SOL    HW238952   1.900   2.974  13.137 -2.0914  1.2680  0.3333
 9107SOL     OW38953   0.011   2.775   5.637 -0.2495  0.2719 -0.0263
 9107SOL    HW138954   4.691   2.704   5.667 -2.2053  1.4489 -0.8301
 9107SOL    HW238955   4.703   2.806   5.557 -1.3865 -1.9349 -0.2568
 9108SOL     OW38956   1.264   2.488  15.707  0.0562  0.1326 -0.0056
 9108SOL    HW138957   1.319   2.461  15.634 -0.1579 -2.9713  0.9639
 9108SOL    HW238958   1.182   2.445  15.679  0.2201 -0.7602  0.8561
 9109SOL     OW38959   2.226   3.207  15.124  0.1913 -0.0625 -0.1038
 9109SOL    HW138960   2.209   3.149  15.198 -2.0132  0.9784  0.1987
 9109SOL    HW238961   2.191   3.292  15.152 -1.0824 -0.1323 -1.4960
 9110SOL     OW38962   4.686   3.176   4.907 -0.4232 -0.2143  0.1776
 9110SOL    HW138963   4.611   3.206   4.958 -0.3683  1.3096 -0.6610
 9110SOL    HW238964   4.706   3.092   4.949 -0.9214  0.0025  0.8378
 9111SOL     OW38965   3.621   3.095  11.139  0.4096  0.2917 -0.6258
 9111SOL    HW138966   3.615   2.999  11.132  2.4898  0.0710  0.9109
 9111SOL    HW238967   3.689   3.106  11.205  1.2335  0.6074 -1.5280
 9112SOL     OW38968   0.000   1.502  14.166  0.1485  0.4824 -0.4804
 9112SOL    HW138969   4.681   1.572  14.130 -0.8380 -1.2592 -2.3740
 9112SOL    HW238970   0.087   1.536  14.187  0.3815 -0.9956  0.9526
 9113SOL     OW38971   1.091   0.463   3.571 -0.0277 -0.1926 -0.3021
 9113SOL    HW138972   1.028   0.394   3.549 -0.4148  0.1627 -0.3170
 9113SOL    HW238973   1.122   0.486   3.483 -0.2143 -3.0622 -1.1283
 9114SOL     OW38974   1.997   2.338  17.498 -0.1150  0.4743 -0.5169
 9114SOL    HW138975   1.907   2.308  17.483 -0.8328  2.5452 -0.2826
 9114SOL    HW238976   1.992   2.434  17.495  1.2515  0.5028 -2.0062
 9115SOL     OW38977   2.304   4.338   9.436 -0.3929  0.4425 -0.3678
 9115SOL    HW138978   2.349   4.260   9.405  0.9107  0.3828  1.6789
 9115SOL    HW238979   2.297   4.325   9.530  0.6920 -1.0393 -0.4935
 9116SOL     OW38980   3.058   2.251  13.880  0.7852 -0.0792  0.9581
 9116SOL    HW138981   3.073   2.286  13.792  0.8438  0.4519  1.1811
 9116SOL    HW238982   3.020   2.327  13.924 -1.4662 -1.6537  1.7563
 9117SOL     OW38983   4.334   3.893   7.603 -0.6175 -0.5540  0.7793
 9117SOL    HW138984   4.428   3.893   7.584 -0.7021 -0.1029  0.3604
 9117SOL    HW238985   4.299   3.905   7.515 -1.1584  1.0041  1.2191
 9118SOL     OW38986   2.153   2.438   4.500 -0.0400 -0.1226 -0.1417
 9118SOL    HW138987   2.119   2.349   4.498 -0.4045 -0.0068  0.6495
 9118SOL    HW238988   2.233   2.427   4.449 -0.5563 -0.8816 -0.7870
 9119SOL     OW38989   2.572   2.681   9.411  0.0961  0.1586 -0.1247
 9119SOL    HW138990   2.576   2.690   9.506  0.9242 -0.6391 -0.0763
 9119SOL    HW238991   2.652   2.635   9.385 -0.6431 -0.9675 -0.4472
 9120SOL     OW38992   0.446   2.727   3.013 -0.6657  0.3184  0.3694
 9120SOL    HW138993   0.453   2.646   2.962  1.2058  1.5611 -1.3826
 9120SOL    HW238994   0.352   2.737   2.995 -0.2418 -0.2692 -2.1919
 9121SOL     OW38995   4.185   2.948   6.022  0.0310 -0.4238 -0.1925
 9121SOL    HW138996   4.273   2.925   5.991  0.0412 -0.9638  0.2278
 9121SOL    HW238997   4.157   2.868   6.067 -1.1371 -1.6681 -3.1134
 9122SOL     OW38998   4.323   3.573   8.402  0.2572  0.3046 -0.1076
 9122SOL    HW138999   4.346   3.589   8.493  0.9495  0.3660 -0.2943
 9122SOL    HW239000   4.343   3.481   8.385 -0.2050 -0.2944  2.6405
 9123SOL     OW39001   2.393   0.582   8.939  0.0240 -0.2119  0.0643
 9123SOL    HW139002   2.383   0.519   9.010 -0.1371 -0.0214  0.2086
 9123SOL    HW239003   2.424   0.524   8.869 -1.1063  0.5091 -1.0587
 9124SOL     OW39004   1.887   1.325   4.788 -0.7615  0.2046  0.3755
 9124SOL    HW139005   1.897   1.230   4.780  2.4482  0.8161 -2.5335
 9124SOL    HW239006   1.977   1.357   4.782 -0.9494  0.6845  0.1983
 9125SOL     OW39007   2.187   4.561   8.711  0.8250  0.1536 -0.5441
 9125SOL    HW139008   2.279   4.547   8.733  0.9864  1.3097 -0.4904
 9125SOL    HW239009   2.151   4.550   8.799  0.6136 -1.5032 -0.8371
 9126SOL     OW39010   2.929   1.778  13.936 -0.5936 -0.0791 -1.0847
 9126SOL    HW139011   2.963   1.694  13.966  0.9729  0.4633 -1.3250
 9126SOL    HW239012   2.998   1.801  13.874  1.0989 -1.1034  0.4442
 9127SOL     OW39013   2.047   0.227   0.208 -0.4798  0.6824  0.2275
 9127SOL    HW139014   2.129   0.196   0.170  0.3580 -0.3328  2.8714
 9127SOL    HW239015   2.002   0.146   0.230 -2.8777  1.8227 -0.4706
 9128SOL     OW39016   2.418   1.366   8.593  0.2464 -0.7187 -0.6062
 9128SOL    HW139017   2.334   1.320   8.580 -0.0296 -0.4468  0.2170
 9128SOL    HW239018   2.401   1.415   8.673  2.5732 -2.8960  1.2382
 9129SOL     OW39019   4.129   2.618   5.311 -0.2703  0.2213  0.0451
 9129SOL    HW139020   4.099   2.630   5.220 -0.9956 -1.7352  0.0403
 9129SOL    HW239021   4.204   2.561   5.295  0.5905  0.9611  1.4876
 9130SOL     OW39022   1.515   3.992   3.298 -0.6133 -0.1051 -0.4439
 9130SOL    HW139023   1.598   3.952   3.273 -0.5292 -0.7550  0.8880
 9130SOL    HW239024   1.478   3.927   3.357 -1.8507 -1.1099 -2.3177
 9131SOL     OW39025   1.404   2.547  16.125 -0.4923 -0.9337 -0.3583
 9131SOL    HW139026   1.368   2.593  16.050 -2.4712 -0.5440  0.8417
 9131SOL    HW239027   1.384   2.614  16.190 -0.3212 -2.7626  1.5811
 9132SOL     OW39028   2.468   3.828  11.526  0.4629 -0.7939  0.0517
 9132SOL    HW139029   2.387   3.782  11.551  0.2962 -0.6133 -0.1560
 9132SOL    HW239030   2.488   3.773  11.451  1.4295  1.3254 -1.2474
 9133SOL     OW39031   0.938   0.062  11.175  0.2613  0.3235 -0.3015
 9133SOL    HW139032   1.003   0.132  11.184  1.2877 -0.7490  0.5721
 9133SOL    HW239033   0.905   0.051  11.264  0.7495  2.2329  0.1114
 9134SOL     OW39034   1.871   4.053   8.450  0.0964 -0.0547  0.1363
 9134SOL    HW139035   1.900   4.144   8.460 -0.9229  0.1195  1.5313
 9134SOL    HW239036   1.883   4.043   8.356  0.0021  1.4260 -0.0286
 9135SOL     OW39037   1.269   2.185   9.442 -0.2021  0.1234  0.2391
 9135SOL    HW139038   1.297   2.275   9.458 -2.4204  0.5691  1.5482
 9135SOL    HW239039   1.203   2.172   9.509 -1.6452  1.1044 -0.9830
 9136SOL     OW39040   1.886   2.691   5.867 -0.4479  0.4877  0.5246
 9136SOL    HW139041   1.829   2.675   5.792  1.7438  0.6015 -1.1827
 9136SOL    HW239042   1.879   2.614   5.923  0.4812 -0.4540 -0.6494
 9137SOL     OW39043   3.870   1.757  16.705 -0.0046 -0.0394  0.0717
 9137SOL    HW139044   3.907   1.695  16.768 -0.9674  0.1233  0.8069
 9137SOL    HW239045   3.844   1.685  16.647  0.0677  0.1129 -0.1478
 9138SOL     OW39046   0.097   2.712   8.041  0.1544  0.2388  0.1557
 9138SOL    HW139047   0.017   2.752   8.075  0.0668  0.8757 -0.7879
 9138SOL    HW239048   0.117   2.662   8.120  1.3664  2.1492  1.0518
 9139SOL     OW39049   3.052   3.737  10.244 -0.4693  0.3043  0.3980
 9139SOL    HW139050   3.111   3.796  10.290  2.4829 -2.8503  0.6537
 9139SOL    HW239051   3.019   3.692  10.322 -0.6248 -0.7527 -0.2720
 9140SOL     OW39052   0.688   4.210   0.116  0.2446 -0.9730 -0.3820
 9140SOL    HW139053   0.610   4.208   0.172  0.8185 -1.1913  0.4103
 9140SOL    HW239054   0.751   4.266   0.163 -0.2481 -2.1637  1.6748
 9141SOL     OW39055   3.989   4.347  12.399 -0.1899  0.3141  0.2808
 9141SOL    HW139056   3.931   4.392  12.461  0.3813  2.3322 -0.6492
 9141SOL    HW239057   4.018   4.273  12.453  1.4287 -0.1556 -1.2455
 9142SOL     OW39058   0.531   3.726   3.467 -0.1742  0.9175  1.0453
 9142SOL    HW139059   0.532   3.661   3.538 -3.4354  0.4775  0.6905
 9142SOL    HW239060   0.437   3.736   3.456  0.0998  2.3283  0.0330
 9143SOL     OW39061   1.129   0.930  12.912  0.4283  0.8066  0.1759
 9143SOL    HW139062   1.132   0.853  12.969  1.1028  2.3418  2.2221
 9143SOL    HW239063   1.101   0.995  12.976  0.0604 -0.3330  1.1962
 9144SOL     OW39064   3.728   0.298  11.513  0.1918 -0.3034 -0.1679
 9144SOL    HW139065   3.683   0.380  11.535 -0.3462 -0.4697 -0.6539
 9144SOL    HW239066   3.697   0.301  11.422 -0.5275  1.3976  0.1353
 9145SOL     OW39067   1.920   3.069   0.453 -0.3847  0.8204  0.2486
 9145SOL    HW139068   1.858   3.038   0.387  0.4704 -1.3583  0.4784
 9145SOL    HW239069   1.941   2.986   0.495 -0.0016  2.1551  2.6568
 9146SOL     OW39070   2.096   0.584   2.714 -0.3136 -0.2198 -0.4640
 9146SOL    HW139071   2.010   0.626   2.707 -0.3407  0.1545  2.0823
 9146SOL    HW239072   2.089   0.546   2.802  2.9405 -1.0711 -0.5816
 9147SOL     OW39073   3.126   3.154  11.447  0.3533  0.4042  0.3698
 9147SOL    HW139074   3.082   3.075  11.478 -0.8361  1.2388  0.8285
 9147SOL    HW239075   3.116   3.210  11.525  3.4359 -0.8041  1.6227
 9148SOL     OW39076   4.115   4.710   0.376  0.1726 -0.2415  0.4487
 9148SOL    HW139077   4.026   4.683   0.356  0.5803  0.2347 -2.0634
 9148SOL    HW239078   4.124   0.060   0.332  0.2210 -1.5278 -2.0566
 9149SOL     OW39079   1.079   0.622  11.880 -0.2164 -0.2420 -0.1798
 9149SOL    HW139080   1.139   0.697  11.873  1.1121 -1.3504 -0.7788
 9149SOL    HW239081   0.996   0.668  11.895  0.3488  0.7839 -0.1751
 9150SOL     OW39082   0.388   3.068   5.561  0.3481 -0.0045  0.3046
 9150SOL    HW139083   0.389   3.160   5.585  2.6904  0.0389 -0.0035
 9150SOL    HW239084   0.426   3.029   5.640  1.8959  2.6336  0.8440
 9151SOL     OW39085   3.975   3.731   5.598  0.4444  0.0312  0.7010
 9151SOL    HW139086   4.049   3.687   5.558  0.6890  0.3403  0.8081
 9151SOL    HW239087   4.007   3.759   5.684  0.4721 -1.8464  1.3065
 9152SOL     OW39088   2.988   0.135  14.288 -0.1058  0.0861  0.1285
 9152SOL    HW139089   3.001   0.056  14.235 -0.6241 -1.7476  2.7417
 9152SOL    HW239090   3.013   0.096  14.372  0.6743 -0.1099 -0.1995
 9153SOL     OW39091   4.646   2.286  11.921 -0.2056  0.1651  0.1580
 9153SOL    HW139092   4.662   2.239  12.003  2.5882 -0.2412 -0.6040
 9153SOL    HW239093   4.622   2.210  11.867 -0.7643  0.3699  0.1198
 9154SOL     OW39094   1.100   1.353   8.451 -0.2642 -0.7688 -0.1557
 9154SOL    HW139095   1.164   1.423   8.434 -2.1301  0.8101 -0.6484
 9154SOL    HW239096   1.021   1.406   8.455 -0.6070 -1.2139 -1.0389
 9155SOL     OW39097   4.243   0.975  11.860 -0.0602  0.2498 -0.6534
 9155SOL    HW139098   4.238   0.951  11.953  0.0749  1.6137 -0.2966
 9155SOL    HW239099   4.175   1.042  11.852  0.3560  0.4179 -2.7820
 9156SOL     OW39100   1.742   3.020   5.056 -0.1031 -0.4100 -0.0044
 9156SOL    HW139101   1.737   3.111   5.085 -3.5989 -0.6525  0.2173
 9156SOL    HW239102   1.727   2.970   5.136 -0.5379 -0.8169 -0.3458
 9157SOL     OW39103   0.778   3.664   8.444  0.5697  0.9390  0.0809
 9157SOL    HW139104   0.724   3.721   8.390  0.1530  0.0568 -0.4489
 9157SOL    HW239105   0.767   3.709   8.528 -0.2502  0.6876  0.1120
 9158SOL     OW39106   2.779   2.692   5.672 -0.5346  0.2284 -0.7396
 9158SOL    HW139107   2.741   2.691   5.759  0.8963 -0.6031 -0.1299
 9158SOL    HW239108   2.828   2.775   5.670  1.9592 -1.2932 -1.9827
 9159SOL     OW39109   0.606   2.069  10.980 -0.1610 -0.7500 -0.2812
 9159SOL    HW139110   0.593   2.163  10.998 -1.2341 -1.2113  1.3727
 9159SOL    HW239111   0.698   2.060  10.957  0.1705  0.0718  0.7019
 9160SOL     OW39112   3.339   1.031   4.329  0.2115  0.3644  0.5604
 9160SOL    HW139113   3.289   1.064   4.255  2.1517 -1.0956 -1.4060
 9160SOL    HW239114   3.310   1.081   4.405 -2.0094  1.8395 -1.2825
 9161SOL     OW39115   0.353   3.978   5.448 -0.3783 -0.1422 -0.1675
 9161SOL    HW139116   0.290   3.928   5.500 -0.0023 -2.1685 -1.6837
 9161SOL    HW239117   0.381   4.043   5.512 -1.0951  0.9410 -0.9363
 9162SOL     OW39118   0.488   0.163   3.538  0.2379 -0.1036 -0.0396
 9162SOL    HW139119   0.457   0.250   3.562 -2.1931 -0.8583 -0.5342
 9162SOL    HW239120   0.407   0.115   3.556  0.7948 -1.7013 -1.7658
 9163SOL     OW39121   2.282   4.713   0.648 -0.1349  0.2324 -0.1983
 9163SOL    HW139122   2.334   0.037   0.593 -1.1776  0.5366 -0.8612
 9163SOL    HW239123   2.308   0.007   0.735  3.5144  1.5994 -1.7345
 9164SOL     OW39124   0.874   4.244   7.351 -0.5080 -0.5340  0.5944
 9164SOL    HW139125   0.960   4.257   7.391 -0.3042 -1.4573  0.4474
 9164SOL    HW239126   0.861   4.150   7.362  1.2901 -0.8915 -0.3387
 9165SOL     OW39127   0.603   1.599   4.661  0.2014  0.0671  0.0216
 9165SOL    HW139128   0.589   1.667   4.596 -2.1927  0.2524  0.7432
 9165SOL    HW239129   0.661   1.540   4.613  0.8500  1.2301 -0.6269
 9166SOL     OW39130   2.690   4.733   4.740 -0.5327 -0.9388  0.5615
 9166SOL    HW139131   2.780   0.022   4.719 -0.5715  0.5461  2.1283
 9166SOL    HW239132   2.676   0.011   4.834 -3.3314 -3.2025  0.4558
 9167SOL     OW39133   4.294   1.579   8.171  0.8863  0.3233 -0.5330
 9167SOL    HW139134   4.362   1.616   8.228 -0.4404  2.9030 -0.6331
 9167SOL    HW239135   4.273   1.659   8.122  1.2837  1.9826  2.0301
 9168SOL     OW39136   4.391   3.164   1.638  0.4283  0.3372  0.0039
 9168SOL    HW139137   4.301   3.156   1.670 -0.2563  0.0542 -2.0200
 9168SOL    HW239138   4.440   3.124   1.710  0.6531  0.6093  0.0052
 9169SOL     OW39139   4.241   3.681  10.054  0.1800  0.7529 -0.5280
 9169SOL    HW139140   4.199   3.597  10.072  1.4677  0.2244  0.0347
 9169SOL    HW239141   4.332   3.655  10.036  0.3148  1.8241 -1.4023
 9170SOL     OW39142   2.066   1.651   4.835  0.3295 -0.1038 -0.2295
 9170SOL    HW139143   2.051   1.666   4.928  0.2037 -0.7758 -0.1403
 9170SOL    HW239144   2.103   1.563   4.831 -2.9209 -1.5042  0.2597
 9171SOL     OW39145   0.060   2.329  17.416 -0.0909 -0.5328 -0.3356
 9171SOL    HW139146   0.073   2.273  17.493 -1.1432  0.2336  0.4122
 9171SOL    HW239147   0.065   2.267  17.343  1.2339 -0.4085 -0.3517
 9172SOL     OW39148   1.230   0.196   6.046 -0.2764  0.0997  0.5182
 9172SOL    HW139149   1.186   0.135   5.987  1.4699 -2.1968  1.6023
 9172SOL    HW239150   1.189   0.276   6.014 -2.1752 -1.5320 -1.1259
 9173SOL     OW39151   2.338   2.104   3.749  0.0111 -0.0529  0.1202
 9173SOL    HW139152   2.404   2.048   3.789  1.0744  2.1444  1.4164
 9173SOL    HW239153   2.348   2.177   3.810 -0.7985 -2.8232  3.5952
 9174SOL     OW39154   1.658   0.566   7.995 -0.1251  0.5126 -0.6039
 9174SOL    HW139155   1.601   0.637   8.025  3.2644  2.6958  0.5287
 9174SOL    HW239156   1.614   0.489   8.033  0.4942 -0.0636 -1.0546
 9175SOL     OW39157   4.419   3.716   7.206 -0.2127  0.1258 -0.1685
 9175SOL    HW139158   4.367   3.786   7.167 -0.1195  1.0596  1.3740
 9175SOL    HW239159   4.394   3.641   7.153 -0.5582 -0.6972  1.1796
 9176SOL     OW39160   2.605   0.039   5.016  0.6601 -0.8040 -0.4524
 9176SOL    HW139161   2.535   4.710   5.005 -0.9844  1.2367 -1.9636
 9176SOL    HW239162   2.592   0.061   5.108 -2.6602  1.0036 -1.3601
 9177SOL     OW39163   2.063   3.804  17.560  0.3035  0.3213  0.2755
 9177SOL    HW139164   1.977   3.844  17.576 -0.0812 -0.5445  0.3760
 9177SOL    HW239165   2.043   3.747  17.486  0.8316  0.4243  0.0549
 9178SOL     OW39166   2.318   0.616   2.547 -0.1912  0.1440  0.1664
 9178SOL    HW139167   2.347   0.525   2.541 -2.2651 -0.6379  2.3079
 9178SOL    HW239168   2.243   0.613   2.605  0.0003  0.8550  0.4462
 9179SOL     OW39169   0.051   0.871  13.118 -0.1854 -0.1385  0.0514
 9179SOL    HW139170   0.017   0.923  13.191 -2.0203 -1.7465  0.3471
 9179SOL    HW239171   4.703   0.835  13.085  0.3843 -0.9730 -0.4689
 9180SOL     OW39172   4.467   2.911  10.917  0.0177  0.4632  0.0935
 9180SOL    HW139173   4.478   2.955  11.001 -1.8810 -0.9764  1.1055
 9180SOL    HW239174   4.372   2.899  10.921  0.1048 -0.7976 -1.5870
 9181SOL     OW39175   1.872   2.347   4.113 -0.3028  0.0199 -0.2927
 9181SOL    HW139176   1.827   2.299   4.043  2.6798  0.5297 -2.5736
 9181SOL    HW239177   1.837   2.299   4.188 -0.4000  2.1999  1.0664
 9182SOL     OW39178   0.910   1.223   4.618  0.3212 -0.5747 -0.3642
 9182SOL    HW139179   0.896   1.307   4.663 -0.2379 -1.2211  0.6743
 9182SOL    HW239180   0.820   1.191   4.619  0.4367 -0.9007 -0.4149
 9183SOL     OW39181   3.711   3.947   7.152  0.3156 -0.6491 -0.0858
 9183SOL    HW139182   3.698   4.018   7.214  2.4846  0.0344 -0.3897
 9183SOL    HW239183   3.652   3.969   7.080  0.4620 -0.4361 -0.1426
 9184SOL     OW39184   4.525   4.525   3.588  0.0854 -0.0899 -0.1108
 9184SOL    HW139185   4.460   4.528   3.658  0.3149 -0.7290  0.1294
 9184SOL    HW239186   4.485   4.589   3.529 -1.6084 -2.5122 -1.6053
 9185SOL     OW39187   0.878   3.361   5.196  0.4876  0.0502 -0.3006
 9185SOL    HW139188   0.814   3.413   5.245  1.7260  1.1707  0.1402
 9185SOL    HW239189   0.956   3.352   5.250 -0.8569 -1.1378  1.4104
 9186SOL     OW39190   0.265   3.527  13.295  0.5056 -0.0265  0.2944
 9186SOL    HW139191   0.308   3.452  13.335 -2.7661 -1.5018  0.9714
 9186SOL    HW239192   0.175   3.506  13.318  0.5692  0.1771  0.7326
 9187SOL     OW39193   2.068   0.631   2.196 -0.3364  0.0676 -0.3576
 9187SOL    HW139194   2.110   0.546   2.206  1.1130  0.5047 -2.5374
 9187SOL    HW239195   2.141   0.680   2.233  0.2487  0.2927 -1.8019
 9188SOL     OW39196   1.342   1.490  14.590  0.0283 -0.2751  0.4383
 9188SOL    HW139197   1.349   1.542  14.510  0.7603 -1.1381 -0.0497
 9188SOL    HW239198   1.247   1.494  14.598  0.0140  0.1986  0.0611
 9189SOL     OW39199   2.929   4.514   2.743  0.0768  0.0270 -0.2346
 9189SOL    HW139200   2.950   4.527   2.835  1.3265 -2.9923 -0.1064
 9189SOL    HW239201   2.969   4.591   2.701  0.4269 -0.0416 -0.0253
 9190SOL     OW39202   4.382   4.245   5.673  0.4400  0.0360 -0.2677
 9190SOL    HW139203   4.470   4.208   5.662 -0.1295 -1.9912  1.8068
 9190SOL    HW239204   4.379   4.297   5.593 -2.1938  0.7311  0.2862
 9191SOL     OW39205   3.343   2.973   2.102 -0.7132  0.2593 -0.2371
 9191SOL    HW139206   3.373   3.053   2.058  1.9056  0.4962  1.9856
 9191SOL    HW239207   3.392   2.963   2.183  0.8846  2.1400 -0.9508
 9192SOL     OW39208   3.806   2.636   2.114  0.6622 -0.9856 -0.2856
 9192SOL    HW139209   3.735   2.632   2.178  1.0486  0.8623  0.2585
 9192SOL    HW239210   3.796   2.552   2.069 -1.4396 -0.9450  0.1126
 9193SOL     OW39211   4.315   2.006   3.893 -0.1867  0.2937 -0.6929
 9193SOL    HW139212   4.410   2.016   3.887 -0.1641  1.0204  0.8630
 9193SOL    HW239213   4.308   1.911   3.898 -0.6091  0.2150 -2.7702
 9194SOL     OW39214   0.440   1.147   0.309  0.6271 -0.5855 -0.4658
 9194SOL    HW139215   0.370   1.084   0.292  0.2957 -0.4829  0.5500
 9194SOL    HW239216   0.510   1.083   0.320 -1.2035 -2.0205  2.5890
 9195SOL     OW39217   4.487   3.431   2.587 -0.3832 -0.3651  0.0448
 9195SOL    HW139218   4.519   3.431   2.677  0.9130 -1.7285 -0.4230
 9195SOL    HW239219   4.489   3.525   2.565 -0.1791 -1.0158 -2.7292
 9196SOL     OW39220   3.241   3.138   3.894  0.2038 -0.6162  0.3488
 9196SOL    HW139221   3.248   3.096   3.980  0.4022  1.0638  1.1475
 9196SOL    HW239222   3.209   3.066   3.841  2.1688  0.0764 -1.8046
 9197SOL     OW39223   4.266   2.147   4.130 -0.0690  0.1158  0.0778
 9197SOL    HW139224   4.296   2.150   4.039  2.8428  3.3074  1.1513
 9197SOL    HW239225   4.291   2.058   4.155  0.2650  0.2216  0.1195
 9198SOL     OW39226   0.503   0.524   3.429  0.4246 -0.1464 -0.0246
 9198SOL    HW139227   0.490   0.456   3.363  0.3380 -0.6225  0.4884
 9198SOL    HW239228   0.599   0.522   3.429  0.4285 -0.0390 -2.3304
 9199SOL     OW39229   0.651   2.620   3.233 -0.0038  0.1533 -0.0086
 9199SOL    HW139230   0.562   2.652   3.246  0.1705  1.0020 -0.9655
 9199SOL    HW239231   0.674   2.661   3.150  0.4400 -0.6123 -0.2617
 9200SOL     OW39232   2.197   4.098   3.321  0.3625  0.3480 -0.4771
 9200SOL    HW139233   2.206   4.006   3.345 -1.3777  0.2902 -0.0683
 9200SOL    HW239234   2.111   4.099   3.278 -0.3265 -0.1631  0.9082
 9201SOL     OW39235   2.045   3.019  16.663 -0.0489 -0.6438  0.1300
 9201SOL    HW139236   2.126   3.039  16.710  0.2537  1.7752 -1.4896
 9201SOL    HW239237   2.063   2.928  16.638  1.1486 -1.3177  3.2789
 9202SOL     OW39238   4.120   1.748   6.634 -0.9217 -0.5999 -0.1584
 9202SOL    HW139239   4.181   1.816   6.605 -1.8179 -0.4250 -1.6258
 9202SOL    HW239240   4.065   1.800   6.692  1.7702  0.5184  1.4034
 9203SOL     OW39241   0.648   1.097   8.605 -0.4352  0.4775 -0.6427
 9203SOL    HW139242   0.588   1.026   8.628  2.7422 -1.8926  0.3537
 9203SOL    HW239243   0.617   1.161   8.669  0.3907 -0.9125  1.1564
 9204SOL     OW39244   1.073   0.850  12.103 -0.3095 -0.6685  0.0133
 9204SOL    HW139245   0.991   0.844  12.054 -0.0131 -2.5986 -0.2379
 9204SOL    HW239246   1.053   0.880  12.192 -2.7307 -1.4140 -0.3024
 9205SOL     OW39247   4.240   1.625   9.532  0.5689 -0.0672  0.1805
 9205SOL    HW139248   4.202   1.587   9.611  0.3681 -1.1758 -0.4342
 9205SOL    HW239249   4.202   1.566   9.466  0.9143 -0.6287  0.4818
 9206SOL     OW39250   0.538   3.463   9.480 -0.1491  0.0466  0.4202
 9206SOL    HW139251   0.459   3.410   9.472  0.5564 -1.0444  0.6096
 9206SOL    HW239252   0.518   3.556   9.466  1.6843  0.5126  0.8572
 9207SOL     OW39253   1.628   0.721   2.767  0.0824 -0.0286  0.9389
 9207SOL    HW139254   1.668   0.808   2.771  2.3240 -1.0615  1.0212
 9207SOL    HW239255   1.634   0.689   2.857 -0.0929 -3.1875 -0.1534
 9208SOL     OW39256   0.455   3.680  12.097 -0.2824  0.2080  0.3328
 9208SOL    HW139257   0.424   3.769  12.085  0.0250 -0.0371 -2.1268
 9208SOL    HW239258   0.459   3.692  12.192  1.2359 -0.7644  0.3916
 9209SOL     OW39259   0.872   0.135   1.007 -0.1437 -0.0818  0.1168
 9209SOL    HW139260   0.787   0.153   0.966 -0.7558 -2.5270  0.2748
 9209SOL    HW239261   0.904   0.070   0.944 -1.0584 -0.1725 -0.2552
 9210SOL     OW39262   1.071   3.655   3.439  0.0381 -1.0051  0.1526
 9210SOL    HW139263   1.091   3.563   3.457 -0.5119 -0.9385  1.1094
 9210SOL    HW239264   0.977   3.662   3.450 -0.4453 -1.9265 -3.1754
 9211SOL     OW39265   1.282   3.337   2.087  0.5161 -0.1002  0.3326
 9211SOL    HW139266   1.377   3.329   2.092  0.1851 -3.4069  1.4803
 9211SOL    HW239267   1.248   3.314   2.174  1.2519  0.1891  0.6916
 9212SOL     OW39268   2.095   2.490   2.717 -0.1059 -0.2855 -0.2181
 9212SOL    HW139269   2.124   2.540   2.640 -0.5060  1.5585  0.8092
 9212SOL    HW239270   2.043   2.546   2.775 -1.5312 -1.6950 -0.1676
 9213SOL     OW39271   0.411   2.713   4.773  0.5528 -0.0857  0.5300
 9213SOL    HW139272   0.351   2.676   4.708 -0.3109  0.8609  0.8016
 9213SOL    HW239273   0.425   2.636   4.828 -3.2000 -0.3313  1.1535
 9214SOL     OW39274   4.512   1.966   8.449  0.0157 -0.4050 -0.1088
 9214SOL    HW139275   4.509   2.037   8.385 -0.3958  0.3585  0.7551
 9214SOL    HW239276   4.602   1.968   8.482  0.0283 -1.0276 -0.0968
 9215SOL     OW39277   1.558   0.312  13.315  0.1914  0.2596  0.6379
 9215SOL    HW139278   1.490   0.253  13.282  0.5343  0.6380 -0.7331
 9215SOL    HW239279   1.585   0.272  13.398 -0.9580  0.1184  0.9503
 9216SOL     OW39280   1.160   0.996  10.811 -0.3913  0.1822  0.5759
 9216SOL    HW139281   1.145   0.939  10.886  1.0773 -0.7063  0.1956
 9216SOL    HW239282   1.099   0.958  10.748 -1.6724 -0.6742  2.3327
 9217SOL     OW39283   0.651   1.157   4.618  0.6747  1.0257  0.4104
 9217SOL    HW139284   0.571   1.185   4.573 -0.4510  0.1906  1.9102
 9217SOL    HW239285   0.645   1.063   4.602 -0.4389  0.6237  3.1676
 9218SOL     OW39286   4.578   4.037   5.607  0.0350 -0.3781  0.4638
 9218SOL    HW139287   4.617   4.005   5.688  0.0867 -0.4719  0.4015
 9218SOL    HW239288   4.650   4.018   5.547 -0.3449 -2.8775  0.7882
 9219SOL     OW39289   4.643   3.445   4.270  0.0512 -0.2863 -0.1081
 9219SOL    HW139290   4.722   3.392   4.254  0.7219  0.7702 -0.3368
 9219SOL    HW239291   4.623   3.468   4.179  0.2421  1.8159  0.3891
 9220SOL     OW39292   0.314   1.172   9.833 -0.1754  0.2453 -0.5707
 9220SOL    HW139293   0.223   1.186   9.860  0.4997  2.0493  0.7710
 9220SOL    HW239294   0.296   1.165   9.739  0.6071  1.9425 -0.8382
 9221SOL     OW39295   1.134   2.121  16.382  0.9672  0.5307  0.2063
 9221SOL    HW139296   1.082   2.181  16.435  1.0248 -2.1759  3.3597
 9221SOL    HW239297   1.185   2.180  16.328  0.7075 -0.2662 -0.9188
 9222SOL     OW39298   1.579   4.619   2.337 -0.4246  0.0710 -0.2755
 9222SOL    HW139299   1.620   4.550   2.389 -1.2893 -1.1158 -1.1816
 9222SOL    HW239300   1.577   4.697   2.393  1.5457 -0.0583  0.0031
 9223SOL     OW39301   3.206   0.499   3.112  0.2517  0.2841 -0.2900
 9223SOL    HW139302   3.142   0.439   3.074 -1.1511  2.1227 -0.8298
 9223SOL    HW239303   3.146   0.567   3.142 -2.6507 -1.2051 -2.7156
 9224SOL     OW39304   4.510   2.834   2.365 -0.3349 -0.1536  0.4403
 9224SOL    HW139305   4.415   2.826   2.371 -0.1626 -3.2953 -1.0160
 9224SOL    HW239306   4.515   2.929   2.373  1.7592 -0.4628  2.8723
 9225SOL     OW39307   1.941   3.532   3.593 -0.1610  0.1939 -0.0383
 9225SOL    HW139308   1.946   3.620   3.631 -3.1390  0.3404  0.0468
 9225SOL    HW239309   1.864   3.501   3.641 -0.6101 -0.4168 -1.1385
 9226SOL     OW39310   0.689   1.576   2.223 -0.5072  0.5926  0.0907
 9226SOL    HW139311   0.726   1.611   2.304  1.4290 -0.7484 -0.2071
 9226SOL    HW239312   0.736   1.493   2.213  0.4945  1.0684  0.7833
 9227SOL     OW39313   1.183   2.036  10.302 -0.3777 -0.5202 -0.4383
 9227SOL    HW139314   1.088   2.026  10.310 -0.1223 -0.2406  3.0923
 9227SOL    HW239315   1.205   2.046  10.394 -1.5681 -3.2280  0.1679
 9228SOL     OW39316   0.673   1.718   0.309 -0.6165 -0.3494  0.3501
 9228SOL    HW139317   0.588   1.676   0.295  0.8044 -2.1639 -2.9793
 9228SOL    HW239318   0.739   1.656   0.340  0.4784  0.2049 -0.8648
 9229SOL     OW39319   1.954   1.072   9.205 -0.7296 -0.3116  0.0516
 9229SOL    HW139320   1.950   1.064   9.301 -0.6494  0.0861  0.0874
 9229SOL    HW239321   1.878   1.130   9.199 -2.3803 -2.3336  1.0828
 9230SOL     OW39322   3.144   0.077  16.295 -0.0734  0.0914  0.2283
 9230SOL    HW139323   3.203   0.149  16.275 -1.3725  1.0789  0.0452
 9230SOL    HW239324   3.090   0.110  16.367 -1.4301 -0.5175 -0.5140
 9231SOL     OW39325   4.691   0.988  16.731 -0.2080  0.3536 -0.0210
 9231SOL    HW139326   0.044   0.983  16.768  0.3552  0.0795 -1.3930
 9231SOL    HW239327   4.709   0.938  16.651  1.6202  1.5456 -0.3435
 9232SOL     OW39328   2.426   2.433   8.927 -0.1626 -0.2598  0.0317
 9232SOL    HW139329   2.372   2.396   8.858 -1.6740 -0.8426  1.5105
 9232SOL    HW239330   2.361   2.484   8.976  0.1881  0.1072  0.1172
 9233SOL     OW39331   2.606   4.533  10.700  0.4832 -0.1114 -0.8609
 9233SOL    HW139332   2.571   4.481  10.772 -0.7994 -0.3271 -1.6544
 9233SOL    HW239333   2.644   4.599  10.758 -2.4578  0.2697  0.6023
 9234SOL     OW39334   1.501   4.242   2.434  0.2076 -0.0468  0.4560
 9234SOL    HW139335   1.527   4.179   2.366  2.7731 -1.1203  2.4398
 9234SOL    HW239336   1.572   4.307   2.426 -0.2902  0.3639 -0.7493
 9235SOL     OW39337   0.050   0.954   2.860 -1.0370 -0.0718 -0.1996
 9235SOL    HW139338   0.044   0.994   2.947 -1.1272 -1.6981  0.5437
 9235SOL    HW239339   0.039   0.864   2.890  1.0389 -0.7369 -1.4398
 9236SOL     OW39340   1.429   4.720   5.870 -0.2481  0.1359  0.1481
 9236SOL    HW139341   1.492   4.656   5.901 -0.1551 -0.0185 -0.3584
 9236SOL    HW239342   1.341   4.692   5.896 -0.9497  0.7822 -1.4750
 9237SOL     OW39343   2.579   2.328   0.649 -0.5367  0.0836  0.4761
 9237SOL    HW139344   2.528   2.314   0.569 -0.4807 -1.9251  0.8069
 9237SOL    HW239345   2.659   2.286   0.617  0.2328  0.7439  1.5105
 9238SOL     OW39346   2.357   0.720   5.036  0.2445 -0.2957 -0.2444
 9238SOL    HW139347   2.335   0.813   5.026  2.0449 -0.1093 -2.4518
 9238SOL    HW239348   2.448   0.744   5.051  0.3168 -0.4721 -0.3970
 9239SOL     OW39349   4.110   0.766  17.210  0.0823 -0.1562 -0.3500
 9239SOL    HW139350   4.068   0.732  17.131 -1.2970  0.2463  0.2112
 9239SOL    HW239351   4.184   0.819  17.180 -1.2791  0.4017 -2.6685
 9240SOL     OW39352   1.179   0.365   2.834  0.0089 -0.0181 -0.0546
 9240SOL    HW139353   1.113   0.319   2.782 -0.4948  1.5012 -0.7279
 9240SOL    HW239354   1.182   0.449   2.789  1.9339  0.1120  0.3332
 9241SOL     OW39355   1.357   1.116   5.961 -0.1393  0.9920  0.1089
 9241SOL    HW139356   1.343   1.104   5.867 -0.8506 -0.3292  0.3864
 9241SOL    HW239357   1.446   1.149   5.970  0.0885  0.2669  0.4824
 9242SOL     OW39358   0.075   2.962   7.907 -0.5158  0.7520  0.2119
 9242SOL    HW139359   0.102   2.891   7.965 -4.1320  1.5105  2.8193
 9242SOL    HW239360   0.035   2.916   7.833  0.0632  0.5262  0.0364
 9243SOL     OW39361   1.684   1.411   5.191  0.1448 -0.5452  0.7013
 9243SOL    HW139362   1.770   1.440   5.159 -0.4777  0.8292  0.2940
 9243SOL    HW239363   1.678   1.455   5.275 -0.3196  1.5664 -0.4290
 9244SOL     OW39364   2.077   4.725   4.746  0.2997  0.3771  0.0424
 9244SOL    HW139365   2.141   0.061   4.751 -2.0151  2.4515 -0.3210
 9244SOL    HW239366   2.033   0.035   4.674  0.4006 -1.7801 -1.3767
 9245SOL     OW39367   0.087   1.305   9.934  0.1572  0.3068  0.7689
 9245SOL    HW139368   0.074   1.258  10.016  1.6903 -1.0169  0.2596
 9245SOL    HW239369   0.107   1.395   9.960 -0.6328  1.5840 -3.0165
 9246SOL     OW39370   0.867   1.177  14.991 -0.5283 -0.4749  0.1196
 9246SOL    HW139371   0.952   1.182  14.946 -0.5464  2.7682  0.4710
 9246SOL    HW239372   0.852   1.084  15.011 -1.7300 -0.1365  0.7374
 9247SOL     OW39373   2.629   1.634   2.742 -0.1142 -0.6332 -0.2962
 9247SOL    HW139374   2.658   1.623   2.833  1.2013 -1.5788 -0.8371
 9247SOL    HW239375   2.558   1.697   2.749  1.1382  0.6623  0.6839
 9248SOL     OW39376   0.588   0.198   6.567  0.1812 -0.1041  0.2364
 9248SOL    HW139377   0.606   0.279   6.520 -3.4808 -0.3222 -1.5417
 9248SOL    HW239378   0.647   0.135   6.525 -0.1376 -0.7940  0.8103
 9249SOL     OW39379   4.183   3.322   8.609  0.1087 -0.6069 -0.0071
 9249SOL    HW139380   4.151   3.389   8.549  1.9566 -1.7395 -2.2728
 9249SOL    HW239381   4.115   3.254   8.602  0.2760 -0.7813  0.0507
 9250SOL     OW39382   3.466   3.067   5.413  0.2034  0.4991  0.5584
 9250SOL    HW139383   3.556   3.043   5.396  0.0970  1.0254 -0.7123
 9250SOL    HW239384   3.453   3.117   5.332 -1.9948 -0.0152  0.5774
 9251SOL     OW39385   1.366   3.326   4.723 -0.0681  0.1000  0.5145
 9251SOL    HW139386   1.350   3.421   4.722  0.5960  0.2532  3.0784
 9251SOL    HW239387   1.283   3.298   4.762 -0.7061  0.4583 -0.5915
 9252SOL     OW39388   0.396   0.665   5.573 -0.0334  0.1935  0.1072
 9252SOL    HW139389   0.407   0.760   5.577 -0.1978  0.1293  2.0913
 9252SOL    HW239390   0.322   0.663   5.634 -1.0911  2.4133 -1.1261
 9253SOL     OW39391   4.050   4.678  15.577 -0.2841 -0.5001  0.0716
 9253SOL    HW139392   3.963   4.666  15.616 -0.5591 -0.9493 -0.6780
 9253SOL    HW239393   4.052   4.602  15.519  0.8986 -0.2068 -0.2781
 9254SOL     OW39394   4.076   0.035   1.714  1.0146 -0.3247  0.6217
 9254SOL    HW139395   4.106   0.124   1.697  1.8291 -0.2095  2.6709
 9254SOL    HW239396   3.998   0.053   1.766  0.3805  0.4785 -0.6067
 9255SOL     OW39397   3.288   4.510   6.101  1.0701 -0.7658  0.3464
 9255SOL    HW139398   3.210   4.495   6.155  0.2869  0.4436 -0.4538
 9255SOL    HW239399   3.330   4.424   6.109 -0.1589 -1.3375  0.7295
 9256SOL     OW39400   1.049   0.617  10.055  0.4658 -0.1246 -0.1271
 9256SOL    HW139401   1.070   0.569  10.135  4.7778 -1.1873 -1.8607
 9256SOL    HW239402   1.132   0.637  10.012 -0.3922 -2.3848 -2.8847
 9257SOL     OW39403   0.201   1.754   4.220  0.4155  0.2355 -0.6987
 9257SOL    HW139404   0.241   1.791   4.299 -1.6748  0.2475  0.3402
 9257SOL    HW239405   0.150   1.681   4.255 -1.3856  1.3424 -1.0636
 9258SOL     OW39406   3.203   3.650   3.216  0.5924 -0.4373  0.5935
 9258SOL    HW139407   3.152   3.574   3.245 -1.1279 -0.3633 -2.2114
 9258SOL    HW239408   3.136   3.718   3.219  1.5631  0.5580 -0.4939
 9259SOL     OW39409   4.165   2.738   8.858 -0.1728  0.0157  0.4676
 9259SOL    HW139410   4.166   2.810   8.795  1.2352 -1.3659 -1.1340
 9259SOL    HW239411   4.260   2.726   8.855 -0.5824 -3.2517 -0.1074
 9260SOL     OW39412   1.665   4.291   1.835  0.2677  0.6893  0.5689
 9260SOL    HW139413   1.651   4.271   1.742 -0.7690  0.9156  0.6774
 9260SOL    HW239414   1.571   4.276   1.850  0.3676 -1.7033 -1.1794
 9261SOL     OW39415   2.797   3.169  15.120 -0.4557 -0.4401 -0.3315
 9261SOL    HW139416   2.709   3.196  15.094 -0.7559 -0.6129  0.4797
 9261SOL    HW239417   2.796   3.088  15.069 -0.9316 -0.1648 -0.7640
 9262SOL     OW39418   3.400   4.312   0.296  0.0559 -0.1704 -0.3816
 9262SOL    HW139419   3.316   4.300   0.341  0.1440  1.8493  0.3170
 9262SOL    HW239420   3.406   4.227   0.253  0.4847 -0.4161  0.1643
 9263SOL     OW39421   0.015   4.050  17.370 -0.3470  0.7132  0.7310
 9263SOL    HW139422   4.663   4.028  17.405 -0.0154  1.6159  2.1118
 9263SOL    HW239423   0.066   4.033  17.449  0.9918 -0.3846 -0.3553
 9264SOL     OW39424   1.050   2.810   3.187  0.6907  0.8072  0.4450
 9264SOL    HW139425   1.012   2.768   3.263  3.2486 -0.7142  0.8867
 9264SOL    HW239426   1.021   2.900   3.205 -0.0693  0.6566 -0.0167
 9265SOL     OW39427   1.251   2.510   7.094 -0.0178  0.3839  0.3918
 9265SOL    HW139428   1.296   2.456   7.029 -0.6338 -0.1430  0.4038
 9265SOL    HW239429   1.224   2.449   7.163  2.2165 -1.9484 -0.7952
 9266SOL     OW39430   2.810   2.806   3.688 -0.3528 -0.2738 -0.4283
 9266SOL    HW139431   2.825   2.749   3.763  1.8583 -0.3993 -0.9697
 9266SOL    HW239432   2.714   2.808   3.683 -0.3678 -3.7600 -1.4520
 9267SOL     OW39433   1.675   1.892  12.082  0.5770  0.2881  0.3247
 9267SOL    HW139434   1.691   1.829  12.153 -0.0039 -1.4926 -1.1201
 9267SOL    HW239435   1.705   1.843  12.006  0.7136  0.1653  0.4586
 9268SOL     OW39436   1.959   2.642   2.946 -0.1705 -0.2239 -0.3209
 9268SOL    HW139437   1.939   2.584   3.019 -0.0125 -0.0265 -0.1230
 9268SOL    HW239438   2.042   2.670   2.984 -0.7731 -0.8104  1.4124
 9269SOL     OW39439   3.519   1.572   3.196  0.5313 -0.0427 -0.3172
 9269SOL    HW139440   3.510   1.611   3.109 -1.2994 -1.0559 -0.5794
 9269SOL    HW239441   3.613   1.569   3.216  0.6164 -1.8651 -0.9635
 9270SOL     OW39442   3.476   0.779   2.150 -0.2612 -0.0718 -0.1995
 9270SOL    HW139443   3.474   0.869   2.183 -2.1634 -0.1382 -0.1637
 9270SOL    HW239444   3.474   0.722   2.226  2.1174 -1.0968 -0.8942
 9271SOL     OW39445   2.679   4.579  12.365 -0.0242  0.2497 -0.2399
 9271SOL    HW139446   2.684   4.483  12.367 -0.0841  0.2796  1.5371
 9271SOL    HW239447   2.612   4.597  12.299 -1.4475 -2.4204  0.4719
 9272SOL     OW39448   3.463   1.465   6.752 -0.1481  0.0496  0.2085
 9272SOL    HW139449   3.488   1.419   6.833  0.2144  1.6800  1.0294
 9272SOL    HW239450   3.447   1.551   6.791  0.6652 -0.2582  1.2432
 9273SOL     OW39451   4.066   1.001   7.232 -0.7911 -0.2616 -0.4417
 9273SOL    HW139452   3.997   1.061   7.258 -0.9429 -0.1441 -1.1191
 9273SOL    HW239453   4.105   0.976   7.315 -0.0224 -2.0522 -1.3335
 9274SOL     OW39454   2.429   2.120   9.035 -0.0373 -0.0717  0.0090
 9274SOL    HW139455   2.510   2.118   8.983 -1.6878  0.1452 -2.5395
 9274SOL    HW239456   2.418   2.028   9.059  0.1567 -0.2724 -0.6791
 9275SOL     OW39457   2.092   0.760   0.378  0.0708  0.3872 -0.1094
 9275SOL    HW139458   2.075   0.684   0.433 -0.5212  1.0858  0.6695
 9275SOL    HW239459   2.045   0.743   0.297  0.1349  2.3988 -0.5575
 9276SOL     OW39460   2.482   0.032   1.010 -0.1651 -0.2761 -0.5251
 9276SOL    HW139461   2.513   4.690   0.963  0.8850  0.7353 -1.4800
 9276SOL    HW239462   2.445   0.080   0.937  0.3650 -0.3701 -0.8552
 9277SOL     OW39463   1.257   3.333   5.187 -0.5717  0.6782  0.1577
 9277SOL    HW139464   1.274   3.254   5.239 -2.5185  1.2737  1.6718
 9277SOL    HW239465   1.217   3.391   5.251 -0.2153  0.6614  0.3984
 9278SOL     OW39466   4.257   2.272   8.234 -0.3896 -0.0418  0.0198
 9278SOL    HW139467   4.170   2.234   8.244 -0.8357  0.9858  0.0537
 9278SOL    HW239468   4.246   2.367   8.233  3.0382  0.3557  0.1826
 9279SOL     OW39469   1.419   0.519  13.154  0.8224 -0.4565 -0.0631
 9279SOL    HW139470   1.478   0.453  13.191 -0.8245 -2.5672 -1.2197
 9279SOL    HW239471   1.447   0.592  13.209 -0.7017 -0.3186  0.5331
 9280SOL     OW39472   4.276   0.358  16.411  0.3528  0.1702  0.9906
 9280SOL    HW139473   4.195   0.405  16.392  1.2456  0.2710 -2.4634
 9280SOL    HW239474   4.326   0.366  16.330 -1.0518 -1.7938 -0.0484
 9281SOL     OW39475   3.897   0.163  16.535 -0.1797 -0.1593  0.2509
 9281SOL    HW139476   3.976   0.210  16.561 -1.2753  2.2382 -0.7902
 9281SOL    HW239477   3.877   0.112  16.614 -0.2689 -1.0590 -0.3525
 9282SOL     OW39478   1.016   0.882  16.484 -0.9780 -0.1034  0.0062
 9282SOL    HW139479   0.980   0.831  16.557 -1.8930  1.5506  0.7001
 9282SOL    HW239480   1.058   0.957  16.526  1.3666 -0.3266 -1.9993
 9283SOL     OW39481   0.112   1.625   9.996 -0.0856  0.5532  0.7051
 9283SOL    HW139482   0.057   1.669   9.931  0.8000 -0.3369 -0.6537
 9283SOL    HW239483   0.049   1.584  10.055 -1.1241 -0.1596 -0.8809
 9284SOL     OW39484   2.470   3.390  17.194 -0.1168  0.3796 -0.1610
 9284SOL    HW139485   2.511   3.459  17.246 -0.6937  1.1386 -0.7157
 9284SOL    HW239486   2.531   3.317  17.203 -0.6066 -0.3090 -2.5482
 9285SOL     OW39487   1.656   1.697   6.964  0.7389  0.1090 -0.3462
 9285SOL    HW139488   1.565   1.709   6.992  1.2686 -0.0619  1.4422
 9285SOL    HW239489   1.694   1.777   7.001  2.8647 -2.7362  3.5578
 9286SOL     OW39490   3.831   1.152   7.740 -0.1099 -0.7619  0.1474
 9286SOL    HW139491   3.810   1.070   7.785 -1.5756 -0.7213 -0.4510
 9286SOL    HW239492   3.808   1.213   7.810  2.5215  0.7629 -0.2977
 9287SOL     OW39493   2.585   2.784   9.031 -0.4083 -0.0575 -0.5982
 9287SOL    HW139494   2.536   2.794   9.112  1.2387 -0.8479  0.4984
 9287SOL    HW239495   2.665   2.738   9.056  0.1656  1.7975  0.8723
 9288SOL     OW39496   3.620   3.133   4.584  0.2101  0.1593  0.2392
 9288SOL    HW139497   3.540   3.083   4.568  0.9933 -0.7566 -0.7294
 9288SOL    HW239498   3.602   3.203   4.521  0.0260  1.7442  2.0563
 9289SOL     OW39499   2.453   4.312   2.618 -0.0333 -0.4916 -0.3348
 9289SOL    HW139500   2.468   4.326   2.524  2.7318  1.9563  0.4501
 9289SOL    HW239501   2.541   4.297   2.654 -0.6340  1.4269  1.9314
 9290SOL     OW39502   0.885   0.158   3.933 -0.1305  0.2210 -0.2410
 9290SOL    HW139503   0.971   0.118   3.921 -0.6344 -0.2120 -2.4136
 9290SOL    HW239504   0.838   0.097   3.989  2.1036 -0.2792  1.0638
 9291SOL     OW39505   4.565   3.375   6.052 -0.1447 -0.2555  0.6027
 9291SOL    HW139506   4.593   3.314   5.984  0.9375 -1.6957  2.3524
 9291SOL    HW239507   4.474   3.391   6.026  1.2523  3.5007 -2.0203
 9292SOL     OW39508   4.706   3.325   8.419 -0.4534  0.6022 -0.2295
 9292SOL    HW139509   4.662   3.242   8.436  0.6217 -0.0675 -0.6963
 9292SOL    HW239510   4.671   3.381   8.489 -2.4182 -0.6637 -0.2071
 9293SOL     OW39511   3.666   2.008   9.127 -0.3106 -0.1421 -0.6482
 9293SOL    HW139512   3.579   1.983   9.159  0.1336 -0.4072  0.3638
 9293SOL    HW239513   3.665   1.969   9.039  2.2869 -0.8683 -0.3437
 9294SOL     OW39514   4.577   1.316   2.298  0.8420  0.4733 -0.3187
 9294SOL    HW139515   4.626   1.359   2.227  0.7775  1.2449  0.1097
 9294SOL    HW239516   4.651   1.297   2.356  0.8493  0.5162 -0.3142
 9295SOL     OW39517   3.311   0.146   8.252  0.1348  0.1738  0.0285
 9295SOL    HW139518   3.238   0.198   8.220  0.1973  0.9999  1.2043
 9295SOL    HW239519   3.323   0.091   8.175 -0.5231 -0.3283  0.2866
 9296SOL     OW39520   1.588   0.576   6.669  0.2147  0.6829  0.2821
 9296SOL    HW139521   1.658   0.624   6.712 -0.1275  0.8544  0.6523
 9296SOL    HW239522   1.618   0.601   6.581  0.9519  0.2817  0.4238
 9297SOL     OW39523   1.086   1.361   2.153  0.5181 -0.0920 -0.1887
 9297SOL    HW139524   1.086   1.348   2.058 -1.5322 -0.4969 -0.1271
 9297SOL    HW239525   1.180   1.359   2.173  1.0540 -0.8302 -2.6685
 9298SOL     OW39526   2.622   3.518   4.982  0.3900  0.0690  0.2148
 9298SOL    HW139527   2.552   3.510   4.918  0.7498 -1.5811  0.0252
 9298SOL    HW239528   2.672   3.443   4.949  1.8528  1.9819 -1.8449
 9299SOL     OW39529   2.451   0.515   0.316  0.0788 -0.0615 -0.2992
 9299SOL    HW139530   2.381   0.455   0.289  1.0634 -1.3547  0.0415
 9299SOL    HW239531   2.407   0.563   0.387 -0.0298 -2.4056  1.2164
 9300SOL     OW39532   2.550   2.003   3.897  0.2054  0.0709 -0.6384
 9300SOL    HW139533   2.575   1.946   3.969 -0.5401 -0.4075 -0.7632
 9300SOL    HW239534   2.634   2.039   3.869 -0.3531  2.1202  0.3217
 9301SOL     OW39535   1.102   0.473  10.271  0.0399 -0.2321  1.1024
 9301SOL    HW139536   1.091   0.380  10.291 -0.8590 -0.6681 -1.4375
 9301SOL    HW239537   1.192   0.493  10.296 -0.8597  4.8593  0.2900
 9302SOL     OW39538   4.290   1.092   8.127  0.4345 -0.0409 -0.0737
 9302SOL    HW139539   4.236   1.072   8.204 -1.8130 -3.2448 -2.5155
 9302SOL    HW239540   4.281   1.010   8.078 -1.1879 -0.9711  1.7999
 9303SOL     OW39541   0.355   2.608   6.477 -0.5598 -0.2096 -0.2123
 9303SOL    HW139542   0.397   2.575   6.398  0.2038 -3.0426  1.3648
 9303SOL    HW239543   0.276   2.554   6.476  0.3477 -1.4747 -3.3174
 9304SOL     OW39544   4.628   0.583   4.056 -0.2869  0.5344  0.0912
 9304SOL    HW139545   4.722   0.593   4.066 -0.3043 -0.4646  1.2023
 9304SOL    HW239546   4.620   0.502   4.006 -0.8955 -0.1594  1.2973
 9305SOL     OW39547   2.986   3.629   7.988  0.1577 -0.0099 -0.3402
 9305SOL    HW139548   2.893   3.645   8.003 -0.7238 -2.7782 -2.7001
 9305SOL    HW239549   3.026   3.686   8.053  1.7881 -1.5526  0.0118
 9306SOL     OW39550   1.111   2.478   2.759  0.2691  0.1721  0.1605
 9306SOL    HW139551   1.067   2.510   2.838  0.0011  0.9038 -0.2721
 9306SOL    HW239552   1.103   2.552   2.698 -2.5719 -0.9811 -0.8800
 9307SOL     OW39553   2.119   4.096   9.067 -0.8083  0.1647  0.0833
 9307SOL    HW139554   2.097   4.140   9.149  0.6486  0.5496  0.2568
 9307SOL    HW239555   2.042   4.040   9.059 -1.6978  1.4176 -0.1670
 9308SOL     OW39556   1.617   0.433   1.973  0.2078 -0.1994  0.2041
 9308SOL    HW139557   1.591   0.354   2.021  0.4635 -0.2668  0.2279
 9308SOL    HW239558   1.667   0.479   2.040  2.6486 -2.4155 -0.1136
 9309SOL     OW39559   4.328   2.227   9.068  0.0685  0.0148  0.1629
 9309SOL    HW139560   4.246   2.185   9.095  0.4970 -1.4783 -0.8735
 9309SOL    HW239561   4.324   2.291   9.139 -1.0785 -0.4368  0.5112
 9310SOL     OW39562   4.049   4.133  12.564 -0.1843 -0.4080  0.3470
 9310SOL    HW139563   4.101   4.177  12.631  0.2087 -1.1575  0.5428
 9310SOL    HW239564   4.043   4.048  12.608 -0.3347 -0.7253 -0.2867
 9311SOL     OW39565   2.210   3.438  13.648  0.9091  0.2030  0.6324
 9311SOL    HW139566   2.269   3.402  13.714  2.8501 -0.7290 -1.6338
 9311SOL    HW239567   2.172   3.360  13.606 -0.0678  0.9087  0.2075
 9312SOL     OW39568   1.899   2.015   1.355 -0.9029 -0.0047 -0.1252
 9312SOL    HW139569   1.942   1.932   1.334 -0.8998 -0.2779  1.0042
 9312SOL    HW239570   1.845   2.038   1.279 -3.5940  1.6445  2.2733
 9313SOL     OW39571   1.963   0.180   1.182 -0.0982 -0.5850  0.5506
 9313SOL    HW139572   1.889   0.191   1.242 -1.5921  0.1434 -1.4186
 9313SOL    HW239573   2.032   0.230   1.226  1.3136 -3.6757  1.8586
 9314SOL     OW39574   2.242   0.138  17.735 -0.7528 -0.4009  0.1294
 9314SOL    HW139575   2.300   0.082   0.046 -0.4859 -0.3219 -0.0905
 9314SOL    HW239576   2.226   0.091  17.653  2.3385 -1.2696  0.0501
 9315SOL     OW39577   1.694   0.212  13.750  0.5915  0.1726  0.1515
 9315SOL    HW139578   1.682   0.275  13.820 -1.6034 -1.1392  0.9564
 9315SOL    HW239579   1.605   0.177  13.738  1.0965 -1.3121  0.6633
 9316SOL     OW39580   1.605   3.159   6.320 -0.0724  0.3669  0.5468
 9316SOL    HW139581   1.585   3.129   6.231 -0.4254  1.2655  0.3265
 9316SOL    HW239582   1.514   3.168   6.348 -0.9814 -2.2241 -1.5304
 9317SOL     OW39583   3.476   2.650   7.737  0.2666  0.2763  0.2735
 9317SOL    HW139584   3.435   2.586   7.679 -1.6283  1.6478  0.0646
 9317SOL    HW239585   3.434   2.730   7.706  0.7319  0.1186 -0.7547
 9318SOL     OW39586   0.912   0.609  13.042 -0.3518  0.0091  0.3206
 9318SOL    HW139587   1.002   0.594  13.070 -0.2677  0.0320  0.0637
 9318SOL    HW239588   0.914   0.559  12.960 -1.0480 -0.0305  0.3282
 9319SOL     OW39589   0.341   1.997  10.919 -0.0284 -0.4362  0.7095
 9319SOL    HW139590   0.428   1.991  10.958  0.2637  2.3432  0.4606
 9319SOL    HW239591   0.311   2.078  10.959  2.1765  0.5841  0.2857
 9320SOL     OW39592   3.661   2.180   4.211  0.0449 -0.5313 -0.3212
 9320SOL    HW139593   3.611   2.196   4.131  2.7134  0.0730 -1.8728
 9320SOL    HW239594   3.672   2.085   4.200  1.4583 -0.4866  0.6721
 9321SOL     OW39595   1.812   3.061   5.647  0.5814  0.3137 -0.3840
 9321SOL    HW139596   1.802   2.976   5.604  0.5318  1.1866 -2.1002
 9321SOL    HW239597   1.748   3.109   5.596  1.8490 -0.5036 -2.7485
 9322SOL     OW39598   0.361   3.469   9.936 -0.7247 -0.1237 -0.1050
 9322SOL    HW139599   0.431   3.534   9.945  0.4673 -1.9929  4.2197
 9322SOL    HW239600   0.402   3.392   9.976 -3.1950 -1.2386  0.3315
 9323SOL     OW39601   4.127   2.875  10.439 -0.5942 -0.3292  0.4405
 9323SOL    HW139602   4.044   2.900  10.397  0.2904 -0.1594 -1.2053
 9323SOL    HW239603   4.115   2.923  10.521  1.5160 -2.1595  1.8081
 9324SOL     OW39604   0.189   0.227   7.549  0.2520  0.8012 -0.0315
 9324SOL    HW139605   0.230   0.150   7.510 -2.2915 -0.7593  0.3474
 9324SOL    HW239606   0.191   0.301   7.488  1.3138 -0.3026 -1.3172
 9325SOL     OW39607   2.840   2.024   8.691  0.2468 -0.0669 -0.0430
 9325SOL    HW139608   2.887   1.988   8.616  0.4615 -0.7570  0.4166
 9325SOL    HW239609   2.882   1.961   8.750 -0.1831 -1.2862 -1.0476
 9326SOL     OW39610   1.625   2.120   6.980 -0.2114 -0.0604 -0.3755
 9326SOL    HW139611   1.608   2.085   7.067 -0.2086 -0.5695 -0.5852
 9326SOL    HW239612   1.581   2.065   6.915 -0.6716  2.0601 -1.8885
 9327SOL     OW39613   0.862   4.067  11.238  0.8355 -0.0722  0.3398
 9327SOL    HW139614   0.900   4.154  11.252 -0.6082  0.6198  0.0695
 9327SOL    HW239615   0.885   4.027  11.321 -1.6131  2.5687  2.2929
 9328SOL     OW39616   4.242   3.456   8.909 -0.0354  0.3880 -0.4556
 9328SOL    HW139617   4.278   3.391   8.849 -1.4614  1.3435 -2.3140
 9328SOL    HW239618   4.179   3.504   8.856  0.2951  0.5037 -0.7438
 9329SOL     OW39619   0.969   3.668   5.469  0.7959  0.0884 -0.4235
 9329SOL    HW139620   0.966   3.701   5.379  2.7487 -1.4742 -1.0560
 9329SOL    HW239621   0.935   3.740   5.522  0.8261 -0.7639  0.7481
 9330SOL     OW39622   1.650   2.365   7.527  0.5607  0.4249  0.3489
 9330SOL    HW139623   1.648   2.269   7.518  1.3569  0.2096  2.5072
 9330SOL    HW239624   1.733   2.388   7.569  0.8196  1.9848 -1.0138
 9331SOL     OW39625   3.543   1.137   7.381 -0.5947 -0.2695 -0.4481
 9331SOL    HW139626   3.530   1.214   7.326  0.7547  0.2459 -0.0479
 9331SOL    HW239627   3.458   1.144   7.425 -0.5136  0.3112 -0.3873
 9332SOL     OW39628   0.909   3.705   4.188  0.1191  0.4177 -0.1902
 9332SOL    HW139629   0.990   3.656   4.196  1.0913  1.8024 -1.4360
 9332SOL    HW239630   0.907   3.768   4.261  0.1971 -0.2888  0.4158
 9333SOL     OW39631   1.106   1.797   3.016 -0.5164 -1.0802 -0.3184
 9333SOL    HW139632   1.126   1.870   2.958 -2.4319  1.4750  2.2201
 9333SOL    HW239633   1.011   1.792   3.014 -0.5259  0.0543 -2.6780
 9334SOL     OW39634   2.042   2.301  15.662  0.1967 -0.0990  0.6932
 9334SOL    HW139635   2.008   2.318  15.750  0.5506 -0.1794  0.8446
 9334SOL    HW239636   2.012   2.378  15.614 -0.7834 -1.6202 -1.1426
 9335SOL     OW39637   4.711   0.878   6.398 -0.3051 -0.2416 -0.4808
 9335SOL    HW139638   4.680   0.846   6.483  1.0161  2.5444  1.0265
 9335SOL    HW239639   0.027   0.803   6.365  2.2602  2.5698 -2.8811
 9336SOL     OW39640   3.997   2.532   5.845 -0.0556 -0.4918 -0.5271
 9336SOL    HW139641   4.028   2.480   5.771 -1.5088 -3.9752  1.3257
 9336SOL    HW239642   3.999   2.617   5.801  0.3404  0.0821  0.5928
 9337SOL     OW39643   1.156   0.309   1.168  0.0115  0.1148  0.0746
 9337SOL    HW139644   1.081   0.367   1.153  1.3218  1.5831 -0.8086
 9337SOL    HW239645   1.118   0.226   1.140 -1.3955 -0.1375  2.8169
 9338SOL     OW39646   0.463   1.169  12.567 -0.1545 -0.3948  0.0976
 9338SOL    HW139647   0.395   1.228  12.534 -0.0618 -0.5579 -0.3877
 9338SOL    HW239648   0.540   1.216  12.535  1.0023 -0.2564  3.1299
 9339SOL     OW39649   0.080   1.500   8.904  0.1875 -0.4358 -0.3377
 9339SOL    HW139650   0.093   1.502   8.999  1.1067  0.7989 -0.4899
 9339SOL    HW239651   0.159   1.454   8.876 -0.3736 -0.1484 -2.3733
 9340SOL     OW39652   4.211   2.157   3.681  0.4059  0.5626  0.0211
 9340SOL    HW139653   4.225   2.103   3.759  0.1426 -2.4958 -2.0538
 9340SOL    HW239654   4.146   2.106   3.633 -0.8969  1.5565  0.7127
 9341SOL     OW39655   2.273   2.635   1.300  0.0334  0.6231 -0.5466
 9341SOL    HW139656   2.222   2.611   1.223 -0.7591 -0.4061  0.2917
 9341SOL    HW239657   2.356   2.665   1.264  0.2076  2.5888  1.4808
 9342SOL     OW39658   3.103   0.919   8.642 -0.3011 -0.1705 -0.1599
 9342SOL    HW139659   3.147   0.863   8.707 -0.3281  0.5667  0.4983
 9342SOL    HW239660   3.144   1.005   8.652  0.2800 -0.4521 -0.0814
 9343SOL     OW39661   2.492   0.153   2.675  0.0910  0.2885  0.0212
 9343SOL    HW139662   2.511   0.178   2.766 -1.1503 -1.5018  0.7586
 9343SOL    HW239663   2.581   0.129   2.648 -0.2131  0.5238 -1.1955
 9344SOL     OW39664   3.378   1.421   6.422  0.1233  0.0639  0.4614
 9344SOL    HW139665   3.459   1.441   6.470 -0.4404  1.3638  0.8470
 9344SOL    HW239666   3.402   1.481   6.351 -0.9576 -1.7626 -1.4653
 9345SOL     OW39667   4.582   4.144  17.109 -0.4731  0.1925  0.3568
 9345SOL    HW139668   4.552   4.133  17.019  0.9741 -1.8833  0.1373
 9345SOL    HW239669   4.561   4.059  17.149  1.4567  0.0093  0.9798
 9346SOL     OW39670   4.690   2.240   9.604  0.1914 -0.0901  0.1738
 9346SOL    HW139671   4.711   2.176   9.536 -0.0918 -1.1702  1.0884
 9346SOL    HW239672   0.021   2.203   9.664  0.1553  1.0495  0.9225
 9347SOL     OW39673   2.763   1.837  13.736  0.1242  0.1682  0.1952
 9347SOL    HW139674   2.831   1.818  13.800  0.7005 -2.7103 -1.2619
 9347SOL    HW239675   2.687   1.839  13.794 -0.9659  0.3498 -1.2264
 9348SOL     OW39676   2.920   1.561   3.712 -0.3654  0.3935 -0.1367
 9348SOL    HW139677   2.993   1.518   3.668  0.9726  0.0571  2.4297
 9348SOL    HW239678   2.852   1.505   3.673  1.1549 -1.1994 -0.5019
 9349SOL     OW39679   1.835   1.367   2.985  0.1965  0.0811 -0.0808
 9349SOL    HW139680   1.748   1.335   3.009  0.4694  0.2378  1.0986
 9349SOL    HW239681   1.836   1.445   3.041  0.8190 -1.1261  1.5756
 9350SOL     OW39682   1.255   4.097   2.552  0.1437  0.8279  0.0907
 9350SOL    HW139683   1.226   4.175   2.504  2.8850 -0.6963 -4.0363
 9350SOL    HW239684   1.306   4.048   2.488  0.7867  0.5033  0.8595
 9351SOL     OW39685   4.462   2.633  15.901  0.2369 -0.2292 -0.2945
 9351SOL    HW139686   4.503   2.619  15.815  0.2517  0.7814 -0.4599
 9351SOL    HW239687   4.385   2.577  15.898 -0.0615  0.1206  1.2074
 9352SOL     OW39688   4.632   3.281  14.418 -0.4391  0.1198  0.1849
 9352SOL    HW139689   4.547   3.263  14.377 -0.7093  1.1124  0.3047
 9352SOL    HW239690   4.612   3.335  14.493  1.3521  1.4102 -0.2564
 9353SOL     OW39691   0.345   2.678   7.252 -0.3941 -0.1541  0.2740
 9353SOL    HW139692   0.424   2.712   7.294  1.4393 -1.0482 -2.4502
 9353SOL    HW239693   0.381   2.619   7.185 -0.0385 -0.8327  1.0622
 9354SOL     OW39694   2.938   3.712   2.460 -0.1822 -0.2127  0.0685
 9354SOL    HW139695   2.884   3.686   2.535 -0.5464  2.4268  0.7511
 9354SOL    HW239696   3.008   3.767   2.497 -0.2506  0.2619 -0.5015
 9355SOL     OW39697   0.104   4.721   1.715 -0.3552 -0.0573  0.2640
 9355SOL    HW139698   0.129   4.637   1.675  2.3271  0.6785  0.4125
 9355SOL    HW239699   0.161   4.733   1.790  1.9813 -2.7491 -1.0756
 9356SOL     OW39700   4.457   1.808  14.941  0.3817 -0.1087 -0.4724
 9356SOL    HW139701   4.376   1.767  14.911  1.2667 -1.7353 -0.6414
 9356SOL    HW239702   4.529   1.760  14.899 -0.9070 -1.6124 -0.9717
 9357SOL     OW39703   0.712   1.307   3.237 -0.1678  0.0323 -0.2905
 9357SOL    HW139704   0.804   1.312   3.266  0.2534  3.4755 -2.1851
 9357SOL    HW239705   0.686   1.399   3.245 -0.3339 -0.2605  2.8498
 9358SOL     OW39706   0.707   1.054   5.791  0.6543  0.5454  0.1339
 9358SOL    HW139707   0.773   1.122   5.805  0.6989 -0.2938  4.0268
 9358SOL    HW239708   0.669   1.071   5.705 -0.7062  2.0398  1.0222
 9359SOL     OW39709   3.057   2.605   2.784  0.4762 -0.1552  0.2041
 9359SOL    HW139710   2.992   2.540   2.757  1.5344 -1.9110  1.8951
 9359SOL    HW239711   3.013   2.659   2.849  1.1160  0.3960  0.1821
 9360SOL     OW39712   1.437   3.489   6.079  0.0391  0.0514 -0.5832
 9360SOL    HW139713   1.391   3.568   6.051  0.5483  0.2506 -0.8467
 9360SOL    HW239714   1.380   3.417   6.053 -0.3548  1.2435 -2.9406
 9361SOL     OW39715   2.280   0.396   0.675  0.7557 -0.0202  0.1079
 9361SOL    HW139716   2.275   0.323   0.613 -0.7801  0.2295 -0.0555
 9361SOL    HW239717   2.273   0.474   0.620  0.1792  0.7657  1.2856
 9362SOL     OW39718   2.969   0.436   8.719 -0.6450 -0.6478 -0.9163
 9362SOL    HW139719   2.965   0.371   8.788 -0.1263 -1.3394 -1.5296
 9362SOL    HW239720   2.906   0.393   8.660 -1.4654  1.5152 -1.6127
 9363SOL     OW39721   0.751   4.259   6.282  0.3648  0.4977  0.2908
 9363SOL    HW139722   0.663   4.260   6.243  0.9506 -1.0392 -1.0623
 9363SOL    HW239723   0.752   4.166   6.301 -1.6303  0.2288 -0.8117
 9364SOL     OW39724   2.970   3.824  13.769 -0.3899 -0.2542  0.2855
 9364SOL    HW139725   2.948   3.866  13.852  0.1289  2.7797 -1.1104
 9364SOL    HW239726   2.981   3.730  13.780  1.1111 -0.1569 -0.4351
 9365SOL     OW39727   2.687   1.360   7.241 -0.1197  0.4252  0.7055
 9365SOL    HW139728   2.782   1.369   7.257 -0.1023 -1.5649  1.7515
 9365SOL    HW239729   2.680   1.352   7.146  0.3630 -1.2839  0.8019
 9366SOL     OW39730   2.908   3.572   4.832  0.4905  0.2026 -0.5189
 9366SOL    HW139731   2.854   3.513   4.780  1.6404 -0.8969 -0.4762
 9366SOL    HW239732   2.881   3.543   4.920  2.1334  0.9517  0.2275
 9367SOL     OW39733   0.070   3.858   2.588 -0.3758  0.3194  0.0614
 9367SOL    HW139734   4.727   3.884   2.539  0.3335  0.4814 -0.9753
 9367SOL    HW239735   0.102   3.946   2.606 -1.1428  0.9302 -1.5386
 9368SOL     OW39736   1.919   1.548   8.322 -0.2573  0.4328 -0.1669
 9368SOL    HW139737   2.007   1.540   8.360 -0.3725 -2.8336 -0.6126
 9368SOL    HW239738   1.946   1.560   8.231  1.1725 -1.4046  0.0062
 9369SOL     OW39739   0.997   2.521  15.989 -0.1512 -0.1569 -0.0473
 9369SOL    HW139740   0.938   2.582  16.032 -0.4669 -1.2029  1.0016
 9369SOL    HW239741   0.993   2.451  16.054 -0.1044  1.7494  2.0088
 9370SOL     OW39742   4.534   0.339  14.302 -0.0225 -0.3099 -0.4512
 9370SOL    HW139743   4.566   0.414  14.251 -0.1866  1.0598  1.4650
 9370SOL    HW239744   4.534   0.371  14.392  0.0386  1.1769 -0.9753
 9371SOL     OW39745   2.355   0.288   4.156  0.0195 -0.1415 -0.1828
 9371SOL    HW139746   2.327   0.325   4.240 -0.1941 -2.1268  0.6030
 9371SOL    HW239747   2.427   0.229   4.177 -0.6968 -0.6732  0.7823
 9372SOL     OW39748   2.018   1.478   1.178  0.0459 -0.0865  0.9755
 9372SOL    HW139749   1.993   1.535   1.105 -0.9062  0.1002  1.4485
 9372SOL    HW239750   2.019   1.391   1.139  4.4557 -1.0043  3.1246
 9373SOL     OW39751   3.741   3.440  15.405  0.2284 -0.0478  0.0489
 9373SOL    HW139752   3.748   3.535  15.413  1.5124 -0.1946  0.6563
 9373SOL    HW239753   3.654   3.428  15.366 -0.9738  0.7737  2.4482
 9374SOL     OW39754   2.724   1.912  16.988  0.2887 -0.1107  0.0849
 9374SOL    HW139755   2.767   1.993  17.015  1.0401 -0.7174  0.7003
 9374SOL    HW239756   2.655   1.951  16.935 -0.2206 -1.4602 -0.2543
 9375SOL     OW39757   0.193   1.455  14.455 -0.3866  0.3803 -0.1913
 9375SOL    HW139758   0.105   1.461  14.494 -0.4123 -0.2143 -0.1598
 9375SOL    HW239759   0.244   1.527  14.494 -0.8687  0.7747 -0.2828
 9376SOL     OW39760   1.568   3.444  10.441 -0.0114 -0.0086  0.6371
 9376SOL    HW139761   1.609   3.508  10.499  1.7540 -0.1394 -0.5004
 9376SOL    HW239762   1.616   3.363  10.460  2.5081  1.4404  0.3666
 9377SOL     OW39763   0.807   4.344  13.947 -0.3279  0.1650 -0.0376
 9377SOL    HW139764   0.796   4.291  14.026  2.3757  1.0202  0.9481
 9377SOL    HW239765   0.900   4.332  13.927 -0.0347  0.9926  0.8632
 9378SOL     OW39766   0.244   2.246   2.885 -0.4168  0.0571 -0.3330
 9378SOL    HW139767   0.165   2.223   2.836  0.7922 -2.1726 -1.2607
 9378SOL    HW239768   0.276   2.329   2.848  0.8187 -0.2458  0.0635
 9379SOL     OW39769   2.109   3.857   2.042  0.7985  0.3251  0.5741
 9379SOL    HW139770   2.023   3.816   2.033  1.0473 -0.0247 -0.1592
 9379SOL    HW239771   2.159   3.792   1.993 -0.7694  0.4102 -1.1184
 9380SOL     OW39772   3.423   0.824  15.440 -0.3963  0.3510 -0.0631
 9380SOL    HW139773   3.487   0.776  15.388 -0.7901 -1.4939  1.1765
 9380SOL    HW239774   3.366   0.751  15.466 -1.7544  0.9615 -1.2795
 9381SOL     OW39775   4.136   1.299   7.607 -0.2135  0.1134  0.5356
 9381SOL    HW139776   4.106   1.274   7.695 -0.2467 -2.0913 -0.0851
 9381SOL    HW239777   4.230   1.306   7.621 -0.3487  1.8533  0.5754
 9382SOL     OW39778   1.840   1.014   0.995 -0.2591 -0.4861 -0.1580
 9382SOL    HW139779   1.801   0.953   1.057 -1.7402  0.1345 -0.4877
 9382SOL    HW239780   1.930   0.981   1.004 -0.2781 -0.2627  0.8430
 9383SOL     OW39781   0.037   2.153  15.380  0.4065 -0.5317  0.1378
 9383SOL    HW139782   4.682   2.125  15.363  0.3761 -0.2784 -0.1190
 9383SOL    HW239783   0.073   2.076  15.425  0.3252 -1.8350 -2.0421
 9384SOL     OW39784   3.722   0.815  17.146 -0.6910 -0.8857 -0.9989
 9384SOL    HW139785   3.776   0.891  17.166 -2.4583 -0.1933  1.1139
 9384SOL    HW239786   3.674   0.812  17.229  2.8786  0.1874  1.1402
 9385SOL     OW39787   4.081   3.918   1.047  0.3325  0.2798 -0.3479
 9385SOL    HW139788   4.045   3.930   0.960  3.1307  0.9907 -1.4107
 9385SOL    HW239789   4.158   3.975   1.046 -0.1539  0.9412 -0.2729
 9386SOL     OW39790   0.678   3.587   6.797  0.1467 -0.5115  0.1789
 9386SOL    HW139791   0.611   3.547   6.741  0.3391  0.7723 -0.9881
 9386SOL    HW239792   0.756   3.560   6.747 -1.5559 -0.7256 -2.4038
 9387SOL     OW39793   0.360   1.460   8.292  0.3636  0.0441  0.0943
 9387SOL    HW139794   0.405   1.428   8.213 -0.7973 -2.9951  0.6636
 9387SOL    HW239795   0.425   1.428   8.353 -0.6270 -0.5432  0.8377
 9388SOL     OW39796   0.548   2.711  15.242  0.5800 -0.1696  0.3081
 9388SOL    HW139797   0.597   2.662  15.308  0.2179  0.1723  0.8334
 9388SOL    HW239798   0.613   2.770  15.206  0.8291 -0.5937  0.0676
 9389SOL     OW39799   1.978   2.711   0.286  0.0043  0.0809 -0.0329
 9389SOL    HW139800   1.986   2.646   0.216 -0.3531 -0.2012  0.1873
 9389SOL    HW239801   2.035   2.662   0.345  2.6984  2.8383 -0.3283
 9390SOL     OW39802   3.053   1.488  14.785 -0.0543  0.3034  0.4861
 9390SOL    HW139803   3.016   1.427  14.722  1.5761 -2.0712  1.8233
 9390SOL    HW239804   2.991   1.561  14.779 -0.8191 -0.2248  1.9902
 9391SOL     OW39805   4.583   0.955  10.519 -0.3720  0.0118 -0.0999
 9391SOL    HW139806   4.673   0.972  10.491 -0.2954  1.0900  0.8426
 9391SOL    HW239807   4.570   0.866  10.484  0.7315 -0.3336  0.3610
 9392SOL     OW39808   0.877   0.727   3.052 -0.5329 -0.1601  0.2957
 9392SOL    HW139809   0.963   0.741   3.013  0.2919 -2.4156  1.3246
 9392SOL    HW239810   0.820   0.684   2.989 -0.7078  0.0819  0.2875
 9393SOL     OW39811   3.627   3.292   5.605  0.6295 -0.1184 -0.5614
 9393SOL    HW139812   3.628   3.318   5.512  1.4333  0.0240 -0.5108
 9393SOL    HW239813   3.619   3.197   5.594  2.8874 -0.4606  0.9367
 9394SOL     OW39814   0.653   4.612  11.093  0.1507 -0.3869  0.1883
 9394SOL    HW139815   0.568   4.648  11.119 -0.7889 -3.0615  0.9198
 9394SOL    HW239816   0.707   4.677  11.050 -0.9010  0.4177  0.0746
 9395SOL     OW39817   1.122   3.849   4.877 -0.4622 -0.2159  0.5246
 9395SOL    HW139818   1.087   3.788   4.812  1.9208 -2.2493  1.1369
 9395SOL    HW239819   1.110   3.796   4.956 -2.4770  1.0599  1.0724
 9396SOL     OW39820   3.106   4.482   8.280  0.2561  0.3494 -0.6092
 9396SOL    HW139821   3.080   4.432   8.357  0.4122  1.7173  0.3320
 9396SOL    HW239822   3.169   4.420   8.244 -2.0062 -0.6322 -2.8960
 9397SOL     OW39823   2.902   2.705   3.204 -0.2286 -0.8980  0.2836
 9397SOL    HW139824   2.965   2.641   3.172  0.4681  0.3650 -0.8355
 9397SOL    HW239825   2.902   2.761   3.127  1.7077 -1.4175 -0.0880
 9398SOL     OW39826   0.657   4.719   4.141  0.3763 -0.0461  0.3817
 9398SOL    HW139827   0.687   4.666   4.067 -2.2819 -0.5922 -0.2921
 9398SOL    HW239828   0.596   4.661   4.187 -0.9831  1.0366 -0.0772
 9399SOL     OW39829   0.037   1.147  14.588  0.2790  0.2930  0.0571
 9399SOL    HW139830   0.061   1.202  14.514  1.4485  1.1233  1.0542
 9399SOL    HW239831   4.695   1.099  14.557 -0.3560  1.9119 -0.8895
 9400SOL     OW39832   3.347   0.492  16.670  0.1510  0.4673  0.0147
 9400SOL    HW139833   3.404   0.419  16.645 -1.1708  0.1136 -1.9927
 9400SOL    HW239834   3.379   0.566  16.617  0.7927  0.2809  0.1464
 9401SOL     OW39835   1.974   1.339   1.428 -0.1874  0.7001 -0.1799
 9401SOL    HW139836   1.998   1.397   1.355 -0.8436  1.6844  0.3916
 9401SOL    HW239837   2.045   1.276   1.415  0.0735  1.2496 -1.3737
 9402SOL     OW39838   3.307   2.467   5.325  0.9800 -0.1770 -0.3643
 9402SOL    HW139839   3.332   2.545   5.375  0.5782  0.9325 -1.8804
 9402SOL    HW239840   3.395   2.431   5.316 -0.5134 -3.2378 -2.6671
 9403SOL     OW39841   4.567   3.913   4.032  0.3857 -0.4898  0.4485
 9403SOL    HW139842   4.645   3.947   3.989 -0.5022  0.9068 -0.0708
 9403SOL    HW239843   4.535   3.862   3.958 -0.9476  0.3641  0.4165
 9404SOL     OW39844   2.878   4.260   8.823 -0.2251 -0.1247 -0.2893
 9404SOL    HW139845   2.823   4.195   8.865  0.0525 -1.2362 -1.6592
 9404SOL    HW239846   2.926   4.305   8.894 -3.4799  0.7234  1.3704
 9405SOL     OW39847   2.488   1.149   5.551 -0.3581 -0.3195 -0.1753
 9405SOL    HW139848   2.463   1.231   5.595  0.9734 -1.3700  2.5215
 9405SOL    HW239849   2.573   1.181   5.521 -1.2887  1.0882 -1.3151
 9406SOL     OW39850   4.174   3.296   7.723  0.4882 -0.3928  0.0226
 9406SOL    HW139851   4.180   3.349   7.644  3.4885 -2.1907 -0.9627
 9406SOL    HW239852   4.082   3.309   7.745  0.1045 -1.6837 -0.7865
 9407SOL     OW39853   3.180   4.202   1.724  0.2951 -0.5948  1.0012
 9407SOL    HW139854   3.273   4.181   1.720  1.0047  2.3921  2.2928
 9407SOL    HW239855   3.188   4.291   1.757 -0.5045 -0.1483  0.0010
 9408SOL     OW39856   0.885   2.908  14.541 -0.3435 -0.1454 -0.3813
 9408SOL    HW139857   0.877   2.973  14.610  0.5395 -0.0790 -0.3454
 9408SOL    HW239858   0.796   2.906  14.507 -0.0585  0.9710 -1.1939
 9409SOL     OW39859   2.911   1.384  14.564  0.1720 -0.0058  0.2493
 9409SOL    HW139860   2.933   1.465  14.518  0.0580  1.7503  3.3093
 9409SOL    HW239861   2.973   1.329  14.515 -2.2782  0.9170 -3.9277
 9410SOL     OW39862   1.794   4.525   1.807  0.2692  0.2364  0.0600
 9410SOL    HW139863   1.723   4.586   1.784  2.7040  2.1613 -2.2597
 9410SOL    HW239864   1.745   4.443   1.809 -1.5772  1.3495  1.4120
 9411SOL     OW39865   2.379   1.348   4.461 -0.1341  0.1366  0.4462
 9411SOL    HW139866   2.447   1.401   4.419 -0.1176 -0.1388  0.1290
 9411SOL    HW239867   2.403   1.353   4.553 -1.0928 -0.5077  0.7245
 9412SOL     OW39868   2.403   1.424   1.411  0.1667 -0.1582  0.1516
 9412SOL    HW139869   2.359   1.461   1.488 -0.1923  0.5593 -0.3928
 9412SOL    HW239870   2.366   1.336   1.413  0.0006 -0.1117 -1.1202
 9413SOL     OW39871   4.519   2.855  14.158 -0.0989  0.2160  0.5456
 9413SOL    HW139872   4.525   2.888  14.069 -0.1071 -0.6257  0.2406
 9413SOL    HW239873   4.593   2.898  14.202 -1.6926  1.1799  2.3030
 9414SOL     OW39874   0.535   0.521   6.894  0.7927  0.6563  0.2935
 9414SOL    HW139875   0.494   0.473   6.822  0.1610  0.3881  0.8351
 9414SOL    HW239876   0.486   0.487   6.969  0.7377  0.3088  0.0998
 9415SOL     OW39877   2.645   4.279  10.338 -0.6145  0.2337 -0.9219
 9415SOL    HW139878   2.630   4.240  10.252 -2.0756 -1.7339  0.2048
 9415SOL    HW239879   2.599   4.220  10.398  2.3417 -0.6454  0.4862
 9416SOL     OW39880   2.549   2.671   4.995 -0.0073  0.6987 -0.3972
 9416SOL    HW139881   2.600   2.643   4.919  0.6727  0.0035  0.3157
 9416SOL    HW239882   2.464   2.688   4.953 -1.0793  0.3275  1.6469
 9417SOL     OW39883   1.523   0.395  12.235 -0.0585  0.4439 -0.3339
 9417SOL    HW139884   1.468   0.336  12.286  1.5149  0.6087  1.5739
 9417SOL    HW239885   1.487   0.480  12.259 -2.4898 -0.6970  0.0129
 9418SOL     OW39886   1.939   3.705   1.630 -0.0114  0.0525  0.7342
 9418SOL    HW139887   1.905   3.708   1.541  1.5920 -1.8926  0.0333
 9418SOL    HW239888   2.019   3.758   1.626  0.6075 -0.9963 -1.2116
 9419SOL     OW39889   1.724   1.406   8.821 -0.4240 -0.3641  0.1804
 9419SOL    HW139890   1.666   1.388   8.747 -0.6534 -2.8703  0.9647
 9419SOL    HW239891   1.714   1.320   8.862  0.7094 -1.8965 -2.7224
 9420SOL     OW39892   1.802   0.128   3.033  0.2487  0.0493  0.2776
 9420SOL    HW139893   1.895   0.109   3.021  0.4947  1.2612  0.2619
 9420SOL    HW239894   1.781   0.097   2.944 -0.0747  1.7193 -0.2355
 9421SOL     OW39895   1.899   0.065   2.409  0.2270  0.4021 -0.4410
 9421SOL    HW139896   1.920   0.157   2.392  0.2199  0.8557  2.0196
 9421SOL    HW239897   1.861   0.035   2.326 -1.6188 -0.4956  0.7463
 9422SOL     OW39898   3.684   1.815   4.521 -0.2875  0.2010  0.1349
 9422SOL    HW139899   3.713   1.735   4.478 -1.3933  0.2183 -0.6434
 9422SOL    HW239900   3.733   1.880   4.471 -1.2937  1.6081  0.9912
 9423SOL     OW39901   2.098   2.096  14.204  0.0196  0.5951  0.6911
 9423SOL    HW139902   2.070   2.089  14.295 -3.4234  3.0560 -0.1868
 9423SOL    HW239903   2.056   2.181  14.195 -0.1230 -0.0415 -4.5535
 9424SOL     OW39904   2.656   4.547   7.610 -0.2160  0.2704  0.3118
 9424SOL    HW139905   2.586   4.592   7.561  0.5870  0.7541 -0.3912
 9424SOL    HW239906   2.709   4.523   7.534  0.6037 -0.3171  1.0837
 9425SOL     OW39907   2.998   1.301  16.716  0.2181 -0.1737 -0.1889
 9425SOL    HW139908   3.031   1.371  16.773 -4.4400  1.0835  0.9140
 9425SOL    HW239909   2.903   1.300  16.724  0.1092 -0.4201 -1.5817
 9426SOL     OW39910   4.364   0.469  13.849  0.0315 -0.2293  0.3293
 9426SOL    HW139911   4.439   0.453  13.907  0.6473  0.3138 -0.3242
 9426SOL    HW239912   4.401   0.460  13.761 -0.7641  0.5023 -0.0725
 9427SOL     OW39913   0.534   2.652   7.700 -0.2898 -0.5251 -0.6637
 9427SOL    HW139914   0.444   2.657   7.730  0.2049  0.5604  0.6459
 9427SOL    HW239915   0.544   2.558   7.710 -1.6644 -0.7572 -1.4313
 9428SOL     OW39916   2.581   1.869   9.425 -0.4578  0.4005  0.1639
 9428SOL    HW139917   2.499   1.821   9.408 -1.2572  1.4271  1.1014
 9428SOL    HW239918   2.641   1.820   9.370  1.6453  0.1054  2.7307
 9429SOL     OW39919   4.721   2.684  13.120 -0.2515 -0.2584  0.1011
 9429SOL    HW139920   4.696   2.775  13.102  0.5448  0.6506  3.5421
 9429SOL    HW239921   4.640   2.655  13.161 -1.4166  2.0634 -0.5069
 9430SOL     OW39922   2.083   0.351   5.897  0.2234 -0.2464 -0.0219
 9430SOL    HW139923   2.091   0.329   5.990  0.2149 -1.0075 -0.2031
 9430SOL    HW239924   2.168   0.395   5.886  0.5154 -1.3082 -2.0272
 9431SOL     OW39925   0.579   1.766   5.509 -0.3848 -0.2248  0.4604
 9431SOL    HW139926   0.674   1.782   5.507 -0.2847 -0.9817 -0.3988
 9431SOL    HW239927   0.585   1.690   5.568 -0.2873  0.2071  1.0096
 9432SOL     OW39928   2.939   3.758   5.833  0.1059 -0.1458 -0.3618
 9432SOL    HW139929   3.007   3.691   5.825  0.5647  0.1361  1.1602
 9432SOL    HW239930   2.986   3.825   5.882 -0.7993 -0.0928  0.4327
 9433SOL     OW39931   3.619   2.591  14.620  0.6368  0.0418 -0.5171
 9433SOL    HW139932   3.647   2.523  14.682 -1.9380  0.0402  0.6273
 9433SOL    HW239933   3.616   2.672  14.672  1.2472  0.2586 -0.8191
 9434SOL     OW39934   2.337   1.300   2.324  0.0074 -0.3765 -0.4104
 9434SOL    HW139935   2.383   1.382   2.342 -0.7052 -0.0913  0.0988
 9434SOL    HW239936   2.402   1.255   2.271 -0.3023  0.4922 -1.5379
 9435SOL     OW39937   1.728   0.553   5.794  1.0246  0.0765 -0.2965
 9435SOL    HW139938   1.696   0.493   5.727  0.7804 -0.2430  0.1038
 9435SOL    HW239939   1.782   0.614   5.745 -0.9183  1.5563 -0.5963
 9436SOL     OW39940   3.138   2.549  11.749  0.1010 -0.1978  0.2276
 9436SOL    HW139941   3.170   2.483  11.687 -0.8142 -0.9060  0.5092
 9436SOL    HW239942   3.061   2.508  11.789 -0.8746 -0.7861 -2.2767
 9437SOL     OW39943   0.589   4.318   0.990 -0.0404 -0.0961  0.1984
 9437SOL    HW139944   0.602   4.225   0.973  0.2757 -0.1046  0.4877
 9437SOL    HW239945   0.506   4.337   0.946  1.7682  0.8966 -2.7616
 9438SOL     OW39946   1.372   2.298  11.583  0.2874 -0.3399 -0.5416
 9438SOL    HW139947   1.402   2.238  11.651  1.1242  3.5624  2.5539
 9438SOL    HW239948   1.277   2.285  11.585 -0.0136  1.6965 -0.8415
 9439SOL     OW39949   4.265   1.610   7.031 -0.3342 -0.1486 -0.0522
 9439SOL    HW139950   4.313   1.675   7.083  0.8153  0.0025 -1.2988
 9439SOL    HW239951   4.211   1.671   6.980  1.8582 -0.4985 -2.8045
 9440SOL     OW39952   2.794   4.286   7.454 -0.3565  0.5335 -0.1943
 9440SOL    HW139953   2.813   4.372   7.490  0.7565 -0.4248  1.4989
 9440SOL    HW239954   2.880   4.244   7.448 -0.4532  0.1537  1.1060
 9441SOL     OW39955   0.837   2.030  11.471  0.5574  0.3789 -0.0853
 9441SOL    HW139956   0.868   1.999  11.556 -0.1348 -0.9731 -0.3250
 9441SOL    HW239957   0.913   2.056  11.418  0.8268 -0.1774  0.0248
 9442SOL     OW39958   4.355   2.772   2.851  0.2846 -0.4731  0.4655
 9442SOL    HW139959   4.314   2.769   2.938 -2.9189 -2.8060 -1.1490
 9442SOL    HW239960   4.276   2.767   2.798  1.2533 -3.0670 -0.7377
 9443SOL     OW39961   3.548   0.896   3.614  0.1564  0.4319 -0.1525
 9443SOL    HW139962   3.600   0.818   3.596 -0.3647 -0.2727  1.3721
 9443SOL    HW239963   3.622   0.945   3.651  0.4128  0.8798 -1.2677
 9444SOL     OW39964   2.265   1.618  16.821  0.4267 -0.4438 -0.2855
 9444SOL    HW139965   2.309   1.694  16.859 -1.4317  0.5442 -0.1074
 9444SOL    HW239966   2.182   1.657  16.795  0.4013 -0.1579  0.2166
 9445SOL     OW39967   2.750   2.841  11.441  0.2049  0.3694 -0.3073
 9445SOL    HW139968   2.843   2.858  11.453 -0.1048 -0.0294  2.7553
 9445SOL    HW239969   2.714   2.926  11.418  0.2931  0.5202  0.1145
 9446SOL     OW39970   4.601   1.155  15.348  0.2596 -0.4832 -0.0464
 9446SOL    HW139971   4.676   1.163  15.288  0.7452  0.8101  0.7427
 9446SOL    HW239972   4.534   1.115  15.293  1.6497 -1.3955 -1.1058
 9447SOL     OW39973   1.952   1.659   0.454 -0.1036 -0.2532  0.4026
 9447SOL    HW139974   1.881   1.606   0.419 -1.1075  2.1185 -1.1580
 9447SOL    HW239975   2.027   1.611   0.420  1.5776  2.9057 -0.3560
 9448SOL     OW39976   3.694   2.795   2.675 -0.3489  0.2384 -0.3344
 9448SOL    HW139977   3.750   2.722   2.701  0.9463  1.2212 -0.3137
 9448SOL    HW239978   3.757   2.842   2.619 -1.0776  1.9013  0.2314
 9449SOL     OW39979   2.761   1.873   6.525 -0.5438  0.5616  0.5418
 9449SOL    HW139980   2.728   1.862   6.435  0.4208  1.2635  0.1081
 9449SOL    HW239981   2.798   1.961   6.525 -0.1125  0.3919 -2.4016
 9450SOL     OW39982   1.625   4.408  14.374  0.3938  0.2611 -0.6402
 9450SOL    HW139983   1.635   4.352  14.451 -2.2948 -0.0761 -0.5433
 9450SOL    HW239984   1.719   4.414  14.359  0.4115 -0.1689 -0.7060
 9451SOL     OW39985   1.412   2.704   4.966 -0.1890  0.2692  0.0022
 9451SOL    HW139986   1.448   2.633   4.913 -1.0072 -0.0293 -0.1569
 9451SOL    HW239987   1.461   2.780   4.934  1.4778 -0.7208  0.2153
 9452SOL     OW39988   0.187   0.010   1.098 -0.1646  0.0585  0.3176
 9452SOL    HW139989   0.177   4.651   1.117  1.4557 -0.3941 -1.0563
 9452SOL    HW239990   0.121   0.029   1.031  1.1097  1.4112 -0.5475
 9453SOL     OW39991   2.580   3.562  15.790  0.1347  0.2429  0.2149
 9453SOL    HW139992   2.586   3.501  15.717 -1.8341 -1.2422  1.2884
 9453SOL    HW239993   2.486   3.579  15.797  0.2405  0.9241  0.0002
 9454SOL     OW39994   2.459   1.075  12.387 -0.2604 -0.5461 -0.1910
 9454SOL    HW139995   2.439   1.062  12.294 -0.9741 -1.0504  0.0313
 9454SOL    HW239996   2.495   0.990  12.410  2.0127  0.6549  0.6679
 9455SOL     OW39997   2.951   3.296   3.447  0.6314 -0.6973 -0.1662
 9455SOL    HW139998   3.000   3.358   3.501 -0.5383 -0.1388  0.2755
 9455SOL    HW239999   2.895   3.245   3.506  0.9670 -0.2027  0.5945
 9456SOL     OW40000   0.774   0.602   6.013 -0.2728  0.9002 -0.2592
 9456SOL    HW140001   0.783   0.509   5.991 -1.1768  0.5740  0.7302
 9456SOL    HW240002   0.743   0.627   5.927 -0.8301 -1.8849 -0.8650
 9457SOL     OW40003   4.718   1.815   8.023 -0.6554 -0.0296 -0.5297
 9457SOL    HW140004   4.625   1.834   8.017 -0.2232  1.6190 -1.9081
 9457SOL    HW240005   0.025   1.897   7.996  1.6500 -0.9353  0.3515
 9458SOL     OW40006   4.159   2.546   2.160  0.8453  0.1002  0.1957
 9458SOL    HW140007   4.102   2.619   2.186  0.0079 -0.2966 -0.5490
 9458SOL    HW240008   4.181   2.564   2.069  1.1374 -0.5127  0.1475
 9459SOL     OW40009   0.040   2.175   2.715  0.5717  0.2234  0.2052
 9459SOL    HW140010   0.065   2.239   2.648  1.0325 -1.4553 -1.2148
 9459SOL    HW240011   0.096   2.099   2.696 -1.0703 -0.7108 -0.8365
 9460SOL     OW40012   2.660   3.761   5.895  0.3824  0.2550 -0.3953
 9460SOL    HW140013   2.667   3.851   5.863 -0.5520 -0.4437 -2.5372
 9460SOL    HW240014   2.753   3.740   5.892  0.3777 -0.0870  1.6532
 9461SOL     OW40015   1.778   2.740  11.794 -0.5443 -0.0391  0.4291
 9461SOL    HW140016   1.810   2.787  11.871 -0.3627  2.5244 -1.2050
 9461SOL    HW240017   1.761   2.651  11.822  2.4786 -0.7085  0.1219
 9462SOL     OW40018   4.250   2.806   7.389 -0.2300 -0.0856 -0.4129
 9462SOL    HW140019   4.240   2.799   7.294  0.9237 -3.1326 -0.3104
 9462SOL    HW240020   4.272   2.900   7.388 -3.0224  0.5483 -1.8120
 9463SOL     OW40021   1.794   2.961   6.961  0.0807 -0.7630 -0.4028
 9463SOL    HW140022   1.791   2.984   7.054 -0.7364 -1.9869 -0.1167
 9463SOL    HW240023   1.880   2.988   6.929  0.7945  0.2684  2.4032
 9464SOL     OW40024   2.795   2.400   4.889 -0.3790 -0.5871 -0.2835
 9464SOL    HW140025   2.823   2.343   4.817  0.6359  0.8959 -1.0536
 9464SOL    HW240026   2.767   2.478   4.843  2.2123  0.6906  0.3321
 9465SOL     OW40027   2.563   1.952   1.816 -0.0907  0.3432 -0.1837
 9465SOL    HW140028   2.542   1.943   1.723  1.3623  1.2103 -0.5915
 9465SOL    HW240029   2.477   1.917   1.839  0.6721 -2.2938 -1.3099
 9466SOL     OW40030   2.294   0.097   3.431  0.3515  0.2829 -0.0407
 9466SOL    HW140031   2.324   0.027   3.490  0.1796 -0.6044 -1.0084
 9466SOL    HW240032   2.351   0.079   3.356 -0.2660 -2.1103  0.0606
 9467SOL     OW40033   3.948   2.410   0.524  0.0752 -0.1715 -0.5737
 9467SOL    HW140034   4.023   2.389   0.581 -1.2100 -1.0141  0.8008
 9467SOL    HW240035   3.993   2.473   0.467 -1.9489  0.0530 -1.8906
 9468SOL     OW40036   2.037   0.531   9.055 -0.0037  0.2013 -0.7730
 9468SOL    HW140037   2.022   0.614   9.100  0.5017 -0.4931  0.6777
 9468SOL    HW240038   1.966   0.542   8.991  0.7502  2.7438 -1.1723
 9469SOL     OW40039   2.276   4.734   7.659 -0.4958 -0.1155 -0.3623
 9469SOL    HW140040   2.229   4.655   7.685  0.4090 -0.0407  1.5036
 9469SOL    HW240041   2.314   0.023   7.744 -0.7722 -0.8742 -0.0288
 9470SOL     OW40042   4.054   4.586   5.709  0.2405 -0.1334 -0.0651
 9470SOL    HW140043   4.097   4.630   5.636 -0.7756 -0.5681 -0.9159
 9470SOL    HW240044   4.095   4.614   5.791  3.7305 -0.8160 -1.5639
 9471SOL     OW40045   0.901   2.103   9.467 -0.7428 -0.4676  0.5418
 9471SOL    HW140046   0.912   2.137   9.379 -2.0998  1.4148  1.0975
 9471SOL    HW240047   0.914   2.185   9.515 -0.1534 -0.2233 -0.0308
 9472SOL     OW40048   1.269   1.618   8.681 -0.0382 -0.5283  0.1025
 9472SOL    HW140049   1.207   1.645   8.749 -0.4975  1.3158 -1.0480
 9472SOL    HW240050   1.257   1.523   8.683  1.0124 -0.6496  0.8306
 9473SOL     OW40051   2.565   2.340   7.631  0.3630  0.5980  0.5003
 9473SOL    HW140052   2.527   2.276   7.690  1.1570  0.0658  0.4320
 9473SOL    HW240053   2.577   2.414   7.691  0.4125  1.5125 -0.6178
 9474SOL     OW40054   0.389   4.565   0.922  0.0134 -0.0442 -0.4972
 9474SOL    HW140055   0.293   4.570   0.915 -0.1992 -0.4623  2.1598
 9474SOL    HW240056   0.402   4.634   0.988 -1.0196  0.6151 -0.9696
 9475SOL     OW40057   0.530   3.937   0.377  0.1597  0.2747  0.5557
 9475SOL    HW140058   0.521   3.938   0.281 -2.1282  0.3065  0.7725
 9475SOL    HW240059   0.475   4.008   0.410  0.8804  1.3796 -0.6403
 9476SOL     OW40060   3.227   2.588   4.717 -0.1898  0.3492  0.3037
 9476SOL    HW140061   3.296   2.602   4.781  1.3261 -0.3329 -1.1649
 9476SOL    HW240062   3.267   2.515   4.668 -0.2553  1.5469 -1.5432
 9477SOL     OW40063   0.390   2.522  15.107 -0.3112  0.3977  0.5833
 9477SOL    HW140064   0.466   2.577  15.127 -0.2441  1.4102 -2.5347
 9477SOL    HW240065   0.322   2.582  15.075  0.1626  1.0118  0.7287
 9478SOL     OW40066   2.092   0.064   9.023  0.3812  0.2403  0.0812
 9478SOL    HW140067   2.152   0.043   9.095 -1.5489 -0.6046  1.4327
 9478SOL    HW240068   2.121   0.148   8.987  2.7829 -0.3056  0.7140
 9479SOL     OW40069   1.575   1.051  11.189  0.6079  0.3918  0.2905
 9479SOL    HW140070   1.600   0.980  11.247 -1.7458  0.1858  1.0389
 9479SOL    HW240071   1.484   1.065  11.215  0.5857  1.4084 -0.3104
 9480SOL     OW40072   1.114   1.143   0.045 -0.5500  0.3771 -0.0017
 9480SOL    HW140073   1.034   1.181   0.009 -1.0942 -0.3154  0.4712
 9480SOL    HW240074   1.131   1.080  17.714  0.4883 -1.4193  1.8740
 9481SOL     OW40075   1.858   3.575   7.965 -0.2655 -0.2303 -0.1650
 9481SOL    HW140076   1.953   3.575   7.953 -0.2902 -0.9799 -0.3861
 9481SOL    HW240077   1.833   3.537   7.880  1.7820 -0.8304 -0.4917
 9482SOL     OW40078   4.393   4.664  13.025  1.1338  0.6099  0.1337
 9482SOL    HW140079   4.306   4.625  13.027  1.2588  0.3932  1.1371
 9482SOL    HW240080   4.414   4.662  13.119  0.0297 -1.9722  0.3077
 9483SOL     OW40081   4.173   3.482   1.779 -0.2133  0.0926 -0.0218
 9483SOL    HW140082   4.214   3.568   1.789  1.8114 -0.7045 -1.3908
 9483SOL    HW240083   4.216   3.429   1.847  0.7027  1.5644  0.5389
 9484SOL     OW40084   1.235   0.403   5.779  0.0121 -0.0556 -0.6351
 9484SOL    HW140085   1.287   0.478   5.747  0.4484 -1.0300 -2.2262
 9484SOL    HW240086   1.305   0.340   5.762 -0.3111 -0.2603 -1.1929
 9485SOL     OW40087   2.727   2.343   2.857 -0.0335  0.3226  0.2906
 9485SOL    HW140088   2.756   2.423   2.812  0.3219  0.8526  1.4616
 9485SOL    HW240089   2.765   2.278   2.798  0.2493  0.7054  0.0546
 9486SOL     OW40090   1.461   3.456   1.759  0.3843 -0.2352  0.1076
 9486SOL    HW140091   1.538   3.437   1.813  0.3178 -0.9224 -0.0345
 9486SOL    HW240092   1.461   3.375   1.708  0.0242  0.1389 -0.4870
 9487SOL     OW40093   1.201   2.681   5.118 -0.4662  0.3463 -0.5227
 9487SOL    HW140094   1.135   2.663   5.051 -1.1325 -1.5894  0.6637
 9487SOL    HW240095   1.276   2.714   5.068 -1.7742  0.5211 -2.3640
 9488SOL     OW40096   1.783   2.078   5.594  0.2467  0.2897  0.6726
 9488SOL    HW140097   1.761   1.994   5.634  2.6112 -0.1783  0.9570
 9488SOL    HW240098   1.857   2.054   5.539 -0.9772 -3.4656  0.6150
 9489SOL     OW40099   3.204   3.072   3.171  0.1270  0.1379  0.2997
 9489SOL    HW140100   3.264   3.135   3.211 -0.9082  1.5819 -0.4300
 9489SOL    HW240101   3.135   3.135   3.152 -0.5244 -1.1393 -1.5676
 9490SOL     OW40102   1.365   1.369   2.215  0.3880  0.7469 -0.4863
 9490SOL    HW140103   1.447   1.380   2.168  0.9133 -0.2919  0.2132
 9490SOL    HW240104   1.385   1.432   2.285  0.9257 -0.1646  0.1791
 9491SOL     OW40105   2.327   0.849   4.717 -0.3396 -0.1121 -0.1892
 9491SOL    HW140106   2.390   0.776   4.716 -0.8999 -0.5750 -2.0653
 9491SOL    HW240107   2.382   0.925   4.735  1.4903 -1.4004 -0.2524
 9492SOL     OW40108   3.273   3.519  10.966 -0.2746  0.2927 -0.0950
 9492SOL    HW140109   3.335   3.516  10.893 -0.3714  4.1590 -0.3320
 9492SOL    HW240110   3.291   3.442  11.019 -0.0105  0.7399  0.4658
 9493SOL     OW40111   1.120   0.656  10.799 -0.4913  0.1656  0.2218
 9493SOL    HW140112   1.206   0.657  10.756  0.0607  0.0557  1.3336
 9493SOL    HW240113   1.098   0.565  10.819  1.3099 -0.1497  0.7148
 9494SOL     OW40114   0.438   4.103   3.019 -0.1204 -0.0300 -0.1696
 9494SOL    HW140115   0.525   4.074   3.046 -0.4143  1.1538  2.0802
 9494SOL    HW240116   0.465   4.179   2.967  1.0459  1.2276  2.2701
 9495SOL     OW40117   3.905   0.306  14.511  0.1140 -0.0208  0.1046
 9495SOL    HW140118   3.995   0.275  14.525 -0.0463 -0.0229  1.1530
 9495SOL    HW240119   3.882   0.247  14.439 -1.0042  0.0364  0.4130
 9496SOL     OW40120   2.822   2.299   8.637 -0.2760  1.1736  0.9023
 9496SOL    HW140121   2.826   2.204   8.647 -1.1040  0.9911 -0.5483
 9496SOL    HW240122   2.834   2.334   8.726  0.3821  0.9439  0.9092
 9497SOL     OW40123   1.901   1.825   9.786 -0.2170  0.5239  0.7638
 9497SOL    HW140124   1.991   1.840   9.814 -0.0764  0.6926  0.2030
 9497SOL    HW240125   1.858   1.786   9.863 -4.0378  0.5130 -1.3618
 9498SOL     OW40126   1.953   2.322  14.239 -0.0987 -0.6006 -0.5558
 9498SOL    HW140127   1.868   2.320  14.195 -0.3211  1.6117 -0.1956
 9498SOL    HW240128   1.989   2.406  14.212 -0.0067  0.3877  2.7295
 9499SOL     OW40129   4.513   2.419  15.440 -0.2430 -0.2495 -0.3021
 9499SOL    HW140130   4.592   2.431  15.493 -1.7400  2.6282  1.2835
 9499SOL    HW240131   4.507   2.324  15.449 -0.7151 -0.2683 -0.7690
 9500SOL     OW40132   1.562   0.568   4.998 -0.4318  0.3064  0.2920
 9500SOL    HW140133   1.576   0.519   4.917  0.8546  0.1013  0.6495
 9500SOL    HW240134   1.581   0.493   5.053 -0.0765  1.0392  1.1609
 9501SOL     OW40135   0.400   2.384  15.978 -0.0592 -0.1632 -0.0703
 9501SOL    HW140136   0.374   2.355  15.890 -1.4991  0.4605  0.1401
 9501SOL    HW240137   0.351   2.466  15.976  1.4506  0.7667  1.9753
 9502SOL     OW40138   2.192   4.115   1.955  0.2235  0.5383  0.2130
 9502SOL    HW140139   2.172   4.022   1.948  0.4475  0.3432  2.0816
 9502SOL    HW240140   2.105   4.155   1.945 -0.1608 -0.5995 -0.9417
 9503SOL     OW40141   3.582   0.924   6.859  0.2851 -0.0469  0.3533
 9503SOL    HW140142   3.528   1.000   6.836  0.9600 -0.3028 -2.0010
 9503SOL    HW240143   3.527   0.885   6.927  0.8246  0.3301  1.0180
 9504SOL     OW40144   2.077   4.495   5.470 -0.0591 -0.0137 -0.1974
 9504SOL    HW140145   1.984   4.503   5.445 -0.0141  0.6615 -0.1368
 9504SOL    HW240146   2.070   4.412   5.518  1.1051  0.0742  0.1140
 9505SOL     OW40147   3.767   0.018  13.101  0.3202  0.3459  0.0498
 9505SOL    HW140148   3.862   0.009  13.100  0.3106  0.1456  1.2185
 9505SOL    HW240149   3.747   0.050  13.013  3.6966 -0.1208 -0.8819
 9506SOL     OW40150   3.195   2.797  16.776 -0.3588  0.2683  0.0165
 9506SOL    HW140151   3.203   2.892  16.776 -1.3267  0.3534  1.3941
 9506SOL    HW240152   3.121   2.782  16.717 -0.3488 -0.8111  0.2765
 9507SOL     OW40153   0.569   2.780   5.994  0.0508  0.1293  0.1930
 9507SOL    HW140154   0.663   2.781   5.976  0.0128  1.4632  0.0475
 9507SOL    HW240155   0.539   2.848   5.935  0.7792  1.2436  1.0839
 9508SOL     OW40156   2.098   1.721   5.568 -0.8243 -0.1242 -0.3440
 9508SOL    HW140157   2.094   1.626   5.557  0.7773 -0.0580 -1.6765
 9508SOL    HW240158   2.115   1.741   5.660  0.8703  0.0078 -0.6838
 9509SOL     OW40159   2.072   3.829   9.150 -0.0975 -0.5097 -0.3494
 9509SOL    HW140160   1.982   3.860   9.141  0.4815  0.7600 -1.7582
 9509SOL    HW240161   2.106   3.807   9.063  0.0288  2.7370 -1.1409
 9510SOL     OW40162   0.451   1.141   7.099  0.1607  0.3488 -0.6994
 9510SOL    HW140163   0.455   1.191   7.180  0.0802 -0.5764 -0.1293
 9510SOL    HW240164   0.540   1.163   7.069  0.5881  1.9884  1.8024
 9511SOL     OW40165   0.670   2.303   4.569  0.1786 -0.7860 -0.1485
 9511SOL    HW140166   0.667   2.229   4.508  1.3717 -0.7452 -0.2512
 9511SOL    HW240167   0.605   2.275   4.633 -1.0890 -1.0447 -1.5575
 9512SOL     OW40168   1.098   4.164   5.317  0.8708 -0.1150 -0.4759
 9512SOL    HW140169   1.095   4.164   5.413 -0.0077  1.6229 -0.4969
 9512SOL    HW240170   1.137   4.079   5.297  1.5340  0.6822 -2.5072
 9513SOL     OW40171   3.143   0.340   8.126  0.1231  0.1068 -0.2358
 9513SOL    HW140172   3.137   0.428   8.163  0.7712 -0.0408  0.2288
 9513SOL    HW240173   3.059   0.302   8.150 -0.1349 -0.7580 -2.4808
 9514SOL     OW40174   3.830   0.211   5.958 -0.5212  0.4234 -0.0784
 9514SOL    HW140175   3.871   0.134   5.997 -0.6193  0.1616 -0.5026
 9514SOL    HW240176   3.868   0.292   5.992 -1.4763 -0.2079  2.4672
 9515SOL     OW40177   2.233   2.249   5.784  0.8113 -0.3863 -0.7308
 9515SOL    HW140178   2.290   2.176   5.759  1.8239  0.1763 -0.0754
 9515SOL    HW240179   2.251   2.236   5.877 -0.1243  3.0933 -0.0710
 9516SOL     OW40180   4.090   1.101   1.669  0.8837 -0.6150  0.6743
 9516SOL    HW140181   4.126   1.053   1.744 -1.1147  0.7296  2.4643
 9516SOL    HW240182   4.088   1.037   1.598 -0.8369  1.0627 -0.7764
 9517SOL     OW40183   2.326   1.035  17.364  0.1338  0.2319  0.0172
 9517SOL    HW140184   2.269   1.107  17.337  0.5146  1.0324  1.3444
 9517SOL    HW240185   2.280   0.984  17.430 -1.2174  1.2867 -0.1116
 9518SOL     OW40186   0.941   2.763   5.372 -0.0148 -0.4124 -0.0160
 9518SOL    HW140187   0.876   2.714   5.422 -1.1752  0.5151 -0.6009
 9518SOL    HW240188   0.883   2.789   5.300  0.4379  0.1543 -0.1771
 9519SOL     OW40189   3.476   4.292   8.491 -0.3578 -0.3137 -0.2337
 9519SOL    HW140190   3.506   4.309   8.581 -1.2582 -2.1031  0.4072
 9519SOL    HW240191   3.420   4.369   8.477  2.0636  1.4444 -0.1406
 9520SOL     OW40192   3.450   3.903   7.987 -0.6790 -0.5965 -0.1459
 9520SOL    HW140193   3.536   3.867   8.008 -1.0738 -2.4561 -1.6768
 9520SOL    HW240194   3.392   3.858   8.049 -1.7090  0.1297 -0.5992
 9521SOL     OW40195   1.458   0.678  15.529  0.0048  0.4896 -0.0446
 9521SOL    HW140196   1.463   0.671  15.624 -2.5840 -3.5140 -0.1661
 9521SOL    HW240197   1.363   0.662  15.527  0.4523 -1.7497 -2.8764
 9522SOL     OW40198   0.380   1.385   3.761  0.2897 -0.9162  0.6453
 9522SOL    HW140199   0.431   1.465   3.747 -1.5535  0.0061 -0.8634
 9522SOL    HW240200   0.307   1.417   3.816 -0.1061 -1.2879  0.3274
 9523SOL     OW40201   3.134   1.470   3.563  0.1961  0.0498 -0.0587
 9523SOL    HW140202   3.108   1.381   3.541 -1.5108  0.4702  0.3234
 9523SOL    HW240203   3.215   1.477   3.512 -0.2021  0.1591 -0.6794
 9524SOL     OW40204   4.383   0.059  16.759 -0.0236  0.9793  0.4747
 9524SOL    HW140205   4.394   0.148  16.790  0.9958  0.6941  0.9307
 9524SOL    HW240206   4.317   0.066  16.690  0.5577  0.3338 -0.1503
 9525SOL     OW40207   4.468   4.648   1.760  0.1204  0.4966  0.0599
 9525SOL    HW140208   4.468   4.720   1.696 -0.2623  1.5396  1.2181
 9525SOL    HW240209   4.478   4.571   1.704  0.4593  1.0888 -0.6933
 9526SOL     OW40210   3.391   3.920   4.137  0.1420 -0.4756 -0.1760
 9526SOL    HW140211   3.329   3.891   4.070  1.2558 -1.6376 -0.7000
 9526SOL    HW240212   3.363   4.011   4.146 -3.1436 -1.5040  0.1388
 9527SOL     OW40213   2.492   1.165   9.231 -0.8353 -0.1653 -0.3212
 9527SOL    HW140214   2.507   1.215   9.312  4.2930  1.1245 -2.0754
 9527SOL    HW240215   2.441   1.092   9.265 -1.0877  0.2494  0.1900
 9528SOL     OW40216   0.585   4.088   7.573  0.3257 -0.2931  0.0009
 9528SOL    HW140217   0.517   4.075   7.507 -0.9256  1.7595  0.8759
 9528SOL    HW240218   0.663   4.107   7.520 -1.9445  2.9433 -2.1873
 9529SOL     OW40219   2.170   0.270   3.942 -0.3256  0.1486  0.1681
 9529SOL    HW140220   2.222   0.276   4.022  0.5951  0.5809 -0.4552
 9529SOL    HW240221   2.133   0.357   3.928  1.6573  1.4730  3.1329
 9530SOL     OW40222   3.761   4.149   5.121  1.2460 -0.1665  0.3186
 9530SOL    HW140223   3.720   4.194   5.047  1.0664 -1.5901 -0.4562
 9530SOL    HW240224   3.756   4.057   5.094  1.3499 -0.1703  0.3120
 9531SOL     OW40225   3.645   1.037   4.227 -0.8960  0.0406 -0.0966
 9531SOL    HW140226   3.584   1.026   4.154  2.0621 -0.2452 -2.5577
 9531SOL    HW240227   3.612   0.982   4.298  0.9573  0.1407  0.8350
 9532SOL     OW40228   0.441   3.701  15.799  0.3291 -0.8862  0.3642
 9532SOL    HW140229   0.407   3.784  15.833  0.7322 -0.9359  0.8912
 9532SOL    HW240230   0.420   3.644  15.873  1.5708 -1.4700  0.2584
 9533SOL     OW40231   1.597   1.631   0.349 -0.1309 -0.0363  0.2280
 9533SOL    HW140232   1.683   1.594   0.330  0.8242  1.9207  0.7318
 9533SOL    HW240233   1.555   1.634   0.263  0.4303 -1.3784 -0.1005
 9534SOL     OW40234   0.736   3.610   2.222 -0.1322  0.5100  0.3681
 9534SOL    HW140235   0.762   3.608   2.314 -0.6486  0.7716  0.5195
 9534SOL    HW240236   0.821   3.584   2.188 -0.6536 -0.2803 -0.3263
 9535SOL     OW40237   2.557   0.749   6.424  0.4580  0.7233 -0.2844
 9535SOL    HW140238   2.592   0.780   6.508 -0.0242  2.1959 -0.6232
 9535SOL    HW240239   2.466   0.740   6.451  0.1158 -1.6986 -2.2705
 9536SOL     OW40240   1.621   0.906   9.461 -0.3811 -0.0711  0.5674
 9536SOL    HW140241   1.680   0.897   9.536  0.8205  2.3127 -0.1100
 9536SOL    HW240242   1.593   0.993   9.490  1.4801  0.4894  0.6670
 9537SOL     OW40243   3.202   2.265   3.407 -0.1664 -0.0487 -0.4055
 9537SOL    HW140244   3.129   2.233   3.354 -0.8628  1.2409 -0.2124
 9537SOL    HW240245   3.171   2.352   3.433 -1.5474 -1.1346  1.6308
 9538SOL     OW40246   2.918   4.162  10.365 -0.8232 -0.1683 -0.2360
 9538SOL    HW140247   2.830   4.199  10.369 -0.3306  1.0331 -0.5748
 9538SOL    HW240248   2.971   4.235  10.397 -0.6447 -0.9960  1.3758
 9539SOL     OW40249   3.625   4.292   0.157  0.6917  0.4839  0.3638
 9539SOL    HW140250   3.545   4.311   0.206  0.8596 -1.4649  1.3995
 9539SOL    HW240251   3.584   4.270   0.073 -0.8301  1.3854  0.8730
 9540SOL     OW40252   1.405   1.602   6.268  0.0585 -0.1934 -0.0248
 9540SOL    HW140253   1.318   1.565   6.281  0.0655 -0.6407 -1.2546
 9540SOL    HW240254   1.443   1.524   6.229 -1.6577 -0.1826 -1.6780
 9541SOL     OW40255   3.096   2.015  17.084  0.4568 -0.5365  0.6701
 9541SOL    HW140256   3.022   2.055  17.130  0.8234  0.8400  0.0643
 9541SOL    HW240257   3.146   1.967  17.150 -2.8550 -1.5499  2.4300
 9542SOL     OW40258   3.546   1.478  17.497 -0.0130 -0.1949 -0.0657
 9542SOL    HW140259   3.533   1.415  17.426  1.4982 -0.2910 -0.2583
 9542SOL    HW240260   3.496   1.554  17.466 -1.3025 -0.7414  0.6610
 9543SOL     OW40261   0.889   3.183   3.852  0.3145 -0.4478  0.4580
 9543SOL    HW140262   0.802   3.168   3.888 -0.0048 -0.4997 -0.3291
 9543SOL    HW240263   0.947   3.163   3.925  0.4094  0.6326  0.6822
 9544SOL     OW40264   4.254   0.977   5.078 -0.2439 -0.0573 -0.1094
 9544SOL    HW140265   4.311   0.962   5.003 -0.2228  1.1212 -0.3334
 9544SOL    HW240266   4.270   0.895   5.125 -0.5252 -0.0173  0.0586
 9545SOL     OW40267   1.614   2.340   5.424  0.2406 -0.7150  0.1052
 9545SOL    HW140268   1.568   2.272   5.473  0.0131  0.0578  0.9510
 9545SOL    HW240269   1.697   2.297   5.405  1.1493  0.5572  1.1461
 9546SOL     OW40270   2.729   1.450  13.300 -0.1713  0.4342 -0.1129
 9546SOL    HW140271   2.703   1.541  13.310 -0.2221  0.4149 -0.0737
 9546SOL    HW240272   2.765   1.437  13.212  0.9117  2.3461  0.0641
 9547SOL     OW40273   0.167   1.966   4.052 -0.2655  0.2759 -0.3456
 9547SOL    HW140274   0.259   1.987   4.067 -0.3278 -0.5176  1.2179
 9547SOL    HW240275   0.152   1.885   4.101  0.7369  0.1026 -0.3232
 9548SOL     OW40276   3.654   4.053   2.117  0.1466 -0.2718 -0.3072
 9548SOL    HW140277   3.703   4.078   2.196 -0.1125 -0.9862  0.0816
 9548SOL    HW240278   3.567   4.087   2.135 -1.1164 -4.0117  0.5956
 9549SOL     OW40279   3.679   2.367   0.156  0.4643  0.2345 -0.5532
 9549SOL    HW140280   3.655   2.286   0.111 -1.6449  0.0316  0.9652
 9549SOL    HW240281   3.672   2.349   0.249 -0.4875 -2.0737 -1.0896
 9550SOL     OW40282   3.002   2.146   6.313  0.4794  0.6503 -0.4110
 9550SOL    HW140283   3.001   2.138   6.218  0.5394 -0.6039 -0.3020
 9550SOL    HW240284   2.928   2.099   6.351  1.3142 -1.1210 -1.0015
 9551SOL     OW40285   3.295   3.201   5.654  0.1799 -0.1092 -0.3972
 9551SOL    HW140286   3.202   3.210   5.635 -0.1080 -2.2136 -0.0236
 9551SOL    HW240287   3.316   3.132   5.591  1.0757 -0.9995  0.8792
 9552SOL     OW40288   3.285   4.496   9.025 -0.2393 -0.3969  0.3670
 9552SOL    HW140289   3.286   4.479   9.119 -2.5989 -2.2301  0.0510
 9552SOL    HW240290   3.370   4.541   9.022 -0.1977 -0.4498  0.7545
 9553SOL     OW40291   0.657   4.094   5.747 -0.3127  0.1821 -0.4054
 9553SOL    HW140292   0.734   4.038   5.742  0.7027  1.5567 -0.0768
 9553SOL    HW240293   0.636   4.133   5.662  1.8268  0.9421 -0.5849
 9554SOL     OW40294   2.679   3.975   1.078 -0.3289 -0.5904 -0.7302
 9554SOL    HW140295   2.687   4.060   1.121 -1.3327 -0.9235  0.1064
 9554SOL    HW240296   2.706   4.004   0.991 -0.5942  1.9506  0.0455
 9555SOL     OW40297   3.896   3.543  16.549  0.5646 -0.1837 -0.3536
 9555SOL    HW140298   3.988   3.568  16.535  0.1496 -0.1242 -3.0052
 9555SOL    HW240299   3.878   3.508  16.461  0.6991  1.1687 -0.9137
 9556SOL     OW40300   3.863   4.249   8.752 -0.5516 -0.0260 -0.0711
 9556SOL    HW140301   3.893   4.275   8.839  0.2421 -0.4109 -0.2243
 9556SOL    HW240302   3.849   4.156   8.770 -1.4485  0.2190  0.5094
 9557SOL     OW40303   2.367   2.278   5.377 -0.4687  0.1384 -0.0508
 9557SOL    HW140304   2.355   2.360   5.426 -1.7618 -0.0162 -0.1171
 9557SOL    HW240305   2.448   2.304   5.333 -0.6677  1.0956  0.1498
 9558SOL     OW40306   1.109   4.718   8.479 -0.3225  0.4968 -0.4299
 9558SOL    HW140307   1.118   4.703   8.573 -0.7585 -0.0399 -0.4708
 9558SOL    HW240308   1.166   4.655   8.434  0.3654  1.2418 -0.5988
 9559SOL     OW40309   2.898   4.419   4.327 -0.0193  0.2595  0.7605
 9559SOL    HW140310   2.839   4.495   4.329 -0.6303 -0.1816 -0.7338
 9559SOL    HW240311   2.913   4.404   4.420 -2.1610 -0.2939  1.0243
 9560SOL     OW40312   4.309   3.958   4.417 -0.1375 -0.2320 -0.5178
 9560SOL    HW140313   4.392   3.930   4.455  0.0988  1.3562  0.1640
 9560SOL    HW240314   4.328   3.933   4.327  2.2978  1.1197 -0.3753
 9561SOL     OW40315   4.485   1.240   6.285  0.4313  0.4183  1.1675
 9561SOL    HW140316   4.400   1.254   6.327 -0.4042  0.2776 -0.4785
 9561SOL    HW240317   4.494   1.321   6.235  1.4369  0.5121  1.5011
 9562SOL     OW40318   2.287   0.902   7.870 -0.6161 -0.2539  0.3405
 9562SOL    HW140319   2.258   0.838   7.935 -0.3836 -2.3731 -1.6506
 9562SOL    HW240320   2.225   0.886   7.799 -0.3546  2.0901 -0.4266
 9563SOL     OW40321   0.714   2.795   9.710  0.0865  0.3117  0.0153
 9563SOL    HW140322   0.695   2.849   9.634 -1.4586  0.5029  0.5528
 9563SOL    HW240323   0.631   2.805   9.756 -0.7111 -3.2456 -0.6486
 9564SOL     OW40324   0.232   3.156  16.594  0.4808 -0.0004 -0.1574
 9564SOL    HW140325   0.299   3.137  16.659 -0.0110 -1.3275 -0.0465
 9564SOL    HW240326   0.207   3.244  16.623  1.0818 -0.5232  1.9137
 9565SOL     OW40327   0.459   1.860   2.976  0.6525 -0.1815 -0.1795
 9565SOL    HW140328   0.448   1.945   2.932 -2.5316  0.2956  1.5464
 9565SOL    HW240329   0.473   1.889   3.066  0.1903  0.1247 -0.2065
 9566SOL     OW40330   0.985   1.097   2.891  0.3063  0.3292 -0.1713
 9566SOL    HW140331   1.060   1.108   2.949 -0.7034  1.2195  0.9488
 9566SOL    HW240332   0.908   1.102   2.948 -1.7267  1.0345 -2.9640
 9567SOL     OW40333   4.088   0.771  13.132  0.2659 -0.1826  0.1884
 9567SOL    HW140334   4.061   0.793  13.221  0.8066 -2.0635  0.8050
 9567SOL    HW240335   4.137   0.690  13.143  1.1756 -0.0122 -2.4796
 9568SOL     OW40336   3.791   2.851   6.520  0.0996  0.4253 -0.3065
 9568SOL    HW140337   3.861   2.871   6.583 -1.1407 -0.9930  1.5405
 9568SOL    HW240338   3.708   2.887   6.552  0.0524  0.7759 -0.8243
 9569SOL     OW40339   3.419   3.431   5.703  0.2746 -0.2937 -1.0387
 9569SOL    HW140340   3.486   3.367   5.681  0.6175 -0.5222  0.6370
 9569SOL    HW240341   3.356   3.360   5.717 -0.5802  0.6127 -0.2217
 9570SOL     OW40342   4.424   0.932  15.764 -0.3274 -0.4582 -0.1027
 9570SOL    HW140343   4.475   0.982  15.828 -0.6912  0.0545 -0.2122
 9570SOL    HW240344   4.379   1.000  15.714 -1.2291 -1.9483 -1.2906
 9571SOL     OW40345   4.222   0.250   2.969  0.0862  0.2292  0.0396
 9571SOL    HW140346   4.275   0.195   2.911  0.2682  0.6229 -0.1765
 9571SOL    HW240347   4.244   0.208   3.052 -1.9407  1.0887  1.0118
   4.73509   4.73509  17.73920
