Membrane in water
40347
    1TMC1    C1    1   2.362   0.867  11.393  0.1628  0.4515  0.1571
    1TMC1    C2    2   2.411   0.959  11.485 -0.3447 -0.6189  0.7786
    1TMC1    C3    3   2.356   1.080  11.484  0.3828 -0.0926 -0.3598
    1TMC1    C4    4   2.277   0.902  11.292  0.6818 -0.5507 -0.0017
    1TMC1    C5    5   2.235   1.030  11.286 -0.0522 -0.7547 -1.0737
    1TMC1    C6    6   2.273   1.117  11.382 -0.5212 -0.3106  0.2267
    1TMC1     C    7   2.401   0.727  11.394 -0.6323 -0.4831  0.3386
    1TMC1     O    8   2.381   0.660  11.294 -0.6208  0.2221 -0.1027
    1TMC1     H    9   2.491   0.929  11.552 -0.0827 -0.3118  0.6032
    1TMC1    H1   10   2.252   0.834  11.212  0.7760 -0.7359  0.1274
    1TMC1    H2   11   2.269   1.224  11.365 -0.7541 -0.3377  0.1068
    1TMC1    C7   12   2.129   1.054  11.197 -0.3883 -0.4533  0.1166
    1TMC1    C8   13   2.370   1.170  11.589  0.0400  0.2637  0.2104
    1TMC1    O1   14   2.087   0.965  11.123 -0.7952 -0.2864 -0.1980
    1TMC1    O2   15   2.371   1.295  11.571 -0.9803 -0.2547 -0.3505
    1TMC1    O3   16   2.042   1.137  11.265 -0.5587 -0.1325 -0.4419
    1TMC1    H3   17   2.075   1.194  11.338  0.0991  0.5767 -1.2831
    1TMC1    O5   18   2.392   1.097  11.702 -0.9003  0.4528 -0.6485
    1TMC1    H5   19   2.361   1.004  11.698 -1.0505  0.5793 -2.4255
    2MPD2     C   20   2.487   0.268  11.619 -0.2056  0.5476  0.0935
    2MPD2    C1   21   2.409   0.295  11.513 -0.2661  0.3217 -0.8805
    2MPD2    C2   22   2.397   0.430  11.471 -0.0515 -0.1997  0.0446
    2MPD2    C3   23   2.453   0.533  11.546  0.4360  0.0419 -0.3587
    2MPD2    C4   24   2.534   0.500  11.649 -0.0641  0.5367 -0.0594
    2MPD2    C5   25   2.555   0.373  11.674 -0.5713 -0.1702 -1.3851
    2MPD2     H   26   2.333   0.455  11.388 -2.2985 -1.5758  1.3420
    2MPD2    H1   27   2.590   0.578  11.699 -1.8023  1.6439  0.1912
    2MPD2    H2   28   2.518   0.172  11.660 -0.8787  1.1764  2.0617
    2MPD2    H3   29   2.622   0.354  11.757 -0.9394 -1.9719 -1.4952
    2MPD2     N   30   2.445   0.677  11.514  0.2374  0.8821  0.5174
    2MPD2    H5   31   2.459   0.747  11.587 -0.1725  1.7580 -0.2323
    2MPD2    N1   32   2.329   0.195  11.453 -0.0363  0.2245  0.0005
    2MPD2    H7   33   2.257   0.223  11.387  1.2070  1.3156 -0.9024
    3TMC1    C1   34   1.488   2.188  10.707  0.2437 -0.0568 -0.2480
    3TMC1    C2   35   1.575   2.242  10.623 -0.2128 -0.7399  0.1010
    3TMC1    C3   36   1.594   2.375  10.623  0.8098 -0.7936 -0.5660
    3TMC1    C4   37   1.410   2.256  10.791 -0.6655 -0.5246 -0.3668
    3TMC1    C5   38   1.419   2.393  10.782 -0.2713  0.3725  0.4094
    3TMC1    C6   39   1.511   2.455  10.701 -0.2507  0.5026  0.2863
    3TMC1     C   40   1.463   2.047  10.675 -0.9955  0.4248  0.7376
    3TMC1     O   41   1.479   2.006  10.564  0.0439 -0.0116 -0.6423
    3TMC1     H   42   1.636   2.186  10.553  0.7916  0.2606  0.1760
    3TMC1    H1   43   1.329   2.214  10.849 -2.4972  0.7850 -1.9420
    3TMC1    H2   44   1.520   2.563  10.705 -0.1534  0.4815  0.6052
    3TMC1    C7   45   1.290   2.463  10.786 -0.3186  0.0078 -1.2461
    3TMC1    C8   46   1.731   2.422  10.599  0.4950  0.3418 -0.3819
    3TMC1    O1   47   1.195   2.430  10.854 -0.4381  0.1169 -0.0867
    3TMC1    O2   48   1.827   2.347  10.602 -0.3767  0.0449  1.0339
    3TMC1    O3   49   1.279   2.539  10.671  0.1525 -0.1110 -0.5656
    3TMC1    H3   50   1.343   2.510  10.602  1.4756 -0.5319  0.8291
    3TMC1    O5   51   1.741   2.556  10.596  0.3700  0.1625 -0.4256
    3TMC1    H5   52   1.669   2.602  10.547  0.1296  0.4506  0.1925
    4MPD2     C   53   1.248   1.583  10.789  0.5205 -0.1887  0.4145
    4MPD2    C1   54   1.219   1.670  10.890 -0.0337  0.1004  0.3364
    4MPD2    C2   55   1.268   1.800  10.876  0.0016  0.1244  0.1371
    4MPD2    C3   56   1.353   1.843  10.769  0.9085 -0.2022  1.2398
    4MPD2    C4   57   1.375   1.753  10.668 -0.2411 -0.3824  0.2312
    4MPD2    C5   58   1.309   1.632  10.670 -0.3019 -0.8578 -0.2463
    4MPD2     H   59   1.255   1.872  10.956 -0.6078  1.3937 -1.1159
    4MPD2    H1   60   1.431   1.782  10.580  1.6774  0.4656  1.7368
    4MPD2    H2   61   1.230   1.477  10.803  1.7425 -0.5739 -0.9368
    4MPD2    H3   62   1.314   1.569  10.582 -0.8228 -0.6162 -0.4447
    4MPD2     N   63   1.401   1.977  10.773  0.5682  0.0473  0.2214
    4MPD2    H5   64   1.407   2.018  10.865  0.8439  1.3841 -0.3902
    4MPD2    N1   65   1.139   1.637  11.003  0.5047  0.4111 -0.4115
    4MPD2    H7   66   1.133   1.711  11.073 -0.3621  0.6671 -0.7628
    5TCq1    O1   67   1.806   2.756  12.332  0.4462 -0.0797  0.0056
    5TCq1    C1   68   1.928   2.748  12.265 -1.0142  0.1754 -0.2764
    5TCq1    O2   69   2.034   2.752  12.328  0.3782 -0.0413  0.1466
    5TCq1    C2   70   1.913   2.781  12.132  1.0345  0.0166  0.0713
    5TCq1    C3   71   1.824   2.712  12.055  0.0409 -0.3853 -0.0829
    5TCq1    C4   72   1.812   2.741  11.921 -0.5554  0.3109  0.2688
    5TCq1    C5   73   1.897   2.832  11.865  0.2410 -0.0537  0.6056
    5TCq1    C6   74   1.999   2.881  11.945  0.0209  0.0986  0.3146
    5TCq1    C7   75   2.010   2.861  12.081 -0.5357  0.0715 -0.4209
    5TCq1    C8   76   2.102   2.943  11.866  1.4588  0.5456  0.3315
    5TCq1    O4   77   2.074   2.989  11.758 -0.0629 -0.2473 -0.0300
    5TCq1    C9   78   1.726   2.649  11.846  0.5019 -0.4238 -0.2051
    5TCq1    O5   79   1.728   2.637  11.718  0.3149 -0.5102 -0.5713
    5TCq1    O6   80   1.637   2.591  11.919 -0.0352 -0.1731  0.4065
    5TCq1    H1   81   1.726   2.767  12.276  0.1591 -0.8288  0.2703
    5TCq1    H2   82   1.758   2.646  12.110 -2.1129  1.3263 -0.6305
    5TCq1    H3   83   1.888   2.858  11.760 -0.0628 -0.4591  0.5332
    5TCq1    H4   84   2.071   2.920  12.149 -1.1469 -2.5915  2.4508
    6MPD2     C   85   2.458   3.055  11.935 -0.2883  0.5386 -0.0962
    6MPD2    C1   86   2.351   2.998  11.865  1.2121 -0.3385  1.3773
    6MPD2    C2   87   2.366   2.989  11.727 -0.1590 -0.0230  0.0383
    6MPD2    C3   88   2.475   3.040  11.657 -0.0128 -0.2338  0.5256
    6MPD2    C4   89   2.566   3.108  11.733  0.2597 -0.8170  0.5606
    6MPD2    C5   90   2.563   3.103  11.870 -0.6537 -0.4417  0.3757
    6MPD2     H   91   2.297   2.936  11.662  0.2113 -1.9112  1.1878
    6MPD2    H1   92   2.652   3.155  11.687 -0.2983  0.5859  0.9676
    6MPD2    H2   93   2.465   3.043  12.043  0.5595 -0.1349 -0.2257
    6MPD2    H3   94   2.641   3.154  11.927  1.1421 -2.3907 -0.3188
    6MPD2     N   95   2.482   3.024  11.513  0.1434  0.6911 -0.1748
    6MPD2    H5   96   2.407   2.981  11.459  0.7711  0.2924 -0.7272
    6MPD2    N1   97   2.225   2.949  11.928 -0.3316  0.5911  0.7069
    6MPD2    H7   98   2.219   2.944  12.029 -0.5475  0.0673  0.6655
    7TCq1    O1   99   0.203   2.634  13.511  0.7341  0.0377  0.4988
    7TCq1    C1  100   0.167   2.506  13.493  0.1360  0.2908  0.4240
    7TCq1    O2  101   0.167   2.414  13.575 -0.1373 -0.5013  0.1880
    7TCq1    C2  102   0.090   2.491  13.366  0.0161  0.9503 -0.9006
    7TCq1    C3  103   0.128   2.561  13.261 -0.0905  0.0538  0.3873
    7TCq1    C4  104   0.071   2.531  13.139  0.5675  0.0556 -0.0541
    7TCq1    C5  105   4.727   2.431  13.120 -0.1986 -0.1950  0.1385
    7TCq1    C6  106   4.690   2.361  13.232 -0.0919  0.2297  0.4257
    7TCq1    C7  107   0.002   2.393  13.354 -0.1661  0.2186  0.1236
    7TCq1    C8  108   4.617   2.234  13.221  0.9361 -0.4999 -0.1629
    7TCq1    O4  109   4.603   2.173  13.326  0.1469 -0.2997 -0.5410
    7TCq1    C9  110   0.108   2.600  13.026  0.0300  0.2742  1.0264
    7TCq1    O5  111   0.175   2.702  13.041  0.2690  0.6444  0.0051
    7TCq1    O6  112   0.068   2.559  12.919 -0.1348 -0.5780  0.4130
    7TCq1    H1  113   0.211   2.695  13.435  0.0165 -0.1681  0.2589
    7TCq1    H2  114   0.204   2.637  13.275  1.3760 -0.7065 -3.6762
    7TCq1    H3  115   4.676   2.408  13.026  0.8440  0.3146 -0.5456
    7TCq1    H4  116   4.710   2.336  13.441 -1.3257  1.2651  0.4132
    8MPD2     C  117   4.397   1.861  12.963  0.0691  0.4593 -0.4197
    8MPD2    C1  118   4.396   1.883  13.093 -0.4403 -0.4454 -0.0558
    8MPD2    C2  119   4.473   1.988  13.139 -0.5825 -0.8860 -0.0071
    8MPD2    C3  120   4.543   2.074  13.057 -0.1890  0.0397  0.3315
    8MPD2    C4  121   4.543   2.047  12.924  0.1500  0.6302 -0.2936
    8MPD2    C5  122   4.476   1.937  12.881  0.3414 -0.1954 -0.1930
    8MPD2     H  123   4.490   1.993  13.246  2.6151  0.0866 -0.5498
    8MPD2    H1  124   4.597   2.113  12.857 -0.6623  2.1986  0.5920
    8MPD2    H2  125   4.337   1.789  12.908 -0.0240  0.6377 -0.5523
    8MPD2    H3  126   4.483   1.909  12.776 -2.0869 -1.1318 -0.0975
    8MPD2     N  127   4.609   2.189  13.096  0.1193 -0.2392  0.1740
    8MPD2    H5  128   4.630   2.253  13.020  0.2967 -0.7911 -0.2453
    8MPD2    N1  129   4.332   1.789  13.173 -0.2274  0.0058  0.1104
    8MPD2    H7  130   4.289   1.706  13.133  0.3231  0.2558 -1.0074
    9TMC1    C1  131   1.700   1.016  10.405 -1.0134  0.0116  0.5065
    9TMC1    C2  132   1.780   1.044  10.298  0.2965  0.8635 -0.2991
    9TMC1    C3  133   1.735   0.996  10.178 -0.0439  0.3232 -0.7444
    9TMC1    C4  134   1.574   0.969  10.398 -0.1300  0.4941  0.0798
    9TMC1    C5  135   1.534   0.921  10.281  0.0933 -0.1916  0.7574
    9TMC1    C6  136   1.611   0.941  10.167  0.3790  0.1511  0.2655
    9TMC1     C  137   1.757   1.054  10.537 -0.0530 -0.9097  0.0436
    9TMC1     O  138   1.857   1.124  10.545 -0.4073 -0.3213  0.5082
    9TMC1     H  139   1.879   1.087  10.313  1.0070 -0.9842  0.3335
    9TMC1    H1  140   1.502   0.974  10.479 -1.0952  0.7466 -0.7922
    9TMC1    H2  141   1.579   0.897  10.073  1.6905 -0.5215  0.1411
    9TMC1    C7  142   1.396   0.875  10.261 -0.3164 -0.8156 -0.2875
    9TMC1    C8  143   1.816   1.012  10.055 -0.1812 -0.3290 -0.5975
    9TMC1    O1  144   1.322   0.847  10.354 -0.4436 -0.1321  0.5436
    9TMC1    O2  145   1.769   1.061   9.954 -0.6130 -0.4882  0.1991
    9TMC1    O3  146   1.361   0.922  10.142 -0.6708  0.2682 -0.1525
    9TMC1    H3  147   1.435   0.963  10.091  0.8118 -1.2247  0.8009
    9TMC1    O5  148   1.952   1.018  10.094 -0.2198  0.0193 -0.0149
    9TMC1    H5  149   1.955   0.964  10.176  0.1831 -0.3387 -0.2656
   10MPD2     C  150   1.782   1.140  10.818 -0.1136 -0.3510  0.1149
   10MPD2    C1  151   1.716   1.025  10.779  0.0030 -0.5186 -0.3159
   10MPD2    C2  152   1.659   0.940  10.875  0.0335 -0.0804 -0.7332
   10MPD2    C3  153   1.666   0.976  11.009 -0.2012 -0.0325  0.2345
   10MPD2    C4  154   1.718   1.100  11.040 -0.5922 -0.1387 -0.6154
   10MPD2    C5  155   1.778   1.176  10.947 -0.3270  0.2965  0.5065
   10MPD2     H  156   1.619   0.845  10.843 -0.9497 -0.8398  2.7861
   10MPD2    H1  157   1.731   1.119  11.146  0.8394  1.7008 -1.1095
   10MPD2    H2  158   1.807   1.218  10.748 -0.0090 -0.9833 -0.5587
   10MPD2    H3  159   1.834   1.263  10.980  1.2820 -0.4158 -0.3304
   10MPD2     N  160   1.617   0.905  11.115  0.5801  0.3555  0.0057
   10MPD2    H5  161   1.645   0.941  11.206  0.2490  0.3543  0.1087
   10MPD2    N1  162   1.696   0.988  10.644 -0.2492  0.3364 -0.5036
   10MPD2    H7  163   1.636   0.910  10.622  0.0364 -0.3430  1.1061
   11TCq1    O1  164   2.348   0.097  14.389  0.2179 -0.0841  0.4509
   11TCq1    C1  165   2.282   0.214  14.374 -0.5860  0.8289  0.1426
   11TCq1    O2  166   2.175   0.238  14.430 -0.7641 -0.1239 -0.1492
   11TCq1    C2  167   2.317   0.257  14.244  0.5312  0.4217 -0.0140
   11TCq1    C3  168   2.439   0.298  14.214  0.4831 -0.6164 -0.4612
   11TCq1    C4  169   2.455   0.356  14.092  0.3639  0.2783  0.0700
   11TCq1    C5  170   2.354   0.365  14.003  0.0014  0.7521 -0.0327
   11TCq1    C6  171   2.229   0.326  14.037 -0.0354  0.4322 -0.6149
   11TCq1    C7  172   2.211   0.272  14.157 -0.2929 -0.8119 -0.5290
   11TCq1    C8  173   2.126   0.294  13.940 -0.1313  0.1217 -0.2851
   11TCq1    O4  174   2.009   0.307  13.977 -0.0270  0.0267  0.1485
   11TCq1    C9  175   2.584   0.405  14.048  0.0960  0.3076  0.1755
   11TCq1    O5  176   2.679   0.359  14.117  0.7469 -0.0513  0.0302
   11TCq1    O6  177   2.589   0.456  13.935  0.2776  0.0044 -0.1418
   11TCq1    H1  178   2.421   0.090  14.323  2.2488  1.0055  2.5778
   11TCq1    H2  179   2.530   0.293  14.274 -0.4187 -2.3654  0.7654
   11TCq1    H3  180   2.367   0.415  13.907 -0.0020 -0.5627 -0.7156
   11TCq1    H4  181   2.128   0.205  14.173 -0.3167 -0.5547  0.4319
   12MPD2     C  182   1.958   0.189  13.713 -0.0216  0.0073  0.2602
   12MPD2    C1  183   2.094   0.196  13.710  0.1836  0.7334 -0.8617
   12MPD2    C2  184   2.158   0.166  13.588  0.5073 -0.6890 -0.9650
   12MPD2    C3  185   2.081   0.145  13.472 -0.1247 -0.5620 -0.1294
   12MPD2    C4  186   1.943   0.147  13.481  0.3817 -0.2998 -0.2459
   12MPD2    C5  187   1.889   0.182  13.598  0.5791 -0.3139  0.0078
   12MPD2     H  188   2.267   0.160  13.588  0.5058 -0.6942 -1.3157
   12MPD2    H1  189   1.875   0.124  13.400  0.4480  0.3632 -0.4897
   12MPD2    H2  190   1.908   0.209  13.807 -1.3324  1.0137 -0.6421
   12MPD2    H3  191   1.782   0.181  13.611  0.4836 -0.6804 -0.7862
   12MPD2     N  192   2.138   0.107  13.348  0.8407 -0.3831  0.2019
   12MPD2    H5  193   2.075   0.065  13.280  1.7195 -1.5549  0.1123
   12MPD2    N1  194   2.171   0.238  13.823  0.3886  0.3886  0.2114
   12MPD2    H7  195   2.271   0.229  13.806  0.1860  0.2761 -0.9252
   13TCq1    O1  196   2.404   1.545   9.970  0.0227 -0.0872  0.2943
   13TCq1    C1  197   2.337   1.481  10.073  0.8067  0.0245 -0.3768
   13TCq1    O2  198   2.379   1.425  10.176 -0.9603 -0.5370 -0.9578
   13TCq1    C2  199   2.197   1.463  10.038 -0.5474  0.0006 -1.3543
   13TCq1    C3  200   2.163   1.457   9.907  0.5651  0.3225  0.0236
   13TCq1    C4  201   2.037   1.419   9.871  0.1859 -0.6368  0.5200
   13TCq1    C5  202   1.947   1.372   9.961  0.1098 -0.0853  0.3715
   13TCq1    C6  203   1.986   1.370  10.098 -0.1909  0.0945  1.2107
   13TCq1    C7  204   2.110   1.416  10.137 -0.1595  0.2576 -0.1144
   13TCq1    C8  205   1.881   1.353  10.203 -0.6374 -0.1251 -0.0748
   13TCq1    O4  206   1.922   1.355  10.316  0.2057  0.2087  0.7018
   13TCq1    C9  207   2.002   1.404   9.730  0.3083 -1.1558  0.0453
   13TCq1    O5  208   1.884   1.365   9.702  0.3558  0.2795  0.0379
   13TCq1    O6  209   2.086   1.442   9.641  0.4495 -0.4356  0.5606
   13TCq1    H1  210   2.356   1.602   9.907  2.2452  0.6314 -0.7295
   13TCq1    H2  211   2.232   1.479   9.826  1.0113  1.4015  0.7099
   13TCq1    H3  212   1.847   1.342   9.930  0.1988  1.3585 -1.2891
   13TCq1    H4  213   2.132   1.435  10.242 -1.3888 -0.3876  0.2653
   14MPD2     C  214   1.520   1.295  10.153  0.6182 -0.8086 -0.3808
   14MPD2    C1  215   1.627   1.332  10.229 -0.2205  0.3999  0.3307
   14MPD2    C2  216   1.614   1.351  10.366 -0.0386 -0.4275  0.0252
   14MPD2    C3  217   1.490   1.314  10.426 -0.3226  0.0918 -0.1888
   14MPD2    C4  218   1.379   1.283  10.349 -0.1061 -0.3950 -0.0360
   14MPD2    C5  219   1.401   1.275  10.216  0.0907 -1.0974  0.7922
   14MPD2     H  220   1.701   1.387  10.420  1.1539 -2.3569 -0.6271
   14MPD2    H1  221   1.281   1.266  10.392 -0.3414  0.0885 -0.3833
   14MPD2    H2  222   1.524   1.278  10.046  3.1167  0.7730 -0.5280
   14MPD2    H3  223   1.318   1.250  10.151  1.6922 -0.3821 -1.5537
   14MPD2     N  224   1.483   1.319  10.562 -0.5586  0.0319 -0.7051
   14MPD2    H5  225   1.564   1.354  10.611  0.2833 -1.5320 -0.9568
   14MPD2    N1  226   1.749   1.345  10.151  0.3163  0.1072  0.0147
   14MPD2    H7  227   1.737   1.330  10.051 -0.9090 -1.3348  0.3760
   15TCq1    O1  228   4.732   0.603   2.233 -0.0943  0.0291  0.4645
   15TCq1    C1  229   4.723   0.639   2.102 -0.3565  0.0700 -1.1635
   15TCq1    O2  230   0.082   0.667   2.036  0.1914  0.1006 -0.1064
   15TCq1    C2  231   4.620   0.548   2.051 -0.6461 -0.1472 -0.4514
   15TCq1    C3  232   4.491   0.583   2.084  0.5991  0.6457  0.3962
   15TCq1    C4  233   4.400   0.493   2.046  0.2599 -0.0556  0.4270
   15TCq1    C5  234   4.427   0.384   1.966 -0.4324 -0.0187  0.5187
   15TCq1    C6  235   4.556   0.358   1.924  0.1700  0.6220 -0.5756
   15TCq1    C7  236   4.657   0.438   1.968  0.4622 -0.5949  0.0132
   15TCq1    C8  237   4.589   0.233   1.843 -0.6722  0.0548 -0.8045
   15TCq1    O4  238   4.708   0.213   1.821  0.0741 -0.1387 -0.0173
   15TCq1    C9  239   4.271   0.505   2.106  0.0300  0.1617 -0.1892
   15TCq1    O5  240   4.177   0.433   2.057 -0.0220  0.0525  0.6453
   15TCq1    O6  241   4.262   0.575   2.211 -0.3130 -0.4451  0.0885
   15TCq1    H1  242   4.655   0.544   2.252  0.5831 -1.2128 -0.5928
   15TCq1    H2  243   4.479   0.670   2.147 -0.6245 -0.6247  1.9440
   15TCq1    H3  244   4.345   0.316   1.947 -1.3077  0.5814  2.1507
   15TCq1    H4  245   0.020   0.404   1.962  0.4946 -0.4413 -0.3252
   16MPD2     C  246   4.339   0.065   1.624  0.0811  0.5151  0.1583
   16MPD2    C1  247   4.465   0.087   1.683 -0.8413 -0.1260 -0.6012
   16MPD2    C2  248   4.575   0.006   1.636 -1.4583  0.1311 -0.1445
   16MPD2    C3  249   4.566   4.667   1.525  0.2408  0.6369  0.0002
   16MPD2    C4  250   4.447   4.668   1.458  1.0240  0.4494  0.9295
   16MPD2    C5  251   4.335   4.730   1.509 -0.1947  0.6363 -0.3190
   16MPD2     H  252   4.665   0.007   1.696 -1.8549 -1.7110  0.4685
   16MPD2    H1  253   4.432   4.605   1.371  3.0992  1.2727 -0.0178
   16MPD2    H2  254   4.250   0.117   1.657 -0.8056 -1.5543  1.0752
   16MPD2    H3  255   4.237   4.718   1.464  0.0469  0.5386 -0.8119
   16MPD2     N  256   4.679   4.611   1.466 -0.1505 -0.2149  0.7174
   16MPD2    H5  257   0.027   4.613   1.520  0.0267  0.7313  0.3996
   16MPD2    N1  258   4.472   0.188   1.783 -0.2615 -0.5917  0.5524
   16MPD2    H7  259   4.388   0.239   1.809  0.4464  0.4112  0.8523
   17TMC1    C1  260   1.675   0.357  10.838 -0.8401  0.0378 -0.3113
   17TMC1    C2  261   1.544   0.362  10.856 -0.1362  0.0060 -0.6832
   17TMC1    C3  262   1.491   0.240  10.904 -0.2024  0.6472 -0.0705
   17TMC1    C4  263   1.756   0.247  10.863  0.3121  0.0161  0.8180
   17TMC1    C5  264   1.698   0.139  10.918  0.3121 -0.4231 -0.2741
   17TMC1    C6  265   1.566   0.129  10.939 -0.5089 -0.2403 -0.2315
   17TMC1     C  266   1.736   0.486  10.814  0.0706  0.6089 -1.2540
   17TMC1     O  267   1.665   0.578  10.782 -0.3468  0.0046 -0.0710
   17TMC1     H  268   1.487   0.447  10.819 -1.1553  0.1176  1.1110
   17TMC1    H1  269   1.863   0.239  10.854 -0.0702 -2.3485 -1.5016
   17TMC1    H2  270   1.524   0.046  10.996  2.4022 -1.2884  0.3747
   17TMC1    C7  271   1.772   0.023  10.904 -0.3351  0.5519  0.2265
   17TMC1    C8  272   1.358   0.234  10.952 -0.0774 -0.7866  0.8168
   17TMC1    O1  273   1.739   4.664  10.973  0.9392  0.3099  0.0067
   17TMC1    O2  274   1.316   0.150  11.029  0.1810 -0.1892  0.9140
   17TMC1    O3  275   1.786   0.012  10.771 -0.0029  0.1027  0.6570
   17TMC1    H3  276   1.748   0.081  10.713  0.5161 -0.1613  0.0011
   17TMC1    O5  277   1.334   0.367  10.959  0.4291 -0.1868 -0.0750
   17TMC1    H5  278   1.329   0.405  10.869 -1.2690 -1.3123 -0.4518
   18MPD2     C  279   1.911   0.731  10.796  0.0523 -0.1559  0.2499
   18MPD2    C1  280   1.954   0.602  10.836  0.5975  0.1226  0.0517
   18MPD2    C2  281   2.082   0.595  10.883  0.3876 -0.0837 -0.4426
   18MPD2    C3  282   2.173   0.703  10.879  1.1244  0.5878  1.2264
   18MPD2    C4  283   2.131   0.825  10.826  0.7232 -0.2672  0.1071
   18MPD2    C5  284   1.997   0.840  10.787 -0.3660  0.1967 -0.4547
   18MPD2     H  285   2.121   0.495  10.903 -1.8214 -0.8701 -0.1063
   18MPD2    H1  286   2.208   0.897  10.799  0.9898 -0.5959 -0.0166
   18MPD2    H2  287   1.820   0.752  10.741  0.3215  0.2968 -0.0227
   18MPD2    H3  288   1.959   0.927  10.735 -0.1950  0.1095 -0.7256
   18MPD2     N  289   2.310   0.691  10.916  0.1774  0.2675  0.2547
   18MPD2    H5  290   2.377   0.764  10.896  2.3771 -1.7146  0.3523
   18MPD2    N1  291   1.877   0.485  10.841  0.1256  0.1188  0.2982
   18MPD2    H7  292   1.911   0.402  10.889 -2.6352 -0.5371  1.1431
   19TMC2    C1  293   3.191   0.349  14.189  0.2392 -0.3538 -0.4178
   19TMC2    C2  294   3.109   0.448  14.239 -0.3831  0.4676 -0.4684
   19TMC2    C3  295   2.978   0.415  14.263  0.6692  0.1579 -0.0467
   19TMC2    C4  296   3.149   0.217  14.167 -0.7276 -0.0059  0.2547
   19TMC2    C5  297   3.019   0.195  14.201 -0.2297 -0.3205  0.4714
   19TMC2    C6  298   2.935   0.283  14.262 -0.1716 -0.1072  0.2565
   19TMC2     C  299   3.321   0.397  14.150  0.3481 -0.4494  0.1216
   19TMC2     O  300   3.328   0.520  14.131  0.1345 -0.3143 -0.0323
   19TMC2     H  301   3.133   0.553  14.249 -1.5357  0.8207 -1.4479
   19TMC2    H1  302   3.201   0.142  14.108 -0.9630  0.9314 -1.1367
   19TMC2    H2  303   2.836   0.261  14.300 -0.0545 -1.3340 -0.1409
   19TMC2    C7  304   2.964   0.072  14.143 -0.1713  0.7396 -0.4955
   19TMC2    C8  305   2.905   0.501  14.348 -0.3749 -0.0073  0.3745
   19TMC2    O1  306   3.041   4.715  14.157  0.3511  0.8857 -0.1238
   19TMC2    O2  307   2.952   0.582  14.428  0.0548  0.1354  0.2717
   19TMC2    O5  308   2.772   0.481  14.315 -0.0740 -0.5136 -0.2193
   19TMC2    H5  309   2.748   0.438  14.231  0.1108  0.6204 -0.8528
   20MPD2     C  310   3.600   0.436  14.090 -0.2216 -0.3762 -0.6701
   20MPD2    C1  311   3.555   0.314  14.144  0.8162  0.1010  0.2309
   20MPD2    C2  312   3.644   0.209  14.160 -0.1010  0.2422  0.2201
   20MPD2    C3  313   3.780   0.236  14.134 -0.6818  0.6519 -0.0775
   20MPD2    C4  314   3.826   0.361  14.106  0.1247 -0.0654  0.5124
   20MPD2    C5  315   3.739   0.467  14.084  0.0097 -0.8759 -0.3561
   20MPD2     H  316   3.627   0.113  14.208 -0.3853 -0.3336 -1.0179
   20MPD2    H1  317   3.931   0.385  14.094  0.3689 -0.9728  0.8422
   20MPD2    H2  318   3.536   0.518  14.058  0.0305 -0.1282 -0.5393
   20MPD2    H3  319   3.788   0.558  14.051  0.2144 -1.0619 -0.5719
   20MPD2     N  320   3.878   0.139  14.149 -0.5176  0.1382  0.1571
   20MPD2    H5  321   3.968   0.182  14.132 -1.2189  1.5109 -0.2104
   20MPD2    N1  322   3.418   0.296  14.160 -0.1420  0.0336  0.1689
   20MPD2    H7  323   3.385   0.203  14.185  0.2599 -0.2792 -0.4681
   21TMC2    C1  324   0.933   0.377  14.921 -0.5479 -0.1184 -0.3322
   21TMC2    C2  325   0.918   0.254  14.971  0.0709 -0.2585  0.3787
   21TMC2    C3  326   0.843   0.244  15.088 -0.5203  0.4104 -0.4861
   21TMC2    C4  327   0.870   0.488  14.968 -0.5259  0.0382 -0.2546
   21TMC2    C5  328   0.778   0.469  15.070 -0.4669  0.1017 -0.5247
   21TMC2    C6  329   0.770   0.347  15.136  0.0356  0.1289 -0.2078
   21TMC2     C  330   1.023   0.385  14.806 -0.1957  0.1764 -0.1234
   21TMC2     O  331   1.102   0.295  14.779 -0.1570  0.0000 -0.1680
   21TMC2     H  332   0.979   0.171  14.936  0.8689 -0.0104  1.1546
   21TMC2    H1  333   0.904   0.588  14.944 -0.2844  0.1745  0.6275
   21TMC2    H2  334   0.705   0.330  15.222 -0.5528 -0.5911 -0.7923
   21TMC2    C7  335   0.710   0.582  15.128 -0.1502  0.9325  0.1353
   21TMC2    C8  336   0.855   0.136  15.176 -0.1641 -0.1708 -0.3096
   21TMC2    O1  337   0.659   0.560  15.236  0.2117 -0.1597  0.2290
   21TMC2    O2  338   0.819   0.137  15.295  0.2760 -0.4847  0.0653
   21TMC2    O5  339   0.855   0.022  15.107 -0.3904 -0.6062  0.6524
   21TMC2    H5  340   0.848   0.035  15.010 -1.1602 -2.7716  0.4092
   22MPD2     C  341   1.291   0.700  14.497  0.0001 -0.3679  0.0930
   22MPD2    C1  342   1.310   0.571  14.534  0.3653  0.1360 -0.1147
   22MPD2    C2  343   1.225   0.500  14.617 -0.2630  0.4891 -0.0490
   22MPD2    C3  344   1.101   0.560  14.653 -0.4247 -0.3805 -1.0430
   22MPD2    C4  345   1.087   0.695  14.619  0.1952  0.1061  0.1636
   22MPD2    C5  346   1.181   0.764  14.547 -0.5436 -0.1498  0.1741
   22MPD2     H  347   1.261   0.405  14.655  0.3048  1.1466  1.0314
   22MPD2    H1  348   0.993   0.746  14.634 -1.0087 -2.2241  0.4849
   22MPD2    H2  349   1.353   0.754  14.428  0.6490 -0.8372  0.3111
   22MPD2    H3  350   1.151   0.860  14.506  0.5556 -0.0897 -0.4732
   22MPD2     N  351   1.005   0.508  14.744  0.2935 -0.6097  0.2048
   22MPD2    H5  352   0.931   0.568  14.779  0.7672  0.6693 -0.9861
   22MPD2    N1  353   1.429   0.496  14.493  0.7914 -0.2871  0.0857
   22MPD2    H7  354   1.446   0.397  14.507  1.7212 -0.4483 -2.0577
   23TMC2    C1  355   2.461   2.238  14.344 -0.6237  0.0445  0.0073
   23TMC2    C2  356   2.398   2.357  14.318 -0.2193  0.0452 -0.3341
   23TMC2    C3  357   2.276   2.349  14.258 -0.6626 -0.5941  0.1391
   23TMC2    C4  358   2.409   2.118  14.310 -0.1312 -0.7760  0.6681
   23TMC2    C5  359   2.282   2.116  14.258  0.2408  0.1648  0.1053
   23TMC2    C6  360   2.215   2.231  14.228 -0.1117  0.2389  0.1270
   23TMC2     C  361   2.566   2.219  14.446  0.1865  0.8119 -0.1270
   23TMC2     O  362   2.582   2.111  14.503  0.1715  0.3596 -0.3044
   23TMC2     H  363   2.438   2.454  14.344  1.2860 -0.5546 -0.4231
   23TMC2    H1  364   2.458   2.023  14.328  2.9677  0.6918  0.0105
   23TMC2    H2  365   2.113   2.232  14.192 -0.6087 -0.7861  1.5317
   23TMC2    C7  366   2.228   1.982  14.229 -0.7080 -0.3748 -0.8308
   23TMC2    C8  367   2.221   2.478  14.219 -0.3144 -0.0219 -0.1526
   23TMC2    O1  368   2.287   1.892  14.286  0.1367 -0.2254  0.2660
   23TMC2    O2  369   2.270   2.585  14.249  0.2519  0.5493  0.9368
   23TMC2    O5  370   2.151   2.456  14.106 -0.2273 -0.6590 -0.0020
   23TMC2    H5  371   2.161   2.367  14.066  0.5934  0.2578 -1.8456
   24MPD2     C  372   2.880   2.410  14.800 -0.2051  0.8366  1.1296
   24MPD2    C1  373   2.828   2.281  14.783 -0.6170  0.5881 -1.0744
   24MPD2    C2  374   2.759   2.246  14.670 -0.3306  0.4372 -0.3771
   24MPD2    C3  375   2.719   2.347  14.582 -0.1775  0.5112  0.7025
   24MPD2    C4  376   2.783   2.467  14.591 -0.8377  0.3257 -0.0587
   24MPD2    C5  377   2.868   2.497  14.698  0.0956  0.3842  0.1616
   24MPD2     H  378   2.724   2.144  14.661  0.9668  0.0285 -0.7766
   24MPD2    H1  379   2.755   2.545  14.521 -1.0539 -0.9646 -1.4162
   24MPD2    H2  380   2.940   2.438  14.885  1.5738  3.9945 -1.1608
   24MPD2    H3  381   2.926   2.588  14.708 -0.7955  1.1133 -1.4399
   24MPD2     N  382   2.623   2.330  14.478  0.3645  0.2480 -0.1785
   24MPD2    H5  383   2.617   2.406  14.410  3.2902  0.7115  0.0806
   24MPD2    N1  384   2.855   2.193  14.892 -0.3668  0.0117  0.0080
   24MPD2    H7  385   2.893   2.244  14.972  1.7748 -0.1348 -0.9267
   25TMC2    C1  386   1.186   4.617  11.803  0.1527 -0.1861 -0.5369
   25TMC2    C2  387   1.161   0.011  11.825  0.2830  0.5224  0.1569
   25TMC2    C3  388   1.043   0.051  11.883  1.2078  0.3036  0.0646
   25TMC2    C4  389   1.099   4.518  11.838  0.9197 -0.3207 -0.0402
   25TMC2    C5  390   0.979   4.567  11.892  0.1688  0.1356 -0.0300
   25TMC2    C6  391   0.944   4.699  11.909  0.0807  1.3362  0.0938
   25TMC2     C  392   1.325   4.587  11.766  0.6898  0.5515  0.1583
   25TMC2     O  393   1.405   4.681  11.765  0.1809 -0.0275 -0.1435
   25TMC2     H  394   1.242   0.079  11.804  0.5474 -0.3105 -1.5009
   25TMC2    H1  395   1.128   4.414  11.848  0.9140 -0.4852 -1.6857
   25TMC2    H2  396   0.858   4.733  11.966 -1.0876 -1.6265  0.1227
   25TMC2    C7  397   0.903   4.470  11.973  0.3655 -0.0822  0.3245
   25TMC2    C8  398   1.044   0.156  11.982 -0.8418  0.0163 -0.8791
   25TMC2    O1  399   0.965   4.373  12.018  0.0040 -0.3755 -0.5320
   25TMC2    O2  400   1.004   0.150  12.096 -0.5544  0.9515  0.2780
   25TMC2    O5  401   1.140   0.235  11.938  0.3588 -0.1728 -0.4529
   25TMC2    H5  402   1.129   0.247  11.841 -0.1548 -0.5105 -0.4400
   26MPD2     C  403   1.697   4.294  11.590 -0.2017  0.4570  0.6819
   26MPD2    C1  404   1.574   4.228  11.572  0.3192  0.3414  0.3174
   26MPD2    C2  405   1.466   4.286  11.627  0.5527 -0.1707  0.1491
   26MPD2    C3  406   1.477   4.405  11.699  0.0452  0.0140  0.3678
   26MPD2    C4  407   1.603   4.459  11.723  0.0179  0.0087 -0.2492
   26MPD2    C5  408   1.714   4.394  11.672  0.4125  0.4575  0.2068
   26MPD2     H  409   1.365   4.251  11.610  0.3937  0.2115  0.3061
   26MPD2    H1  410   1.620   4.548  11.782 -0.2267 -0.3850  0.4136
   26MPD2    H2  411   1.791   4.248  11.559 -0.2037  1.8239 -1.3474
   26MPD2    H3  412   1.810   4.440  11.690 -1.1740  4.3433 -1.0986
   26MPD2     N  413   1.348   4.459  11.733  0.2371 -0.5640 -0.0771
   26MPD2    H5  414   1.270   4.395  11.730 -0.9678  0.8515  1.2469
   26MPD2    N1  415   1.568   4.111  11.488  0.0702 -0.3248  0.0331
   26MPD2    H7  416   1.650   4.090  11.433  0.9722  0.6683  1.0217
   27TMC2    C1  417   0.000   1.145  11.871 -0.2458  0.4362  0.4174
   27TMC2    C2  418   0.075   1.099  11.768  0.1137 -0.2895 -0.0517
   27TMC2    C3  419   0.200   1.053  11.804  0.7769 -0.2728 -0.4753
   27TMC2    C4  420   0.046   1.159  11.999  0.1864  0.2580  0.5605
   27TMC2    C5  421   0.178   1.125  12.018 -0.4433 -0.4787 -0.7296
   27TMC2    C6  422   0.256   1.071  11.925  0.4106  0.0051 -0.4660
   27TMC2     C  423   4.595   1.149  11.849 -0.1100 -0.4668 -0.5180
   27TMC2     O  424   4.551   1.077  11.758  0.4279  0.5878  0.2284
   27TMC2     H  425   0.039   1.082  11.668 -0.1388  1.4789 -0.2716
   27TMC2    H1  426   4.724   1.207  12.075  2.6049 -2.1738  4.0429
   27TMC2    H2  427   0.360   1.045  11.942 -0.2481 -0.6032  2.5530
   27TMC2    C7  428   0.235   1.130  12.150 -0.0102 -0.6371 -0.3836
   27TMC2    C8  429   0.290   1.012  11.703  0.2177  0.6636 -0.1273
   27TMC2    O1  430   0.315   1.043  12.180 -0.3426  0.2458 -0.2999
   27TMC2    O2  431   0.401   0.959  11.730  0.1765 -0.5674 -0.0359
   27TMC2    O5  432   0.259   1.057  11.583  0.3391  0.5850 -0.0544
   27TMC2    H5  433   0.185   1.121  11.591  0.0927  0.3565 -0.4329
   28MPD2     C  434   4.157   1.364  12.020  0.7662 -0.8073  0.4637
   28MPD2    C1  435   4.267   1.442  12.058  0.3923 -0.1111 -0.2452
   28MPD2    C2  436   4.389   1.390  12.033 -0.2764 -0.1094  0.3601
   28MPD2    C3  437   4.408   1.287  11.942 -0.9126 -0.0118  0.5441
   28MPD2    C4  438   4.302   1.231  11.880  0.5983 -0.1890 -0.5098
   28MPD2    C5  439   4.179   1.255  11.937 -0.3353  0.4577 -0.2844
   28MPD2     H  440   4.479   1.438  12.070 -0.6198 -0.2398  1.3503
   28MPD2    H1  441   4.309   1.145  11.814  0.6650 -2.7583  2.7721
   28MPD2    H2  442   4.053   1.385  12.042  0.8628  0.1874 -0.0300
   28MPD2    H3  443   4.092   1.204  11.898  0.5784 -1.2950 -0.0714
   28MPD2     N  444   4.541   1.246  11.926 -0.0743  0.2429  0.1239
   28MPD2    H5  445   4.607   1.295  11.985  0.1695 -1.0255  0.9026
   28MPD2    N1  446   4.253   1.568  12.104 -0.0667 -0.1009 -0.2817
   28MPD2    H7  447   4.156   1.593  12.120 -0.2392 -0.5918 -0.5520
   29TMC2    C1  448   0.116   3.487  14.313 -0.4977  0.4601 -0.4061
   29TMC2    C2  449   0.119   3.456  14.446 -0.6410 -0.4202 -0.5155
   29TMC2    C3  450   0.145   3.550  14.541 -0.1637  0.5870 -0.1318
   29TMC2    C4  451   0.125   3.619  14.276  0.0628  0.2475 -1.0986
   29TMC2    C5  452   0.146   3.714  14.376  0.9532 -0.1434 -0.2205
   29TMC2    C6  453   0.156   3.679  14.510  0.2086 -0.1672  0.0408
   29TMC2     C  454   0.101   3.377  14.213  0.2330  0.0644 -0.3930
   29TMC2     O  455   0.129   3.267  14.251  0.0644 -0.2888 -0.5114
   29TMC2     H  456   0.087   3.356  14.474  0.7218 -0.4006  1.1659
   29TMC2    H1  457   0.139   3.650  14.173 -1.2917 -0.0343 -1.3659
   29TMC2    H2  458   0.167   3.752  14.589  0.9970 -1.8306  1.4541
   29TMC2    C7  459   0.127   3.849  14.329 -0.3921  0.0853 -0.7184
   29TMC2    C8  460   0.080   3.526  14.669 -0.0683 -0.2522  0.6246
   29TMC2    O1  461   0.057   3.863  14.231 -0.0855 -0.0303 -0.4143
   29TMC2    O2  462   0.036   3.614  14.741 -0.5399  0.6254 -0.3879
   29TMC2    O5  463   0.130   3.409  14.717 -0.6380 -0.6395  0.8143
   29TMC2    H5  464   0.174   3.359  14.644  1.2790 -1.0326  2.2558
   30MPD2     C  465   4.718   3.188  13.747  0.2982  0.0976  0.7064
   30MPD2    C1  466   0.030   3.128  13.867 -0.0284 -0.3169  0.5167
   30MPD2    C2  467   0.065   3.207  13.975 -0.1073  0.7641 -0.0615
   30MPD2    C3  468   0.030   3.341  13.978 -0.9212  0.1952  0.0537
   30MPD2    C4  469   4.702   3.393  13.871 -0.6074  0.5136  0.5973
   30MPD2    C5  470   4.676   3.321  13.758 -0.1093  0.2806  0.0612
   30MPD2     H  471   0.120   3.162  14.056 -1.6005  0.0294  0.5482
   30MPD2    H1  472   4.679   3.499  13.861  0.3484  0.7399  0.8284
   30MPD2    H2  473   4.694   3.135  13.656  3.2416 -2.7688  1.6102
   30MPD2    H3  474   4.634   3.361  13.667  0.9692  0.4553 -0.3543
   30MPD2     N  475   0.046   3.426  14.099 -0.4386 -0.2837 -0.0298
   30MPD2    H5  476   0.023   3.524  14.090  0.4769 -0.1973 -1.3401
   30MPD2    N1  477   0.071   2.993  13.869  0.2504  0.1265  0.8022
   30MPD2    H7  478   0.077   2.962  13.966  1.5542  1.0396  1.0064
   31TMC2    C1  479   2.626   2.861  15.446 -0.3989  0.0582 -0.1640
   31TMC2    C2  480   2.492   2.853  15.412 -0.3237  0.5015 -0.4960
   31TMC2    C3  481   2.410   2.798  15.506  0.7144 -0.1729 -0.1132
   31TMC2    C4  482   2.677   2.811  15.559 -0.4245  0.0281 -0.1171
   31TMC2    C5  483   2.588   2.780  15.658  0.1708  0.4956  0.0720
   31TMC2    C6  484   2.457   2.772  15.633 -0.0770  0.2598 -0.5639
   31TMC2     C  485   2.721   2.910  15.343 -0.5780  0.0606  0.2336
   31TMC2     O  486   2.668   2.942  15.243 -0.6654 -0.3822  0.1818
   31TMC2     H  487   2.452   2.888  15.318  1.2325  1.5503 -0.7788
   31TMC2    H1  488   2.782   2.820  15.586 -0.4212  0.0307 -0.1313
   31TMC2    H2  489   2.385   2.732  15.703  0.9091 -1.6484 -0.6609
   31TMC2    C7  490   2.637   2.721  15.779 -0.4249  0.0880 -0.7550
   31TMC2    C8  491   2.266   2.789  15.483  0.4732 -0.1054  0.1094
   31TMC2    O1  492   2.736   2.647  15.778 -0.1848  0.5655 -0.0052
   31TMC2    O2  493   2.221   2.865  15.402 -0.4607 -0.0279  0.3739
   31TMC2    O5  494   2.238   2.654  15.491 -0.2260 -0.3891  0.0295
   31TMC2    H5  495   2.312   2.603  15.528 -0.0221 -1.3193 -1.6460
   32MPD2     C  496   3.188   3.091  15.180 -0.7518  0.4202 -0.0551
   32MPD2    C1  497   3.063   3.092  15.119 -0.6341  0.4519  0.3943
   32MPD2    C2  498   2.952   3.036  15.185 -1.0595 -0.0658 -0.2218
   32MPD2    C3  499   2.964   2.974  15.306  0.4899 -0.4224  0.0686
   32MPD2    C4  500   3.089   2.972  15.366  0.3551  0.0093 -0.6130
   32MPD2    C5  501   3.198   3.034  15.304  0.2161 -0.1419 -0.5724
   32MPD2     H  502   2.854   3.047  15.138 -2.1109 -0.4997  1.8871
   32MPD2    H1  503   3.105   2.922  15.461  0.5816 -0.7113 -1.0376
   32MPD2    H2  504   3.275   3.110  15.117  0.2069 -1.6065  0.6424
   32MPD2    H3  505   3.301   3.019  15.336  0.1663  0.8628  0.0811
   32MPD2     N  506   2.853   2.921  15.383 -0.5029 -0.3623  0.4992
   32MPD2    H5  507   2.882   2.892  15.476 -1.8668 -1.2786  0.6429
   32MPD2    N1  508   3.067   3.153  14.991  0.3186 -0.6878  0.5471
   32MPD2    H7  509   3.158   3.176  14.951 -0.1817  3.9930  2.0789
   33TMC2    C1  510   3.037   1.226  10.290 -0.2752 -0.6940 -0.8042
   33TMC2    C2  511   3.157   1.166  10.283 -0.3758  1.0253 -0.1501
   33TMC2    C3  512   3.235   1.199  10.179 -0.4817  0.2567 -0.3409
   33TMC2    C4  513   2.983   1.316  10.199 -0.6419  0.8084 -1.1328
   33TMC2    C5  514   3.059   1.338  10.094  0.4594 -0.0670 -0.2962
   33TMC2    C6  515   3.184   1.280  10.079  0.0525 -0.5600 -0.0700
   33TMC2     C  516   2.959   1.189  10.403 -0.1642  0.3797  0.0522
   33TMC2     O  517   2.844   1.141  10.388 -0.0381  0.3303 -0.6603
   33TMC2     H  518   3.189   1.095  10.359 -2.0138  1.6177  1.0962
   33TMC2    H1  519   2.884   1.353  10.221 -0.3609  0.4129  0.7817
   33TMC2    H2  520   3.240   1.308   9.991  0.2231  2.9441  1.1669
   33TMC2    C7  521   3.058   1.469  10.029 -0.4389  0.5939 -0.8254
   33TMC2    C8  522   3.369   1.148  10.181 -0.9474 -0.3086 -0.1230
   33TMC2    O1  523   3.168   1.519  10.005  0.5154 -0.3118 -0.0719
   33TMC2    O2  524   3.411   1.094  10.286  0.5895  0.8084 -0.1191
   33TMC2    O5  525   3.443   1.226  10.104  0.3377  0.5428  0.1679
   33TMC2    H5  526   3.399   1.290  10.044  1.9975  1.8143  0.3302
   34MPD2     C  527   2.879   1.169  10.905 -0.3741  0.4529 -0.0923
   34MPD2    C1  528   2.838   1.080  10.804 -0.1527  0.0393 -0.1277
   34MPD2    C2  529   2.882   1.100  10.674  0.6129 -0.0626  0.1373
   34MPD2    C3  530   2.971   1.203  10.644  0.3964  0.0651 -0.3506
   34MPD2    C4  531   3.021   1.275  10.751 -0.1175  0.5585  0.6137
   34MPD2    C5  532   2.977   1.258  10.878 -0.6332  0.0849 -0.3777
   34MPD2     H  533   2.851   1.019  10.609 -2.7966  0.1833  1.4607
   34MPD2    H1  534   3.101   1.346  10.738  1.2624 -0.9630  0.7308
   34MPD2    H2  535   2.861   1.159  11.012 -1.3539  0.2117 -0.2888
   34MPD2    H3  536   3.025   1.312  10.958  1.3428 -0.7416 -0.9983
   34MPD2     N  537   3.022   1.234  10.515 -0.3630 -0.5208  0.2860
   34MPD2    H5  538   3.092   1.306  10.501  0.2661 -1.3195 -0.7011
   34MPD2    N1  539   2.772   0.957  10.825 -0.1657 -0.4983  0.9425
   34MPD2    H7  540   2.755   0.899  10.744 -0.3560 -0.4143  0.9211
   35TMC2    C1  541   2.849   1.782  11.536  0.3724  0.3842  0.6338
   35TMC2    C2  542   2.734   1.855  11.555  0.6776  0.0186 -0.3532
   35TMC2    C3  543   2.622   1.795  11.609 -0.0813 -0.0658 -0.3893
   35TMC2    C4  544   2.855   1.654  11.576 -0.5662  0.0161 -0.3629
   35TMC2    C5  545   2.752   1.601  11.644 -0.1320 -0.4539  0.2803
   35TMC2    C6  546   2.633   1.671  11.656 -0.5872 -0.1971  0.5186
   35TMC2     C  547   2.957   1.831  11.452  0.0659 -0.8224  0.1294
   35TMC2     O  548   2.931   1.888  11.345 -0.4521  0.3474  0.2509
   35TMC2     H  549   2.729   1.950  11.503 -0.9572  0.5884  0.8479
   35TMC2    H1  550   2.948   1.598  11.586  0.1029  1.0294 -0.9580
   35TMC2    H2  551   2.546   1.615  11.688 -1.2630  0.4257 -0.2382
   35TMC2    C7  552   2.757   1.463  11.687  0.4431  0.0879  0.7352
   35TMC2    C8  553   2.509   1.874  11.649 -0.5578 -0.2910  0.3264
   35TMC2    O1  554   2.842   1.389  11.642 -0.3171  0.1664  0.2791
   35TMC2    O2  555   2.518   1.996  11.663  0.4580 -0.0033  0.2795
   35TMC2    O5  556   2.404   1.811  11.590 -0.0118 -0.4077 -0.1102
   35TMC2    H5  557   2.429   1.726  11.549  2.4038  0.5830 -0.7199
   36MPD2     C  558   3.456   1.953  11.411  0.3843  1.0057 -0.1334
   36MPD2    C1  559   3.442   1.879  11.529  0.1555 -0.4820  0.4000
   36MPD2    C2  560   3.311   1.847  11.561  0.9394  0.1547 -0.1550
   36MPD2    C3  561   3.202   1.865  11.474 -0.9203  0.7284 -0.0285
   36MPD2    C4  562   3.219   1.947  11.362 -0.1422 -0.1234  0.1179
   36MPD2    C5  563   3.348   1.984  11.332  0.9263  0.7752 -0.6342
   36MPD2     H  564   3.287   1.815  11.661 -1.6966  1.8956 -0.2325
   36MPD2    H1  565   3.137   1.971  11.295  0.2697 -1.1653 -0.7732
   36MPD2    H2  566   3.552   1.993  11.378  1.1608 -0.6823  0.0815
   36MPD2    H3  567   3.378   2.035  11.242  2.4507  0.6725 -0.1861
   36MPD2     N  568   3.075   1.826  11.522 -0.2708  0.3641 -0.0119
   36MPD2    H5  569   3.066   1.786  11.615 -2.2435 -1.8862 -1.1503
   36MPD2    N1  570   3.554   1.854  11.611 -0.0806  0.1923  0.4590
   36MPD2    H7  571   3.646   1.885  11.580  0.4176 -2.3458 -0.5940
   37TMC2    C1  572   1.106   1.575  11.912  0.2229 -0.1285 -0.3929
   37TMC2    C2  573   1.038   1.478  11.851  0.4172  0.0323 -0.3072
   37TMC2    C3  574   1.083   1.442  11.725 -0.0627  0.1668  0.0127
   37TMC2    C4  575   1.212   1.644  11.858 -0.3570 -0.1973 -0.2445
   37TMC2    C5  576   1.261   1.596  11.735 -0.1707 -0.0295 -0.3973
   37TMC2    C6  577   1.202   1.493  11.668 -0.2413 -0.3639  0.2735
   37TMC2     C  578   1.090   1.579  12.054 -0.6564 -0.1485  0.4299
   37TMC2     O  579   0.992   1.524  12.100  0.4576 -0.4132 -1.2469
   37TMC2     H  580   0.971   1.416  11.908  0.1827 -1.0193 -1.7205
   37TMC2    H1  581   1.259   1.731  11.902 -0.1342 -0.8583  0.8350
   37TMC2    H2  582   1.244   1.454  11.576 -2.7760 -1.5711 -0.3815
   37TMC2    C7  583   1.398   1.617  11.711  1.0364  0.3570 -0.8619
   37TMC2    C8  584   1.001   1.352  11.651 -0.1477 -0.3926 -0.1608
   37TMC2    O1  585   1.460   1.672  11.810 -0.3173 -0.3169 -0.2500
   37TMC2    O2  586   1.053   1.255  11.595 -0.1697  0.4364 -0.1334
   37TMC2    O5  587   0.871   1.387  11.671  0.8940  0.5336  0.0559
   37TMC2    H5  588   0.859   1.456  11.740  0.0713  0.7297 -0.2852
   38MPD2     C  589   1.278   1.622  12.522 -0.4960  0.0824  0.4725
   38MPD2    C1  590   1.383   1.648  12.434 -0.0944 -0.0590  0.4196
   38MPD2    C2  591   1.357   1.640  12.300 -1.0620 -0.1087 -0.2500
   38MPD2    C3  592   1.231   1.613  12.257  0.5551 -0.9541 -0.6651
   38MPD2    C4  593   1.131   1.591  12.348 -0.4601 -0.3867 -0.0034
   38MPD2    C5  594   1.160   1.584  12.479  0.4108 -0.2731 -0.2208
   38MPD2     H  595   1.429   1.654  12.220 -0.8432 -1.4891 -0.2934
   38MPD2    H1  596   1.030   1.565  12.317 -1.0670  0.6628  1.0964
   38MPD2    H2  597   1.294   1.624  12.629  1.6127  0.1797  0.1655
   38MPD2    H3  598   1.084   1.560  12.552  0.6048  2.2932  0.8212
   38MPD2     N  599   1.207   1.615  12.113  0.2639  0.0052 -0.1500
   38MPD2    H5  600   1.280   1.649  12.052  0.8978  1.2901  1.3382
   38MPD2    N1  601   1.522   1.646  12.475  0.6548  0.4766 -0.6166
   38MPD2    H7  602   1.589   1.640  12.399  1.8857 -0.2859  0.5500
   39TMC2    C1  603   0.613   4.513   1.814  0.7897 -0.5946 -0.7382
   39TMC2    C2  604   0.543   4.582   1.910 -0.3492 -0.5811 -0.3871
   39TMC2    C3  605   0.609   4.670   1.991  0.2050  0.3286 -0.4363
   39TMC2    C4  606   0.750   4.525   1.807 -0.1356  0.0543  0.2500
   39TMC2    C5  607   0.812   4.599   1.899  0.0308  0.2493  0.5774
   39TMC2    C6  608   0.744   4.677   1.986  0.0962 -0.0033 -0.1637
   39TMC2     C  609   0.548   4.413   1.728  0.4204 -0.1218  0.3102
   39TMC2     O  610   0.429   4.435   1.707  0.3966  0.1423 -0.0794
   39TMC2     H  611   0.436   4.567   1.919 -0.1289 -2.1286 -0.3473
   39TMC2    H1  612   0.801   4.472   1.728  0.0781  1.0187 -0.2518
   39TMC2    H2  613   0.791   4.723   2.072  2.3137  1.5436 -2.1883
   39TMC2    C7  614   0.958   4.609   1.890 -0.2684 -0.7968  0.5797
   39TMC2    C8  615   0.535   0.007   2.093  0.7888  0.1550  0.3640
   39TMC2    O1  616   1.022   4.509   1.878 -0.4747 -0.1494 -0.5889
   39TMC2    O2  617   0.599   0.063   2.182 -0.0115  0.2115 -0.2144
   39TMC2    O5  618   0.443   0.079   2.016  0.2347  0.0208  0.6817
   39TMC2    H5  619   0.424   0.039   1.928  2.1712  0.7168 -0.0587
   40MPD2     C  620   0.650   4.074   1.620 -0.7015  0.4213  0.4567
   40MPD2    C1  621   0.578   4.192   1.622  0.6442  0.5264  0.1623
   40MPD2    C2  622   0.455   4.191   1.549  0.6475 -0.5812 -0.4856
   40MPD2    C3  623   0.407   4.078   1.483 -0.0917 -0.0888  0.3318
   40MPD2    C4  624   0.495   3.976   1.466 -0.0717  0.7541 -0.0836
   40MPD2    C5  625   0.613   3.969   1.544  0.1438  0.4289  0.5539
   40MPD2     H  626   0.402   4.283   1.528 -2.2971 -2.1564  0.1249
   40MPD2    H1  627   0.459   3.879   1.434 -0.4838  1.9361 -3.1873
   40MPD2    H2  628   0.744   4.063   1.673 -0.8920 -1.3028  0.4434
   40MPD2    H3  629   0.675   3.882   1.561  0.2867  0.4323  0.0380
   40MPD2     N  630   0.276   4.066   1.437  0.6808  0.4695  0.0391
   40MPD2    H5  631   0.257   3.983   1.382 -3.7241  1.1363  0.5397
   40MPD2    N1  632   0.620   4.298   1.704  0.0115  0.5906  0.4097
   40MPD2    H7  633   0.701   4.289   1.765  0.5519  2.2869 -0.0647
   41TMC2    C1  634   3.759   1.963  13.867  0.3344  0.0996  0.4308
   41TMC2    C2  635   3.810   2.039  13.969 -0.6334 -0.4621  0.0415
   41TMC2    C3  636   3.887   2.146  13.932  0.5719 -0.3155 -0.1308
   41TMC2    C4  637   3.781   1.997  13.736  0.1828 -0.2276 -0.8342
   41TMC2    C5  638   3.859   2.106  13.707  0.0041 -0.4769 -0.4235
   41TMC2    C6  639   3.910   2.191  13.806  0.0145 -0.0687 -0.3947
   41TMC2     C  640   3.702   1.827  13.885 -0.4773 -0.3326  0.1351
   41TMC2     O  641   3.710   1.756  13.784  0.6022  0.4609 -0.0709
   41TMC2     H  642   3.794   2.012  14.073  0.0984  0.4219  0.3825
   41TMC2    H1  643   3.762   1.927  13.656 -2.0060 -0.2290 -0.3199
   41TMC2    H2  644   3.961   2.282  13.778  3.2310 -1.3237  1.4114
   41TMC2    C7  645   3.921   2.112  13.574 -0.2345  1.2799 -0.3590
   41TMC2    C8  646   3.913   2.245  14.031 -0.3570 -0.9333 -0.2347
   41TMC2    O1  647   4.028   2.173  13.577  0.3858  0.3210 -0.2197
   41TMC2    O2  648   3.930   2.210  14.148  0.0203 -0.2261  0.0774
   41TMC2    O5  649   3.824   2.349  13.998  0.0763 -0.3744  0.5328
   41TMC2    H5  650   3.829   2.371  13.903 -0.1748 -0.7701  0.4279
   42MPD2     C  651   3.674   1.555  13.980 -0.0121  0.2852 -0.2759
   42MPD2    C1  652   3.663   1.663  14.063  0.4415 -0.9114  0.4365
   42MPD2    C2  653   3.641   1.642  14.195  0.1387  0.1024  0.5293
   42MPD2    C3  654   3.638   1.513  14.245 -0.0435 -0.1853  0.1379
   42MPD2    C4  655   3.660   1.408  14.165  0.0339  0.4042 -0.1024
   42MPD2    C5  656   3.679   1.428  14.033  0.3678 -0.1963  0.4776
   42MPD2     H  657   3.612   1.732  14.249  2.6192  0.0486  1.9489
   42MPD2    H1  658   3.640   1.305  14.191  2.3915 -0.2250 -0.7472
   42MPD2    H2  659   3.689   1.565  13.873 -0.0346 -0.7750 -0.3754
   42MPD2    H3  660   3.681   1.341  13.968 -0.2186  0.1830 -0.0505
   42MPD2     N  661   3.618   1.484  14.383 -0.4294 -1.0345  0.4565
   42MPD2    H5  662   3.617   1.384  14.403 -0.2443 -1.0688  0.2921
   42MPD2    N1  663   3.677   1.798  14.015  0.2007 -0.1458  0.3754
   42MPD2    H7  664   3.671   1.873  14.083 -1.4293 -2.6797  3.0559
   43TMC2    C1  665   0.340   0.248   0.864 -0.6064 -0.5328 -0.8899
   43TMC2    C2  666   0.205   0.269   0.854  0.1613 -0.3850  0.0987
   43TMC2    C3  667   0.143   0.353   0.942 -0.2747 -0.7113 -0.2198
   43TMC2    C4  668   0.417   0.327   0.945  0.3717  0.3839  0.1646
   43TMC2    C5  669   0.352   0.409   1.032 -0.0908  0.5782  0.1227
   43TMC2    C6  670   0.215   0.424   1.032  0.0874 -0.2834 -0.7433
   43TMC2     C  671   0.404   0.171   0.761 -0.5679  0.6404 -0.4578
   43TMC2     O  672   0.524   0.152   0.787 -0.2363  0.9815 -0.2169
   43TMC2     H  673   0.144   0.196   0.803  0.3286 -1.2413  1.1251
   43TMC2    H1  674   0.525   0.318   0.947  0.3676  0.5003  1.2424
   43TMC2    H2  675   0.157   0.489   1.097  0.9519  1.4788 -1.7461
   43TMC2    C7  676   0.441   0.485   1.127 -0.5334  0.2166  0.4087
   43TMC2    C8  677   4.735   0.355   0.964 -0.6632 -0.5461 -1.2261
   43TMC2    O1  678   0.561   0.473   1.102 -0.1217  0.5818 -0.1401
   43TMC2    O2  679   4.694   0.413   1.067  0.1833 -0.6096  0.2321
   43TMC2    O5  680   4.670   0.358   0.843  0.6469 -1.4740 -0.0376
   43TMC2    H5  681   4.728   0.340   0.765 -0.3666  1.4401 -1.4511
   44MPD2     C  682   0.475   0.113   0.272 -0.2025 -0.6193  0.0147
   44MPD2    C1  683   0.556   0.065   0.371  0.1882  0.2527 -0.9221
   44MPD2    C2  684   0.503   0.060   0.502  0.3670  0.2985  1.2058
   44MPD2    C3  685   0.372   0.112   0.522 -0.6076 -0.2630  0.2379
   44MPD2    C4  686   0.295   0.155   0.412  0.8902  0.8760 -0.6645
   44MPD2    C5  687   0.347   0.152   0.285  0.2034  0.5283 -1.0277
   44MPD2     H  688   0.578   0.030   0.574  2.8979  0.2969 -1.4277
   44MPD2    H1  689   0.202   0.210   0.426  0.4541 -0.1790  0.5315
   44MPD2    H2  690   0.511   0.137   0.173  0.0756  2.6689  0.9149
   44MPD2    H3  691   0.282   0.193   0.208  0.8099  0.4810 -1.5651
   44MPD2     N  692   0.326   0.145   0.649 -0.4745  0.5592  0.0871
   44MPD2    H5  693   0.232   0.183   0.655 -1.2361 -0.7735 -3.3773
   44MPD2    N1  694   0.689   0.040   0.357 -0.0255 -0.4606  0.0853
   44MPD2    H7  695   0.738   0.004   0.438  1.3076  0.4086 -0.3453
   45TMC2    C1  696   1.126   2.566   9.580 -0.5696 -0.3752  0.4923
   45TMC2    C2  697   1.012   2.600   9.516 -0.2332 -0.4270 -0.9037
   45TMC2    C3  698   0.974   2.733   9.513 -0.0008 -0.0295  0.1120
   45TMC2    C4  699   1.190   2.664   9.657  0.4936  0.1336 -0.3427
   45TMC2    C5  700   1.150   2.790   9.644  0.3500  0.3489  0.0221
   45TMC2    C6  701   1.039   2.832   9.575  0.1610 -0.0381  0.0982
   45TMC2     C  702   1.163   2.429   9.602 -0.5242 -0.4859  0.3096
   45TMC2     O  703   1.273   2.401   9.651 -0.1099 -0.5802  0.1655
   45TMC2     H  704   0.962   2.535   9.446 -1.4555  0.3140 -0.7138
   45TMC2    H1  705   1.279   2.637   9.712  1.0944 -0.7490 -1.7838
   45TMC2    H2  706   1.000   2.933   9.589 -1.1523 -0.7511  1.5363
   45TMC2    C7  707   1.228   2.880   9.730 -0.0209 -0.0127 -0.0938
   45TMC2    C8  708   0.858   2.771   9.433 -0.2389 -0.5915 -0.2599
   45TMC2    O1  709   1.289   2.840   9.829  0.0528  0.0887  0.3007
   45TMC2    O2  710   0.772   2.689   9.405  0.5198 -0.1530 -0.0101
   45TMC2    O5  711   0.863   2.894   9.381 -0.2336 -0.1710 -0.3314
   45TMC2    H5  712   0.945   2.943   9.406 -0.4605 -0.5523  1.0986
   46MPD2     C  713   1.166   2.130   9.620 -0.7651  0.1803  0.4825
   46MPD2    C1  714   1.064   2.211   9.576 -0.0831  0.0221  0.3493
   46MPD2    C2  715   0.943   2.146   9.540 -0.0568  0.1576  0.3894
   46MPD2    C3  716   0.930   2.006   9.544  0.5908  0.0330  0.4261
   46MPD2    C4  717   1.028   1.932   9.605  0.6564  0.9141 -0.5144
   46MPD2    C5  718   1.146   1.995   9.635  0.3043 -0.4522 -1.0208
   46MPD2     H  719   0.858   2.201   9.503 -1.2284 -2.5306 -0.8986
   46MPD2    H1  720   1.020   1.827   9.631  0.5672  1.1442  0.3882
   46MPD2    H2  721   1.263   2.173   9.643 -1.1698  0.5957  1.4207
   46MPD2    H3  722   1.233   1.938   9.668 -0.5432 -0.7495  0.7002
   46MPD2     N  723   0.805   1.951   9.508 -0.3227 -0.0554 -0.2436
   46MPD2    H5  724   0.743   2.009   9.453  2.2799  1.3191 -1.7368
   46MPD2    N1  725   1.064   2.347   9.558  0.2695 -0.2442  0.2348
   46MPD2    H7  726   0.984   2.392   9.514 -0.6183 -1.8358  0.2259
   47TMC2    C1  727   2.816   3.120   9.264 -0.0351  0.4350 -0.5205
   47TMC2    C2  728   2.821   3.134   9.124 -0.0072  0.3087  0.4128
   47TMC2    C3  729   2.709   3.175   9.062  0.0711  0.3484 -0.3916
   47TMC2    C4  730   2.703   3.129   9.335 -0.5448  0.0771  0.2174
   47TMC2    C5  731   2.598   3.185   9.262  0.1819 -0.0778 -0.4693
   47TMC2    C6  732   2.602   3.214   9.127  0.4089  0.3870 -0.0382
   47TMC2     C  733   2.943   3.140   9.337 -0.3807 -0.2155 -0.1721
   47TMC2     O  734   2.936   3.200   9.443 -0.0869 -0.3685  0.1964
   47TMC2     H  735   2.903   3.114   9.056  1.1703 -0.2063  1.9916
   47TMC2    H1  736   2.702   3.117   9.443  0.1534 -1.6338  0.0321
   47TMC2    H2  737   2.511   3.239   9.074  1.4599  1.8726 -1.1553
   47TMC2    C7  738   2.471   3.200   9.332  0.2656 -0.2845 -0.0120
   47TMC2    C8  739   2.720   3.218   8.921 -0.4846  0.0627 -0.1080
   47TMC2    O1  740   2.388   3.265   9.267 -0.3656 -0.2808  0.4455
   47TMC2    O2  741   2.819   3.263   8.868 -0.3240 -0.5988 -0.4646
   47TMC2    O5  742   2.613   3.181   8.854 -0.1050 -0.1919 -0.4686
   47TMC2    H5  743   2.572   3.124   8.922  2.8909 -0.6154  0.9946
   48MPD2     C  744   3.232   3.200   9.392  0.0562  0.2912  1.0379
   48MPD2    C1  745   3.184   3.107   9.297  0.0788  0.0864  0.2040
   48MPD2    C2  746   3.279   3.046   9.218 -0.0477  0.1195  0.1987
   48MPD2    C3  747   3.414   3.081   9.220 -0.7052 -0.1312 -0.1718
   48MPD2    C4  748   3.458   3.170   9.317 -0.7346  0.6574  0.2233
   48MPD2    C5  749   3.364   3.228   9.392 -0.8045  1.0429  0.0257
   48MPD2     H  750   3.246   2.980   9.139  2.2061 -2.0051  1.0187
   48MPD2    H1  751   3.559   3.210   9.320  0.3301 -1.8795 -1.4123
   48MPD2    H2  752   3.165   3.249   9.461 -0.1295 -0.0052  1.0699
   48MPD2    H3  753   3.408   3.296   9.463 -0.8360 -1.5388  2.5155
   48MPD2     N  754   3.506   3.002   9.141 -0.8642 -0.1919  0.3822
   48MPD2    H5  755   3.473   2.935   9.073  0.3356  0.4640 -0.8424
   48MPD2    N1  756   3.052   3.083   9.269 -0.4279  0.1770  0.5900
   48MPD2    H7  757   3.033   3.011   9.199 -0.9232  1.6825 -0.8114
   49TMC2    C1  758   1.474   0.243   9.809  0.2271 -0.3243  0.0699
   49TMC2    C2  759   1.356   0.210   9.867 -0.6180  0.2161 -0.4879
   49TMC2    C3  760   1.252   0.259   9.801  0.1058 -0.1654  0.6607
   49TMC2    C4  761   1.487   0.314   9.689 -0.1444  0.5499 -0.5090
   49TMC2    C5  762   1.372   0.344   9.624  0.1273 -0.3004 -1.1359
   49TMC2    C6  763   1.253   0.320   9.679  0.9324 -0.7606 -0.1048
   49TMC2     C  764   1.595   0.223   9.889  0.4118 -0.4334  0.2350
   49TMC2     O  765   1.702   0.261   9.842  0.1181 -0.0286 -0.2006
   49TMC2     H  766   1.345   0.155   9.959 -0.4391 -1.3130 -1.3719
   49TMC2    H1  767   1.584   0.306   9.643  0.1475  0.1497  0.1602
   49TMC2    H2  768   1.162   0.360   9.635  2.3752 -0.2341 -2.6638
   49TMC2    C7  769   1.388   0.396   9.490  0.5191  0.8607 -0.1352
   49TMC2    C8  770   1.135   0.257   9.878 -0.3761 -0.5380 -0.8501
   49TMC2    O1  771   1.502   0.410   9.446 -0.4014  0.1677  0.0368
   49TMC2    O2  772   1.137   0.268   9.998 -0.4606 -0.2271 -0.3349
   49TMC2    O5  773   1.019   0.254   9.803 -0.7022 -0.2153 -0.1645
   49TMC2    H5  774   1.041   0.234   9.710  0.0205  1.1195 -0.2634
   50MPD2     C  775   1.795   0.185  10.106  0.0943  0.8008 -0.2476
   50MPD2    C1  776   1.666   0.125  10.110 -0.1396  0.6335 -0.0717
   50MPD2    C2  777   1.626   0.051  10.211  0.8131 -0.1274 -0.1214
   50MPD2    C3  778   1.716   0.013  10.308  0.5288  0.4941  0.5234
   50MPD2    C4  779   1.849   0.045  10.297  0.4060  0.6112 -0.3992
   50MPD2    C5  780   1.888   0.128  10.192  0.0725  0.2152  1.0571
   50MPD2     H  781   1.523   0.020  10.223  0.8397 -1.0837 -2.3480
   50MPD2    H1  782   1.919   4.738  10.367 -0.2242  1.0482  0.5163
   50MPD2    H2  783   1.821   0.262  10.034 -0.1358  0.9743 -0.1469
   50MPD2    H3  784   1.993   0.153  10.183  0.6597 -2.2186  1.0993
   50MPD2     N  785   1.687   4.657  10.402 -0.7261  0.1778  0.3621
   50MPD2    H5  786   1.771   4.630  10.452 -0.7115  1.4904  1.0506
   50MPD2    N1  787   1.573   0.151  10.006 -0.0429  0.0808  0.5315
   50MPD2    H7  788   1.487   0.097  10.014  0.4753 -0.8164 -0.0047
   51TMC2    C1  789   2.077   3.396   1.348  0.5229 -0.7231 -0.1336
   51TMC2    C2  790   1.948   3.385   1.388  0.1234  0.6068 -0.4349
   51TMC2    C3  791   1.856   3.460   1.328  0.0741  0.3531 -0.5687
   51TMC2    C4  792   2.120   3.491   1.257 -0.7113 -0.1056  0.2782
   51TMC2    C5  793   2.020   3.570   1.202  0.2024 -0.0347 -0.3591
   51TMC2    C6  794   1.889   3.558   1.233  0.2369  0.1504  0.0742
   51TMC2     C  795   2.176   3.290   1.388 -0.0914 -0.3028  0.1084
   51TMC2     O  796   2.274   3.283   1.312  0.0189 -0.2463 -0.7869
   51TMC2     H  797   1.908   3.301   1.444  1.0620 -1.0198 -2.2305
   51TMC2    H1  798   2.224   3.497   1.227 -0.9041  1.8316 -0.0125
   51TMC2    H2  799   1.816   3.631   1.201  1.5087  1.2462 -0.3024
   51TMC2    C7  800   2.051   3.643   1.083  0.5526  0.0641  0.7405
   51TMC2    C8  801   1.715   3.436   1.354  0.3954 -0.2161  0.1956
   51TMC2    O1  802   1.959   3.695   1.025 -0.2649  0.3352 -0.2661
   51TMC2    O2  803   1.671   3.320   1.366  0.4413 -0.1859  0.5941
   51TMC2    O5  804   1.644   3.552   1.354  0.5456  0.1280  0.0290
   51TMC2    H5  805   1.713   3.623   1.351  0.1920  0.5635  2.9550
   52MPD2     C  806   2.349   2.907   1.688  0.2730  0.3788  0.9097
   52MPD2    C1  807   2.376   2.942   1.558 -0.5025  0.1144  0.7775
   52MPD2    C2  808   2.309   3.047   1.498  1.0288  0.8351 -0.3742
   52MPD2    C3  809   2.227   3.135   1.571  0.4097 -0.4461 -0.6293
   52MPD2    C4  810   2.201   3.104   1.702 -0.1231 -0.8966  0.1941
   52MPD2    C5  811   2.253   2.980   1.756 -0.3388  0.6991 -0.2042
   52MPD2     H  812   2.310   3.069   1.391  1.0845 -0.8487 -0.7108
   52MPD2    H1  813   2.147   3.174   1.765  0.1772 -1.2591  0.8610
   52MPD2    H2  814   2.405   2.829   1.739 -1.7802 -0.2529  2.2020
   52MPD2    H3  815   2.227   2.952   1.857  0.1198  1.1056  0.0257
   52MPD2     N  816   2.154   3.236   1.513  0.5459  0.4015  0.1970
   52MPD2    H5  817   2.080   3.280   1.567  0.5364 -0.2120  0.6751
   52MPD2    N1  818   2.474   2.876   1.479  0.1291  0.1258 -0.0026
   52MPD2    H7  819   2.488   2.914   1.385  1.3844 -0.5881 -0.1143
   53TMC2    C1  820   2.106   1.682  11.794  0.4566 -0.9014 -0.8791
   53TMC2    C2  821   2.231   1.647  11.833  1.1892  1.1419 -0.0469
   53TMC2    C3  822   2.276   1.686  11.958 -0.3496 -0.2758  0.1380
   53TMC2    C4  823   2.023   1.752  11.879  0.6066  0.1986  0.0641
   53TMC2    C5  824   2.064   1.776  12.010 -0.4719  0.0540  0.3110
   53TMC2    C6  825   2.193   1.748  12.051  0.1784 -0.0400  0.0364
   53TMC2     C  826   2.052   1.631  11.672  0.4945 -0.0772 -0.3717
   53TMC2     O  827   2.126   1.612  11.578  0.0763  0.0516  0.2354
   53TMC2     H  828   2.302   1.607  11.762 -0.3864 -1.8730  0.1026
   53TMC2    H1  829   1.928   1.796  11.854  0.8032  0.3433 -0.4322
   53TMC2    H2  830   2.232   1.760  12.152  2.0412  0.6506 -0.7548
   53TMC2    C7  831   1.972   1.844  12.106  0.5243  0.0456 -0.6316
   53TMC2    C8  832   2.424   1.704  11.979 -0.7600 -0.1968  0.2912
   53TMC2    O1  833   1.856   1.850  12.064 -0.2849 -0.1978  0.0241
   53TMC2    O2  834   2.506   1.641  11.917 -0.5440 -0.4626 -0.5844
   53TMC2    O5  835   2.428   1.838  12.012  0.0667 -0.1287 -0.2513
   53TMC2    H5  836   2.340   1.869  12.041  0.2550 -1.1445  1.4073
   54MPD2     C  837   1.845   1.546  11.466 -0.6222  0.4437 -0.0095
   54MPD2    C1  838   1.821   1.559  11.598  0.1479  0.0057  0.0172
   54MPD2    C2  839   1.682   1.578  11.637  0.1838  0.2219  0.0429
   54MPD2    C3  840   1.581   1.573  11.544  0.2014 -0.0115 -1.1525
   54MPD2    C4  841   1.610   1.544  11.418 -0.3514  0.2755  0.6382
   54MPD2    C5  842   1.741   1.533  11.385  0.8292 -0.5005  0.5365
   54MPD2     H  843   1.657   1.611  11.738  0.1018  0.1806  0.0356
   54MPD2    H1  844   1.529   1.523  11.349  1.6255  2.0307 -2.2022
   54MPD2    H2  845   1.943   1.546  11.419 -0.8669  0.1390 -0.5329
   54MPD2    H3  846   1.764   1.519  11.280 -1.1769 -1.3881  0.2021
   54MPD2     N  847   1.445   1.583  11.585  0.1095 -0.1685 -0.6375
   54MPD2    H5  848   1.371   1.539  11.531  0.0173  1.0900 -1.5434
   54MPD2    N1  849   1.920   1.594  11.701  0.6557  0.2920 -0.0783
   54MPD2    H7  850   1.893   1.596  11.799  0.8697 -1.5709  0.0348
   55TMC2    C1  851   3.449   0.017  17.454  0.3638  0.9762 -0.1212
   55TMC2    C2  852   3.462   4.709  17.324 -0.7389  0.4088 -0.1278
   55TMC2    C3  853   3.534   4.596  17.302 -0.1889 -0.2820  0.4961
   55TMC2    C4  854   3.503   4.682  17.566  0.2258  0.4720 -0.1119
   55TMC2    C5  855   3.569   4.571  17.534 -0.8432  0.6027  0.0636
   55TMC2    C6  856   3.599   4.534  17.407  0.0994 -0.6688 -0.4466
   55TMC2     C  857   3.349   0.117  17.493  0.4379 -0.7646 -0.5675
   55TMC2     O  858   3.304   0.108  17.609  0.0025 -0.2038 -0.1626
   55TMC2     H  859   3.409   0.002  17.235  0.7456  0.6524 -0.9434
   55TMC2    H1  860   3.502   4.724  17.666 -1.2231 -0.1741  0.1433
   55TMC2    H2  861   3.664   4.450  17.385  0.9915 -0.1807  0.3308
   55TMC2    C7  862   3.651   4.514  17.641 -0.4052 -0.1373  0.3369
   55TMC2    C8  863   3.531   4.530  17.173 -0.8035 -0.3498 -0.2671
   55TMC2    O1  864   3.760   4.464  17.607  0.0676  0.4728 -0.0350
   55TMC2    O2  865   3.509   4.592  17.070 -0.0149 -0.6950  0.0581
   55TMC2    O5  866   3.498   4.400  17.194  0.2738  0.0524  0.1171
   55TMC2    H5  867   3.495   4.372  17.288  1.8315  1.6505  0.6305
   56MPD2     C  868   3.227   0.425  17.324 -0.3068 -0.6430  0.6834
   56MPD2    C1  869   3.233   0.323  17.423 -0.4442  0.5413  0.1445
   56MPD2    C2  870   3.142   0.341  17.536 -0.2834  0.0781  0.0861
   56MPD2    C3  871   3.063   0.452  17.549 -0.2665 -0.6120  0.9068
   56MPD2    C4  872   3.062   0.544  17.450 -0.2335  0.2147  0.3967
   56MPD2    C5  873   3.141   0.531  17.336 -0.4986 -0.3494 -0.0694
   56MPD2     H  874   3.133   0.267  17.615 -3.7095 -1.3169 -1.6257
   56MPD2    H1  875   3.001   0.633  17.460 -0.2058  0.2978 -0.1777
   56MPD2    H2  876   3.300   0.428  17.245  0.2819  1.6389  1.3185
   56MPD2    H3  877   3.137   0.607  17.259  0.0564 -2.3719 -2.0632
   56MPD2     N  878   2.982   0.470  17.663 -0.3038 -0.3475 -0.1507
   56MPD2    H5  879   3.002   0.400  17.733  1.2219  0.1805 -0.0443
   56MPD2    N1  880   3.324   0.212  17.397 -0.5688  0.2518  0.0538
   56MPD2    H7  881   3.389   0.214  17.319 -1.7301  1.2278 -0.8888
   57TMC2    C1  882   1.874   0.448  13.323 -0.1242 -0.2406  0.1738
   57TMC2    C2  883   1.839   0.361  13.217  0.0968 -0.2704 -0.6128
   57TMC2    C3  884   1.910   0.387  13.102  0.1339 -0.5983 -0.4424
   57TMC2    C4  885   1.976   0.537  13.326 -0.6716 -0.0722 -0.0180
   57TMC2    C5  886   2.049   0.558  13.211 -0.0303 -0.1927 -0.8558
   57TMC2    C6  887   2.009   0.484  13.097  0.2649 -0.8700 -0.3876
   57TMC2     C  888   1.796   0.436  13.445  0.6763 -0.0882 -0.3430
   57TMC2     O  889   1.822   0.504  13.539 -0.7971  0.3313  0.1381
   57TMC2     H  890   1.769   0.279  13.226  0.6238 -0.6300  0.1946
   57TMC2    H1  891   2.010   0.578  13.421 -0.6683 -0.3501  0.1010
   57TMC2    H2  892   2.052   0.499  12.998  0.6149  0.1984 -0.0714
   57TMC2    C7  893   2.186   0.556  13.235  0.0955 -0.0921  0.2605
   57TMC2    C8  894   1.957   0.279  13.031 -0.7172  0.4079  0.3760
   57TMC2    O1  895   2.233   0.630  13.322  0.4551 -0.1077  0.2981
   57TMC2    O2  896   2.077   0.270  13.037  0.3540 -0.2105  0.1701
   57TMC2    O5  897   1.870   0.172  13.039 -0.0269 -0.2656 -0.0802
   57TMC2    H5  898   1.781   0.202  13.009 -0.9946 -1.2964  1.7148
   58MPD2     C  899   1.377   0.327  13.701 -0.0602  0.7495 -0.1722
   58MPD2    C1  900   1.490   0.381  13.752 -0.7868  0.4226  0.0526
   58MPD2    C2  901   1.592   0.398  13.660 -0.1420 -0.5342  0.4282
   58MPD2    C3  902   1.580   0.363  13.522 -0.3147 -0.5914  0.5586
   58MPD2    C4  903   1.467   0.302  13.482  0.2313 -0.4525 -0.3549
   58MPD2    C5  904   1.371   0.285  13.574  0.6526 -0.2188  0.5051
   58MPD2     H  905   1.687   0.438  13.694 -1.2541  1.9692  0.6059
   58MPD2    H1  906   1.456   0.263  13.381 -1.6347 -0.7686 -0.0331
   58MPD2    H2  907   1.293   0.294  13.762  0.5973  1.5776  1.1812
   58MPD2    H3  908   1.281   0.228  13.550  0.2420  1.2233 -1.3396
   58MPD2     N  909   1.685   0.373  13.427  0.2260  0.1644  0.2697
   58MPD2    H5  910   1.668   0.344  13.332  1.4608 -1.0899  0.4236
   58MPD2    N1  911   1.507   0.433  13.882  0.1483  0.3683  0.1127
   58MPD2    H7  912   1.598   0.466  13.913  0.9922 -1.4131 -0.4383
   59TMC2    C1  913   4.243   1.195  12.856 -0.2786 -0.2033  0.1481
   59TMC2    C2  914   4.268   1.320  12.898 -0.0001 -0.9678  0.6032
   59TMC2    C3  915   4.188   1.417  12.842  0.2590  0.2383  1.3717
   59TMC2    C4  916   4.132   1.162  12.782  0.1648 -0.0680  0.1115
   59TMC2    C5  917   4.061   1.266  12.721  0.0257  0.3372 -0.2664
   59TMC2    C6  918   4.090   1.394  12.750 -0.2827  0.2025  0.2875
   59TMC2     C  919   4.326   1.082  12.900  0.0098 -0.7268  0.3580
   59TMC2     O  920   4.312   0.982  12.831  0.3739  0.3265 -0.0937
   59TMC2     H  921   4.364   1.345  12.941 -0.1644 -2.1190  1.6061
   59TMC2    H1  922   4.100   1.059  12.769 -0.1481  0.0791 -0.2685
   59TMC2    H2  923   4.024   1.476  12.726 -1.1520 -0.8891 -0.9840
   59TMC2    C7  924   3.947   1.238  12.631 -0.0930 -0.3833 -0.2734
   59TMC2    C8  925   4.208   1.553  12.886  0.0060 -0.0061  0.0939
   59TMC2    O1  926   3.890   1.129  12.640 -0.0083 -0.0592 -0.0676
   59TMC2    O2  927   4.154   1.645  12.828 -0.4677  0.6728 -0.0895
   59TMC2    O5  928   4.262   1.554  13.007 -0.2568 -0.1601 -0.3681
   59TMC2    H5  929   4.295   1.470  13.046  2.0554  1.1734  0.4978
   60MPD2     C  930   4.485   0.868  13.043  0.7063  0.1217  0.4165
   60MPD2    C1  931   4.478   0.998  13.089 -0.1705  0.1182  0.0653
   60MPD2    C2  932   4.542   1.021  13.213  0.0987  0.0899 -0.4780
   60MPD2    C3  933   4.611   0.916  13.286  0.2279  0.0574  0.6790
   60MPD2    C4  934   4.604   0.794  13.234  0.0391 -0.4552  0.3355
   60MPD2    C5  935   4.543   0.766  13.119  0.7848 -0.2399  0.1993
   60MPD2     H  936   4.534   1.121  13.253 -1.2400  0.4155 -1.5685
   60MPD2    H1  937   4.647   0.709  13.286  0.7411  0.0913  0.6438
   60MPD2    H2  938   4.457   0.839  12.942 -0.4585 -1.9717  1.3398
   60MPD2    H3  939   4.549   0.664  13.083 -0.7502 -1.3042  2.9391
   60MPD2     N  940   4.691   0.926  13.404  0.2106 -0.1016  0.2455
   60MPD2    H5  941   4.727   0.837  13.436  2.7590  1.0398  0.5626
   60MPD2    N1  942   4.391   1.099  13.024  0.8147 -0.3504 -0.1788
   60MPD2    H7  943   4.381   1.189  13.070 -2.2961 -0.3325 -0.9110
   61TMC2    C1  944   4.039   2.413  16.138  0.6314 -0.0659 -0.2209
   61TMC2    C2  945   4.020   2.410  16.277 -0.0922 -0.1450 -0.0252
   61TMC2    C3  946   3.968   2.520  16.341 -0.2823  0.0070 -0.2315
   61TMC2    C4  947   3.995   2.514  16.062 -0.2109  0.1408 -0.2871
   61TMC2    C5  948   3.933   2.622  16.132  0.3926 -1.3615 -0.0263
   61TMC2    C6  949   3.928   2.629  16.266 -0.4149 -0.4888  0.1396
   61TMC2     C  950   4.040   2.275  16.080  0.1383 -0.4955  0.4324
   61TMC2     O  951   4.025   2.177  16.151 -0.5287 -0.4168 -0.1024
   61TMC2     H  952   4.049   2.317  16.326 -2.9412 -0.8062  0.3883
   61TMC2    H1  953   3.995   2.518  15.954 -0.6352 -0.4477 -0.3055
   61TMC2    H2  954   3.884   2.719  16.308 -0.4736 -0.7754  0.6897
   61TMC2    C7  955   3.883   2.745  16.073  0.8301 -0.2851 -0.0664
   61TMC2    C8  956   3.955   2.500  16.485 -0.3285  0.4909 -1.1691
   61TMC2    O1  957   3.914   2.845  16.129 -0.3011 -0.3089  0.8146
   61TMC2    O2  958   4.017   2.409  16.542 -0.4177  0.4773  0.1492
   61TMC2    O5  959   3.865   2.587  16.538  0.0176 -0.4568  0.0840
   61TMC2    H5  960   3.804   2.620  16.469  0.8534 -0.1217 -0.4979
   62MPD2     C  961   4.067   2.041  15.899 -0.1063 -0.2040 -0.6861
   62MPD2    C1  962   4.109   2.171  15.868  0.3669 -0.0029  0.0287
   62MPD2    C2  963   4.169   2.198  15.750 -0.4918  0.6289  0.4742
   62MPD2    C3  964   4.166   2.096  15.651 -0.6467  0.3737 -0.8588
   62MPD2    C4  965   4.118   1.973  15.680 -0.0880 -0.4922  0.4542
   62MPD2    C5  966   4.076   1.943  15.807  0.4919 -0.0026 -0.0537
   62MPD2     H  967   4.198   2.301  15.735  0.4723  0.5404  1.8061
   62MPD2    H1  968   4.124   1.897  15.603 -1.7162 -0.7266  0.5553
   62MPD2    H2  969   4.033   2.005  15.995  0.0551  1.8815  0.1696
   62MPD2    H3  970   4.033   1.847  15.834 -0.0302  0.0968 -0.5348
   62MPD2     N  971   4.221   2.109  15.522 -0.5052  0.5052 -0.3089
   62MPD2    H5  972   4.200   2.031  15.460 -1.3529  0.8674 -0.4771
   62MPD2    N1  973   4.088   2.280  15.953  0.2718  0.0143  0.1134
   62MPD2    H7  974   4.097   2.375  15.917  1.1853 -0.1218 -0.0041
   63TMC2    C1  975   3.946   2.563  10.157 -1.1316  0.5172 -0.0497
   63TMC2    C2  976   4.080   2.567  10.123  0.4775  0.5561 -0.1203
   63TMC2    C3  977   4.105   2.638  10.012 -0.1292  0.0762 -1.4311
   63TMC2    C4  978   3.855   2.639  10.100 -0.1791 -0.5557 -0.3146
   63TMC2    C5  979   3.885   2.705   9.991 -0.8637  0.5272 -0.7607
   63TMC2    C6  980   4.009   2.702   9.941 -0.1659 -0.2359 -0.0993
   63TMC2     C  981   3.913   2.537  10.290 -0.2858  0.1818 -0.3748
   63TMC2     O  982   4.000   2.562  10.376  0.2539  0.4986  0.2985
   63TMC2     H  983   4.155   2.526  10.189 -0.3247  0.0570  0.4933
   63TMC2    H1  984   3.753   2.656  10.135 -0.8193 -3.4542 -0.7451
   63TMC2    H2  985   4.038   2.748   9.847 -1.4579  0.6834 -0.0488
   63TMC2    C7  986   3.779   2.787   9.935  0.0634  1.3529 -0.2215
   63TMC2    C8  987   4.235   2.632   9.951  0.0388 -0.1756 -0.9483
   63TMC2    O1  988   3.665   2.746   9.959  0.3298  0.0037 -0.4047
   63TMC2    O2  989   4.253   2.677   9.839 -0.2779 -0.4818  0.2841
   63TMC2    O5  990   4.330   2.618  10.044  0.1174 -0.1049 -0.1638
   63TMC2    H5  991   4.309   2.552  10.114 -0.1641  1.5583  1.3233
   64MPD2     C  992   3.592   2.397  10.653 -0.1134  0.4772  0.4584
   64MPD2    C1  993   3.552   2.337  10.537 -1.1092  0.3154 -0.5814
   64MPD2    C2  994   3.618   2.362  10.420  0.2025 -0.6474  0.0461
   64MPD2    C3  995   3.724   2.446  10.424  0.0684  0.2803  0.3414
   64MPD2    C4  996   3.769   2.490  10.550 -0.2811  0.5318 -0.0839
   64MPD2    C5  997   3.701   2.474  10.667 -0.2411  0.0508 -0.3832
   64MPD2     H  998   3.597   2.301  10.333  0.3518 -1.3792  0.5286
   64MPD2    H1  999   3.835   2.576  10.547  0.4789 -0.1289 -2.0917
   64MPD2    H2 1000   3.547   2.387  10.751  1.3211 -3.7519  0.6775
   64MPD2    H3 1001   3.720   2.522  10.763  0.3328 -1.0773  0.0669
   64MPD2     N 1002   3.792   2.470  10.301 -0.2724 -0.7980 -0.4859
   64MPD2    H5 1003   3.738   2.455  10.216  0.0843 -1.1637 -0.6471
   64MPD2    N1 1004   3.446   2.242  10.523 -0.0782  0.2827  0.2369
   64MPD2    H7 1005   3.429   2.198  10.433  1.1858 -0.2517  0.2735
   65TMC2    C1 1006   4.524   2.083  15.932  0.1271 -0.4253 -0.3993
   65TMC2    C2 1007   4.581   2.092  15.811  0.2580  0.6322  0.2088
   65TMC2    C3 1008   4.590   2.228  15.772 -0.3989  0.8797  0.1587
   65TMC2    C4 1009   4.475   2.189  16.005 -0.7441 -0.3380 -0.2313
   65TMC2    C5 1010   4.480   2.316  15.960 -0.6799  0.1484 -0.6208
   65TMC2    C6 1011   4.536   2.338  15.836 -0.1201 -0.2990  0.1304
   65TMC2     C 1012   4.501   1.957  15.993  1.2167 -0.0242 -0.1499
   65TMC2     O 1013   4.504   1.952  16.111  0.2478  0.5503 -0.1268
   65TMC2     H 1014   4.631   2.008  15.764 -1.7883 -1.8155  2.4220
   65TMC2    H1 1015   4.426   2.175  16.101 -0.2925 -1.9319 -0.2417
   65TMC2    H2 1016   4.554   2.437  15.797  1.4774 -0.0660  1.4555
   65TMC2    C7 1017   4.412   2.425  16.030  0.2897  0.1319  0.6313
   65TMC2    C8 1018   4.647   2.252  15.635  0.8106 -0.5295  1.0268
   65TMC2    O1 1019   4.373   2.384  16.138 -0.1390 -0.2081 -0.0258
   65TMC2    O2 1020   4.700   2.356  15.593 -0.4830 -0.6343 -0.0585
   65TMC2    O5 1021   4.613   2.140  15.562 -0.6171  0.7841  0.1888
   65TMC2    H5 1022   4.547   2.077  15.599  0.9388 -0.5463  0.6678
   66MPD2     C 1023   4.374   1.705  16.053  0.5284 -0.4874 -0.1425
   66MPD2    C1 1024   4.407   1.738  15.922  0.3639  1.1047  0.3094
   66MPD2    C2 1025   4.374   1.656  15.815  0.6027  0.3424  0.1062
   66MPD2    C3 1026   4.321   1.524  15.835 -0.5847  0.1900  0.8772
   66MPD2    C4 1027   4.308   1.490  15.968  0.1698 -0.0756 -0.6636
   66MPD2    C5 1028   4.329   1.579  16.065 -0.1760  0.1745 -0.0099
   66MPD2     H 1029   4.406   1.686  15.716  0.9306  2.3983  0.8355
   66MPD2    H1 1030   4.264   1.396  15.999  0.7923  0.4090  1.6520
   66MPD2    H2 1031   4.385   1.769  16.139  0.8351 -0.6533 -0.0560
   66MPD2    H3 1032   4.303   1.555  16.168 -1.2136  0.2355 -0.2559
   66MPD2     N 1033   4.288   1.432  15.737  1.0083 -0.5004 -0.4842
   66MPD2    H5 1034   4.244   1.344  15.762 -0.4672 -0.1894 -1.9978
   66MPD2    N1 1035   4.469   1.864  15.894 -0.1375 -0.0352 -0.3583
   66MPD2    H7 1036   4.468   1.901  15.800 -3.5669 -2.5954 -1.3449
   67TMC2    C1 1037   0.111   1.011  14.367 -0.4099 -0.1022  0.3081
   67TMC2    C2 1038   0.049   1.137  14.366 -0.1184  0.0620 -0.1910
   67TMC2    C3 1039   0.027   1.197  14.488 -0.2266 -0.0356 -0.0375
   67TMC2    C4 1040   0.154   0.945  14.483 -0.2423 -0.1372  0.3626
   67TMC2    C5 1041   0.123   1.012  14.601  0.3685  0.1103 -0.7486
   67TMC2    C6 1042   0.070   1.139  14.602 -0.1078 -0.4972 -1.0459
   67TMC2     C 1043   0.083   0.924  14.253 -0.3626 -0.1777 -0.1576
   67TMC2     O 1044   0.171   0.843  14.224 -0.3025  0.1071 -0.1277
   67TMC2     H 1045   0.007   1.186  14.279  1.0823  0.2668 -0.6483
   67TMC2    H1 1046   0.209   0.852  14.477  0.5917  0.3410  0.5706
   67TMC2    H2 1047   0.085   1.199  14.692 -2.8564  0.6941 -1.3731
   67TMC2    C7 1048   0.141   0.937  14.723  0.5171  0.6752 -0.4965
   67TMC2    C8 1049   4.688   1.320  14.469  0.4585 -0.5003  0.3990
   67TMC2    O1 1050   0.196   0.827  14.722  0.6860  0.2422  1.0228
   67TMC2    O2 1051   4.620   1.340  14.366  0.3563 -0.1221 -0.4032
   67TMC2    O5 1052   4.656   1.364  14.592  0.0629 -0.0172 -0.1578
   67TMC2    H5 1053   4.684   1.303  14.664 -0.9943  2.2314  2.1407
   68MPD2     C 1054   4.722   0.789  13.991 -0.3077  1.4172  0.0799
   68MPD2    C1 1055   4.656   0.879  14.071 -0.1419  0.0365 -0.0413
   68MPD2    C2 1056   4.528   0.908  14.037 -0.3419 -0.5549 -0.4917
   68MPD2    C3 1057   4.461   0.866  13.925 -0.4632  0.3013  0.6311
   68MPD2    C4 1058   4.535   0.781  13.842 -0.2359 -0.3652 -0.2510
   68MPD2    C5 1059   4.661   0.732  13.880 -0.4716  0.2456 -0.1441
   68MPD2     H 1060   4.479   0.978  14.104 -0.7799 -2.1029  0.8087
   68MPD2    H1 1061   4.487   0.744  13.752  0.0597  2.2141 -1.4813
   68MPD2    H2 1062   0.080   0.748  14.017 -1.2480 -1.4100 -0.8922
   68MPD2    H3 1063   4.718   0.655  13.829 -1.6237 -1.6284  1.4097
   68MPD2     N 1064   4.325   0.897  13.917  0.1254  0.1127  0.6547
   68MPD2    H5 1065   4.294   0.950  13.999 -0.1384  1.4657 -0.3253
   68MPD2    N1 1066   4.701   0.946  14.192 -0.2256 -0.0646  0.4885
   68MPD2    H7 1067   4.642   1.008  14.246 -0.6709  1.1224 -1.3485
   69TMC2    C1 1068   1.708   2.387  12.415 -0.0411  0.0349 -0.1635
   69TMC2    C2 1069   1.597   2.422  12.344 -0.0199  0.7244 -0.5561
   69TMC2    C3 1070   1.607   2.421  12.210  0.9911  0.1143  0.5189
   69TMC2    C4 1071   1.824   2.353  12.358 -0.0466 -0.6175 -0.4374
   69TMC2    C5 1072   1.821   2.336  12.225 -0.0329 -0.8268  0.8929
   69TMC2    C6 1073   1.717   2.377  12.146 -0.0215  0.0262  0.5918
   69TMC2     C 1074   1.691   2.359  12.550 -0.4758 -0.2725 -0.0522
   69TMC2     O 1075   1.591   2.293  12.574  0.4184  0.1466 -0.4951
   69TMC2     H 1076   1.506   2.454  12.391  1.5670  3.8573  0.3900
   69TMC2    H1 1077   1.911   2.325  12.418  0.2603  3.0870  0.8577
   69TMC2    H2 1078   1.722   2.369  12.038 -0.4194  1.4452  0.4715
   69TMC2    C7 1079   1.944   2.294  12.157 -0.1182 -0.3422 -0.0812
   69TMC2    C8 1080   1.478   2.385  12.141 -0.2654  0.7494  0.2476
   69TMC2    O1 1081   2.052   2.316  12.209  0.1666  0.2626  0.1447
   69TMC2    O2 1082   1.371   2.365  12.198 -0.2876 -0.4898  0.1319
   69TMC2    O5 1083   1.482   2.427  12.007 -0.0006  0.1829  0.3287
   69TMC2    H5 1084   1.560   2.484  11.992 -1.7430  1.8703 -2.2622
   70MPD2     C 1085   1.935   2.448  12.816  0.0670  0.2472  0.1349
   70MPD2    C1 1086   1.826   2.389  12.756  0.1226 -0.0192 -0.6939
   70MPD2    C2 1087   1.755   2.291  12.831  0.3863 -0.2282  0.0282
   70MPD2    C3 1088   1.787   2.263  12.963 -0.0280  0.7285  0.1315
   70MPD2    C4 1089   1.896   2.325  13.018 -0.8658  0.1984  0.1281
   70MPD2    C5 1090   1.972   2.414  12.940 -0.1135 -0.0066  0.4361
   70MPD2     H 1091   1.674   2.233  12.790 -1.5002  2.7066 -0.3846
   70MPD2    H1 1092   1.934   2.300  13.117 -3.6045 -1.2732  0.7873
   70MPD2    H2 1093   2.000   2.517  12.764 -0.1340 -0.4235 -1.0219
   70MPD2    H3 1094   2.051   2.461  12.997 -0.5751  0.6233  0.5484
   70MPD2     N 1095   1.727   2.156  13.034  0.1868  0.3872 -0.0094
   70MPD2    H5 1096   1.762   2.122  13.123  2.7619 -0.9230 -1.4988
   70MPD2    N1 1097   1.800   2.414  12.618 -0.5643 -0.3508  0.1917
   70MPD2    H7 1098   1.877   2.459  12.569 -1.9303 -0.8974 -2.4879
   71TMC2    C1 1099   0.093   4.137   1.846 -0.5373  0.4550  0.3637
   71TMC2    C2 1100   0.163   4.252   1.829 -0.5804  0.3301  0.1910
   71TMC2    C3 1101   0.098   4.369   1.860  0.3417  0.5959  0.0944
   71TMC2    C4 1102   4.703   4.136   1.876 -0.3076  0.0293  0.2596
   71TMC2    C5 1103   4.643   4.253   1.912 -0.6012 -0.4848  0.3481
   71TMC2    C6 1104   4.710   4.371   1.914 -0.2931 -0.1524  0.4454
   71TMC2     C 1105   0.155   4.014   1.812  0.2041  0.0209  0.3674
   71TMC2     O 1106   0.092   3.922   1.763 -0.5091 -0.2157  0.2303
   71TMC2     H 1107   0.267   4.262   1.800 -0.5226  2.2406  1.0484
   71TMC2    H1 1108   4.649   4.047   1.908  0.1281  0.5997  2.5939
   71TMC2    H2 1109   4.670   4.470   1.933  1.0874  1.1310 -3.2894
   71TMC2    C7 1110   4.510   4.253   1.973 -0.0569  0.1871 -0.1773
   71TMC2    C8 1111   0.141   4.493   1.794 -0.1135 -0.4401  0.3074
   71TMC2    O1 1112   4.484   4.357   2.035 -0.4047 -0.2251 -0.4250
   71TMC2    O2 1113   0.132   4.610   1.834 -0.0512 -0.5219 -0.0594
   71TMC2    O5 1114   0.098   4.466   1.671  0.5987  0.0957 -0.0757
   71TMC2    H5 1115   0.124   4.378   1.638 -1.3479  0.0431 -1.4960
   72MPD2     C 1116   0.576   3.731   1.788 -0.7048 -0.7237  0.2273
   72MPD2    C1 1117   0.458   3.722   1.718  0.4930  0.0240 -0.6664
   72MPD2    C2 1118   0.359   3.819   1.752  0.0005 -0.5499 -0.5199
   72MPD2    C3 1119   0.383   3.919   1.843  0.4352  0.3183  0.1692
   72MPD2    C4 1120   0.501   3.917   1.911 -0.3825 -0.3289 -0.2383
   72MPD2    C5 1121   0.595   3.821   1.885 -0.4749 -0.3080 -0.8260
   72MPD2     H 1122   0.271   3.830   1.690  1.9663  2.4976 -2.7606
   72MPD2    H1 1123   0.508   3.988   1.993 -0.3060 -0.2678 -0.2973
   72MPD2    H2 1124   0.659   3.666   1.763 -1.1458 -2.1101  2.3362
   72MPD2    H3 1125   0.685   3.815   1.945  0.3175  2.2355 -1.7242
   72MPD2     N 1126   0.284   4.017   1.863 -0.5157 -0.1187 -0.3244
   72MPD2    H5 1127   0.319   4.094   1.919  0.2064 -1.9403  1.7336
   72MPD2    N1 1128   0.438   3.625   1.617 -0.8898  0.6330  0.7630
   72MPD2    H7 1129   0.342   3.605   1.592 -0.1642  0.2676 -1.7293
   73TMC2    C1 1130   3.588   4.640  13.868  0.1685  0.0323 -1.6799
   73TMC2    C2 1131   3.521   4.686  13.980  0.7510 -0.1833 -0.0548
   73TMC2    C3 1132   3.496   4.595  14.088 -0.3510  0.0276 -0.9891
   73TMC2    C4 1133   3.619   4.511  13.863 -0.6563  0.3807 -0.0102
   73TMC2    C5 1134   3.603   4.428  13.970 -0.2181 -0.2059 -0.0612
   73TMC2    C6 1135   3.534   4.463  14.084 -0.7166  0.5340 -0.0504
   73TMC2     C 1136   3.696   4.727  13.812 -0.0764 -0.9971  0.3067
   73TMC2     O 1137   3.800   4.660  13.794  0.4819 -0.2784  0.8037
   73TMC2     H 1138   3.502   0.052  13.999 -3.2237 -1.0247  0.5915
   73TMC2    H1 1139   3.674   4.474  13.778  3.5789  1.7759  2.1452
   73TMC2    H2 1140   3.514   4.396  14.167 -1.2820  0.1557 -0.5042
   73TMC2    C7 1141   3.730   4.364  14.019 -0.4040 -0.3521 -0.0414
   73TMC2    C8 1142   3.424   4.650  14.202 -0.1805 -0.6292 -1.0538
   73TMC2    O1 1143   3.726   4.281  14.114  0.6751  0.6980  0.2572
   73TMC2    O2 1144   3.397   0.030  14.205 -0.5342  0.3743 -0.0033
   73TMC2    O5 1145   3.348   4.563  14.267  0.6929  0.1649  0.2104
   73TMC2    H5 1146   3.356   4.475  14.223 -0.5472  1.4483 -2.5861
   74MPD2     C 1147   3.930   0.433  13.728  0.0348 -0.0066 -0.0506
   74MPD2    C1 1148   3.981   0.307  13.760  0.3625 -0.3324  0.7089
   74MPD2    C2 1149   3.888   0.201  13.778  0.3820  0.2999 -0.2281
   74MPD2    C3 1150   3.752   0.224  13.778 -0.5461 -0.0882  0.3113
   74MPD2    C4 1151   3.710   0.352  13.763 -0.4049  0.1627 -0.0622
   74MPD2    C5 1152   3.797   0.455  13.738  0.6184 -0.5708 -0.4607
   74MPD2     H 1153   3.923   0.103  13.808 -0.1204  0.2157  0.0988
   74MPD2    H1 1154   3.603   0.366  13.756 -0.3124  1.1242  0.4910
   74MPD2    H2 1155   4.003   0.512  13.711 -0.6828  0.1817 -2.3238
   74MPD2    H3 1156   3.752   0.547  13.703  1.0352 -0.5121 -0.8368
   74MPD2     N 1157   3.661   0.121  13.805  0.4876  0.0334 -0.1739
   74MPD2    H5 1158   3.564   0.140  13.828  0.3356 -2.1149  0.9457
   74MPD2    N1 1159   4.120   0.293  13.760 -0.8089  0.1574  0.7714
   74MPD2    H7 1160   4.172   0.375  13.730 -0.4604 -0.1503  0.5415
   75TMC2    C1 1161   4.136   0.947  13.813  0.5396 -0.4970  0.2261
   75TMC2    C2 1162   4.077   0.959  13.930 -0.3070 -0.3752 -0.4388
   75TMC2    C3 1163   3.974   1.040  13.948  0.0243 -0.2370  0.4295
   75TMC2    C4 1164   4.093   1.009  13.702  0.4488 -0.3355 -0.1810
   75TMC2    C5 1165   4.002   1.109  13.727 -0.1502 -0.1817 -0.2597
   75TMC2    C6 1166   3.941   1.127  13.848  0.1557  0.4570  0.2491
   75TMC2     C 1167   4.253   0.876  13.801 -0.5225  0.7015  0.2097
   75TMC2     O 1168   4.270   0.814  13.696 -0.2791 -0.3082  0.3708
   75TMC2     H 1169   4.103   0.889  14.009 -0.9916 -0.4536 -0.2824
   75TMC2    H1 1170   4.130   0.997  13.601  0.4256  0.6038 -0.2947
   75TMC2    H2 1171   3.859   1.195  13.869 -1.3501 -1.4190  0.4620
   75TMC2    C7 1172   3.929   1.151  13.612 -0.4334  0.6792  0.0356
   75TMC2    C8 1173   3.916   1.046  14.081  0.9071 -1.1265  0.1172
   75TMC2    O1 1174   3.927   1.077  13.514  0.3135 -0.3344  0.3768
   75TMC2    O2 1175   3.972   1.034  14.190  0.0336 -0.1664  0.0497
   75TMC2    O5 1176   3.783   1.076  14.070 -0.2067 -0.3988 -0.6049
   75TMC2    H5 1177   3.756   1.067  13.976 -1.3547  2.5929 -0.5741
   76TMC2    C1 1178   2.578   1.406  12.433  0.9743 -0.1155  0.1089
   76TMC2    C2 1179   2.440   1.385  12.446  0.2981 -0.0936  0.8066
   76TMC2    C3 1180   2.395   1.337  12.569  0.7776  0.0320  0.5046
   76TMC2    C4 1181   2.660   1.396  12.541  0.1421  0.7658 -0.0509
   76TMC2    C5 1182   2.612   1.353  12.661  0.2197 -0.1608  0.1789
   76TMC2    C6 1183   2.477   1.315  12.675 -0.3289 -0.4988  0.1701
   76TMC2     C 1184   2.619   1.490  12.317 -0.6561  0.4260  0.4637
   76TMC2     O 1185   2.529   1.545  12.255  0.5609  0.4951  0.0252
   76TMC2     H 1186   2.374   1.416  12.366  0.0481  0.9298  1.4141
   76TMC2    H1 1187   2.765   1.412  12.521  0.5233  1.6789  2.6969
   76TMC2    H2 1188   2.438   1.287  12.772  0.2049 -0.7015  0.3243
   76TMC2    C7 1189   2.681   1.361  12.787 -0.4615 -0.6426  0.0666
   76TMC2    C8 1190   2.256   1.317  12.580 -0.1120 -0.0411  0.8227
   76TMC2    O1 1191   2.626   1.319  12.890 -0.3058 -0.6489 -0.1527
   76TMC2    O2 1192   2.195   1.356  12.679 -0.5449 -0.5111  0.1434
   76TMC2    O5 1193   2.202   1.303  12.458  0.2603 -0.2698 -0.2390
   76TMC2    H5 1194   2.262   1.250  12.402  0.5817  0.4260 -0.5554
   77MPD2     C 1195   2.945   1.669  11.988 -0.8449  0.7415  0.0277
   77MPD2    C1 1196   2.825   1.713  12.024 -0.2144  0.4700 -0.3110
   77MPD2    C2 1197   2.763   1.646  12.126 -0.0595  0.1398 -0.3825
   77MPD2    C3 1198   2.818   1.529  12.181 -0.9362 -0.1654 -0.1164
   77MPD2    C4 1199   2.940   1.487  12.138 -0.1502 -0.9628  0.0515
   77MPD2    C5 1200   3.005   1.560  12.049  0.4398  0.5060  0.0501
   77MPD2     H 1201   2.681   1.697  12.175  0.9782  2.2602 -0.8216
   77MPD2    H1 1202   2.992   1.402  12.180  0.4947 -1.2913 -1.4068
   77MPD2    H2 1203   3.005   1.711  11.909  0.2280 -1.3858 -0.3000
   77MPD2    H3 1204   3.104   1.522  12.027 -0.1512 -0.7235 -0.5255
   77MPD2     N 1205   2.750   1.463  12.282 -0.0333  0.1599 -0.5917
   77MPD2    H5 1206   2.794   1.389  12.336  2.5393  1.5210 -0.8044
   77MPD2    N1 1207   2.765   1.837  11.981 -0.8336  0.0198 -0.5043
   77MPD2    H7 1208   2.677   1.867  12.021 -0.1043  2.6867 -0.8975
   78TMC2    C1 1209   0.517   2.490   1.498 -0.0507  0.5495  0.6542
   78TMC2    C2 1210   0.537   2.419   1.378 -0.3669  0.2995 -0.0699
   78TMC2    C3 1211   0.620   2.476   1.286 -0.0912  0.6058 -1.2647
   78TMC2    C4 1212   0.573   2.614   1.515 -0.3717 -1.0973 -0.5295
   78TMC2    C5 1213   0.640   2.672   1.413  0.5602 -0.4731  0.1408
   78TMC2    C6 1214   0.672   2.603   1.301  0.2606  0.0904  0.7568
   78TMC2     C 1215   0.425   2.438   1.591  0.3153  0.4626  0.0146
   78TMC2     O 1216   0.334   2.360   1.549 -0.2959  0.2704 -0.0501
   78TMC2     H 1217   0.497   2.320   1.366  2.7853 -1.0501  0.6136
   78TMC2    H1 1218   0.557   2.672   1.605 -0.0258 -1.6587 -0.1048
   78TMC2    H2 1219   0.743   2.645   1.230 -2.5697  2.3869 -0.7412
   78TMC2    C7 1220   0.701   2.807   1.430  0.7181  0.3184 -0.2959
   78TMC2    C8 1221   0.685   2.399   1.182 -0.2269 -0.3254  0.0057
   78TMC2    O1 1222   0.743   2.864   1.333 -0.4584  0.0428  0.3051
   78TMC2    O2 1223   0.671   2.279   1.184 -0.2643 -0.2443 -0.8773
   78TMC2    O5 1224   0.721   2.471   1.073 -0.3193 -0.3690 -0.2006
   78TMC2    H5 1225   0.713   2.569   1.077  4.0958 -0.0383  0.8484
   79MPD1     C 1226   0.257   2.334   2.073 -0.4465  0.0780  0.3996
   79MPD1    C1 1227   0.204   2.318   1.945  0.1870  0.4354  0.2373
   79MPD1    C2 1228   0.269   2.352   1.828 -0.1227 -0.6025 -0.3427
   79MPD1    C3 1229   0.386   2.419   1.838 -0.6181  0.2913  0.0635
   79MPD1    C4 1230   0.437   2.448   1.963 -0.4712  0.0381  0.3013
   79MPD1    C5 1231   0.377   2.392   2.074 -0.4150  0.0624 -0.3883
   79MPD1     H 1232   0.220   2.339   1.732 -1.4317 -0.2809  0.2784
   79MPD1    H1 1233   0.534   2.495   1.980 -1.4019  1.0280  2.8663
   79MPD1    H2 1234   0.223   2.291   2.167 -1.5915 -1.2616 -0.6227
   79MPD1    H3 1235   0.426   2.406   2.170  0.2378  0.3746 -0.7714
   79MPD1     N 1236   0.458   2.466   1.720  0.0446  0.3612 -0.3279
   79MPD1    H5 1237   0.544   2.517   1.736  0.7867 -1.3462  1.1484
   79MPD1    N1 1238   0.091   2.234   1.929 -0.1993 -0.0849  0.4588
   79MPD1    H6 1239   0.034   2.269   1.852  0.4269 -1.1005 -0.4694
   79MPD1    H7 1240   0.029   2.250   2.008  0.4543 -0.1891  0.9980
   80TMC2    C1 1241   1.686   1.188  11.728 -0.1569  0.0208 -0.5381
   80TMC2    C2 1242   1.645   1.210  11.596  0.1593 -0.2070 -0.5402
   80TMC2    C3 1243   1.512   1.216  11.574  0.0450  0.1843 -0.0597
   80TMC2    C4 1244   1.598   1.174  11.829 -0.0375 -0.3381  0.0598
   80TMC2    C5 1245   1.465   1.179  11.798  0.3590  0.3329 -0.2719
   80TMC2    C6 1246   1.422   1.190  11.668  0.2463  0.0212 -0.5483
   80TMC2     C 1247   1.834   1.211  11.763  0.7422 -0.3505  0.3050
   80TMC2     O 1248   1.921   1.197  11.676  0.0201 -0.2040 -0.1068
   80TMC2     H 1249   1.722   1.232  11.523  2.3169  1.0118  2.0784
   80TMC2    H1 1250   1.635   1.151  11.928  0.3626 -2.1188 -0.5241
   80TMC2    H2 1251   1.315   1.194  11.650  0.2512 -0.9093 -0.7469
   80TMC2    C7 1252   1.363   1.163  11.903  0.7808  0.4012  0.0657
   80TMC2    C8 1253   1.468   1.219  11.432  0.4496  1.5712 -0.1589
   80TMC2    O1 1254   1.266   1.237  11.874 -0.5512  0.1199 -0.1578
   80TMC2    O2 1255   1.358   1.265  11.401 -0.3673  0.1447  0.3217
   80TMC2    O5 1256   1.559   1.147  11.362 -0.2988 -0.8223  0.2485
   80TMC2    H5 1257   1.613   1.105  11.431 -0.5952 -0.5712  0.6357
   81MPD2     C 1258   2.092   1.297  11.906  0.1834 -0.5065  0.0393
   81MPD2    C1 1259   1.963   1.295  11.964  0.6486  0.1572  0.3671
   81MPD2    C2 1260   1.938   1.353  12.093 -0.5057 -0.5535  0.5258
   81MPD2    C3 1261   2.042   1.414  12.163 -0.2737 -0.8892 -1.1705
   81MPD2    C4 1262   2.170   1.407  12.112  0.6667 -0.4982 -0.0326
   81MPD2    C5 1263   2.192   1.355  11.985  0.9402 -0.6668 -0.3291
   81MPD2     H 1264   1.835   1.353  12.124 -0.9917 -2.6112 -1.0741
   81MPD2    H1 1265   2.248   1.463  12.163  1.1589 -0.7397 -0.5129
   81MPD2    H2 1266   2.111   1.260  11.806  1.2971 -0.4691  0.2342
   81MPD2    H3 1267   2.287   1.361  11.934  0.0423  1.3672 -1.7336
   81MPD2     N 1268   2.025   1.490  12.282  0.3664  0.3986  0.3228
   81MPD2    H5 1269   2.102   1.519  12.343  0.7297  0.2276 -0.0564
   81MPD2    N1 1270   1.846   1.249  11.896  0.2818 -0.4532 -0.0878
   81MPD2    H7 1271   1.761   1.269  11.949  1.1607  2.2470  0.3004
   82TMC2    C1 1272   0.499   0.904  11.228 -0.5970  0.7872  0.4521
   82TMC2    C2 1273   0.595   0.804  11.232  0.5061 -0.0696 -0.1505
   82TMC2    C3 1274   0.584   0.704  11.323  0.1576  0.4397  0.3679
   82TMC2    C4 1275   0.410   0.893  11.335  0.9410 -0.1992 -0.2437
   82TMC2    C5 1276   0.404   0.787  11.417 -0.5401 -0.7777  0.2760
   82TMC2    C6 1277   0.494   0.687  11.419  0.9203 -0.3203  0.0614
   82TMC2     C 1278   0.429   0.948  11.107  0.2036 -0.5301  0.4910
   82TMC2     O 1279   0.306   0.950  11.124  0.1173 -0.4166 -0.5709
   82TMC2     H 1280   0.660   0.794  11.145  1.5576  1.1164  0.4914
   82TMC2    H1 1281   0.349   0.983  11.342  1.3358 -0.0603  1.5550
   82TMC2    H2 1282   0.503   0.602  11.486 -0.3232 -0.6850 -0.2486
   82TMC2    C7 1283   0.286   0.755  11.485  0.1084  0.4420 -0.4119
   82TMC2    C8 1284   0.689   0.601  11.312  0.3725 -0.1015 -0.2811
   82TMC2    O1 1285   0.282   0.671  11.574 -0.7935 -0.1657  0.4062
   82TMC2    O2 1286   0.668   0.490  11.355  0.3710 -0.1564  0.2852
   82TMC2    O5 1287   0.807   0.665  11.342  0.3265 -0.5854 -0.2662
   82TMC2    H5 1288   0.800   0.761  11.324 -4.7530 -1.2843 -2.0106
   83MPD2     C 1289   0.364   1.189  10.664 -0.1781  0.5326  0.2763
   83MPD2    C1 1290   0.272   1.144  10.752  0.2560 -0.2740 -0.0017
   83MPD2    C2 1291   0.314   1.077  10.865 -0.1057  0.2638  0.0524
   83MPD2    C3 1292   0.450   1.053  10.891 -0.6306 -0.3915  0.0802
   83MPD2    C4 1293   0.546   1.098  10.799 -0.1039 -0.1601 -0.4907
   83MPD2    C5 1294   0.493   1.166  10.694 -0.2418 -0.0840 -0.3786
   83MPD2     H 1295   0.238   1.041  10.932  0.3421 -0.7057  0.0328
   83MPD2    H1 1296   0.651   1.072  10.808  0.2498  2.1008  2.0912
   83MPD2    H2 1297   0.333   1.230  10.568  1.1989  1.7438  0.3357
   83MPD2    H3 1298   0.569   1.195  10.622 -0.1520 -1.2726 -0.7618
   83MPD2     N 1299   0.500   0.990  11.007 -0.4844  0.1308 -0.2991
   83MPD2    H5 1300   0.599   0.978  11.023 -0.4455 -1.4776 -1.7111
   83MPD2    N1 1301   0.136   1.177  10.728  0.1635 -0.0072 -0.0982
   83MPD2    H7 1302   0.113   1.216  10.637 -0.5143 -0.6619 -0.2055
   84TMC2    C1 1303   1.532   4.411  10.725  0.1419 -0.4382  0.1019
   84TMC2    C2 1304   1.480   4.295  10.693  0.4617 -0.0899  0.3806
   84TMC2    C3 1305   1.473   4.273  10.553  0.0689  0.6241  0.6453
   84TMC2    C4 1306   1.586   4.496  10.637  0.6511 -0.1000  0.4097
   84TMC2    C5 1307   1.592   4.473  10.505  0.3104 -1.1526  0.2100
   84TMC2    C6 1308   1.526   4.364  10.459 -0.2691 -0.3920 -0.2480
   84TMC2     C 1309   1.471   4.487  10.836 -0.4120 -0.1922  0.4091
   84TMC2     O 1310   1.418   4.593  10.805 -0.2131  0.4714  0.0449
   84TMC2     H 1311   1.429   4.231  10.764  0.8246 -1.6134 -0.7361
   84TMC2    H1 1312   1.621   4.590  10.679  1.3542 -0.6190  0.9947
   84TMC2    H2 1313   1.529   4.334  10.354  0.9408  5.3791 -1.8336
   84TMC2    C7 1314   1.575   4.580  10.414  0.1456  0.4986 -0.0507
   84TMC2    C8 1315   1.401   4.153  10.516 -0.0293  0.2625 -0.9336
   84TMC2    O1 1316   1.460   4.597  10.375 -0.0811  0.7054 -0.1854
   84TMC2    O2 1317   1.385   4.058  10.593 -0.1697  0.4729 -0.3211
   84TMC2    O5 1318   1.385   4.145  10.385  0.3250  0.2995  0.6763
   84TMC2    H5 1319   1.392   4.222  10.325  2.5433 -1.8894 -1.8855
   85TMC2    C1 1320   1.842   3.208  15.902  0.6528 -0.0097  0.5403
   85TMC2    C2 1321   1.750   3.237  15.807  0.2280 -0.0380  0.4772
   85TMC2    C3 1322   1.753   3.355  15.733  0.6607 -0.7169 -0.2089
   85TMC2    C4 1323   1.952   3.290  15.915 -0.1020  0.9590 -0.4100
   85TMC2    C5 1324   1.960   3.402  15.841 -0.1021 -1.1570 -0.6110
   85TMC2    C6 1325   1.855   3.445  15.760 -0.0026  0.3300 -0.3291
   85TMC2     C 1326   1.826   3.097  15.990 -0.1084 -0.5151  0.0622
   85TMC2     O 1327   1.912   3.092  16.077  0.1142 -0.6770 -0.0327
   85TMC2     H 1328   1.670   3.167  15.786 -0.6980  0.8835  0.9341
   85TMC2    H1 1329   2.037   3.264  15.978 -0.3131 -0.7936 -0.8459
   85TMC2    H2 1330   1.862   3.533  15.698  1.9848  2.0541  2.3420
   85TMC2    C7 1331   2.101   3.448  15.821  0.6309 -0.0392  0.1580
   85TMC2    C8 1332   1.657   3.386  15.626  0.5632  0.4648  0.1981
   85TMC2    O1 1333   2.194   3.404  15.890  0.2192 -0.6621  0.0500
   85TMC2    O2 1334   1.607   3.304  15.548 -0.3271  0.6766 -0.1271
   85TMC2    O5 1335   1.583   3.467  15.704 -0.7842 -0.2316  0.0509
   85TMC2    H5 1336   1.630   3.518  15.772  1.1397  1.0793 -2.2584
   86MPD2     C 1337   1.623   2.648  16.155  0.1333 -0.3078  0.0791
   86MPD2    C1 1338   1.581   2.667  16.023  0.2417 -0.1565  1.2558
   86MPD2    C2 1339   1.624   2.779  15.955  0.0527  0.0533  0.4597
   86MPD2    C3 1340   1.705   2.874  16.021  0.3207 -0.8316  0.1269
   86MPD2    C4 1341   1.747   2.843  16.149  0.4146  0.0085  0.5906
   86MPD2    C5 1342   1.714   2.727  16.213  0.4704  0.4356  0.7879
   86MPD2     H 1343   1.593   2.799  15.854 -1.1777  1.2814  1.0838
   86MPD2    H1 1344   1.817   2.910  16.197  0.9982 -0.5140  0.4738
   86MPD2    H2 1345   1.601   2.554  16.204 -0.1026  0.7586  2.0094
   86MPD2    H3 1346   1.753   2.697  16.310  2.3505 -2.7481 -0.9810
   86MPD2     N 1347   1.732   2.998  15.953 -0.3145  0.5148  0.4559
   86MPD2    H5 1348   1.695   3.012  15.859  0.3143  0.7412  0.2385
   86MPD2    N1 1349   1.504   2.577  15.951 -0.1843  0.0955 -0.3554
   86MPD2    H7 1350   1.503   2.583  15.850 -1.0185  1.3904 -0.2780
   87TMC2    C1 1351   4.628   1.330   1.061 -0.1945 -0.4866 -0.2946
   87TMC2    C2 1352   4.500   1.304   1.015  0.0934 -0.4805  0.7205
   87TMC2    C3 1353   4.403   1.324   1.115  0.6321  0.5910 -0.0299
   87TMC2    C4 1354   4.664   1.366   1.184  0.3589 -0.0888 -0.6078
   87TMC2    C5 1355   4.566   1.385   1.274 -0.3225  0.2819  0.1766
   87TMC2    C6 1356   4.432   1.359   1.243  0.0640 -0.2256  0.0728
   87TMC2     C 1357   4.725   1.258   0.989  0.1540 -1.2172  1.1288
   87TMC2     O 1358   4.689   1.220   0.876 -0.3406  0.1481 -0.0989
   87TMC2     H 1359   4.479   1.285   0.910 -1.3454  0.8131  0.7662
   87TMC2    H1 1360   0.024   1.410   1.191  0.2147 -0.1223  1.5921
   87TMC2    H2 1361   4.356   1.380   1.317 -0.2714 -0.8878 -0.0840
   87TMC2    C7 1362   4.582   1.501   1.367 -0.2265  0.8140 -0.0084
   87TMC2    C8 1363   4.260   1.295   1.088 -0.3024 -0.1075  0.7568
   87TMC2    O1 1364   4.472   1.544   1.404 -0.7026 -0.1765 -0.2916
   87TMC2    O2 1365   4.177   1.278   1.178 -0.4519  0.9416  0.4473
   87TMC2    O5 1366   4.233   1.326   0.961 -0.1744  0.5368  0.3316
   87TMC2    H5 1367   4.305   1.353   0.899 -2.1187 -2.5218 -3.2776
   88MPD2     C 1368   0.143   1.678   1.484  0.3528  0.1095 -1.1293
   88MPD2    C1 1369   0.014   1.661   1.432  0.1065 -0.3710 -0.2401
   88MPD2    C2 1370   4.676   1.777   1.414  0.2562 -0.0244 -0.4470
   88MPD2    C3 1371   4.728   1.902   1.431  0.3208 -0.1797  0.6263
   88MPD2    C4 1372   0.119   1.918   1.484  0.0765  0.2290 -0.1542
   88MPD2    C5 1373   0.192   1.798   1.516 -0.3478 -0.3749  0.6550
   88MPD2     H 1374   4.580   1.765   1.367  0.9056  0.5792 -1.9122
   88MPD2    H1 1375   0.164   2.016   1.496 -1.0413  0.6203  0.8100
   88MPD2    H2 1376   0.211   1.596   1.502  0.2126  0.3923  0.6344
   88MPD2    H3 1377   0.289   1.794   1.565  0.0278 -0.1228 -0.0713
   88MPD2     N 1378   4.656   2.018   1.398 -0.1255  0.0172 -0.1286
   88MPD2    H5 1379   4.710   2.102   1.379  1.0508 -0.3639  1.5021
   88MPD2    N1 1380   4.710   1.538   1.386 -0.4837  1.1674  0.2128
   88MPD2    H7 1381   0.041   1.466   1.372 -1.0006  0.5788  0.6779
   89TMC2    C1 1382   1.444   0.558   1.940  0.0737  0.5211  0.0174
   89TMC2    C2 1383   1.375   0.619   2.048 -0.2578 -0.1285 -0.4297
   89TMC2    C3 1384   1.403   0.746   2.075  0.3358 -0.1596 -0.3747
   89TMC2    C4 1385   1.539   0.630   1.870  0.2917 -0.0903  0.1215
   89TMC2    C5 1386   1.578   0.752   1.923 -0.0711  0.4633  0.0667
   89TMC2    C6 1387   1.507   0.809   2.025  0.0098 -0.2206 -0.2362
   89TMC2     C 1388   1.447   0.418   1.917 -0.1446 -0.0406  0.2942
   89TMC2     O 1389   1.558   0.366   1.888 -0.4095  0.0395 -0.1002
   89TMC2     H 1390   1.307   0.558   2.107  0.8472 -0.8413  0.1073
   89TMC2    H1 1391   1.613   0.569   1.819  1.8542 -0.0770  2.3910
   89TMC2    H2 1392   1.549   0.893   2.079  0.2257 -0.2592 -0.3458
   89TMC2    C7 1393   1.708   0.808   1.900  0.5488 -0.4548 -1.0563
   89TMC2    C8 1394   1.363   0.807   2.199  0.0878  0.5229 -0.2092
   89TMC2    O1 1395   1.769   0.855   1.996  0.7010  0.3832  0.4120
   89TMC2    O2 1396   1.357   0.753   2.308 -0.5978 -0.5851 -0.2032
   89TMC2    O5 1397   1.274   0.897   2.158 -0.6238  0.3335 -0.1576
   89TMC2    H5 1398   1.273   0.915   2.062  0.1453  0.4683 -0.1335
   90MPD2     C 1399   1.244   4.682   1.955  0.1379 -0.4144  0.0950
   90MPD2    C1 1400   1.137   0.036   1.930  0.2860  0.6200 -0.6152
   90MPD2    C2 1401   1.164   0.173   1.935 -0.0868 -0.1452 -0.1006
   90MPD2    C3 1402   1.293   0.224   1.948  0.7759  0.4775 -0.4371
   90MPD2    C4 1403   1.396   0.133   1.968 -0.5036  0.5264 -0.5880
   90MPD2    C5 1404   1.370   4.736   1.966 -0.7292  0.5519 -0.1799
   90MPD2     H 1405   1.085   0.243   1.909 -0.7206 -1.3861 -1.4885
   90MPD2    H1 1406   1.497   0.165   1.987 -0.0242 -0.8797 -0.7640
   90MPD2    H2 1407   1.229   4.575   1.954  0.0603 -0.3996 -0.2949
   90MPD2    H3 1408   1.445   4.661   1.987 -1.2511  0.0946  0.0644
   90MPD2     N 1409   1.319   0.365   1.932  0.4106  0.3492 -0.3728
   90MPD2    H5 1410   1.236   0.422   1.946  0.0232  0.3910 -2.8107
   90MPD2    N1 1411   1.002   4.737   1.914 -0.7156  0.2699  0.0291
   90MPD2    H7 1412   0.928   0.067   1.905 -1.6000 -0.5305  1.2084
   91TMC2    C1 1413   1.645   3.754  16.383 -0.2371 -0.5906 -0.1026
   91TMC2    C2 1414   1.726   3.766  16.495 -0.1550  0.1779 -0.8488
   91TMC2    C3 1415   1.709   3.661  16.586  0.6546 -0.3932  0.1945
   91TMC2    C4 1416   1.546   3.663  16.366  0.0535 -0.1542  0.2760
   91TMC2    C5 1417   1.528   3.568  16.463  0.0128 -0.3316  0.2639
   91TMC2    C6 1418   1.610   3.562  16.572  0.0180  0.4499  0.1157
   91TMC2     C 1419   1.639   3.863  16.277 -0.8699  0.6565  0.0471
   91TMC2     O 1420   1.527   3.885  16.237  0.3580  0.0221  0.3342
   91TMC2     H 1421   1.812   3.832  16.496 -0.0109 -0.0571  2.7942
   91TMC2    H1 1422   1.473   3.676  16.287  0.3692  0.7683  0.1383
   91TMC2    H2 1423   1.587   3.493  16.652 -2.3635  1.6106  0.4332
   91TMC2    C7 1424   1.437   3.456  16.440 -0.2532 -0.5155  0.0916
   91TMC2    C8 1425   1.794   3.648  16.702  0.0148  0.5239  0.2733
   91TMC2    O1 1426   1.427   3.382  16.537 -0.1756 -0.4557 -0.2584
   91TMC2    O2 1427   1.795   3.546  16.772  0.5504  0.1200  0.2444
   91TMC2    O5 1428   1.878   3.763  16.722  0.4366 -0.0587 -0.1128
   91TMC2    H5 1429   1.849   3.846  16.678 -1.6076 -0.6307  0.1832
   92MPD2     C 1430   1.642   4.122  16.130 -0.3589 -0.9036  0.0277
   92MPD2    C1 1431   1.754   4.051  16.163  0.1588  0.1192 -0.1791
   92MPD2    C2 1432   1.873   4.089  16.104 -0.9257 -0.2412 -0.3440
   92MPD2    C3 1433   1.876   4.187  16.003 -0.6298 -0.5530 -0.2056
   92MPD2    C4 1434   1.762   4.259  15.978  0.4892  0.4467 -0.2719
   92MPD2    C5 1435   1.647   4.231  16.044 -0.1670 -0.4451 -0.0298
   92MPD2     H 1436   1.963   4.039  16.137 -0.5240 -0.2225 -1.4156
   92MPD2    H1 1437   1.769   4.344  15.910  3.9828  0.2350 -0.2054
   92MPD2    H2 1438   1.548   4.106  16.181 -0.5247 -1.7177 -0.5153
   92MPD2    H3 1439   1.553   4.284  16.029  0.4408  0.3079 -1.2447
   92MPD2     N 1440   2.001   4.213  15.938  0.2293 -0.7512 -0.0911
   92MPD2    H5 1441   2.084   4.189  15.990 -0.3368 -1.1807  0.6180
   92MPD2    N1 1442   1.757   3.934  16.248  0.1660  0.5021 -0.1043
   92MPD2    H7 1443   1.849   3.895  16.263 -0.8308 -1.3455  1.1178
   93TMC2    C1 1444   3.927   4.133  13.801 -0.1009  0.1350 -0.0999
   93TMC2    C2 1445   3.865   4.172  13.684  0.0113  0.1673  0.5200
   93TMC2    C3 1446   3.948   4.214  13.583 -0.5839 -0.2744  0.1124
   93TMC2    C4 1447   4.063   4.142  13.822  0.5607  0.9682 -1.2031
   93TMC2    C5 1448   4.140   4.191  13.721 -0.2738  0.0956 -0.0660
   93TMC2    C6 1449   4.080   4.237  13.602  0.9997 -0.7190  0.5372
   93TMC2     C 1450   3.844   4.069  13.900 -0.2237  0.5099 -0.3053
   93TMC2     O 1451   3.893   4.033  14.005 -0.2659 -1.0507 -0.4518
   93TMC2     H 1452   3.758   4.181  13.672  0.0451 -0.9530 -0.6322
   93TMC2    H1 1453   4.107   4.121  13.919 -0.9070 -1.2304 -1.0116
   93TMC2    H2 1454   4.136   4.274  13.517 -0.5652 -0.9932 -0.6025
   93TMC2    C7 1455   4.277   4.163  13.735 -0.0239 -0.5517 -0.0948
   93TMC2    C8 1456   3.886   4.267  13.467 -0.5769 -1.3396 -0.2394
   93TMC2    O1 1457   4.308   4.084  13.822  0.3182 -0.4084 -0.7637
   93TMC2    O2 1458   3.932   4.355  13.391 -0.1607 -0.2606  0.0007
   93TMC2    O5 1459   3.792   4.175  13.439  0.1043  0.0239  0.0538
   93TMC2    H5 1460   3.793   4.088  13.484 -1.3652 -0.3103 -0.5688
   94MPD2     C 1461   3.627   3.934  14.042  0.6953 -0.2116  0.0864
   94MPD2    C1 1462   3.623   3.963  13.909 -0.1864  0.7106 -1.1055
   94MPD2    C2 1463   3.513   3.917  13.838  0.2365  0.1101  0.1337
   94MPD2    C3 1464   3.408   3.846  13.901 -0.2166  0.2888  0.5415
   94MPD2    C4 1465   3.420   3.817  14.033  0.5104 -0.3356 -0.1658
   94MPD2    C5 1466   3.528   3.857  14.097  0.0143  0.6299  0.0982
   94MPD2     H 1467   3.504   3.929  13.731  1.2373  2.8823  0.3727
   94MPD2    H1 1468   3.343   3.761  14.083  0.8607  0.3490  1.1339
   94MPD2    H2 1469   3.709   3.966  14.105  0.1013 -3.1697  2.3477
   94MPD2    H3 1470   3.539   3.843  14.204  2.5410 -1.0055 -0.3853
   94MPD2     N 1471   3.298   3.817  13.818  0.7084 -0.4011 -0.0538
   94MPD2    H5 1472   3.304   3.832  13.718  0.2249  2.2853  0.3404
   94MPD2    N1 1473   3.726   4.032  13.847  0.4042  0.0849 -0.1163
   94MPD2    H7 1474   3.713   4.050  13.748 -0.4692  0.3803  0.0559
   95TMC2    C1 1475   3.471   1.765  15.421  0.5040  0.3970  0.2484
   95TMC2    C2 1476   3.474   1.827  15.543 -0.5779 -0.0744  0.1845
   95TMC2    C3 1477   3.427   1.953  15.538  0.4062  0.1174 -0.7988
   95TMC2    C4 1478   3.403   1.816  15.308 -0.2021 -0.3660 -0.2935
   95TMC2    C5 1479   3.351   1.944  15.327 -1.0356  0.0709 -0.5405
   95TMC2    C6 1480   3.372   2.019  15.433 -0.2521  0.4029 -0.0406
   95TMC2     C 1481   3.551   1.649  15.411  0.5854  0.3843  0.2252
   95TMC2     O 1482   3.654   1.653  15.476 -0.4736 -0.3795 -0.0011
   95TMC2     H 1483   3.534   1.785  15.623  0.4631  1.3446  0.1586
   95TMC2    H1 1484   3.404   1.763  15.213  0.9109 -0.2789 -0.3257
   95TMC2    H2 1485   3.310   2.108  15.440 -0.0707  0.5327 -0.0987
   95TMC2    C7 1486   3.297   2.008  15.205 -0.4003  0.5580  0.0605
   95TMC2    C8 1487   3.434   2.024  15.662  0.6055 -0.6099 -0.3322
   95TMC2    O1 1488   3.279   1.933  15.110  0.3304  0.2433 -0.0934
   95TMC2    O2 1489   3.451   1.960  15.763  0.3492 -0.6452 -0.0779
   95TMC2    O5 1490   3.442   2.159  15.654  0.6347  0.2525  0.4181
   95TMC2    H5 1491   3.461   2.189  15.562 -0.2742 -0.4169  0.0066
   96MPD2     C 1492   3.671   1.205  15.190 -0.7871 -0.0712  0.2984
   96MPD2    C1 1493   3.742   1.287  15.279  0.5145  0.1598 -0.0232
   96MPD2    C2 1494   3.677   1.404  15.319  0.2657  0.6664 -0.1607
   96MPD2    C3 1495   3.548   1.441  15.278 -0.4211 -0.9401  0.5004
   96MPD2    C4 1496   3.477   1.352  15.200  0.3472 -0.1516 -0.0465
   96MPD2    C5 1497   3.536   1.235  15.162 -0.5914 -0.7333  0.0098
   96MPD2     H 1498   3.739   1.464  15.385  1.2935  1.8987 -2.2516
   96MPD2    H1 1499   3.376   1.374  15.168  1.0866  0.3249 -2.0394
   96MPD2    H2 1500   3.712   1.115  15.147 -1.7261 -0.1040 -0.5300
   96MPD2    H3 1501   3.479   1.165  15.101  0.6698 -0.1575 -1.8436
   96MPD2     N 1502   3.490   1.554  15.332 -0.2619  0.0070 -0.1032
   96MPD2    H5 1503   3.398   1.578  15.297 -0.2901  1.1543  0.7490
   96MPD2    N1 1504   3.870   1.247  15.322 -0.0944 -0.7763  0.1387
   96MPD2    H7 1505   3.906   1.162  15.281 -1.3492 -1.2867  0.0934
   97TMC2    C1 1506   2.397   3.312   0.940  0.2229  0.0409  0.2372
   97TMC2    C2 1507   2.510   3.251   0.983 -0.0116  0.7710 -0.8192
   97TMC2    C3 1508   2.638   3.280   0.932 -0.5436 -0.1907 -0.3887
   97TMC2    C4 1509   2.403   3.392   0.827 -0.7623 -0.8075 -0.2372
   97TMC2    C5 1510   2.528   3.418   0.776  0.0711  0.2149  0.1846
   97TMC2    C6 1511   2.645   3.365   0.825 -1.0230 -0.0913 -0.0788
   97TMC2     C 1512   2.274   3.252   0.986 -0.0637 -0.0588  0.0528
   97TMC2     O 1513   2.285   3.143   1.043  0.0706 -0.1098 -0.1548
   97TMC2     H 1514   2.509   3.172   1.057 -2.7594 -0.1745 -1.8619
   97TMC2    H1 1515   2.314   3.430   0.778 -0.2020  0.3671 -0.3700
   97TMC2    H2 1516   2.736   3.363   0.767 -1.5098 -0.3716 -0.8238
   97TMC2    C7 1517   2.536   3.495   0.656 -0.6786 -0.3384  0.7726
   97TMC2    C8 1518   2.729   3.173   0.905 -0.5195  0.0356 -0.0633
   97TMC2    O1 1519   2.646   3.544   0.641 -0.5932  0.2919  0.0435
   97TMC2    O2 1520   2.693   3.115   0.802 -0.3364 -0.0227  0.3294
   97TMC2    O5 1521   2.846   3.234   0.933 -0.1754  0.1952  0.4572
   97TMC2    H5 1522   2.850   3.278   1.021  0.9877  2.9528 -0.9952
   98MPD2     C 1523   1.780   3.270   1.043 -0.0659  0.4502 -0.3233
   98MPD2    C1 1524   1.819   3.364   0.952 -0.3176 -0.7038  0.4804
   98MPD2    C2 1525   1.952   3.366   0.905  0.1417 -0.0037 -0.2576
   98MPD2    C3 1526   2.040   3.284   0.973  0.2962  1.0730 -0.3053
   98MPD2    C4 1527   2.007   3.189   1.065  0.0785  0.9137 -0.3743
   98MPD2    C5 1528   1.876   3.185   1.101 -0.4572 -0.3727 -0.0795
   98MPD2     H 1529   1.988   3.444   0.838  0.3025 -1.0184 -1.3462
   98MPD2    H1 1530   2.079   3.121   1.110 -1.3457  0.2293  0.8771
   98MPD2    H2 1531   1.684   3.262   1.092  0.8663  0.4165  1.4826
   98MPD2    H3 1532   1.837   3.119   1.178 -0.4508  2.0568  1.9882
   98MPD2     N 1533   2.172   3.314   0.935 -0.6524 -0.3715  0.0375
   98MPD2    H5 1534   2.188   3.391   0.871 -1.5979  0.6315  1.0184
   98MPD2    N1 1535   1.722   3.448   0.900 -0.0534 -0.4865  0.2705
   98MPD2    H7 1536   1.628   3.451   0.938  0.6299 -2.2052  2.0548
   99TMC2    C1 1537   0.312   0.997   1.779 -0.1192 -0.0068 -0.3194
   99TMC2    C2 1538   0.369   1.038   1.894 -0.0855 -0.3368  0.3193
   99TMC2    C3 1539   0.296   1.043   2.010  0.4242 -0.1827 -0.2669
   99TMC2    C4 1540   0.182   0.957   1.775 -0.3574 -0.3051  0.2518
   99TMC2    C5 1541   0.108   0.963   1.889  0.7442 -1.2999 -0.3351
   99TMC2    C6 1542   0.168   1.005   2.006  0.0484 -0.2558 -0.0086
   99TMC2     C 1543   0.389   0.989   1.663 -0.1001 -0.1550  0.1469
   99TMC2     O 1544   0.475   1.075   1.636  0.3546  0.1918 -0.0141
   99TMC2     H 1545   0.474   1.067   1.902 -0.3277  0.6969 -0.3118
   99TMC2    H1 1546   0.131   0.940   1.681  0.5357 -0.7984 -0.1388
   99TMC2    H2 1547   0.107   1.019   2.094 -0.7573  0.5023 -0.6809
   99TMC2    C7 1548   4.714   0.908   1.905 -0.5855 -0.2783 -0.2420
   99TMC2    C8 1549   0.340   1.115   2.126  0.0953  0.3862  0.4585
   99TMC2    O1 1550   4.645   0.943   2.004 -0.4902 -0.1065 -0.4453
   99TMC2    O2 1551   0.398   1.226   2.137  0.4337  0.3447 -0.5325
   99TMC2    O5 1552   0.275   1.059   2.229  0.1387 -0.5259  0.1922
   99TMC2    H5 1553   0.252   0.965   2.211 -1.8970 -0.3571  1.9423
  100MPD2     C 1554   0.556   0.862   1.448 -0.0818 -0.6447  0.3870
  100MPD2    C1 1555   0.431   0.818   1.487  0.3119 -0.0605 -0.6005
  100MPD2    C2 1556   0.370   0.725   1.404 -0.2377 -0.1421  0.7606
  100MPD2    C3 1557   0.443   0.663   1.294 -0.2278  0.2184  0.8637
  100MPD2    C4 1558   0.569   0.711   1.259  0.2305 -0.4196  0.2196
  100MPD2    C5 1559   0.626   0.811   1.338  0.6754  0.4632  0.0525
  100MPD2     H 1560   0.269   0.691   1.423  0.4662 -1.5905  1.9926
  100MPD2    H1 1561   0.622   0.669   1.175  1.6967  0.6716  0.6165
  100MPD2    H2 1562   0.610   0.928   1.516  1.1946 -2.1005  0.7811
  100MPD2    H3 1563   0.728   0.840   1.316  1.0682  0.4159  1.8283
  100MPD2     N 1564   0.374   0.567   1.216 -0.5571 -0.0959 -0.0849
  100MPD2    H5 1565   0.277   0.546   1.234 -1.1772  0.9674 -2.1792
  100MPD2    N1 1566   0.356   0.873   1.593 -0.4765  0.8435 -0.4410
  100MPD2    H7 1567   0.273   0.821   1.618  0.8373 -2.6207 -3.2603
  101TMC2    C1 1568   0.863   1.039  13.020  0.3940 -0.2099 -0.3954
  101TMC2    C2 1569   0.925   0.950  12.938  0.2377 -0.2342  0.1084
  101TMC2    C3 1570   1.001   1.003  12.832 -0.0724  0.2822 -0.2854
  101TMC2    C4 1571   0.873   1.174  12.999 -0.4826 -0.9474 -0.9180
  101TMC2    C5 1572   0.949   1.220  12.890  0.4102  0.5976 -0.3012
  101TMC2    C6 1573   1.007   1.137  12.796  0.1678  0.0341  0.0075
  101TMC2     C 1574   0.763   0.988  13.108  0.2824  0.0199  0.1581
  101TMC2     O 1575   0.680   1.075  13.140 -0.7580 -0.3243 -0.0387
  101TMC2     H 1576   0.927   0.844  12.959 -1.6996 -0.5222 -1.1127
  101TMC2    H1 1577   0.835   1.236  13.078 -0.5186 -0.9400 -0.9411
  101TMC2    H2 1578   1.081   1.176  12.727 -0.4523 -1.6742 -1.6169
  101TMC2    C7 1579   0.980   1.364  12.873  0.1925  0.2341  0.7870
  101TMC2    C8 1580   1.105   0.921  12.771 -0.2624  0.4409  0.0580
  101TMC2    O1 1581   0.996   1.402  12.757  0.3764 -0.3369  0.2959
  101TMC2    O2 1582   1.163   0.955  12.667  0.4535  0.1574 -0.2995
  101TMC2    O5 1583   1.163   0.860  12.876  0.8272  0.6369 -0.1459
  101TMC2    H5 1584   1.124   0.877  12.964  0.2116 -0.5289 -0.1970
  102MPD2     C 1585   0.752   0.667  13.311  0.4231  0.1795  0.1499
  102MPD2    C1 1586   0.711   0.799  13.274  0.3011  0.4857 -0.7870
  102MPD2    C2 1587   0.599   0.855  13.335  0.3062 -0.2971  0.0895
  102MPD2    C3 1588   0.534   0.796  13.447  0.1213 -0.8315 -0.3155
  102MPD2    C4 1589   0.578   0.673  13.484 -0.4151 -0.4566 -0.2546
  102MPD2    C5 1590   0.685   0.607  13.418  0.1120 -0.1156  0.1316
  102MPD2     H 1591   0.568   0.956  13.310 -1.9731 -0.9949  0.1025
  102MPD2    H1 1592   0.534   0.612  13.563  1.0798  0.2037  1.1033
  102MPD2    H2 1593   0.831   0.609  13.266 -0.1765  1.2648 -2.2765
  102MPD2    H3 1594   0.703   0.505  13.450  0.5119 -0.4594 -1.2180
  102MPD2     N 1595   0.424   0.852  13.511 -0.0218  0.0465 -0.0083
  102MPD2    H5 1596   0.369   0.923  13.463  0.5604  1.2911  1.1649
  102MPD2    N1 1597   0.786   0.857  13.168 -0.1762  0.2364 -0.1547
  102MPD2    H7 1598   0.863   0.804  13.129  0.8757  0.8948  1.0543
  103TMC2    C1 1599   3.361   1.808  12.824  0.4111 -0.1014 -0.3830
  103TMC2    C2 1600   3.410   1.865  12.712 -0.2935  0.2299  0.7123
  103TMC2    C3 1601   3.534   1.910  12.700 -0.1151 -0.7408 -0.1483
  103TMC2    C4 1602   3.444   1.786  12.932 -0.9312  0.3447  0.2385
  103TMC2    C5 1603   3.571   1.833  12.923 -0.1557 -0.7713  0.3224
  103TMC2    C6 1604   3.613   1.905  12.813  0.0209 -0.0764  0.2073
  103TMC2     C 1605   3.233   1.740  12.812 -0.1797  0.6161  1.0314
  103TMC2     O 1606   3.159   1.747  12.714  0.3863  0.0123 -0.4994
  103TMC2     H 1607   3.354   1.852  12.620  1.5284 -2.2575 -0.0263
  103TMC2    H1 1608   3.410   1.757  13.030 -0.1899  1.1137  0.7172
  103TMC2    H2 1609   3.712   1.948  12.806  0.8749 -1.6926  2.2041
  103TMC2    C7 1610   3.640   1.853  13.047  0.1424 -0.0029 -0.8375
  103TMC2    C8 1611   3.554   2.033  12.627  0.8119 -0.2116  0.1379
  103TMC2    O1 1612   3.575   1.836  13.148 -0.8681  0.3754  0.0234
  103TMC2    O2 1613   3.629   2.124  12.668  0.0910 -0.4721  0.4895
  103TMC2    O5 1614   3.482   2.036  12.506 -0.1320 -0.4942 -0.2615
  103TMC2    H5 1615   3.418   1.962  12.493  1.6103 -1.8768 -0.9415
  104MPD2     C 1616   3.082   1.538  13.074  0.7272 -0.1983  0.0733
  104MPD2    C1 1617   3.101   1.579  12.946 -0.1884  0.0111  0.6739
  104MPD2    C2 1618   2.999   1.548  12.853 -0.3673 -0.6047 -0.2331
  104MPD2    C3 1619   2.891   1.463  12.877 -0.5234  0.6238 -0.1539
  104MPD2    C4 1620   2.868   1.424  13.010 -0.0170  0.9987  0.2440
  104MPD2    C5 1621   2.967   1.462  13.097  0.0099 -0.0373  0.0181
  104MPD2     H 1622   3.021   1.567  12.749  1.0789  1.7972  0.5192
  104MPD2    H1 1623   2.780   1.368  13.040  0.6323 -0.5017 -0.6321
  104MPD2    H2 1624   3.139   1.570  13.161  2.4516 -1.0643 -0.7224
  104MPD2    H3 1625   2.945   1.451  13.202  0.5721  1.8392  0.3164
  104MPD2     N 1626   2.803   1.430  12.775  0.4490 -0.5792  0.1228
  104MPD2    H5 1627   2.829   1.461  12.682  0.5427 -1.3414 -0.1090
  104MPD2    N1 1628   3.214   1.657  12.919  0.4963  0.3339  0.1970
  104MPD2    H7 1629   3.286   1.670  12.989 -1.9745  1.1102  2.5666
  105TMC2    C1 1630   0.514   0.873   0.344 -0.7073 -0.3348 -0.5856
  105TMC2    C2 1631   0.395   0.902   0.277 -0.4683 -0.0506 -0.2298
  105TMC2    C3 1632   0.283   0.916   0.356  0.8571 -0.4288 -0.7900
  105TMC2    C4 1633   0.529   0.864   0.480  0.1137 -0.4296  0.1596
  105TMC2    C5 1634   0.416   0.881   0.542  0.3914 -0.8929 -0.0990
  105TMC2    C6 1635   0.290   0.921   0.491  0.2103 -0.6676 -0.6300
  105TMC2     C 1636   0.629   0.865   0.267  0.3994 -0.1589  0.2917
  105TMC2     O 1637   0.714   0.783   0.295 -0.1453 -0.0905  0.0221
  105TMC2     H 1638   0.386   0.874   0.172 -2.7865  0.9076 -0.2986
  105TMC2    H1 1639   0.629   0.844   0.517  1.3382  2.4165 -1.6511
  105TMC2    H2 1640   0.200   0.920   0.552  1.7422 -1.1517  1.6213
  105TMC2    C7 1641   0.432   0.892   0.680 -0.5858 -0.7335 -0.0766
  105TMC2    C8 1642   0.156   0.927   0.288 -0.0755  0.3875 -0.0728
  105TMC2    O1 1643   0.529   0.842   0.729 -0.0567 -0.1910 -0.6241
  105TMC2    O2 1644   0.051   0.898   0.341  1.2257 -0.0542 -0.1259
  105TMC2    O5 1645   0.166   1.000   0.177  0.4258 -0.3464 -0.6375
  105TMC2    H5 1646   0.256   1.007   0.138  1.3190  0.8400  1.6566
  106MPD2     C 1647   0.862   0.916  17.564 -0.2987 -0.1410 -0.2186
  106MPD2    C1 1648   0.765   1.016  17.575 -0.4132  0.9445  0.6174
  106MPD2    C2 1649   0.695   1.025  17.690 -0.7833  0.4662 -0.1351
  106MPD2    C3 1650   0.716   0.942   0.044 -0.1584  0.4558  0.1985
  106MPD2    C4 1651   0.817   0.851   0.039  0.3962 -0.5275  0.9163
  106MPD2    C5 1652   0.884   0.836  17.672 -0.2826 -0.0687 -0.2521
  106MPD2     H 1653   0.614   1.098  17.691 -1.2688 -0.0767 -0.2344
  106MPD2    H1 1654   0.845   0.782   0.118 -1.7095 -1.6172  0.7048
  106MPD2    H2 1655   0.926   0.903  17.478 -1.9673 -0.2178 -1.4326
  106MPD2    H3 1656   0.944   0.747  17.659  3.1092  2.3159 -0.8600
  106MPD2     N 1657   0.623   0.951   0.155 -0.3436 -0.4201  0.2567
  106MPD2    H5 1658   0.547   1.019   0.160 -1.2867 -1.5586  1.1296
  106MPD2    N1 1659   0.714   1.086  17.467 -0.0989  0.2746 -0.6108
  106MPD2    H7 1660   0.630   1.141  17.478  1.0339  2.2504 -1.7444
  107TMC2    C1 1661   0.970   0.311  11.486  0.2110 -0.5013 -0.3838
  107TMC2    C2 1662   0.989   0.399  11.379  0.1404 -0.4669 -0.5310
  107TMC2    C3 1663   1.039   0.342  11.261 -0.4517 -0.2894  0.6375
  107TMC2    C4 1664   1.007   0.178  11.476 -0.3032 -0.4252 -0.3464
  107TMC2    C5 1665   1.051   0.128  11.357 -0.6516 -0.0333 -0.7771
  107TMC2    C6 1666   1.061   0.207  11.246 -0.3861  0.6029  0.2035
  107TMC2     C 1667   0.919   0.365  11.614 -0.4805 -0.3953  0.0509
  107TMC2     O 1668   0.906   0.277  11.705  0.2090 -0.1459  0.0423
  107TMC2     H 1669   0.979   0.507  11.372 -0.1428 -0.5823 -1.9422
  107TMC2    H1 1670   1.004   0.120  11.567 -1.8194  0.4180  0.1325
  107TMC2    H2 1671   1.097   0.170  11.151 -1.6709  1.5431 -0.6496
  107TMC2    C7 1672   1.109   4.731  11.349 -0.3359  0.4073  0.7194
  107TMC2    C8 1673   1.004   0.421  11.145 -0.1252  0.0769 -0.3927
  107TMC2    O1 1674   1.083   4.662  11.444 -0.1310 -0.3456 -0.0304
  107TMC2    O2 1675   1.014   0.544  11.140  0.2911  0.2943 -0.2449
  107TMC2    O5 1676   0.928   0.340  11.068  0.2700  0.1371 -0.3163
  107TMC2    H5 1677   0.912   0.253  11.110  0.6183 -0.7496 -2.0058
  108MPD2     C 1678   0.773   0.690  11.691  0.4984  0.5761 -0.2763
  108MPD2    C1 1679   0.829   0.568  11.720 -0.3647 -0.4033  0.7306
  108MPD2    C2 1680   0.851   0.532  11.849 -0.1660 -0.0037 -0.0880
  108MPD2    C3 1681   0.785   0.608  11.947 -0.6568  0.5306  0.3508
  108MPD2    C4 1682   0.718   0.723  11.923 -0.2649 -0.0346  0.0328
  108MPD2    C5 1683   0.716   0.765  11.788 -0.2724 -0.5492  0.3624
  108MPD2     H 1684   0.908   0.444  11.875  2.7921  2.4053  1.5977
  108MPD2    H1 1685   0.664   0.772  12.003  1.3499  1.3979  0.2556
  108MPD2    H2 1686   0.764   0.725  11.589 -1.4365  1.4502  0.2116
  108MPD2    H3 1687   0.670   0.862  11.769  0.5623 -0.1141  0.5744
  108MPD2     N 1688   0.782   0.567  12.083  0.0009 -0.0910 -0.5224
  108MPD2    H5 1689   0.713   0.613  12.141  0.0642 -0.8696  0.1684
  108MPD2    N1 1690   0.880   0.494  11.607  0.2494  0.1972  0.0506
  108MPD2    H7 1691   0.880   0.532  11.512  0.8219 -0.8788 -0.3813
  109TMC2    C1 1692   1.048   4.475   0.918 -0.3178 -0.9063 -0.8554
  109TMC2    C2 1693   0.951   4.549   0.846 -0.4170 -0.1544  0.1291
  109TMC2    C3 1694   0.946   4.534   0.714  0.1399 -0.3380  0.6929
  109TMC2    C4 1695   1.150   4.408   0.851 -0.3841 -0.0953 -0.2318
  109TMC2    C5 1696   1.144   4.404   0.717  0.0491 -0.3312  0.1118
  109TMC2    C6 1697   1.045   4.467   0.645 -0.1771  0.0320 -0.2154
  109TMC2     C 1698   1.007   4.437   1.047  0.0693  0.0805 -0.3900
  109TMC2     O 1699   0.943   4.517   1.113  0.1811  0.4215  0.1996
  109TMC2     H 1700   0.875   4.600   0.904  0.4687  1.8269 -0.4582
  109TMC2    H1 1701   1.237   4.369   0.902  1.5456  1.3441 -2.4474
  109TMC2    H2 1702   1.040   4.457   0.537  1.9056  2.6660 -0.5480
  109TMC2    C7 1703   1.243   4.327   0.647  0.4086 -0.0474 -0.2098
  109TMC2    C8 1704   0.836   4.584   0.636  0.3614  0.1687  0.2277
  109TMC2    O1 1705   1.207   4.267   0.546 -0.1183  0.3558 -0.3768
  109TMC2    O2 1706   0.808   4.553   0.521 -0.6046 -0.5519 -0.5867
  109TMC2    O5 1707   0.829   4.714   0.667  0.1949 -0.4392 -0.5486
  109TMC2    H5 1708   0.878   0.004   0.747  1.4764 -0.8154 -1.1919
  110MPD2     C 1709   0.950   4.072   1.412  0.6781  0.8220 -0.4071
  110MPD2    C1 1710   0.985   4.017   1.289 -0.4680 -0.5131 -0.5035
  110MPD2    C2 1711   1.015   4.102   1.188 -0.6254 -0.4323 -0.1173
  110MPD2    C3 1712   1.012   4.243   1.198 -0.0742 -0.0706 -0.0454
  110MPD2    C4 1713   0.983   4.299   1.321 -0.6021  0.0463  0.5090
  110MPD2    C5 1714   0.951   4.213   1.422  0.1656  0.0072 -0.3368
  110MPD2     H 1715   1.045   4.065   1.091 -0.0707  0.5082 -0.3031
  110MPD2    H1 1716   0.966   4.406   1.330 -2.6423 -0.0679 -1.7603
  110MPD2    H2 1717   0.933   4.011   1.500  0.2947  0.2257 -0.8966
  110MPD2    H3 1718   0.925   4.260   1.516  2.1194  0.3982 -0.0072
  110MPD2     N 1719   1.050   4.309   1.078  0.6058 -0.2127 -0.1683
  110MPD2    H5 1720   1.088   4.252   1.003  0.0763  0.3020 -0.8222
  110MPD2    N1 1721   0.983   3.879   1.260  0.4126  0.0552 -0.4370
  110MPD2    H7 1722   1.007   3.858   1.163 -0.6467  0.3586 -0.7634
  111TMC2    C1 1723   0.596   2.231  11.647 -0.2710 -0.0963 -0.0371
  111TMC2    C2 1724   0.472   2.225  11.708 -0.0178  0.0386 -0.7167
  111TMC2    C3 1725   0.458   2.145  11.817  0.0834  0.3938 -0.0952
  111TMC2    C4 1726   0.705   2.171  11.701 -0.2820 -0.4406  0.1965
  111TMC2    C5 1727   0.689   2.088  11.812  1.1128  0.5318  0.0599
  111TMC2    C6 1728   0.568   2.080  11.877 -0.8119  0.6737 -0.7654
  111TMC2     C 1729   0.623   2.333  11.555  0.0248 -0.2062 -0.2675
  111TMC2     O 1730   0.735   2.331  11.504  0.5816 -0.1305  0.6647
  111TMC2     H 1731   0.380   2.261  11.664 -0.7019  0.1098  0.7557
  111TMC2    H1 1732   0.799   2.182  11.648 -0.7316 -2.2766 -0.9696
  111TMC2    H2 1733   0.560   2.001  11.950 -0.7356 -0.9461 -2.5214
  111TMC2    C7 1734   0.806   2.045  11.883 -0.0446  0.1866 -0.2242
  111TMC2    C8 1735   0.330   2.090  11.834 -0.0546 -0.1870  0.0658
  111TMC2    O1 1736   0.783   2.052  12.004  0.3369 -0.0880  0.1630
  111TMC2    O2 1737   0.238   2.106  11.757 -0.1918 -0.9394  0.1516
  111TMC2    O5 1738   0.310   2.071  11.967 -0.4491 -0.1372  0.0859
  111TMC2    H5 1739   0.395   2.066  12.014 -0.2884 -1.2946 -0.3101
  112MPD2     C 1740   0.492   2.751  11.287  0.3994 -0.5339  0.5153
  112MPD2    C1 1741   0.602   2.675  11.269  0.6358 -0.1777 -0.3979
  112MPD2    C2 1742   0.616   2.564  11.360  0.0480  0.3097 -0.2690
  112MPD2    C3 1743   0.523   2.546  11.464 -0.5124  0.2109  0.2222
  112MPD2    C4 1744   0.426   2.641  11.484  0.2668  0.2730  0.3200
  112MPD2    C5 1745   0.416   2.742  11.395 -0.7500  0.2286  0.1284
  112MPD2     H 1746   0.697   2.493  11.356  0.5890  0.8910  0.3123
  112MPD2    H1 1747   0.344   2.638  11.556 -0.6430 -4.7215 -0.9260
  112MPD2    H2 1748   0.470   2.826  11.212 -0.7514  0.0984  1.4727
  112MPD2    H3 1749   0.338   2.815  11.412 -0.9574  0.2063 -0.7015
  112MPD2     N 1750   0.533   2.437  11.554  0.0634 -0.6069 -0.8555
  112MPD2    H5 1751   0.469   2.441  11.633  3.6179 -0.7550  2.0033
  112MPD2    N1 1752   0.680   2.694  11.153 -0.2532  0.2358  0.4804
  112MPD2    H7 1753   0.666   2.774  11.091  3.0491  0.6698  0.2925
  113TMC2    C1 1754   3.962   0.707   0.639  0.1174 -0.1525  0.2246
  113TMC2    C2 1755   3.914   0.820   0.578 -0.1079 -0.5037 -0.3176
  113TMC2    C3 1756   3.829   0.801   0.469  0.2756  0.0307  0.3872
  113TMC2    C4 1757   3.912   0.584   0.605 -0.2157  0.0823  0.8954
  113TMC2    C5 1758   3.818   0.570   0.510  0.6291  0.3373 -0.1061
  113TMC2    C6 1759   3.777   0.679   0.438 -0.1845 -0.4077  0.1111
  113TMC2     C 1760   4.051   0.720   0.755  0.4421  0.1670  0.1780
  113TMC2     O 1761   4.038   0.827   0.811 -0.2205 -0.0248  0.7231
  113TMC2     H 1762   3.951   0.919   0.605 -0.4429 -0.1915 -0.9892
  113TMC2    H1 1763   3.933   0.494   0.663 -3.5007 -0.1156  1.8124
  113TMC2    H2 1764   3.693   0.653   0.375 -0.6675 -0.1894  0.6614
  113TMC2    C7 1765   3.762   0.436   0.487  0.2461  1.0666  0.8112
  113TMC2    C8 1766   3.773   0.921   0.412 -0.0288 -0.4879 -0.5272
  113TMC2    O1 1767   3.702   0.423   0.382  0.0527 -0.0569 -1.0033
  113TMC2    O2 1768   3.795   1.031   0.465 -0.4383  0.5065 -0.3453
  113TMC2    O5 1769   3.774   0.904   0.276  0.0029 -0.0715 -0.3465
  113TMC2    H5 1770   3.782   0.809   0.251  0.5719  0.1519 -0.9955
  114MPD2     C 1771   4.403   0.556   1.098  0.1622  0.1875 -0.1839
  114MPD2    C1 1772   4.308   0.654   1.102  0.2626 -0.2304  0.4371
  114MPD2    C2 1773   4.226   0.678   0.996  0.2355  0.2376  0.1747
  114MPD2    C3 1774   4.229   0.596   0.886  0.2941  0.4022  0.0000
  114MPD2    C4 1775   4.310   0.486   0.890  0.1050 -0.4591  0.0444
  114MPD2    C5 1776   4.403   0.472   0.986  0.0833 -0.5011 -0.7849
  114MPD2     H 1777   4.161   0.764   1.007  0.7432  0.6913 -0.3906
  114MPD2    H1 1778   4.302   0.410   0.812 -0.4610 -0.1498 -0.1988
  114MPD2    H2 1779   4.457   0.528   1.187 -1.5289  2.0687  1.4395
  114MPD2    H3 1780   4.468   0.385   0.979 -0.8913 -1.3962  1.1475
  114MPD2     N 1781   4.135   0.614   0.776  0.2987  0.7900 -0.1520
  114MPD2    H5 1782   4.132   0.541   0.706  0.0171 -0.5713  1.2690
  114MPD2    N1 1783   4.300   0.750   1.208  0.2290 -0.1501  0.4070
  114MPD2    H7 1784   4.215   0.804   1.198 -0.5711 -1.4042  0.4345
  115TMC2    C1 1785   0.315   3.364   0.152 -0.0900 -0.6031  0.1508
  115TMC2    C2 1786   0.447   3.322   0.154  0.2567 -0.6227 -0.5513
  115TMC2    C3 1787   0.546   3.419   0.153 -0.8213  1.0187  0.3357
  115TMC2    C4 1788   0.280   3.495   0.158 -0.1310  1.0553  0.5952
  115TMC2    C5 1789   0.381   3.586   0.144  0.5604  0.6224 -0.6749
  115TMC2    C6 1790   0.512   3.555   0.146  0.0594  0.1712 -0.6271
  115TMC2     C 1791   0.210   3.271   0.117  0.1928  0.0805 -0.7659
  115TMC2     O 1792   0.237   3.152   0.098 -0.2263 -0.6283 -0.0227
  115TMC2     H 1793   0.461   3.220   0.122 -0.0090 -0.2222 -1.9293
  115TMC2    H1 1794   0.179   3.530   0.178 -0.0998  1.3498  0.2356
  115TMC2    H2 1795   0.588   3.633   0.142  2.2897 -1.9876 -0.7677
  115TMC2    C7 1796   0.349   3.722   0.102  0.1589 -0.4327 -0.9079
  115TMC2    C8 1797   0.690   3.392   0.173 -0.6490  0.4276 -0.0799
  115TMC2    O1 1798   0.251   3.775   0.142 -0.0956 -0.5964 -0.0297
  115TMC2    O2 1799   0.789   3.456   0.146 -0.4244 -0.2698 -0.0411
  115TMC2    O5 1800   0.687   3.263   0.212  0.2321 -0.4095  0.0506
  115TMC2    H5 1801   0.605   3.216   0.238  0.2938  1.2642  3.3203
  116MPD2     C 1802   4.446   3.185   0.002 -0.1139  0.1206 -0.3986
  116MPD2    C1 1803   4.558   3.102  17.744 -0.7635  0.0792 -0.0990
  116MPD2    C2 1804   4.686   3.138   0.018  0.2811  0.0388 -0.7700
  116MPD2    C3 1805   4.702   3.269   0.061  0.1287 -0.7435 -0.2154
  116MPD2    C4 1806   4.591   3.355   0.066 -0.9442  0.0071  0.4545
  116MPD2    C5 1807   4.468   3.309   0.047 -0.3238 -0.1105 -0.0280
  116MPD2     H 1808   0.033   3.071   0.016  0.8170  0.7365 -1.3812
  116MPD2    H1 1809   4.602   3.457   0.101  0.2159 -0.3251  1.0527
  116MPD2    H2 1810   4.342   3.169  17.727 -0.1504 -1.9457  0.8901
  116MPD2    H3 1811   4.390   3.383   0.058 -1.9034 -1.7473 -0.1439
  116MPD2     N 1812   0.084   3.329   0.103 -0.5614  0.4074  0.0160
  116MPD2    H5 1813   0.080   3.429   0.120 -0.6294  0.5030 -0.5764
  116MPD2    N1 1814   4.529   2.975  17.694  0.8723  0.5071 -0.0250
  116MPD2    H7 1815   4.432   2.960  17.671  0.9149  2.5221 -1.5792
  117TMC2    C1 1816   3.085   4.237  13.470 -0.0765  0.1996  0.2652
  117TMC2    C2 1817   3.212   4.203  13.503  0.5081 -0.1136  0.2284
  117TMC2    C3 1818   3.275   4.256  13.612  0.4447 -0.2293 -0.0722
  117TMC2    C4 1819   3.012   4.311  13.555  0.1779  0.7257 -0.2087
  117TMC2    C5 1820   3.076   4.367  13.662 -0.5020 -0.9374 -0.4105
  117TMC2    C6 1821   3.207   4.344  13.700 -0.4997  0.8321 -0.2338
  117TMC2     C 1822   3.026   4.192  13.342 -0.5069  0.9562 -0.1964
  117TMC2     O 1823   3.087   4.110  13.278  0.0289  0.2861  0.3108
  117TMC2     H 1824   3.266   4.127  13.449  0.4889  0.1752 -0.1950
  117TMC2    H1 1825   2.912   4.349  13.535 -0.6752 -1.1419  0.3997
  117TMC2    H2 1826   3.261   4.400  13.775 -0.2379 -0.1328  0.2933
  117TMC2    C7 1827   3.023   4.468  13.748  0.3137  0.0630  0.1981
  117TMC2    C8 1828   3.420   4.237  13.621  0.3153 -0.4993 -0.6148
  117TMC2    O1 1829   3.098   4.522  13.824  0.3713 -0.1485 -0.2069
  117TMC2    O2 1830   3.487   4.203  13.521 -0.2525  0.5112  0.0494
  117TMC2    O5 1831   3.453   4.223  13.752 -0.2067  0.2231 -0.2613
  117TMC2    H5 1832   3.383   4.244  13.817  0.2948  1.2887 -0.0655
  118MPD2     C 1833   2.670   4.567  13.797 -0.0242 -0.7266  0.5710
  118MPD2    C1 1834   2.808   4.570  13.820  0.5983 -0.1289 -0.0162
  118MPD2    C2 1835   2.858   4.662  13.914 -0.3801  0.3140  0.1094
  118MPD2    C3 1836   2.776   0.002  13.991 -0.0890 -0.0810 -0.5873
  118MPD2    C4 1837   2.645   0.007  13.959  0.4346 -0.3376 -0.0614
  118MPD2    C5 1838   2.595   4.650  13.867 -0.6283  0.0974  0.2221
  118MPD2     H 1839   2.965   4.654  13.928 -0.0851  2.9737 -0.7260
  118MPD2    H1 1840   2.574   0.075  14.004  1.9516  2.1017 -1.3461
  118MPD2    H2 1841   2.626   4.488  13.738  3.6840 -3.1847  1.0489
  118MPD2    H3 1842   2.491   4.652  13.839 -0.3150  0.1805 -0.9321
  118MPD2     N 1843   2.833   0.087  14.094 -0.4871  0.2844  0.0504
  118MPD2    H5 1844   2.781   0.162  14.137  1.0609  0.9822  0.7165
  118MPD2    N1 1845   2.883   4.481  13.737  0.4766  0.7626 -0.1003
  118MPD2    H7 1846   2.828   4.425  13.672  2.7028 -2.6844  0.9651
  119TMC2    C1 1847   1.115   0.558  13.428  0.0595  0.4535 -0.1203
  119TMC2    C2 1848   1.168   0.472  13.336  0.0023 -0.0744 -0.0124
  119TMC2    C3 1849   1.103   0.357  13.316  0.2158 -0.3360  0.4978
  119TMC2    C4 1850   1.018   0.510  13.516 -0.3696  0.0663  0.1628
  119TMC2    C5 1851   0.954   0.398  13.484  0.7051  0.0629  0.2417
  119TMC2    C6 1852   0.988   0.319  13.382  0.2873  1.3686 -0.1756
  119TMC2     C 1853   1.203   0.654  13.493 -0.7971  0.3153  0.9440
  119TMC2     O 1854   1.160   0.699  13.604  0.0443 -0.1474  0.4646
  119TMC2     H 1855   1.262   0.489  13.286 -0.7669  3.1240 -0.3621
  119TMC2    H1 1856   0.977   0.574  13.594  1.1835  0.3921  0.7017
  119TMC2    H2 1857   0.948   0.219  13.369  0.7288  1.2671 -0.7613
  119TMC2    C7 1858   0.857   0.342  13.575 -0.4548 -0.2650 -0.0834
  119TMC2    C8 1859   1.182   0.266  13.238 -0.7121  0.5648  0.5664
  119TMC2    O1 1860   0.773   0.272  13.523 -0.3411 -0.1369 -0.0711
  119TMC2    O2 1861   1.300   0.288  13.209  0.2880  0.6145 -0.1331
  119TMC2    O5 1862   1.096   0.196  13.159  0.1558 -0.6614 -0.5244
  119TMC2    H5 1863   0.999   0.213  13.159  0.4177  0.7214 -4.6237
  120MPD2     C 1864   1.669   0.791  13.626 -0.3418 -0.1873 -0.3454
  120MPD2    C1 1865   1.555   0.790  13.696  0.5917  0.5152  0.2753
  120MPD2    C2 1866   1.435   0.765  13.631 -0.0587  0.1765 -0.0192
  120MPD2    C3 1867   1.438   0.725  13.497  0.2230 -0.1846  0.2206
  120MPD2    C4 1868   1.556   0.719  13.428 -0.1069  0.2312  0.5648
  120MPD2    C5 1869   1.668   0.754  13.495  0.1225 -0.1729 -0.5703
  120MPD2     H 1870   1.351   0.770  13.698 -0.1849 -1.1252 -0.0696
  120MPD2    H1 1871   1.574   0.678  13.329 -2.1875  0.6695  0.0032
  120MPD2    H2 1872   1.760   0.791  13.685  0.2340  1.1659 -1.2360
  120MPD2    H3 1873   1.760   0.728  13.444  0.3952  1.7642 -1.0500
  120MPD2     N 1874   1.323   0.679  13.427 -0.0972 -0.3072 -0.4327
  120MPD2    H5 1875   1.324   0.672  13.326  1.6230 -1.1906 -0.3549
  120MPD2    N1 1876   1.558   0.815  13.834 -0.0091 -0.0870 -0.3126
  120MPD2    H7 1877   1.647   0.800  13.880 -0.5576  1.4273  1.2530
  121TMC2    C1 1878   3.159   2.912  14.319 -0.0145  0.6190 -0.4911
  121TMC2    C2 1879   3.207   2.888  14.441  0.3213 -0.2986 -0.6152
  121TMC2    C3 1880   3.193   2.761  14.491  0.1272  0.2448 -0.1365
  121TMC2    C4 1881   3.092   2.819  14.246  0.3022  0.0924 -0.3632
  121TMC2    C5 1882   3.082   2.693  14.295 -0.1169  0.1920 -0.3445
  121TMC2    C6 1883   3.131   2.661  14.421 -0.7133  0.6805  0.2033
  121TMC2     C 1884   3.172   3.041  14.264 -0.5312  0.4432  0.2274
  121TMC2     O 1885   3.157   3.126  14.350 -0.0768 -0.0997  0.3523
  121TMC2     H 1886   3.252   2.967  14.500  1.4141  0.3481 -2.3122
  121TMC2    H1 1887   3.058   2.840  14.145 -1.6297  1.8331  0.6386
  121TMC2    H2 1888   3.101   2.571  14.475 -0.1108  0.2678 -0.1528
  121TMC2    C7 1889   2.988   2.594  14.236  0.2235  0.4712  0.2261
  121TMC2    C8 1890   3.208   2.749  14.637  0.4108  0.1483 -0.2048
  121TMC2    O1 1891   3.017   2.476  14.220 -0.8467  0.2622  0.6473
  121TMC2    O2 1892   3.201   2.841  14.715  0.6543 -0.6203 -0.4286
  121TMC2    O5 1893   3.238   2.620  14.665  0.0319 -0.2103 -0.0533
  121TMC2    H5 1894   3.254   2.559  14.590  1.0065  0.7087 -0.5961
  122MPD2     C 1895   3.190   3.280  14.106 -0.9609 -0.0434  0.4059
  122MPD2    C1 1896   3.222   3.159  14.056  0.4519  0.4135  0.3126
  122MPD2    C2 1897   3.282   3.157  13.929 -0.8563 -0.5340 -0.1238
  122MPD2    C3 1898   3.325   3.279  13.866 -0.6435  0.2411 -0.0419
  122MPD2    C4 1899   3.309   3.400  13.932  0.1526  0.2777 -0.2149
  122MPD2    C5 1900   3.232   3.395  14.048  0.0370  0.6953  0.4096
  122MPD2     H 1901   3.304   3.068  13.873 -0.9924 -0.5743 -0.1132
  122MPD2    H1 1902   3.337   3.492  13.883  1.2552  0.3302  0.5188
  122MPD2    H2 1903   3.118   3.284  14.186  0.4284 -1.1447  1.7097
  122MPD2    H3 1904   3.193   3.484  14.098 -1.3944  0.9131 -1.1250
  122MPD2     N 1905   3.389   3.287  13.741  0.3112  0.3097  0.2485
  122MPD2    H5 1906   3.394   3.380  13.702  1.2714  0.0649 -0.2081
  122MPD2    N1 1907   3.204   3.039  14.130  0.1452  0.3053 -0.3067
  122MPD2    H7 1908   3.232   2.953  14.086  0.2033  0.6466 -0.9378
  123TMC2    C1 1909   1.507   0.874   9.331  0.4320  0.2112  0.0659
  123TMC2    C2 1910   1.634   0.862   9.301  0.3100  0.6676 -0.4217
  123TMC2    C3 1911   1.715   0.816   9.401 -0.5545  0.2560  0.5972
  123TMC2    C4 1912   1.454   0.821   9.445  0.6576 -0.3937  0.0772
  123TMC2    C5 1913   1.541   0.778   9.542 -0.5904  0.6024 -0.1062
  123TMC2    C6 1914   1.675   0.773   9.526  0.5752  1.0310 -0.0115
  123TMC2     C 1915   1.410   0.907   9.222  0.3444  0.8194  0.7276
  123TMC2     O 1916   1.464   0.910   9.115 -0.0004  0.2771 -0.3378
  123TMC2     H 1917   1.686   0.899   9.214 -2.0379 -1.3332 -2.6655
  123TMC2    H1 1918   1.349   0.796   9.441  0.4336  0.2637  1.8194
  123TMC2    H2 1919   1.736   0.715   9.594 -2.0335  0.4691  1.8088
  123TMC2    C7 1920   1.488   0.720   9.667 -0.0523  0.5291  0.1472
  123TMC2    C8 1921   1.852   0.790   9.365  0.6583 -0.4429 -0.3517
  123TMC2    O1 1922   1.564   0.667   9.749  0.0535 -0.0628  0.2790
  123TMC2    O2 1923   1.877   0.755   9.250  0.3368  0.0742  0.1745
  123TMC2    O5 1924   1.933   0.780   9.472  0.2694  0.2770 -0.2131
  123TMC2    H5 1925   1.888   0.790   9.559  2.6349 -1.2011  1.1920
  124MPD2     C 1926   0.988   1.062   8.988 -0.1167  0.3474 -0.2318
  124MPD2    C1 1927   0.960   1.050   9.122  0.2223 -0.0757 -0.4110
  124MPD2    C2 1928   1.059   1.013   9.211  0.3937 -0.1669 -0.7693
  124MPD2    C3 1929   1.180   0.972   9.166  1.5122 -0.1622 -0.2482
  124MPD2    C4 1930   1.200   0.962   9.027  0.1498 -0.1069 -0.1491
  124MPD2    C5 1931   1.104   1.015   8.944 -0.0900 -0.2941  0.2373
  124MPD2     H 1932   1.036   1.004   9.317  2.3941 -3.3223 -0.5891
  124MPD2    H1 1933   1.296   0.935   8.984  0.1627  1.4890 -1.1210
  124MPD2    H2 1934   0.920   1.111   8.920  1.3736  1.4476 -0.9314
  124MPD2    H3 1935   1.124   1.027   8.839  0.1479 -1.5400  0.1487
  124MPD2     N 1936   1.283   0.953   9.260 -0.1636 -0.3123 -0.2972
  124MPD2    H5 1937   1.257   0.961   9.358  2.0762  0.6490  0.2248
  124MPD2    N1 1938   0.826   1.090   9.158 -0.1970  0.5313  0.1517
  124MPD2    H7 1939   0.779   1.132   9.079 -1.2625 -1.3522 -0.2012
  125TMC2    C1 1940   1.675   3.602   9.662  0.0771 -0.0439 -0.6091
  125TMC2    C2 1941   1.646   3.623   9.533 -0.0908  0.1805 -1.1452
  125TMC2    C3 1942   1.728   3.569   9.442  0.0425  0.0999  0.2186
  125TMC2    C4 1943   1.771   3.516   9.703  0.8492 -0.6197 -0.3008
  125TMC2    C5 1944   1.855   3.463   9.612  0.0803  0.1213 -0.0603
  125TMC2    C6 1945   1.827   3.483   9.474  0.5119 -0.3688 -0.0519
  125TMC2     C 1946   1.610   3.694   9.758 -0.1219  0.0719  0.0868
  125TMC2     O 1947   1.508   3.751   9.731 -0.4168 -0.1168  0.8769
  125TMC2     H 1948   1.554   3.677   9.510 -0.0773  1.1645  1.0870
  125TMC2    H1 1949   1.771   3.491   9.809  3.4140 -2.3585 -0.7098
  125TMC2    H2 1950   1.901   3.441   9.407  1.7809 -0.8677  1.6764
  125TMC2    C7 1951   1.916   3.338   9.653 -0.0058 -0.1710  0.0788
  125TMC2    C8 1952   1.698   3.587   9.297 -0.0402  0.2051  0.0598
  125TMC2    O1 1953   1.874   3.271   9.747  0.3967 -0.1716  0.4519
  125TMC2    O2 1954   1.723   3.501   9.216 -0.7014 -0.2832  0.4721
  125TMC2    O5 1955   1.723   3.716   9.275 -0.1065 -0.3674 -0.1374
  125TMC2    H5 1956   1.726   3.762   9.362 -1.3213  1.6473 -1.1608
  126MPD1     C 1957   1.544   3.875  10.229  0.0335  0.1081 -1.0575
  126MPD1    C1 1958   1.650   3.788  10.240  0.1636  0.1137  0.0987
  126MPD1    C2 1959   1.703   3.737  10.123 -0.2564  0.0164 -0.5122
  126MPD1    C3 1960   1.636   3.756  10.002  0.3117  0.2157 -0.1120
  126MPD1    C4 1961   1.526   3.836   9.999  0.3372 -0.6967 -0.1627
  126MPD1    C5 1962   1.474   3.886  10.117 -0.7803 -0.8734  0.3124
  126MPD1     H 1963   1.788   3.669  10.124  0.4424  0.9025 -0.1251
  126MPD1    H1 1964   1.475   3.858   9.907 -2.5440 -0.0313  1.6153
  126MPD1    H2 1965   1.500   3.924  10.316  1.7708  1.2971 -0.8311
  126MPD1    H3 1966   1.392   3.957  10.123  0.8681  1.0243  0.2597
  126MPD1     N 1967   1.678   3.694   9.883  0.8671 -0.2239 -0.6320
  126MPD1    H5 1968   1.773   3.659   9.879  1.0611  0.2447 -0.1938
  126MPD1    N1 1969   1.723   3.780  10.358 -0.3123  0.2595 -0.5418
  126MPD1    H6 1970   1.762   3.687  10.373 -0.5444  0.0673 -1.1273
  126MPD1    H7 1971   1.654   3.787  10.432 -0.0001 -1.5528 -0.0562
  127TMC2    C1 1972   3.375   2.267   9.776  0.3587  0.0246  0.3058
  127TMC2    C2 1973   3.441   2.270   9.900 -0.5134  0.0917  0.8625
  127TMC2    C3 1974   3.382   2.205   9.999  0.2618 -0.1977 -0.6649
  127TMC2    C4 1975   3.246   2.229   9.758  0.0069  0.0524 -0.1490
  127TMC2    C5 1976   3.190   2.156   9.859  0.1206 -0.4294  0.6212
  127TMC2    C6 1977   3.260   2.134   9.972  0.0297  0.1553 -0.3414
  127TMC2     C 1978   3.448   2.320   9.665 -0.5289  0.2814 -0.0452
  127TMC2     O 1979   3.536   2.401   9.688  0.4451 -0.4420  0.3397
  127TMC2     H 1980   3.542   2.309   9.908 -0.8423  0.9929  0.6646
  127TMC2    H1 1981   3.196   2.239   9.662  1.1349  0.0073 -0.7325
  127TMC2    H2 1982   3.211   2.088  10.058  0.8831  0.1936  0.1711
  127TMC2    C7 1983   3.072   2.083   9.833 -1.2096  0.2315  0.2822
  127TMC2    C8 1984   3.455   2.176  10.119 -0.3214  0.1985  0.2192
  127TMC2    O1 1985   2.980   2.150   9.779  0.0655  0.3196 -0.4381
  127TMC2    O2 1986   3.407   2.097  10.198  0.2543 -0.3609  0.2869
  127TMC2    O5 1987   3.584   2.177  10.093  0.5167  0.5323 -1.0660
  127TMC2    H5 1988   3.598   2.242  10.022  0.7051  0.5511 -1.0110
  128MPD2     C 1989   3.411   2.228   9.295  0.0560  0.8979 -0.2891
  128MPD2    C1 1990   3.448   2.304   9.407 -1.0538 -0.7705 -0.2405
  128MPD2    C2 1991   3.539   2.415   9.381 -0.0727 -0.3776 -0.6014
  128MPD2    C3 1992   3.588   2.435   9.257 -0.1305  0.8166 -0.2797
  128MPD2    C4 1993   3.561   2.351   9.150  0.4719  0.0673 -0.6740
  128MPD2    C5 1994   3.461   2.261   9.170 -0.3764 -0.0318 -0.0667
  128MPD2     H 1995   3.552   2.483   9.465 -2.4536 -0.9418  0.2272
  128MPD2    H1 1996   3.591   2.362   9.046  0.4689 -0.7114 -0.7575
  128MPD2    H2 1997   3.355   2.135   9.303  0.4582  0.6459 -0.3545
  128MPD2    H3 1998   3.437   2.198   9.085 -0.8796  2.3294 -1.7051
  128MPD2     N 1999   3.676   2.547   9.232 -0.4672 -0.2198  0.1764
  128MPD2    H5 2000   3.673   2.621   9.302  0.6995  0.3788 -0.4066
  128MPD2    N1 2001   3.406   2.269   9.537 -0.1246  0.4570  0.1135
  128MPD2    H7 2002   3.333   2.198   9.543 -0.1725  0.4070 -1.0232
  129TMC2    C1 2003   2.475   1.797   1.697 -0.0317 -0.3799  0.3666
  129TMC2    C2 2004   2.534   1.858   1.806  0.1855  0.0295 -0.7298
  129TMC2    C3 2005   2.513   1.802   1.923 -0.5022 -1.1563  0.5074
  129TMC2    C4 2006   2.402   1.682   1.717  0.6202  0.2895 -0.4731
  129TMC2    C5 2007   2.398   1.631   1.838 -1.2142 -0.5318  0.0666
  129TMC2    C6 2008   2.452   1.680   1.946 -0.0170  0.5961  0.2353
  129TMC2     C 2009   2.544   1.818   1.569  0.4313  0.7001  0.4883
  129TMC2     O 2010   2.520   1.733   1.484 -0.0686 -0.4496  0.3029
  129TMC2     H 2011   2.591   1.950   1.798  0.2866 -0.0836 -1.3310
  129TMC2    H1 2012   2.369   1.631   1.627 -0.9272  0.6127 -0.0790
  129TMC2    H2 2013   2.461   1.622   2.038 -0.9717  0.1725  0.0668
  129TMC2    C7 2014   2.296   1.528   1.849  0.7608 -0.7966  0.0448
  129TMC2    C8 2015   2.567   1.868   2.038  0.2179 -0.1810  0.2376
  129TMC2    O1 2016   2.229   1.508   1.752 -0.5529 -0.5143  0.1140
  129TMC2    O2 2017   2.636   1.811   2.125 -0.5516 -0.1274 -0.1718
  129TMC2    O5 2018   2.529   1.996   2.031 -0.2211 -0.1522  0.1759
  129TMC2    H5 2019   2.472   2.021   1.955  2.0165  1.5565 -0.9258
  130MPD2     C 2020   2.717   1.933   1.359  0.8358 -0.3294  0.1223
  130MPD2    C1 2021   2.664   2.005   1.458 -0.2660  0.7585  0.4083
  130MPD2    C2 2022   2.685   2.137   1.469 -0.1906 -0.1316 -0.0435
  130MPD2    C3 2023   2.751   2.203   1.364 -0.5896 -0.6271 -0.3365
  130MPD2    C4 2024   2.810   2.127   1.267 -0.9438  0.1018 -0.1261
  130MPD2    C5 2025   2.789   1.993   1.258 -0.3909 -0.6263  0.6818
  130MPD2     H 2026   2.641   2.189   1.553  2.1028 -1.7758  2.1977
  130MPD2    H1 2027   2.878   2.167   1.193  0.0741  1.0086  1.2988
  130MPD2    H2 2028   2.703   1.826   1.366 -0.8924 -0.1327 -0.3452
  130MPD2    H3 2029   2.839   1.924   1.191  1.3241  1.0974  0.1716
  130MPD2     N 2030   2.758   2.347   1.373 -0.3613  0.3381  0.1495
  130MPD2    H5 2031   2.705   2.386   1.451  0.9408 -0.3591  1.3621
  130MPD2    N1 2032   2.586   1.952   1.563 -0.0430  0.4619 -0.6918
  130MPD2    H7 2033   2.552   2.013   1.637  4.2303  0.3526  1.3099
  131TMC2    C1 2034   1.084   1.969   9.209 -0.5148 -0.1191 -0.0018
  131TMC2    C2 2035   1.214   1.929   9.191 -0.3034  0.3535  0.5267
  131TMC2    C3 2036   1.314   2.022   9.187 -0.3148 -0.3776 -0.6239
  131TMC2    C4 2037   1.055   2.104   9.220  0.3533  1.0552  0.0473
  131TMC2    C5 2038   1.162   2.193   9.235 -0.1431  0.1570 -0.1302
  131TMC2    C6 2039   1.288   2.152   9.212  0.5809  0.1080 -0.4357
  131TMC2     C 2040   0.978   1.870   9.203 -0.3313 -0.2432 -0.8292
  131TMC2     O 2041   1.015   1.748   9.208  0.7574  0.3987  0.0843
  131TMC2     H 2042   1.233   1.823   9.179 -1.9617  0.0954  0.1985
  131TMC2    H1 2043   0.953   2.136   9.234  0.0803 -0.0712  0.6701
  131TMC2    H2 2044   1.370   2.222   9.201  0.1663  0.3898 -1.7428
  131TMC2    C7 2045   1.135   2.337   9.244 -0.4653  0.0402 -0.1357
  131TMC2    C8 2046   1.441   1.982   9.134 -0.0026 -0.2145  0.0084
  131TMC2    O1 2047   1.023   2.370   9.208 -0.2417  0.1839  0.2779
  131TMC2    O2 2048   1.494   2.050   9.047 -0.3021 -0.0965 -0.2168
  131TMC2    O5 2049   1.461   1.854   9.148  0.5053  0.7325 -0.0672
  131TMC2    H5 2050   1.405   1.829   9.225  0.5233  0.8101 -0.0278
  132MPD2     C 2051   0.612   1.920   9.148  0.0564  0.1307  0.1415
  132MPD2    C1 2052   0.725   1.847   9.187 -0.2603 -0.5028  0.0856
  132MPD2    C2 2053   0.712   1.710   9.206 -0.2271  0.4443  0.3485
  132MPD2    C3 2054   0.589   1.657   9.198 -0.3069  0.0050  0.2679
  132MPD2    C4 2055   0.475   1.729   9.162 -0.6049 -0.3643 -0.1734
  132MPD2    C5 2056   0.492   1.862   9.130  1.1292  0.8135 -0.2164
  132MPD2     H 2057   0.795   1.653   9.245 -1.2288  0.6686  2.7600
  132MPD2    H1 2058   0.376   1.690   9.142 -2.0062  3.0244  0.1589
  132MPD2    H2 2059   0.624   2.027   9.134  0.1604 -0.1721 -2.0628
  132MPD2    H3 2060   0.415   1.931   9.100  1.0175  1.0124  0.5378
  132MPD2     N 2061   0.578   1.515   9.232  0.1653  0.0104  0.3942
  132MPD2    H5 2062   0.668   1.471   9.248  0.9468  1.3204 -0.3719
  132MPD2    N1 2063   0.848   1.919   9.191  0.4991 -0.2327 -0.4008
  132MPD2    H7 2064   0.846   2.019   9.177  0.9167 -0.1395  0.2257
  133TMC2    C1 2065   4.572   1.200   9.811  0.0349  0.5300  0.7882
  133TMC2    C2 2066   4.465   1.285   9.822  0.2859  0.0998 -0.8956
  133TMC2    C3 2067   4.345   1.221   9.847  0.2615  0.8661 -0.2426
  133TMC2    C4 2068   4.558   1.062   9.807  0.0188 -0.6739 -0.1762
  133TMC2    C5 2069   4.439   1.009   9.842 -0.2629  0.2027  0.0816
  133TMC2    C6 2070   4.328   1.086   9.863  0.5544 -0.5913  0.4049
  133TMC2     C 2071   4.697   1.259   9.770 -0.8984 -0.5479  0.0091
  133TMC2     O 2072   4.687   1.367   9.718  0.3499  0.1126  0.3543
  133TMC2     H 2073   4.476   1.393   9.822 -1.0151  0.2364 -0.2031
  133TMC2    H1 2074   4.647   1.003   9.789  0.7039  0.1961  0.3359
  133TMC2    H2 2075   4.227   1.052   9.884  0.7422 -2.6194 -1.8953
  133TMC2    C7 2076   4.417   0.866   9.818 -0.5283  1.0479 -0.6701
  133TMC2    C8 2077   4.238   1.310   9.887  0.6331 -0.2060  0.5212
  133TMC2    O1 2078   4.300   0.839   9.803  0.9981  0.4312 -0.2672
  133TMC2    O2 2079   4.235   1.426   9.843 -0.2612 -0.3140  0.5568
  133TMC2    O5 2080   4.180   1.265   9.999  0.2636  0.1196 -0.6496
  133TMC2    H5 2081   4.213   1.175  10.022 -0.7298  0.1867  1.0781
  134MPD2     C 2082   0.308   1.141   9.821  0.4762 -0.7212  0.9985
  134MPD2    C1 2083   0.207   1.224   9.770  0.8751 -0.3954 -0.0313
  134MPD2    C2 2084   0.248   1.334   9.694  0.6646 -0.2392 -0.2655
  134MPD2    C3 2085   0.385   1.373   9.681 -0.1575 -0.0276  0.0248
  134MPD2    C4 2086   0.480   1.295   9.744  0.2915 -0.4310 -0.2445
  134MPD2    C5 2087   0.442   1.179   9.808 -0.4077 -0.6115  0.7749
  134MPD2     H 2088   0.169   1.394   9.649 -0.4188 -0.7553  0.9274
  134MPD2    H1 2089   0.582   1.331   9.741 -0.3394  1.2488 -1.4914
  134MPD2    H2 2090   0.300   1.055   9.887 -2.8305 -1.6722 -0.6793
  134MPD2    H3 2091   0.527   1.129   9.853 -0.0879 -2.0047 -1.3504
  134MPD2     N 2092   0.433   1.492   9.625 -0.2775 -0.2835 -0.1806
  134MPD2    H5 2093   0.532   1.511   9.634  0.1884 -2.3311 -1.0408
  134MPD2    N1 2094   0.069   1.185   9.806  0.1771 -0.8227 -0.3363
  134MPD2    H7 2095   0.056   1.095   9.851  3.6766  0.2933  2.8257
  135TMC2    C1 2096   2.355   3.502   9.711 -0.2988  0.6294  0.8431
  135TMC2    C2 2097   2.245   3.564   9.764  0.1702 -0.9592 -0.2261
  135TMC2    C3 2098   2.202   3.514   9.886 -0.0565 -0.8143  0.1027
  135TMC2    C4 2099   2.438   3.417   9.779  0.7178  0.2660  0.2907
  135TMC2    C5 2100   2.391   3.372   9.898  0.4982  0.5163 -0.4085
  135TMC2    C6 2101   2.270   3.422   9.955 -0.6068 -0.4098 -0.1686
  135TMC2     C 2102   2.383   3.548   9.570 -0.7562 -0.6177  0.6638
  135TMC2     O 2103   2.312   3.631   9.517 -0.0294 -0.4342 -0.1708
  135TMC2     H 2104   2.187   3.635   9.706 -2.2931 -2.1354  0.7948
  135TMC2    H1 2105   2.518   3.362   9.731  0.3444  0.8125 -0.9681
  135TMC2    H2 2106   2.223   3.389  10.046 -1.4434  0.7769 -0.1632
  135TMC2    C7 2107   2.453   3.261   9.961  0.0438 -0.5837  0.1812
  135TMC2    C8 2108   2.094   3.585   9.945 -0.0296  0.1947  0.7650
  135TMC2    O1 2109   2.546   3.212   9.901 -0.1874 -0.0067  0.3658
  135TMC2    O2 2110   1.981   3.582   9.897  0.0609 -0.7868 -0.2614
  135TMC2    O5 2111   2.117   3.602  10.076  0.7801  0.1245  0.1750
  135TMC2    H5 2112   2.213   3.603  10.094  1.1170  1.0660 -1.6074
  136MPD2     C 2113   2.461   3.557   9.290  0.7914  0.1450  0.3300
  136MPD2    C1 2114   2.548   3.534   9.391 -0.4257 -0.5852 -0.0069
  136MPD2    C2 2115   2.680   3.514   9.352 -0.1422  0.2172  0.1479
  136MPD2    C3 2116   2.733   3.520   9.227 -0.0931 -0.2920 -0.3548
  136MPD2    C4 2117   2.646   3.546   9.134  0.3109  1.2296 -0.5776
  136MPD2    C5 2118   2.513   3.568   9.160 -0.5994 -0.5799  0.5687
  136MPD2     H 2119   2.745   3.487   9.435  1.8763  0.3629 -1.4040
  136MPD2    H1 2120   2.670   3.563   9.029  0.8724  3.1298 -0.1297
  136MPD2    H2 2121   2.356   3.582   9.296  1.0600  0.9781  1.5297
  136MPD2    H3 2122   2.441   3.595   9.084  1.5975 -2.4930 -2.1424
  136MPD2     N 2123   2.871   3.496   9.203  0.5801  0.3687  0.1294
  136MPD2    H5 2124   2.892   3.503   9.104 -0.8343 -0.6681 -0.2539
  136MPD2    N1 2125   2.509   3.512   9.522 -0.2935 -0.1160 -0.1360
  136MPD2    H7 2126   2.581   3.495   9.592 -1.1843  0.1542  0.8414
  137TMC2    C1 2127   2.674   2.623   9.245 -0.2850  0.9946  0.1316
  137TMC2    C2 2128   2.789   2.624   9.174  1.3993  0.0515 -0.7850
  137TMC2    C3 2129   2.793   2.729   9.090  0.3401  0.3349  0.7370
  137TMC2    C4 2130   2.564   2.702   9.227  0.1056  0.6357  0.1827
  137TMC2    C5 2131   2.575   2.803   9.134  0.2563 -0.0609 -0.1841
  137TMC2    C6 2132   2.693   2.818   9.070  0.1060 -0.2990 -0.6113
  137TMC2     C 2133   2.662   2.525   9.348 -0.7300 -0.0861 -0.1950
  137TMC2     O 2134   2.658   2.559   9.465  0.3340 -0.5104 -0.4540
  137TMC2     H 2135   2.877   2.569   9.202  0.5597 -0.1431  1.4676
  137TMC2    H1 2136   2.476   2.664   9.277  1.2308 -0.7274  1.1273
  137TMC2    H2 2137   2.712   2.903   9.006 -2.7981  0.9330  0.1423
  137TMC2    C7 2138   2.462   2.887   9.085  0.2399  0.2589  0.2020
  137TMC2    C8 2139   2.922   2.783   9.061  0.4741 -0.5603  0.4033
  137TMC2    O1 2140   2.493   2.947   8.980 -0.1764  0.0648 -0.1394
  137TMC2    O2 2141   2.946   2.862   8.968  0.0716  0.5757  0.2110
  137TMC2    O5 2142   2.951   2.816   9.187  0.1098 -0.2229 -0.1757
  137TMC2    H5 2143   2.893   2.780   9.258 -1.2715  0.2815 -1.0476
  138MPD2     C 2144   2.645   2.169   9.288 -0.2460 -0.3245 -0.2322
  138MPD2    C1 2145   2.655   2.281   9.365 -0.3113 -0.6840  0.1912
  138MPD2    C2 2146   2.637   2.275   9.505  0.4512 -0.2233 -0.0284
  138MPD2    C3 2147   2.613   2.155   9.569  0.8512 -0.2194  0.3396
  138MPD2    C4 2148   2.615   2.041   9.489  0.2568 -0.5712 -0.1633
  138MPD2    C5 2149   2.630   2.051   9.353  0.1389 -0.1254 -0.0668
  138MPD2     H 2150   2.645   2.367   9.562  0.1272  0.0904 -0.4900
  138MPD2    H1 2151   2.599   1.941   9.527  0.2739 -0.7457 -0.6150
  138MPD2    H2 2152   2.665   2.176   9.182 -1.0026 -0.6040 -0.3971
  138MPD2    H3 2153   2.624   1.959   9.296 -1.5912  1.6820 -2.8079
  138MPD2     N 2154   2.599   2.161   9.710  0.3453  0.5058 -0.2596
  138MPD2    H5 2155   2.595   2.248   9.762  1.9013  0.8039 -0.6436
  138MPD2    N1 2156   2.669   2.401   9.297 -0.0733 -0.1881 -1.0400
  138MPD2    H7 2157   2.674   2.399   9.195 -0.6991 -0.6540 -1.0605
  139TMC2    C1 2158   3.377   0.648  13.646 -0.0844 -1.1855  0.4632
  139TMC2    C2 2159   3.409   0.726  13.546 -0.0751 -0.2527 -0.0863
  139TMC2    C3 2160   3.367   0.850  13.548  0.2409 -0.1960  0.0855
  139TMC2    C4 2161   3.312   0.693  13.764  0.4904 -0.0471 -0.2049
  139TMC2    C5 2162   3.264   0.816  13.758 -0.3014  0.4270 -0.5311
  139TMC2    C6 2163   3.294   0.900  13.651 -0.3276 -0.2670  0.3760
  139TMC2     C 2164   3.404   0.504  13.620  0.3752  0.2961 -0.4493
  139TMC2     O 2165   3.453   0.474  13.511 -0.4456 -0.1345 -0.5890
  139TMC2     H 2166   3.468   0.679  13.468 -0.0042  0.2803 -0.3491
  139TMC2    H1 2167   3.313   0.637  13.857 -1.2240 -0.1494 -0.2543
  139TMC2    H2 2168   3.259   1.002  13.645 -0.3769 -0.4240 -2.0092
  139TMC2    C7 2169   3.172   0.869  13.853  0.2204  0.8206  0.0232
  139TMC2    C8 2170   3.384   0.938  13.432  0.1472  0.0665 -0.6850
  139TMC2    O1 2171   3.185   0.988  13.871  0.1049  0.5115  0.4368
  139TMC2    O2 2172   3.348   0.900  13.322 -0.3852  0.2890  0.1156
  139TMC2    O5 2173   3.414   1.068  13.457  0.8152 -0.4237 -0.6377
  139TMC2    H5 2174   3.449   1.061  13.548 -3.3850  0.9015  1.1065
  140MPD2     C 2175   3.261   0.216  13.803 -0.3375  0.6299 -0.4647
  140MPD2    C1 2176   3.344   0.278  13.706  0.1034 -0.1520 -0.0208
  140MPD2    C2 2177   3.411   0.199  13.613  0.1300 -0.1994 -0.0396
  140MPD2    C3 2178   3.401   0.063  13.617  0.6373  0.5310  0.8573
  140MPD2    C4 2179   3.324   0.001  13.713  0.2439 -0.7640 -0.0694
  140MPD2    C5 2180   3.257   0.076  13.805  0.8787 -0.2064  0.0372
  140MPD2     H 2181   3.477   0.253  13.545  1.0673 -0.1720  0.9024
  140MPD2    H1 2182   3.302   4.634  13.718  0.8513 -0.9789 -1.6956
  140MPD2    H2 2183   3.208   0.272  13.880 -0.0172 -0.6157  0.6623
  140MPD2    H3 2184   3.199   0.018  13.876 -0.7585  1.9641  0.4651
  140MPD2     N 2185   3.464   4.734  13.511 -0.8620 -0.4624 -0.5331
  140MPD2    H5 2186   3.514   0.053  13.444  0.1052 -0.1168  0.4775
  140MPD2    N1 2187   3.348   0.419  13.711 -0.3146  0.0347 -0.6426
  140MPD2    H7 2188   3.290   0.449  13.789  0.4671 -1.8306  0.6614
  141TMC2    C1 2189   3.602   1.538  14.621 -0.0397 -0.0019 -0.0861
  141TMC2    C2 2190   3.685   1.438  14.656  0.1720  0.1832 -0.0063
  141TMC2    C3 2191   3.722   1.430  14.787  0.5163  0.2450  0.1308
  141TMC2    C4 2192   3.548   1.622  14.707  0.0605  0.0485 -0.4664
  141TMC2    C5 2193   3.585   1.621  14.840  0.6291 -0.3455  0.2847
  141TMC2    C6 2194   3.675   1.516  14.881 -0.2083 -0.2483 -0.2320
  141TMC2     C 2195   3.594   1.580  14.482  0.0141  0.7734 -0.3055
  141TMC2     O 2196   3.614   1.702  14.473  0.2233  0.2731 -0.5588
  141TMC2     H 2197   3.732   1.383  14.575 -0.4497 -0.5624  0.1412
  141TMC2    H1 2198   3.481   1.700  14.672  0.8551  0.5132 -0.9349
  141TMC2    H2 2199   3.709   1.509  14.984 -0.1511 -0.1432 -0.2434
  141TMC2    C7 2200   3.581   1.746  14.902 -0.5400 -0.0801 -0.1809
  141TMC2    C8 2201   3.793   1.308  14.822 -0.3687  0.1110  1.2469
  141TMC2    O1 2202   3.484   1.813  14.865  0.3702 -0.5060 -0.3134
  141TMC2    O2 2203   3.856   1.311  14.929 -0.1500 -0.0973 -0.3747
  141TMC2    O5 2204   3.713   1.203  14.785  0.6871 -0.4879 -0.2060
  141TMC2    H5 2205   3.646   1.219  14.716  1.3088  0.0182 -0.6979
  142TMC2    C1 2206   1.301   0.205  10.396  0.5898  0.7993 -0.2497
  142TMC2    C2 2207   1.417   0.196  10.461  0.2193 -0.7202  0.8389
  142TMC2    C3 2208   1.517   0.287  10.427  0.1291 -0.0899  1.1836
  142TMC2    C4 2209   1.289   0.288  10.284 -0.0694 -0.1604 -0.7214
  142TMC2    C5 2210   1.396   0.361  10.250 -0.6584  0.4526  0.2601
  142TMC2    C6 2211   1.510   0.374  10.320  0.0072 -0.2524 -0.1210
  142TMC2     C 2212   1.183   0.116  10.428 -0.5924  0.0570  0.3840
  142TMC2     O 2213   1.094   0.119  10.342  0.1705  0.4003  0.0525
  142TMC2     H 2214   1.438   0.113  10.528  0.9055 -0.3357  1.0950
  142TMC2    H1 2215   1.194   0.296  10.233 -0.5638 -1.8957 -0.0873
  142TMC2    H2 2216   1.588   0.448  10.308  0.5045 -1.1281 -2.3483
  142TMC2    C7 2217   1.400   0.442  10.123  0.2657  0.8314 -0.0691
  142TMC2    C8 2218   1.638   0.264  10.498  0.0923  0.2624  0.1387
  142TMC2    O1 2219   1.511   0.463  10.072 -0.3527  0.5588  0.6175
  142TMC2    O2 2220   1.645   0.191  10.598  0.0555 -0.1063 -0.4442
  142TMC2    O5 2221   1.734   0.344  10.440 -0.0987 -0.1397 -0.7123
  142TMC2    H5 2222   1.718   0.390  10.355 -0.5584  1.4936  0.2498
  143MPD2     C 2223   0.956   4.457  10.612  0.6276 -0.6843 -1.2365
  143MPD2    C1 2224   0.897   4.562  10.549  0.3196 -0.1773  0.1579
  143MPD2    C2 2225   0.987   4.661  10.516  0.2327 -0.6312 -0.1139
  143MPD2    C3 2226   1.119   4.654  10.546 -0.0866  0.1416  0.6739
  143MPD2    C4 2227   1.167   4.542  10.614 -0.0729  0.9101  1.2471
  143MPD2    C5 2228   1.087   4.435  10.649 -0.4611  0.2392  0.1275
  143MPD2     H 2229   0.950   0.004  10.456 -0.2978 -1.6913 -1.2375
  143MPD2    H1 2230   1.271   4.529  10.643 -0.2512  0.5283  1.7168
  143MPD2    H2 2231   0.889   4.374  10.630  0.3963 -0.1186  0.4381
  143MPD2    H3 2232   1.120   4.344  10.698 -0.1772  0.4477  0.3200
  143MPD2     N 2233   1.210   0.014  10.520  0.2871  0.3414  0.1661
  143MPD2    H5 2234   1.301   0.004  10.562  0.4582 -1.5995 -0.6661
  143MPD2    N1 2235   0.762   4.552  10.511 -0.0261 -0.1192  0.3032
  143MPD2    H7 2236   0.710   4.471  10.543 -0.2080  0.5332  1.6668
  144TMC2    C1 2237   4.737   4.310   0.634 -0.2380 -0.2503  0.8137
  144TMC2    C2 2238   0.003   4.183   0.680 -0.9313  0.0336  0.3575
  144TMC2    C3 2239   0.114   4.151   0.755  0.1933  0.4827  0.2405
  144TMC2    C4 2240   0.086   4.414   0.663 -0.6593 -0.0120  0.4732
  144TMC2    C5 2241   0.190   4.374   0.736  0.6267  0.1157  0.5488
  144TMC2    C6 2242   0.207   4.252   0.784 -0.0663  0.0726  0.1680
  144TMC2     C 2243   4.627   4.345   0.548  0.1189  0.0657 -0.7380
  144TMC2     O 2244   4.642   4.439   0.471  0.3847  0.4388  0.2260
  144TMC2     H 2245   4.676   4.103   0.648  0.2934 -0.1339 -1.7372
  144TMC2    H1 2246   0.086   4.515   0.624 -0.4418 -1.2259 -2.6803
  144TMC2    H2 2247   0.298   4.236   0.840 -1.5338  0.0410  2.5701
  144TMC2    C7 2248   0.261   4.474   0.811 -0.4176  0.2782 -0.0331
  144TMC2    C8 2249   0.136   4.011   0.791 -1.1146  0.5620  0.1646
  144TMC2    O1 2250   0.382   4.455   0.822  0.6586 -0.3341  0.1429
  144TMC2    O2 2251   0.133   3.916   0.713  0.3634 -0.0792  0.2281
  144TMC2    O5 2252   0.193   4.004   0.916  0.3223  0.5148 -0.0054
  144TMC2    H5 2253   0.187   4.083   0.973 -0.6300  0.4440 -0.0085
  145MPD2     C 2254   4.168   4.301   0.340 -0.2581 -0.1507  1.7474
  145MPD2    C1 2255   4.292   4.315   0.275  0.1232  0.0076 -0.2697
  145MPD2    C2 2256   4.401   4.319   0.354 -0.6010  0.3949 -0.4160
  145MPD2    C3 2257   4.401   4.285   0.491 -0.3799 -0.2521 -0.3611
  145MPD2    C4 2258   4.279   4.259   0.547 -0.2539 -0.5921  0.0108
  145MPD2    C5 2259   4.168   4.270   0.473  0.2812  0.3509 -0.1247
  145MPD2     H 2260   4.492   4.326   0.297  1.2484 -0.5662  2.4477
  145MPD2    H1 2261   4.273   4.214   0.646 -0.9065 -1.3457 -0.3798
  145MPD2    H2 2262   4.076   4.303   0.282  0.4959 -0.9146  0.5294
  145MPD2    H3 2263   4.072   4.251   0.519 -0.7134  1.8498 -1.6026
  145MPD2     N 2264   4.512   4.268   0.568  0.3423 -0.4690  0.1267
  145MPD2    H5 2265   4.507   4.198   0.641 -0.2538  2.2396  2.6591
  145MPD2    N1 2266   4.302   4.344   0.139 -0.1210 -0.8975  0.7789
  145MPD2    H7 2267   4.395   4.331   0.100 -0.2086  0.4225  0.1379
  146TMC2    C1 2268   0.960   3.071  12.540  0.2173  0.1593 -1.0150
  146TMC2    C2 2269   0.924   3.103  12.414  0.1441 -0.3462 -0.1208
  146TMC2    C3 2270   0.998   3.053  12.309  0.8309  0.0487  0.7965
  146TMC2    C4 2271   1.068   2.996  12.573 -0.6652 -0.1587 -0.0803
  146TMC2    C5 2272   1.140   2.948  12.465 -0.0342 -0.6808 -0.2043
  146TMC2    C6 2273   1.109   2.976  12.335 -0.1293 -0.2552  0.0690
  146TMC2     C 2274   0.868   3.099  12.645 -0.4731  0.1591 -0.1723
  146TMC2     O 2275   0.794   3.197  12.631 -0.2639 -0.6671 -0.0759
  146TMC2     H 2276   0.833   3.160  12.400  0.6863  0.1555 -1.5843
  146TMC2    H1 2277   1.107   2.988  12.674 -0.3320 -1.6304 -0.3279
  146TMC2    H2 2278   1.165   2.941  12.250 -1.0423 -0.0858 -0.6070
  146TMC2    C7 2279   1.271   2.892  12.486 -0.4433 -0.4483 -0.0123
  146TMC2    C8 2280   0.988   3.109  12.174  0.7610 -0.2015 -0.4893
  146TMC2    O1 2281   1.344   2.883  12.387  0.7888 -0.2887 -0.0860
  146TMC2    O2 2282   1.042   3.052  12.078  0.1287 -0.2001  0.4325
  146TMC2    O5 2283   0.963   3.242  12.180  0.0628 -0.1987 -0.0472
  146TMC2    H5 2284   0.937   3.278  12.267  0.7281  2.0165 -0.7763
  147MPD2     C 2285   1.624   2.638  12.761 -0.5116  0.6483  0.3308
  147MPD2    C1 2286   1.504   2.625  12.819 -0.2266 -0.0893 -0.0935
  147MPD2    C2 2287   1.388   2.686  12.764 -0.1590 -0.5609  0.0793
  147MPD2    C3 2288   1.396   2.763  12.648  0.2513 -0.4455  0.0967
  147MPD2    C4 2289   1.520   2.773  12.584 -0.3313  1.0405  1.0947
  147MPD2    C5 2290   1.626   2.705  12.641 -0.5583  0.3987  0.3906
  147MPD2     H 2291   1.301   2.675  12.827  0.8697  1.3953  1.8489
  147MPD2    H1 2292   1.538   2.838  12.499 -0.1702 -1.7650 -1.0139
  147MPD2    H2 2293   1.720   2.607  12.800 -0.6037 -0.9607 -0.7574
  147MPD2    H3 2294   1.723   2.715  12.595 -0.9234 -1.2467 -0.7274
  147MPD2     N 2295   1.281   2.837  12.609 -0.1683  0.2147 -0.5454
  147MPD2    H5 2296   1.200   2.841  12.671  1.6553  1.6636  1.7682
  147MPD2    N1 2297   1.503   2.547  12.942  0.3354 -0.1611  0.7380
  147MPD2    H7 2298   1.592   2.509  12.971 -1.2263 -3.6637  0.9715
  148TMC2    C1 2299   0.757   1.890  10.515  0.7747 -0.0578 -0.5937
  148TMC2    C2 2300   0.857   1.936  10.590 -0.1362  0.0832 -0.1120
  148TMC2    C3 2301   0.923   1.850  10.665  1.1059  0.4618 -0.5453
  148TMC2    C4 2302   0.735   1.756  10.495  0.3969 -0.1092  0.3813
  148TMC2    C5 2303   0.816   1.666  10.566 -0.4967  0.6009  0.7810
  148TMC2    C6 2304   0.913   1.714  10.656  0.6255  0.3404  0.6811
  148TMC2     C 2305   0.672   1.972  10.430 -0.2058  0.7279  0.5907
  148TMC2     O 2306   0.730   2.072  10.387 -0.3972 -0.0476 -0.3241
  148TMC2     H 2307   0.870   2.043  10.591  3.5999 -0.3831  0.3447
  148TMC2    H1 2308   0.674   1.718  10.414  0.6679  0.9597 -0.3146
  148TMC2    H2 2309   0.969   1.644  10.717 -1.2883 -1.3809  0.4658
  148TMC2    C7 2310   0.816   1.527  10.529  0.4370  0.3492 -0.2394
  148TMC2    C8 2311   1.007   1.906  10.764 -0.3989  0.2659 -0.4249
  148TMC2    O1 2312   0.741   1.498  10.442 -0.2005  0.4384 -0.2461
  148TMC2    O2 2313   1.041   2.023  10.757 -0.0883 -0.1398  0.0650
  148TMC2    O5 2314   0.973   1.846  10.881  0.5235 -0.6125  0.0952
  148TMC2    H5 2315   0.910   1.773  10.864  1.6261 -1.5834  0.1684
  149MPD2     C 2316   0.527   2.045  10.178  0.5463 -0.0363  0.1624
  149MPD2    C1 2317   0.480   1.953  10.273  0.2190 -0.5586  0.2673
  149MPD2    C2 2318   0.361   1.886  10.244 -0.2263 -0.2379 -0.4781
  149MPD2    C3 2319   0.275   1.928  10.146  0.3226 -0.4774 -0.0083
  149MPD2    C4 2320   0.322   2.015  10.057 -0.0962 -0.6247  0.3871
  149MPD2    C5 2321   0.446   2.073  10.074 -0.3630  0.1849  0.1867
  149MPD2     H 2322   0.339   1.800  10.307  2.4819 -0.3090  0.4015
  149MPD2    H1 2323   0.257   2.062   9.984  0.7632 -0.4066 -0.2378
  149MPD2    H2 2324   0.617   2.102  10.193 -0.9625  2.5078 -0.4334
  149MPD2    H3 2325   0.484   2.141   9.998 -2.3659 -0.5857 -1.5335
  149MPD2     N 2326   0.147   1.869  10.124 -0.3008 -0.1448  0.3757
  149MPD2    H5 2327   0.104   1.890  10.035 -0.1574  1.0858  0.5848
  149MPD2    N1 2328   0.549   1.914  10.385  0.2469 -0.1896 -0.9714
  149MPD2    H7 2329   0.508   1.837  10.436  0.0922  0.1411 -0.5896
  150TMC2    C1 2330   2.102   0.963  12.043 -0.0891  0.0717 -0.7425
  150TMC2    C2 2331   2.155   0.887  11.942  0.0210 -0.0172  0.1234
  150TMC2    C3 2332   2.290   0.861  11.956 -0.1556  0.4228  0.7194
  150TMC2    C4 2333   2.174   1.012  12.149  0.1841  0.0171  0.0983
  150TMC2    C5 2334   2.308   0.992  12.151 -0.0508 -0.2221 -0.0918
  150TMC2    C6 2335   2.368   0.912  12.059 -0.2050 -0.1722  0.4163
  150TMC2     C 2336   1.958   0.950  12.058  0.4679 -0.2314 -0.1601
  150TMC2     O 2337   1.911   0.969  12.173  0.3161  0.1797 -0.2911
  150TMC2     H 2338   2.104   0.836  11.861  0.5573 -1.2752  0.5793
  150TMC2    H1 2339   2.132   1.041  12.244  2.0034 -2.7282  1.7195
  150TMC2    H2 2340   2.475   0.895  12.053 -0.1854  0.7846 -2.0583
  150TMC2    C7 2341   2.380   1.021  12.269 -0.7969  0.2604 -0.1803
  150TMC2    C8 2342   2.351   0.797  11.839  0.0477 -0.4008  0.1571
  150TMC2    O1 2343   2.337   1.109  12.344 -0.7345 -0.0977  0.5841
  150TMC2    O2 2344   2.335   0.846  11.728 -0.3235  0.4539  0.5171
  150TMC2    O5 2345   2.467   0.730  11.865  0.0190 -0.2270  0.1817
  150TMC2    H5 2346   2.483   0.712  11.960 -0.4646 -1.0474  0.0976
  151MPD2     C 2347   1.522   0.719  11.936  0.4770  0.2611 -0.1043
  151MPD2    C1 2348   1.575   0.774  11.818  0.5945 -0.3214 -0.3402
  151MPD2    C2 2349   1.701   0.836  11.830  0.2997  0.0073  0.4039
  151MPD2    C3 2350   1.765   0.852  11.950  0.5395 -0.2549 -0.0150
  151MPD2    C4 2351   1.706   0.804  12.063 -0.1099  0.2042  0.2609
  151MPD2    C5 2352   1.593   0.719  12.051  0.4448  0.1891 -0.3616
  151MPD2     H 2353   1.733   0.892  11.743 -0.9297  0.2473  0.0984
  151MPD2    H1 2354   1.753   0.799  12.161 -0.5293 -0.2277  0.4430
  151MPD2    H2 2355   1.425   0.673  11.951  0.0637  0.7609 -1.2686
  151MPD2    H3 2356   1.559   0.674  12.144 -2.8045  0.2698 -1.4848
  151MPD2     N 2357   1.893   0.914  11.943 -0.3264 -0.3550  0.3573
  151MPD2    H5 2358   1.939   0.920  11.853 -1.1330 -1.6667 -0.1544
  151MPD2    N1 2359   1.505   0.757  11.698 -0.1125 -0.2965  0.2405
  151MPD2    H7 2360   1.421   0.702  11.709 -0.9329  1.1958  1.4109
  152TMC2    C1 2361   2.455   0.563  12.813 -1.1134  0.1896 -0.0812
  152TMC2    C2 2362   2.546   0.486  12.748  0.1402 -0.4873 -0.0479
  152TMC2    C3 2363   2.680   0.518  12.758 -0.2975 -0.4664  0.9005
  152TMC2    C4 2364   2.484   0.677  12.884 -0.2144 -0.3301  0.8474
  152TMC2    C5 2365   2.618   0.713  12.885  0.1954 -0.4771  0.2608
  152TMC2    C6 2366   2.719   0.638  12.821  0.0875  0.8252 -0.3091
  152TMC2     C 2367   2.314   0.533  12.785 -1.1166 -0.4480  0.2582
  152TMC2     O 2368   2.239   0.622  12.806  0.0663  0.0755 -0.4509
  152TMC2     H 2369   2.519   0.399  12.688  0.4193 -1.1791  0.8276
  152TMC2    H1 2370   2.413   0.742  12.932  0.0502  1.5132 -1.2714
  152TMC2    H2 2371   2.825   0.656  12.836 -0.2325  1.6908  0.9248
  152TMC2    C7 2372   2.644   0.814  12.979  0.1341  0.6069 -0.2948
  152TMC2    C8 2373   2.780   0.435  12.694 -0.8258  1.0953 -0.3113
  152TMC2    O1 2374   2.563   0.836  13.069 -0.6878  0.3443  0.3498
  152TMC2    O2 2375   2.745   0.351  12.609 -0.3844  0.0165 -0.0099
  152TMC2    O5 2376   2.882   0.409  12.781 -0.4884 -0.0455 -0.4756
  152TMC2    H5 2377   2.893   0.475  12.853  1.7785 -0.2283 -0.6511
  153MPD2     C 2378   2.120   0.228  12.722  0.9026  0.1529  0.3046
  153MPD2    C1 2379   2.146   0.366  12.733  0.9101  0.3499 -0.3951
  153MPD2    C2 2380   2.037   0.444  12.725  0.1051  0.2054  0.7371
  153MPD2    C3 2381   1.909   0.395  12.719 -0.4444  1.1596 -0.0398
  153MPD2    C4 2382   1.889   0.264  12.697 -0.0159  0.6729 -0.7555
  153MPD2    C5 2383   1.991   0.174  12.702 -0.1214  0.8360 -0.2166
  153MPD2     H 2384   2.049   0.551  12.713 -0.2178 -0.1790 -3.1423
  153MPD2    H1 2385   1.791   0.224  12.677  0.0913 -1.1815  2.4518
  153MPD2    H2 2386   2.204   0.159  12.720  0.8770  0.2181 -2.5712
  153MPD2    H3 2387   1.968   0.069  12.687  0.4044  0.7151 -0.1767
  153MPD2     N 2388   1.803   0.490  12.717  0.4070  0.0542  0.0653
  153MPD2    H5 2389   1.833   0.585  12.736  0.1348 -0.0645  1.0716
  153MPD2    N1 2390   2.279   0.405  12.755  0.4803 -0.4474  0.4633
  153MPD2    H7 2391   2.353   0.336  12.754  1.3656  0.5003 -0.9595
  154TMC2    C1 2392   4.513   0.877   0.944  0.4374  0.0228 -0.2051
  154TMC2    C2 2393   4.542   0.944   1.061  0.1360  0.4467  0.3489
  154TMC2    C3 2394   4.669   0.926   1.113 -0.5989  0.2835  0.6594
  154TMC2    C4 2395   4.600   0.797   0.877  0.4608 -0.0047 -0.8600
  154TMC2    C5 2396   4.725   0.782   0.942 -0.2208 -0.5460  0.6152
  154TMC2    C6 2397   0.019   0.842   1.056 -0.4743  0.5143  0.3986
  154TMC2     C 2398   4.395   0.938   0.880  0.3763  0.2111 -0.0157
  154TMC2     O 2399   4.319   1.005   0.950 -0.1328  0.2712  0.2688
  154TMC2     H 2400   4.455   0.992   1.106 -1.4571 -2.0775 -0.0309
  154TMC2    H1 2401   4.580   0.737   0.789  0.3052 -1.0407 -0.1231
  154TMC2    H2 2402   0.117   0.837   1.101  0.0549 -1.9688 -1.0440
  154TMC2    C7 2403   0.094   0.721   0.872  0.5723 -0.5033  0.3089
  154TMC2    C8 2404   4.681   0.960   1.250  0.2833 -0.3400 -0.5445
  154TMC2    O1 2405   0.185   0.684   0.945 -0.0257 -0.1080  0.4204
  154TMC2    O2 2406   4.641   1.068   1.298  1.1421  0.5800  0.0306
  154TMC2    O5 2407   0.013   0.863   1.313 -0.1232  0.7542 -0.4407
  154TMC2    H5 2408   0.005   0.779   1.263  0.6699 -0.7892  2.0247
  155MPD2     C 2409   4.320   0.953   0.518 -0.1858 -0.6850 -0.2968
  155MPD2    C1 2410   4.306   0.974   0.656 -0.0473  0.7135  0.6398
  155MPD2    C2 2411   4.204   1.063   0.696  0.5812 -0.5772 -0.4650
  155MPD2    C3 2412   4.114   1.119   0.606 -0.1083 -0.7809 -0.1941
  155MPD2    C4 2413   4.118   1.088   0.471 -0.1796 -0.5491 -0.5563
  155MPD2    C5 2414   4.225   1.008   0.427  0.1909 -0.3616 -0.1479
  155MPD2     H 2415   4.182   1.081   0.801  1.6186 -1.0100 -0.1806
  155MPD2    H1 2416   4.047   1.127   0.400  1.7163 -0.3924 -2.3594
  155MPD2    H2 2417   4.404   0.894   0.484 -0.2300  0.5940 -2.6421
  155MPD2    H3 2418   4.229   0.996   0.320 -0.0211 -1.1651 -0.0693
  155MPD2     N 2419   4.022   1.215   0.652 -0.1822  0.2389  0.2781
  155MPD2    H5 2420   4.022   1.229   0.753  1.2983 -0.0187  0.3160
  155MPD2    N1 2421   4.393   0.913   0.744  0.2053 -0.1737  0.2903
  155MPD2    H7 2422   4.476   0.861   0.717 -1.2447 -0.0724 -4.2564
  156TMC2    C1 2423   3.020   3.191  11.607  0.4765 -1.1439  0.2213
  156TMC2    C2 2424   3.144   3.244  11.601 -0.7400 -0.8614 -0.0132
  156TMC2    C3 2425   3.169   3.376  11.581  0.6196 -0.1244  0.9503
  156TMC2    C4 2426   2.912   3.277  11.588 -0.5060  0.1226 -0.6167
  156TMC2    C5 2427   2.942   3.406  11.549 -0.4393  0.7941  0.8604
  156TMC2    C6 2428   3.063   3.455  11.548 -0.4736 -0.1496  0.6500
  156TMC2     C 2429   2.994   3.092  11.711  0.2758  0.6611  0.8875
  156TMC2     O 2430   3.087   3.072  11.789  0.3855 -0.4186  0.6478
  156TMC2     H 2431   3.210   3.168  11.640 -0.5307 -0.0535  1.1904
  156TMC2    H1 2432   2.810   3.248  11.609 -0.4852 -0.2172 -0.9799
  156TMC2    H2 2433   3.089   3.555  11.515 -2.1477  0.4783  1.2365
  156TMC2    C7 2434   2.839   3.483  11.479  0.0394 -0.4779 -0.0557
  156TMC2    C8 2435   3.305   3.423  11.583  0.1691  0.3816 -0.1910
  156TMC2    O1 2436   2.876   3.594  11.438 -0.2799 -0.1379  0.1445
  156TMC2    O2 2437   3.334   3.527  11.530  0.1951 -0.0126  0.5170
  156TMC2    O5 2438   3.380   3.314  11.562  0.6414 -0.7728 -0.0510
  156TMC2    H5 2439   3.348   3.230  11.602 -1.5495  0.0709 -0.0544
  157MPD2     C 2440   2.757   2.815  11.725 -0.2188  0.7285  0.0864
  157MPD2    C1 2441   2.834   2.915  11.776  0.2765  0.0539  0.6079
  157MPD2    C2 2442   2.854   2.913  11.910 -0.1567  0.0692  0.0677
  157MPD2    C3 2443   2.773   2.829  11.991 -0.0346  0.3222  0.1351
  157MPD2    C4 2444   2.699   2.730  11.937  0.1619  0.2287 -0.2049
  157MPD2    C5 2445   2.692   2.718  11.802  0.1506 -0.3697  0.7289
  157MPD2     H 2446   2.911   2.989  11.960  1.7497 -0.8238 -0.7511
  157MPD2    H1 2447   2.645   2.650  11.986  0.3614 -1.2870 -2.4625
  157MPD2    H2 2448   2.742   2.802  11.618 -0.0013  1.2675 -0.0117
  157MPD2    H3 2449   2.638   2.641  11.748 -0.1135  0.0245  0.4214
  157MPD2     N 2450   2.791   2.837  12.130  0.0364  0.6092  1.2175
  157MPD2    H5 2451   2.864   2.903  12.153 -0.5921  1.9833 -0.6559
  157MPD2    N1 2452   2.889   3.013  11.690 -0.0691  0.2639  0.4659
  157MPD2    H7 2453   2.835   3.019  11.605 -1.3138 -2.1805  1.0668
  158TMC2    C1 2454   3.103   2.245  13.380  0.8122  0.6698 -0.4753
  158TMC2    C2 2455   3.119   2.290  13.255  0.2263  0.3759 -0.3477
  158TMC2    C3 2456   3.015   2.286  13.167  0.4386 -0.3839  0.1371
  158TMC2    C4 2457   2.982   2.199  13.423 -0.6722  0.9064 -0.4464
  158TMC2    C5 2458   2.882   2.188  13.332  0.1227 -0.1380  0.4897
  158TMC2    C6 2459   2.900   2.226  13.198  0.5117 -0.4386 -0.0757
  158TMC2     C 2460   3.219   2.240  13.460 -0.1459 -0.0153 -1.1292
  158TMC2     O 2461   3.321   2.292  13.419  0.1240  0.3477 -0.1891
  158TMC2     H 2462   3.220   2.318  13.225  0.6877  0.2859  1.0918
  158TMC2    H1 2463   2.958   2.176  13.526  2.4036  1.9126  0.4943
  158TMC2    H2 2464   2.831   2.194  13.121 -0.3778  1.1983  0.0548
  158TMC2    C7 2465   2.765   2.109  13.357  0.6890 -0.3119  0.4436
  158TMC2    C8 2466   3.033   2.338  13.040  1.4580  0.2888  0.4681
  158TMC2    O1 2467   2.684   2.105  13.264 -0.3893  0.6266 -0.2199
  158TMC2    O2 2468   2.968   2.297  12.942  0.0630 -0.4783 -0.1784
  158TMC2    O5 2469   3.101   2.456  13.051  0.1038  0.4448  0.1707
  158TMC2    H5 2470   3.112   2.485  13.145 -2.2526 -0.0223  0.5945
  159MPD2     C 2471   3.489   2.153  13.879 -0.0015 -0.3352  0.4683
  159MPD2    C1 2472   3.378   2.070  13.891 -0.4426 -0.5580  0.3839
  159MPD2    C2 2473   3.284   2.070  13.785 -0.3387 -0.3897  0.0941
  159MPD2    C3 2474   3.301   2.154  13.671  0.7698  0.1086 -0.5622
  159MPD2    C4 2475   3.399   2.257  13.685  0.1540  0.5229  0.1469
  159MPD2    C5 2476   3.493   2.243  13.781  0.1867  0.7496 -0.2328
  159MPD2     H 2477   3.203   1.999  13.779  1.0219 -2.0099  1.0464
  159MPD2    H1 2478   3.413   2.341  13.617  4.3741  1.3701  2.0769
  159MPD2    H2 2479   3.567   2.149  13.954  0.4457  1.1906  0.0821
  159MPD2    H3 2480   3.567   2.322  13.777  2.3650 -1.1885  1.7260
  159MPD2     N 2481   3.205   2.155  13.565 -0.1262 -0.0829  0.5401
  159MPD2    H5 2482   3.125   2.094  13.579 -1.7477  2.3189  1.6212
  159MPD2    N1 2483   3.381   1.986  14.004  0.3340  0.1804  0.8331
  159MPD2    H7 2484   3.430   2.018  14.087  1.0995  2.0777 -0.3490
  160TMC2    C1 2485   2.252   0.434   0.955  0.8971 -0.1585 -0.7528
  160TMC2    C2 2486   2.126   0.403   0.906  0.6368 -0.7980 -0.1743
  160TMC2    C3 2487   2.110   0.285   0.837  0.3655  1.2149  0.4764
  160TMC2    C4 2488   2.352   0.344   0.938 -0.2719 -0.0847  0.2801
  160TMC2    C5 2489   2.340   0.239   0.859  0.5048 -0.3951 -0.9444
  160TMC2    C6 2490   2.216   0.216   0.798 -0.6454  0.1407  0.2587
  160TMC2     C 2491   2.257   0.522   1.070  0.0155 -1.0927  0.0862
  160TMC2     O 2492   2.156   0.538   1.136  0.0102 -0.3947 -0.0077
  160TMC2     H 2493   2.041   0.460   0.943  0.6823 -2.4353  2.4776
  160TMC2    H1 2494   2.447   0.354   0.990  0.1491  0.1123 -0.5093
  160TMC2    H2 2495   2.209   0.146   0.716  1.9554 -0.9586  0.9769
  160TMC2    C7 2496   2.441   0.138   0.831 -0.2829 -0.4730  0.8733
  160TMC2    C8 2497   2.014   0.285   0.733 -0.1821  0.0523 -0.4213
  160TMC2    O1 2498   2.394   0.031   0.801  0.2625 -0.3789 -0.3410
  160TMC2    O2 2499   2.018   0.366   0.639  0.6596 -0.3082 -0.5237
  160TMC2    O5 2500   1.980   0.157   0.736 -0.0190 -0.1208  0.4413
  160TMC2    H5 2501   2.000   0.114   0.822  3.8345 -0.0588 -0.4322
  161MPD2     C 2502   2.350   0.690   1.286 -0.1954  0.1451 -0.5640
  161MPD2    C1 2503   2.406   0.689   1.162  0.1404 -0.7035  1.1972
  161MPD2    C2 2504   2.483   0.791   1.121  0.5528 -0.0808  0.0602
  161MPD2    C3 2505   2.497   0.903   1.197  0.1041  0.3480 -0.1217
  161MPD2    C4 2506   2.449   0.907   1.320 -0.3707  0.1813  0.0609
  161MPD2    C5 2507   2.378   0.801   1.364 -0.3154 -0.0079 -0.2367
  161MPD2     H 2508   2.516   0.790   1.018  2.4585  1.5862  0.6713
  161MPD2    H1 2509   2.459   0.994   1.385 -1.0169 -0.4591  1.0113
  161MPD2    H2 2510   2.288   0.609   1.322 -0.2514  0.8376  0.9068
  161MPD2    H3 2511   2.336   0.810   1.464 -0.4505 -1.2523 -0.1757
  161MPD2     N 2512   2.558   1.027   1.150 -0.4249  0.1129  0.5523
  161MPD2    H5 2513   2.540   1.110   1.205 -0.2658 -0.5087  1.5497
  161MPD2    N1 2514   2.376   0.589   1.074  0.2162  0.0562  0.4678
  161MPD2    H7 2515   2.444   0.560   1.005  1.7645  1.7649  1.2927
  162TMC2    C1 2516   1.632   1.464   0.719  0.0767  0.6470 -0.3611
  162TMC2    C2 2517   1.706   1.472   0.603 -0.0094 -0.1114  0.4854
  162TMC2    C3 2518   1.784   1.365   0.573 -0.3118  0.5637  0.2177
  162TMC2    C4 2519   1.639   1.359   0.802  0.7875  0.4049  0.0438
  162TMC2    C5 2520   1.704   1.243   0.756  0.5574  0.1898  0.2811
  162TMC2    C6 2521   1.783   1.248   0.642  0.6423  0.1815 -0.2850
  162TMC2     C 2522   1.511   1.552   0.732  0.0221 -0.4642  0.9344
  162TMC2     O 2523   1.418   1.519   0.809 -0.3526  0.5965  0.0007
  162TMC2     H 2524   1.690   1.556   0.537  0.5691  1.2049  2.0220
  162TMC2    H1 2525   1.578   1.349   0.892  2.1007  2.1731  1.1340
  162TMC2    H2 2526   1.843   1.160   0.619 -2.2095 -1.5673 -0.9922
  162TMC2    C7 2527   1.683   1.114   0.822  0.4128 -0.1676  0.2097
  162TMC2    C8 2528   1.870   1.378   0.459  0.4772 -0.0985 -0.5833
  162TMC2    O1 2529   1.681   1.020   0.746  0.1646  0.0436  0.0747
  162TMC2    O2 2530   1.842   1.462   0.373 -0.0873  0.5153  0.3712
  162TMC2    O5 2531   1.998   1.378   0.498  0.4263  0.4048  0.6570
  162TMC2    H5 2532   2.015   1.316   0.572 -1.8751  0.3377  1.1432
  163MPD2     C 2533   1.225   1.922   0.518 -0.8581  0.9057 -0.3752
  163MPD2    C1 2534   1.189   1.796   0.563  0.0018  1.2464  0.0644
  163MPD2    C2 2535   1.289   1.716   0.619  0.3384 -0.1512  0.5574
  163MPD2    C3 2536   1.421   1.759   0.628  0.2338 -0.3767  0.3280
  163MPD2    C4 2537   1.455   1.889   0.588  0.2118  0.9352 -0.8086
  163MPD2    C5 2538   1.353   1.967   0.534  0.5902  0.3360 -0.1247
  163MPD2     H 2539   1.261   1.616   0.650 -1.0725 -0.2063 -0.9056
  163MPD2    H1 2540   1.553   1.936   0.584  0.0299  1.3066 -0.8516
  163MPD2    H2 2541   1.154   1.994   0.479 -2.3668  0.0875  0.8814
  163MPD2    H3 2542   1.356   2.069   0.498 -0.1362  1.0866  1.9049
  163MPD2     N 2543   1.530   1.675   0.672  0.2370 -0.1358  0.4232
  163MPD2    H5 2544   1.627   1.696   0.653  0.3377 -1.3854 -0.4961
  163MPD2    N1 2545   1.059   1.744   0.555 -0.5656  0.0439  0.4660
  163MPD2    H7 2546   1.041   1.652   0.593  0.3355 -0.2547  0.1812
  164TMC2    C1 2547   1.024   1.503  11.159 -1.2765 -1.0218 -0.0340
  164TMC2    C2 2548   1.000   1.378  11.203  0.8438  0.0890  0.1182
  164TMC2    C3 2549   0.910   1.374  11.314  0.1034 -0.1213  0.6798
  164TMC2    C4 2550   0.973   1.614  11.214  0.2025 -0.3950 -0.7669
  164TMC2    C5 2551   0.881   1.603  11.317 -0.6099 -0.5194  0.5856
  164TMC2    C6 2552   0.843   1.481  11.367 -0.5116 -0.1139 -0.9397
  164TMC2     C 2553   1.098   1.513  11.037  0.4373  0.0880 -0.8539
  164TMC2     O 2554   1.101   1.407  10.974  0.1338  0.3349  0.8696
  164TMC2     H 2555   1.059   1.290  11.182  0.9172  0.6522 -1.9991
  164TMC2    H1 2556   0.995   1.716  11.184  0.9830 -0.9026 -1.9088
  164TMC2    H2 2557   0.781   1.478  11.456  1.8942  1.1797  0.8053
  164TMC2    C7 2558   0.808   1.721  11.338 -0.1223 -0.5651 -0.0392
  164TMC2    C8 2559   0.843   1.242  11.315 -0.2710 -0.5684 -0.1826
  164TMC2    O1 2560   0.838   1.825  11.282 -0.1735  0.1679  0.6569
  164TMC2    O2 2561   0.902   1.145  11.264  0.2459  0.3414 -0.2506
  164TMC2    O5 2562   0.738   1.234  11.406  0.0296  0.3484  0.0571
  164TMC2    H5 2563   0.693   1.319  11.423  0.1061  0.2999  0.5096
  165TMC2    C1 2564   2.773   3.894   0.825 -1.1847  0.8991  0.4625
  165TMC2    C2 2565   2.815   3.821   0.715  0.5460 -0.3019 -0.1941
  165TMC2    C3 2566   2.934   3.857   0.657 -0.1964  0.1605  0.4778
  165TMC2    C4 2567   2.846   3.988   0.894 -0.2255  0.2730  0.1466
  165TMC2    C5 2568   2.962   4.020   0.826  0.4629 -0.1940 -0.0601
  165TMC2    C6 2569   3.010   3.953   0.717  0.1885 -0.6353  0.0881
  165TMC2     C 2570   2.644   3.869   0.886  0.1616  0.0757 -0.2207
  165TMC2     O 2571   2.614   3.919   0.995 -0.2388 -0.2988 -0.6258
  165TMC2     H 2572   2.752   3.742   0.674 -0.3609  0.6679 -0.6825
  165TMC2    H1 2573   2.809   4.037   0.983 -3.1200  0.9637 -1.4541
  165TMC2    H2 2574   3.110   3.972   0.679 -0.0063  1.4237  0.5769
  165TMC2    C7 2575   3.052   4.112   0.895 -0.0393 -0.2529 -0.1306
  165TMC2    C8 2576   2.994   3.771   0.552  0.3372  0.2574 -0.1895
  165TMC2    O1 2577   3.170   4.080   0.879  0.6438  0.2073  0.3281
  165TMC2    O2 2578   3.107   3.790   0.513  0.1945 -0.3587  0.1070
  165TMC2    O5 2579   2.943   3.649   0.555 -0.2030  0.0013 -0.2343
  165TMC2    H5 2580   2.846   3.642   0.568 -0.3898 -1.5760 -2.4228
  166MPD2     C 2581   2.168   3.687   0.830 -0.0806  0.4231  0.8485
  166MPD2    C1 2582   2.243   3.704   0.944  0.5192 -0.2851  0.9301
  166MPD2    C2 2583   2.372   3.756   0.935 -0.4927  0.2978 -0.5025
  166MPD2    C3 2584   2.429   3.781   0.809 -0.7806  0.4271  0.7561
  166MPD2    C4 2585   2.353   3.767   0.698  0.3271  0.5531  0.1282
  166MPD2    C5 2586   2.227   3.726   0.711  0.4025  0.0133 -0.1407
  166MPD2     H 2587   2.430   3.765   1.026  0.5434 -0.0535 -1.1242
  166MPD2    H1 2588   2.387   3.786   0.597  0.5566 -1.9594 -0.2498
  166MPD2    H2 2589   2.074   3.634   0.820 -0.7630  2.0386 -1.1549
  166MPD2    H3 2590   2.169   3.713   0.620 -0.1194  0.8483  0.0705
  166MPD2     N 2591   2.563   3.817   0.785 -0.0444 -0.4053  0.0495
  166MPD2    H5 2592   2.593   3.826   0.688 -0.8109 -0.5263 -0.1944
  166MPD2    N1 2593   2.188   3.660   1.064 -0.2416  0.3378 -0.6603
  166MPD2    H7 2594   2.242   3.655   1.150  1.8361  1.0148 -1.9388
  167TMC2    C1 2595   0.340   0.962  12.854 -0.4765  0.1674  0.1578
  167TMC2    C2 2596   0.282   0.912  12.968 -0.2356  0.5832  0.2041
  167TMC2    C3 2597   0.341   0.803  13.029 -1.1238 -0.1398  0.0731
  167TMC2    C4 2598   0.468   0.919  12.813  0.4976 -0.0373 -0.2738
  167TMC2    C5 2599   0.522   0.821  12.884 -0.5076 -0.2551  0.0916
  167TMC2    C6 2600   0.464   0.753  12.988 -0.3135  0.6804  0.4862
  167TMC2     C 2601   0.288   1.083  12.794  0.0692  0.5732 -0.3135
  167TMC2     O 2602   0.208   1.149  12.854 -0.2952 -0.1698 -0.2854
  167TMC2     H 2603   0.185   0.948  12.999  0.0053  0.9063  0.5849
  167TMC2    H1 2604   0.524   0.980  12.744 -0.0605  0.5449 -0.2111
  167TMC2    H2 2605   0.511   0.699  13.070  0.5797  0.6979 -0.0098
  167TMC2    C7 2606   0.646   0.767  12.829 -0.5398 -0.4141 -0.5421
  167TMC2    C8 2607   0.290   0.760  13.164 -0.0041  0.2269  0.2789
  167TMC2    O1 2608   0.718   0.701  12.902  0.1525 -0.6258  0.4992
  167TMC2    O2 2609   0.199   0.819  13.217  0.1706  0.3424  0.2715
  167TMC2    O5 2610   0.311   0.625  13.177  0.0131  0.3964  0.3026
  167TMC2    H5 2611   0.387   0.581  13.133 -0.2573  0.6104 -0.3646
  168MPD2     C 2612   0.254   1.312  12.624  0.4199  0.4074 -0.4237
  168MPD2    C1 2613   0.268   1.185  12.575  0.5136  0.3960  0.0997
  168MPD2    C2 2614   0.257   1.156  12.443 -0.3331  0.2811 -0.6439
  168MPD2    C3 2615   0.215   1.255  12.356 -0.2889  0.4000 -0.1225
  168MPD2    C4 2616   0.204   1.382  12.405  0.1368 -0.6361 -0.0175
  168MPD2    C5 2617   0.223   1.416  12.536  0.0162  0.0160  0.1162
  168MPD2     H 2618   0.271   1.055  12.407  0.9365  0.0883  0.3992
  168MPD2    H1 2619   0.172   1.461  12.338  0.0337 -0.9456 -0.3311
  168MPD2    H2 2620   0.263   1.340  12.729 -2.0160 -2.2007  0.4965
  168MPD2    H3 2621   0.227   1.515  12.581  0.3489  1.2492 -2.6055
  168MPD2     N 2622   0.192   1.237  12.219 -0.2306  0.3222 -0.7707
  168MPD2    H5 2623   0.131   1.307  12.177 -0.2934  0.4825 -0.4075
  168MPD2    N1 2624   0.298   1.077  12.659 -0.6293  0.2273  0.3164
  168MPD2    H7 2625   0.344   0.999  12.613 -0.1734  1.4178 -1.2387
  169MPD1     C 2626   3.220   2.094   8.680  0.5218 -0.1664  0.3747
  169MPD1    C1 2627   3.318   2.072   8.776  0.1996  0.3599  0.3486
  169MPD1    C2 2628   3.278   2.034   8.903  0.1467 -1.0261  0.1060
  169MPD1    C3 2629   3.146   2.006   8.930  0.0198 -0.6875  0.0183
  169MPD1    C4 2630   3.052   2.004   8.827  0.0441  0.4242  1.0135
  169MPD1    C5 2631   3.086   2.057   8.705  0.1951 -0.4930  0.3293
  169MPD1     H 2632   3.341   2.033   8.991  0.8695  0.0667 -0.4041
  169MPD1    H1 2633   2.946   1.984   8.839  0.6188 -0.5463  4.1613
  169MPD1    H2 2634   3.239   2.149   8.589  0.0101  1.8612  1.4999
  169MPD1    H3 2635   3.003   2.065   8.635  1.3108  0.9873 -0.8304
  169MPD1     N 2636   3.113   1.967   9.055 -0.2879  0.6023  0.0400
  169MPD1    H5 2637   3.194   1.955   9.115 -0.0305  0.8174 -0.2602
  169MPD1    N1 2638   3.441   2.132   8.748  0.5724 -0.0227 -0.0301
  169MPD1    H6 2639   3.463   2.131   8.649 -2.2168  1.8575 -0.6490
  169MPD1    H7 2640   3.517   2.086   8.799 -0.1520 -1.0414  0.1347
  170MPD1     C 2641   1.161   2.982  13.548  0.0405  0.0717  0.0146
  170MPD1    C1 2642   1.198   2.997  13.675 -1.1258 -0.3685 -0.0756
  170MPD1    C2 2643   1.216   3.126  13.727  0.6454 -0.4517  0.3849
  170MPD1    C3 2644   1.177   3.237  13.655 -0.1789  1.0739  0.6704
  170MPD1    C4 2645   1.112   3.219  13.535 -0.3094  0.5891 -0.6527
  170MPD1    C5 2646   1.112   3.093  13.482  0.0118  0.8160  0.6950
  170MPD1     H 2647   1.265   3.133  13.824 -0.7482  0.9365  0.9870
  170MPD1    H1 2648   1.077   3.304  13.476 -1.1008  0.3194 -0.5693
  170MPD1    H2 2649   1.153   2.886  13.498  2.0496  1.5518 -3.1134
  170MPD1    H3 2650   1.063   3.078  13.387  1.1175 -1.2823  0.4582
  170MPD1     N 2651   1.201   3.360  13.717 -0.2354  0.2857 -0.7214
  170MPD1    H5 2652   1.251   3.358  13.805  0.3653 -0.2117 -1.0799
  170MPD1    N1 2653   1.274   2.891  13.732 -0.7244  0.4002 -0.1947
  170MPD1    H6 2654   1.276   2.908  13.833  1.1251  2.8595 -0.6573
  170MPD1    H7 2655   1.226   2.801  13.724  0.5641 -0.2346 -0.7300
  171MPD1     C 2656   4.716   4.503  15.377  0.1229 -0.0940 -0.5377
  171MPD1    C1 2657   4.716   4.567  15.501  0.1874  0.7413 -0.7350
  171MPD1    C2 2658   0.072   4.531  15.593 -0.0774  0.1777 -0.2012
  171MPD1    C3 2659   0.164   4.429  15.573  0.3979 -0.0652 -0.1155
  171MPD1    C4 2660   0.158   4.372  15.444 -0.2360  1.4077 -0.2440
  171MPD1    C5 2661   0.068   4.408  15.351  0.6129  0.4450 -0.5899
  171MPD1     H 2662   0.069   4.588  15.686 -3.9049 -2.6449  1.3976
  171MPD1    H1 2663   0.229   4.293  15.420 -1.1676 -0.0293  1.7657
  171MPD1    H2 2664   4.654   4.527  15.291 -2.0886  0.2047  1.1343
  171MPD1    H3 2665   0.064   4.364  15.252  3.6297 -0.9199 -0.0827
  171MPD1     N 2666   0.255   4.385  15.678  0.3347 -0.9330 -0.5056
  171MPD1    H5 2667   0.329   4.321  15.650 -0.1517 -0.8752 -1.9041
  171MPD1    N1 2668   4.620   4.662  15.531 -0.0483  0.1294  0.5211
  171MPD1    H6 2669   4.672   4.722  15.596  2.5499 -0.2999 -1.1531
  171MPD1    H7 2670   4.595   4.717  15.449 -0.3426 -0.5601  0.1508
  172MPD1     C 2671   4.408   4.728  17.608 -0.4277 -0.6510 -0.4930
  172MPD1    C1 2672   4.278   0.016  17.642  0.5105 -1.1937  0.5592
  172MPD1    C2 2673   4.248   4.738   0.020 -0.8597  0.0304  0.1502
  172MPD1    C3 2674   4.339   4.677   0.106  0.0293 -0.6078 -0.7522
  172MPD1    C4 2675   4.461   4.654   0.069 -0.2008 -0.8288  0.1907
  172MPD1    C5 2676   4.506   4.691  17.691  0.4272 -0.4498 -0.0371
  172MPD1     H 2677   4.152   0.031   0.059 -1.3814  0.4857 -1.5096
  172MPD1    H1 2678   4.528   4.596   0.132 -2.0437 -3.7601 -0.5418
  172MPD1    H2 2679   4.452   0.003  17.510 -1.0439  0.3458 -0.6357
  172MPD1    H3 2680   4.609   4.688  17.659  0.9945  0.4134  1.7263
  172MPD1     N 2681   4.310   4.637   0.240  0.0374 -0.3638 -0.0339
  172MPD1    H5 2682   4.379   4.583   0.292  1.9004  2.9794  0.9428
  172MPD1    N1 2683   4.198   0.086  17.554 -0.1518 -0.3363 -0.5677
  172MPD1    H6 2684   4.100   0.073  17.578 -0.2165 -0.4150 -0.8794
  172MPD1    H7 2685   4.210   0.053  17.459 -2.2863 -1.1437 -0.5702
  173MPD1     C 2686   1.093   4.217  14.101 -0.2953  0.2766 -0.2244
  173MPD1    C1 2687   1.014   4.255  14.206  0.1225  0.6130 -0.4652
  173MPD1    C2 2688   0.958   4.148  14.278 -1.1073 -0.1563 -0.0151
  173MPD1    C3 2689   0.956   4.018  14.231 -0.1421  0.4839  0.4687
  173MPD1    C4 2690   1.036   3.991  14.120  0.3922 -0.1365 -0.5559
  173MPD1    C5 2691   1.099   4.094  14.047  0.2144 -0.2635 -0.0029
  173MPD1     H 2692   0.909   4.155  14.374  1.7513 -1.3505  1.5221
  173MPD1    H1 2693   1.042   3.892  14.076 -4.2422 -1.1298  0.9711
  173MPD1    H2 2694   1.141   4.304  14.058  1.6599 -0.2332  0.9379
  173MPD1    H3 2695   1.150   4.077  13.954  1.0372 -1.2533  0.6338
  173MPD1     N 2696   0.899   3.916  14.315  0.7818  0.2685 -0.9166
  173MPD1    H5 2697   0.835   3.948  14.387  1.7703  0.3589 -0.0825
  173MPD1    N1 2698   1.030   4.382  14.265 -0.1356 -0.0491  0.3466
  173MPD1    H6 2699   0.940   4.409  14.305  0.5642  1.1940  1.0580
  173MPD1    H7 2700   1.046   4.449  14.190  0.1179  1.8132  2.0709
  174MPD1     C 2701   1.191   2.938  14.420  0.5062 -0.0911  0.6282
  174MPD1    C1 2702   1.057   2.949  14.462 -0.8319 -0.0761  0.3687
  174MPD1    C2 2703   1.004   3.073  14.497  0.1271  0.0202  0.2022
  174MPD1    C3 2704   1.084   3.186  14.483  0.1483 -0.0563 -0.1642
  174MPD1    C4 2705   1.220   3.176  14.446  0.5037  0.1171  0.5009
  174MPD1    C5 2706   1.270   3.049  14.414 -0.9748  0.1837  0.0449
  174MPD1     H 2707   0.900   3.077  14.528 -0.8283 -1.5959 -2.8498
  174MPD1    H1 2708   1.279   3.264  14.425 -1.9852  1.9646  1.3392
  174MPD1    H2 2709   1.240   2.849  14.381 -0.4688 -0.4194  0.1413
  174MPD1    H3 2710   1.371   3.037  14.377 -0.6079 -0.0941  1.1171
  174MPD1     N 2711   1.035   3.324  14.493 -0.1156  0.0857 -0.3023
  174MPD1    H5 2712   1.093   3.400  14.459 -2.5660  1.7254 -0.7880
  174MPD1    N1 2713   0.967   2.841  14.446  0.0751 -0.1373  0.1885
  174MPD1    H6 2714   0.881   2.829  14.499 -0.4619  1.2927 -0.3778
  174MPD1    H7 2715   1.017   2.755  14.467  2.9055  1.0694 -1.5292
  175MPD1     C 2716   3.612   1.007  15.528  0.6720  0.1004  0.3562
  175MPD1    C1 2717   3.589   1.081  15.638 -0.6494  0.4419  0.0328
  175MPD1    C2 2718   3.544   1.014  15.751  0.1602 -0.0256  0.2300
  175MPD1    C3 2719   3.503   0.884  15.746 -0.5639  0.0233 -0.1906
  175MPD1    C4 2720   3.515   0.816  15.625 -0.3451  0.3683 -0.2403
  175MPD1    C5 2721   3.563   0.882  15.517  0.7219 -0.1790  0.3985
  175MPD1     H 2722   3.533   1.074  15.840  2.4516 -2.0216  1.8347
  175MPD1    H1 2723   3.480   0.714  15.616 -4.0978  1.7180 -0.8937
  175MPD1    H2 2724   3.646   1.048  15.433  0.1230  0.4108  0.2905
  175MPD1    H3 2725   3.585   0.829  15.424 -3.9154 -0.0414 -0.7437
  175MPD1     N 2726   3.454   0.803  15.851 -0.0969 -0.0275  0.3272
  175MPD1    H5 2727   3.440   0.704  15.834 -1.1919  0.0295  0.8594
  175MPD1    N1 2728   3.629   1.212  15.645 -0.7427  0.1953  0.1074
  175MPD1    H6 2729   3.638   1.265  15.559 -1.4552  1.4918  0.8275
  175MPD1    H7 2730   3.578   1.255  15.723 -0.1012  0.7536  0.2191
  176MPD1     C 2731   0.677   2.648   0.589 -0.1988  0.1507  0.0288
  176MPD1    C1 2732   0.802   2.689   0.630  1.4490  0.3004  0.4912
  176MPD1    C2 2733   0.887   2.738   0.529 -0.3166  0.2618 -0.2813
  176MPD1    C3 2734   0.846   2.773   0.404  0.1537  0.4250 -0.5974
  176MPD1    C4 2735   0.717   2.737   0.368 -0.0650 -0.9294  0.5889
  176MPD1    C5 2736   0.634   2.674   0.463 -0.3772 -0.1082 -0.4156
  176MPD1     H 2737   0.994   2.747   0.545 -0.2846 -1.0824  0.2067
  176MPD1    H1 2738   0.681   2.754   0.268  3.7186  1.0786 -0.4278
  176MPD1    H2 2739   0.621   2.598   0.667  0.0093  1.7337  1.1833
  176MPD1    H3 2740   0.537   2.640   0.430 -1.1030  0.5700  1.0044
  176MPD1     N 2741   0.940   2.819   0.309  0.0549  0.1611 -0.2785
  176MPD1    H5 2742   1.034   2.839   0.342  0.2609 -1.2886  0.0163
  176MPD1    N1 2743   0.859   2.657   0.753 -0.2700  0.8411  0.0531
  176MPD1    H6 2744   0.944   2.709   0.775  0.2614  0.7555 -1.7758
  176MPD1    H7 2745   0.787   2.661   0.825 -0.2094  0.3647  0.1416
  177MPD1     C 2746   4.083   3.077   8.375  0.1359  0.4311 -0.5371
  177MPD1    C1 2747   4.098   3.164   8.475 -0.1503 -0.3320 -0.5490
  177MPD1    C2 2748   4.066   3.133   8.607  0.3791 -0.6620 -0.5556
  177MPD1    C3 2749   4.030   3.006   8.636  0.3265 -0.2877  0.1273
  177MPD1    C4 2750   4.009   2.917   8.532  0.4934  0.0467  0.9662
  177MPD1    C5 2751   4.042   2.957   8.405 -0.2260 -0.0767  0.2913
  177MPD1     H 2752   4.095   3.199   8.689 -0.2998 -2.1275  0.8742
  177MPD1    H1 2753   3.967   2.817   8.540 -1.7647  0.8836 -0.3314
  177MPD1    H2 2754   4.110   3.099   8.272 -0.2230 -0.0424 -0.7339
  177MPD1    H3 2755   4.028   2.882   8.328  1.1529 -1.7779  1.7140
  177MPD1     N 2756   3.988   2.980   8.769 -1.0041 -0.1265  0.3648
  177MPD1    H5 2757   3.984   3.047   8.845 -0.4970 -1.4398  1.5610
  177MPD1    N1 2758   4.172   3.285   8.449  0.4261  0.3899  0.0396
  177MPD1    H6 2759   4.127   3.366   8.492 -0.2608  0.2317 -0.3819
  177MPD1    H7 2760   4.175   3.314   8.352 -0.9340  0.1868 -0.0619
  178MPD1     C 2761   1.211   2.538   0.117 -0.0438 -0.2452 -0.3217
  178MPD1    C1 2762   1.347   2.565   0.099  0.2606  0.3015  0.7341
  178MPD1    C2 2763   1.385   2.603  17.720  0.0810 -0.4120  0.4756
  178MPD1    C3 2764   1.293   2.590  17.615 -0.9578 -0.6602  0.1323
  178MPD1    C4 2765   1.163   2.551  17.636  0.4604  1.0619 -0.3244
  178MPD1    C5 2766   1.125   2.521   0.013  0.0732 -0.3730 -0.2099
  178MPD1     H 2767   1.488   2.629  17.701 -0.0696  0.1645  0.4561
  178MPD1    H1 2768   1.081   2.547  17.565 -0.2726 -0.5562  0.6179
  178MPD1    H2 2769   1.165   2.524   0.214 -0.8885 -1.5480 -0.9171
  178MPD1    H3 2770   1.020   2.497   0.028  0.4803 -2.3838 -0.5496
  178MPD1     N 2771   1.329   2.631  17.481 -0.2345 -0.1510 -0.2741
  178MPD1    H5 2772   1.251   2.639  17.417  1.6489  0.0205 -2.5232
  178MPD1    N1 2773   1.423   2.571   0.212 -0.2186  0.0764  0.3230
  178MPD1    H6 2774   1.381   2.501   0.272  0.6180 -0.7249 -0.0264
  178MPD1    H7 2775   1.520   2.558   0.184 -0.7764  0.1573 -1.6129
  179MPD1     C 2776   1.484   0.785  15.482 -0.1447 -0.1445 -0.5697
  179MPD1    C1 2777   1.362   0.810  15.416  0.5842  0.0121 -0.0376
  179MPD1    C2 2778   1.245   0.795  15.495  0.1271  0.2261  0.0272
  179MPD1    C3 2779   1.249   0.750  15.621  0.4029  0.6909 -0.1244
  179MPD1    C4 2780   1.368   0.723  15.682 -0.2486 -0.5334 -0.1115
  179MPD1    C5 2781   1.485   0.741  15.613  0.0837  0.6481 -0.3566
  179MPD1     H 2782   1.156   0.833  15.447 -0.8257 -1.0505  0.7580
  179MPD1    H1 2783   1.369   0.682  15.782  1.0719  0.1831  0.1673
  179MPD1    H2 2784   1.578   0.790  15.427 -0.1086 -1.1503 -0.5923
  179MPD1    H3 2785   1.583   0.721  15.656 -0.2363  0.3710  0.2411
  179MPD1     N 2786   1.129   0.731  15.689  0.0740 -0.1179  0.0193
  179MPD1    H5 2787   1.136   0.696  15.784 -0.3549 -0.4054 -0.0545
  179MPD1    N1 2788   1.369   0.839  15.281  0.0632  0.1119 -0.0524
  179MPD1    H6 2789   1.461   0.814  15.246  0.1709  0.1224  0.2227
  179MPD1    H7 2790   1.312   0.776  15.225  1.0319 -0.8772  0.0650
  180MPD1     C 2791   0.316   2.385  15.078  0.3969  0.3210 -0.3800
  180MPD1    C1 2792   0.436   2.378  15.012 -0.8910 -0.4571  0.2281
  180MPD1    C2 2793   0.435   2.324  14.885 -0.2576  0.1236 -0.0890
  180MPD1    C3 2794   0.318   2.303  14.812 -0.0489  0.5797  0.1994
  180MPD1    C4 2795   0.198   2.320  14.879 -0.1367 -0.1982 -0.0149
  180MPD1    C5 2796   0.203   2.354  15.009 -0.2660 -0.1625  0.5140
  180MPD1     H 2797   0.525   2.298  14.831  0.1327  1.5686 -0.1286
  180MPD1    H1 2798   0.099   2.317  14.836 -0.3689 -2.3781  0.6530
  180MPD1    H2 2799   0.298   2.427  15.176  0.7387 -0.2778 -0.0619
  180MPD1    H3 2800   0.111   2.361  15.066 -0.6844  0.0257 -0.1708
  180MPD1     N 2801   0.323   2.247  14.679  0.0443  0.3510  0.2108
  180MPD1    H5 2802   0.416   2.225  14.642 -0.8903  0.6632 -2.3074
  180MPD1    N1 2803   0.552   2.402  15.079 -0.0291 -0.7397 -0.1997
  180MPD1    H6 2804   0.531   2.473  15.150 -0.5178 -0.3616 -0.7237
  180MPD1    H7 2805   0.626   2.446  15.024  1.4894 -4.2864 -0.9363
  181MPD1     C 2806   2.234   4.606   9.555 -0.1020  0.5541 -0.3389
  181MPD1    C1 2807   2.309   4.631   9.438 -0.7229 -0.6961 -1.0506
  181MPD1    C2 2808   2.430   4.691   9.459 -0.0919  0.0562 -0.3037
  181MPD1    C3 2809   2.465   4.732   9.580 -0.3963  0.7139  0.5656
  181MPD1    C4 2810   2.381   4.725   9.689 -0.2099 -0.1411 -0.2198
  181MPD1    C5 2811   2.268   4.655   9.674  0.4367 -0.5476 -0.1763
  181MPD1     H 2812   2.491   4.726   9.377  2.1240 -0.6096  1.0721
  181MPD1    H1 2813   2.413   0.033   9.781  0.8981 -2.3604  0.5156
  181MPD1    H2 2814   2.145   4.544   9.551 -0.4377  1.0520 -0.5155
  181MPD1    H3 2815   2.216   4.624   9.764 -0.3039 -2.3602 -1.2342
  181MPD1     N 2816   2.589   0.059   9.603  0.0885 -0.2406 -0.0924
  181MPD1    H5 2817   2.605   0.086   9.700  3.1771  0.7942 -0.8824
  181MPD1    N1 2818   2.273   4.565   9.314 -0.6881 -0.5466  0.5583
  181MPD1    H6 2819   2.326   4.601   9.234 -0.1599 -0.5530  0.9053
  181MPD1    H7 2820   2.175   4.560   9.288 -0.7418  0.3071  0.5914
  182MPD1     C 2821   4.702   3.530   1.359  0.0058  0.5978  0.1451
  182MPD1    C1 2822   4.691   3.647   1.434  0.0139 -0.1774  0.9677
  182MPD1    C2 2823   4.582   3.730   1.413  0.6911  0.0125  0.0925
  182MPD1    C3 2824   4.481   3.694   1.322  0.0342  0.4340  0.6657
  182MPD1    C4 2825   4.497   3.580   1.248 -0.0862  0.1689  0.3659
  182MPD1    C5 2826   4.605   3.492   1.269  0.4721 -0.2347 -0.1635
  182MPD1     H 2827   4.574   3.829   1.457 -0.7836 -0.0992  0.0942
  182MPD1    H1 2828   4.432   3.549   1.167  0.4521  1.6572 -0.6303
  182MPD1    H2 2829   0.054   3.469   1.364 -0.6512 -0.3502  0.5682
  182MPD1    H3 2830   4.614   3.411   1.198  1.3231 -0.4150  0.1482
  182MPD1     N 2831   4.365   3.766   1.293  0.2920 -0.6363 -0.5208
  182MPD1    H5 2832   4.307   3.730   1.219  0.3021  1.2819 -1.4692
  182MPD1    N1 2833   0.062   3.691   1.514  0.4523 -0.6970 -0.0216
  182MPD1    H6 2834   0.026   3.740   1.596  0.6512 -1.5908  0.5953
  182MPD1    H7 2835   0.120   3.614   1.545  1.0791  0.2470  1.1168
  183MPD1     C 2836   0.677   0.048  10.052  0.8329 -1.1057  0.6871
  183MPD1    C1 2837   0.642   4.653  10.025 -0.6921 -1.9197 -0.4661
  183MPD1    C2 2838   0.502   4.635  10.040  0.1766  0.5199 -0.1359
  183MPD1    C3 2839   0.411   4.722  10.098  0.4137  0.0414  0.3003
  183MPD1    C4 2840   0.462   0.098  10.145 -0.0630  0.1836  0.2723
  183MPD1    C5 2841   0.592   0.131  10.114 -0.0706  0.0887 -0.3521
  183MPD1     H 2842   0.466   4.536  10.012  1.6257  0.2863 -1.1874
  183MPD1    H1 2843   0.411   0.173  10.206  0.7837 -0.3741  1.6517
  183MPD1    H2 2844   0.775   0.085  10.021  0.3581 -2.4532 -2.3906
  183MPD1    H3 2845   0.621   0.233  10.139 -1.2021  0.1188  0.8187
  183MPD1     N 2846   0.279   4.683  10.116  0.2139 -0.5065  0.3250
  183MPD1    H5 2847   0.261   4.585  10.097  0.3642 -0.6702  1.0388
  183MPD1    N1 2848   0.734   4.571   9.955 -0.5837  0.0689 -0.0943
  183MPD1    H6 2849   0.828   4.590   9.989 -0.4541 -1.3339  0.3570
  183MPD1    H7 2850   0.711   4.473   9.971 -1.9715  0.7840  2.1803
  184MPD1     C 2851   3.224   2.494  10.317  0.4878 -0.4147  0.0046
  184MPD1    C1 2852   3.169   2.434  10.210  0.1600  0.6410 -0.0296
  184MPD1    C2 2853   3.203   2.475  10.081 -0.7028 -0.1198  0.2376
  184MPD1    C3 2854   3.273   2.592  10.058 -0.1247  0.7550 -0.1069
  184MPD1    C4 2855   3.318   2.657  10.168 -0.3041 -0.4388  0.0796
  184MPD1    C5 2856   3.291   2.613  10.298 -0.3709 -0.2633 -0.4451
  184MPD1     H 2857   3.159   2.417  10.000 -2.3115  0.9321  0.3554
  184MPD1    H1 2858   3.376   2.747  10.154 -1.8025  0.2698 -1.4924
  184MPD1    H2 2859   3.216   2.456  10.418  2.1373 -1.2684 -0.1847
  184MPD1    H3 2860   3.342   2.661  10.380 -2.6882  0.4966  0.5387
  184MPD1     N 2861   3.306   2.650   9.930 -0.1094  0.3004 -0.2938
  184MPD1    H5 2862   3.352   2.740   9.928  0.8671 -0.1556  1.4145
  184MPD1    N1 2863   3.088   2.324  10.237 -0.6080  0.0532  0.3505
  184MPD1    H6 2864   3.041   2.334  10.327  0.0433  1.2225  0.5679
  184MPD1    H7 2865   3.009   2.325  10.173 -0.4631  1.7481  0.1823
  185MPD1     C 2866   3.017   2.246   9.130  0.0606 -0.0842 -0.3037
  185MPD1    C1 2867   3.083   2.357   9.071 -0.0581  0.5199 -0.4444
  185MPD1    C2 2868   3.108   2.463   9.152 -0.3495  0.1788 -0.0059
  185MPD1    C3 2869   3.094   2.447   9.288  0.1362 -0.3591  0.1291
  185MPD1    C4 2870   3.056   2.328   9.347  0.2886  0.0863  0.3598
  185MPD1    C5 2871   3.007   2.231   9.267 -0.2070  0.0589  0.5381
  185MPD1     H 2872   3.129   2.560   9.108 -0.0964  0.2921  0.3732
  185MPD1    H1 2873   3.060   2.314   9.454 -0.0183  2.6261  0.7091
  185MPD1    H2 2874   2.964   2.179   9.063  0.4210  0.2074 -0.8872
  185MPD1    H3 2875   2.973   2.135   9.303  0.5005 -1.6206 -3.2750
  185MPD1     N 2876   3.133   2.546   9.378 -0.1275  0.3785 -0.5705
  185MPD1    H5 2877   3.123   2.520   9.476  1.5518  0.9864 -0.2438
  185MPD1    N1 2878   3.075   2.373   8.934  0.2410 -0.3121  0.4575
  185MPD1    H6 2879   3.156   2.427   8.905 -1.6754  1.8166 -0.9483
  185MPD1    H7 2880   3.090   2.278   8.900 -1.0478 -0.3447 -0.0399
  186MPD1     C 2881   1.335   1.400  15.373 -0.2621  0.1506 -0.9409
  186MPD1    C1 2882   1.277   1.333  15.483  0.6093 -0.3383  0.5636
  186MPD1    C2 2883   1.306   1.364  15.614 -0.2945 -0.1639 -0.8849
  186MPD1    C3 2884   1.407   1.462  15.622 -0.3082 -0.1096 -0.3929
  186MPD1    C4 2885   1.484   1.504  15.517 -0.1232  0.4779  0.5135
  186MPD1    C5 2886   1.446   1.474  15.394 -0.0709 -0.1119 -0.0554
  186MPD1     H 2887   1.241   1.333  15.696  1.7661 -3.3276 -0.4772
  186MPD1    H1 2888   1.579   1.552  15.539 -0.6831  1.8498 -0.1408
  186MPD1    H2 2889   1.293   1.382  15.275  0.6209  1.3014 -1.5266
  186MPD1    H3 2890   1.496   1.515  15.307  1.7959 -0.6948  0.7488
  186MPD1     N 2891   1.446   1.524  15.745  0.8673  0.3163 -0.1146
  186MPD1    H5 2892   1.520   1.592  15.747  2.3224 -1.2268 -1.3088
  186MPD1    N1 2893   1.154   1.266  15.465  0.5362  1.0016 -0.8337
  186MPD1    H6 2894   1.151   1.209  15.549 -0.0611 -1.5641 -2.6026
  186MPD1    H7 2895   1.160   1.194  15.393  1.6865  0.7677 -0.5046
  187MPD1     C 2896   1.804   3.624   0.043  0.3593  0.1402 -0.1250
  187MPD1    C1 2897   1.763   3.512  17.726 -0.7183  0.2902  0.6963
  187MPD1    C2 2898   1.655   3.524  17.645 -0.1780 -0.1725  0.6247
  187MPD1    C3 2899   1.573   3.635  17.650  0.6146 -0.0507 -0.0458
  187MPD1    C4 2900   1.611   3.744  17.726  0.1441  0.7894  0.6047
  187MPD1    C5 2901   1.732   3.733   0.034  0.4313 -0.5879 -0.3309
  187MPD1     H 2902   1.634   3.448  17.571 -0.8193  0.8283 -0.2223
  187MPD1    H1 2903   1.568   3.843  17.740 -0.6382  0.8003 -1.7870
  187MPD1    H2 2904   1.904   3.633   0.083 -0.1032  1.8335  0.6484
  187MPD1    H3 2905   1.778   3.827   0.062 -1.4863 -0.1395  1.3542
  187MPD1     N 2906   1.467   3.658  17.564  0.4282  0.9374  0.1248
  187MPD1    H5 2907   1.420   3.748  17.554 -1.1933  0.0734 -0.1366
  187MPD1    N1 2908   1.850   3.410  17.714  0.5004 -0.3716  0.5517
  187MPD1    H6 2909   1.909   3.392   0.042  2.0542  0.5359 -0.3811
  187MPD1    H7 2910   1.811   3.323  17.676  2.7903  0.2022 -3.1791
  188MPD1     C 2911   1.272   3.419  10.381  0.1375  0.5632  0.5316
  188MPD1    C1 2912   1.219   3.342  10.485  1.0523  0.4164 -0.4677
  188MPD1    C2 2913   1.206   3.203  10.471  0.2136 -0.2708  0.2557
  188MPD1    C3 2914   1.232   3.148  10.343 -0.1325  0.0778  0.6693
  188MPD1    C4 2915   1.275   3.230  10.239  0.0680  0.1471 -0.6741
  188MPD1    C5 2916   1.292   3.362  10.258 -0.3513  0.1968  0.2997
  188MPD1     H 2917   1.174   3.136  10.550  0.6106 -0.8710 -0.0955
  188MPD1    H1 2918   1.277   3.189  10.139  0.7352 -0.9820 -0.1958
  188MPD1    H2 2919   1.285   3.527  10.385 -0.2185  0.5612  1.7359
  188MPD1    H3 2920   1.329   3.432  10.184 -1.5822  0.3299 -0.1830
  188MPD1     N 2921   1.213   3.013  10.302  0.5451 -0.3632 -0.4488
  188MPD1    H5 2922   1.244   2.984  10.210 -0.1684 -0.9997 -0.4881
  188MPD1    N1 2923   1.203   3.404  10.609 -0.0670 -0.5565  0.4051
  188MPD1    H6 2924   1.176   3.502  10.596  0.7830 -0.6174 -1.7640
  188MPD1    H7 2925   1.138   3.365  10.676  0.3316 -1.7086  0.1123
  189MPD1     C 2926   3.501   4.050   0.215 -0.4447 -0.2768  0.4827
  189MPD1    C1 2927   3.439   3.984   0.319 -0.0870 -0.7867 -0.6908
  189MPD1    C2 2928   3.303   4.010   0.326 -0.5831  0.0189 -0.0034
  189MPD1    C3 2929   3.240   4.118   0.268 -0.2743 -0.7727 -0.5036
  189MPD1    C4 2930   3.315   4.188   0.175 -0.1378 -0.0306 -0.0064
  189MPD1    C5 2931   3.435   4.145   0.142 -0.0907  0.4567 -0.5741
  189MPD1     H 2932   3.243   3.952   0.396  0.2279  0.0589  0.7264
  189MPD1    H1 2933   3.276   4.273   0.120  1.2228 -0.3931 -1.5369
  189MPD1    H2 2934   3.597   4.016   0.176 -0.3415 -0.1896  0.6629
  189MPD1    H3 2935   3.492   4.193   0.064  0.9838  1.0899  0.6024
  189MPD1     N 2936   3.103   4.136   0.289  0.4132 -0.4073 -0.4745
  189MPD1    H5 2937   3.071   4.072   0.361  2.0980 -1.8261 -0.9648
  189MPD1    N1 2938   3.505   3.871   0.372 -0.8259  0.1536  0.0165
  189MPD1    H6 2939   3.455   3.840   0.455  0.9461 -2.7001  0.0443
  189MPD1    H7 2940   3.606   3.874   0.386 -0.8915  2.5061  0.0028
  190MPD1     C 2941   0.386   2.635  15.291 -0.0905  0.4195  1.0972
  190MPD1    C1 2942   0.407   2.543  15.391  0.4019  0.9820  0.6198
  190MPD1    C2 2943   0.538   2.526  15.435  0.1399 -0.1643  0.2501
  190MPD1    C3 2944   0.640   2.593  15.373  0.4414 -0.0656  0.0437
  190MPD1    C4 2945   0.615   2.700  15.287 -0.2373 -0.0645 -0.1226
  190MPD1    C5 2946   0.482   2.722  15.252  0.0054 -0.1083 -0.0413
  190MPD1     H 2947   0.564   2.448  15.505 -0.9725 -1.5405 -0.8694
  190MPD1    H1 2948   0.688   2.762  15.236 -0.3765  0.6613  0.5564
  190MPD1    H2 2949   0.293   2.645  15.237  0.2982 -0.6750  0.2069
  190MPD1    H3 2950   0.466   2.808  15.189 -0.3824  0.3328  0.6650
  190MPD1     N 2951   0.769   2.548  15.406  0.7212 -0.2079 -0.1723
  190MPD1    H5 2952   0.769   2.473  15.473  1.7225  1.4238  1.6536
  190MPD1    N1 2953   0.312   2.452  15.429 -0.1210  0.1347  0.3954
  190MPD1    H6 2954   0.212   2.459  15.407  0.4383  0.8311 -1.9992
  190MPD1    H7 2955   0.321   2.429  15.527 -0.1286 -1.4349  0.0232
  191MPD1     C 2956   0.454   3.503  13.220 -0.6448  0.2192  0.0370
  191MPD1    C1 2957   0.416   3.579  13.103 -0.8074  0.0853 -0.6462
  191MPD1    C2 2958   0.299   3.653  13.111  0.2184 -0.6681 -0.0644
  191MPD1    C3 2959   0.241   3.682  13.233 -0.0139 -0.6163  0.3897
  191MPD1    C4 2960   0.301   3.629  13.347  0.3180 -0.3005  0.0758
  191MPD1    C5 2961   0.404   3.539  13.343 -1.0539  0.9937 -0.1061
  191MPD1     H 2962   0.256   3.695  13.021 -3.7395 -0.5187  1.9094
  191MPD1    H1 2963   0.261   3.648  13.446  0.7687 -2.0632  0.6016
  191MPD1    H2 2964   0.527   3.423  13.228 -0.2409  0.6777  1.0176
  191MPD1    H3 2965   0.453   3.497  13.430  1.3670  1.1414 -1.3692
  191MPD1     N 2966   0.125   3.757  13.227 -0.3139 -0.0615  0.8729
  191MPD1    H5 2967   0.101   3.798  13.138  0.0807 -1.7075  0.0067
  191MPD1    N1 2968   0.455   3.529  12.979 -0.0384 -0.5467  0.7488
  191MPD1    H6 2969   0.418   3.437  12.959  0.1226 -0.5443  0.4395
  191MPD1    H7 2970   0.426   3.580  12.896  0.1949 -1.5817  0.0345
  192MPD1     C 2971   3.937   3.793  13.652 -0.1296  0.0806  0.6037
  192MPD1    C1 2972   3.939   3.863  13.533 -0.0164 -0.3105  0.7308
  192MPD1    C2 2973   4.068   3.899  13.482  0.4084  0.6501 -0.1332
  192MPD1    C3 2974   4.188   3.853  13.542 -0.2489 -0.0746  0.4642
  192MPD1    C4 2975   4.175   3.781  13.657  0.2794  0.5268 -0.0510
  192MPD1    C5 2976   4.053   3.747  13.710 -0.0977 -0.3072 -0.1474
  192MPD1     H 2977   4.076   3.952  13.388 -0.3697  0.3825 -0.3501
  192MPD1    H1 2978   4.269   3.754  13.704 -0.9032 -1.3315  1.2895
  192MPD1    H2 2979   3.842   3.772  13.699  0.1746 -2.0393  0.2628
  192MPD1    H3 2980   4.058   3.695  13.805  1.7239  0.8103  0.3776
  192MPD1     N 2981   4.312   3.879  13.491  0.7359 -0.3575  0.6474
  192MPD1    H5 2982   4.382   3.815  13.528  1.2516 -0.6950 -0.9236
  192MPD1    N1 2983   3.818   3.907  13.481 -0.3737 -0.4413  1.0892
  192MPD1    H6 2984   3.822   3.914  13.379  1.0085 -0.4023  1.1547
  192MPD1    H7 2985   3.746   3.840  13.506 -1.6783  0.4106 -0.3235
  193MPD1     C 2986   4.586   0.369  16.500 -0.1500  0.2831  0.5980
  193MPD1    C1 2987   4.707   0.318  16.469 -0.0504 -0.6853  0.1909
  193MPD1    C2 2988   0.074   0.323  16.557 -0.4566  0.1738 -1.1483
  193MPD1    C3 2989   0.055   0.385  16.684 -0.2335  0.4859  0.2285
  193MPD1    C4 2990   4.665   0.425  16.713 -0.0776 -0.5202 -0.6764
  193MPD1    C5 2991   4.562   0.417  16.621 -0.3591  0.0219 -0.2580
  193MPD1     H 2992   0.166   0.275  16.528 -0.1281  0.6925 -0.9756
  193MPD1    H1 2993   4.641   0.471  16.808 -0.4430 -0.5304 -0.7623
  193MPD1    H2 2994   4.503   0.380  16.431  0.1334  3.0306  0.7045
  193MPD1    H3 2995   4.460   0.450  16.640 -1.5105 -2.0839 -2.8471
  193MPD1     N 2996   0.160   0.410  16.773  0.2859 -0.1763 -0.4532
  193MPD1    H5 2997   0.145   0.469  16.854  1.8009 -1.5694  0.8629
  193MPD1    N1 2998   4.736   0.272  16.341 -0.3593  0.2253  0.2454
  193MPD1    H6 2999   0.073   0.203  16.340 -0.4333  0.1449  0.2136
  193MPD1    H7 3000   4.652   0.249  16.289  0.6780 -0.8607 -0.9602
  194MPD1     C 3001   2.682   2.760  17.210  0.1948  0.8863  0.2825
  194MPD1    C1 3002   2.772   2.772  17.309 -0.4253  0.4410 -0.0950
  194MPD1    C2 3003   2.796   2.657  17.384 -0.7389  0.2068  0.3753
  194MPD1    C3 3004   2.721   2.541  17.359 -0.4300  0.0925  0.2559
  194MPD1    C4 3005   2.626   2.535  17.264  0.8986  0.8852 -0.2505
  194MPD1    C5 3006   2.606   2.645  17.190  0.1155  0.1229 -0.1697
  194MPD1     H 3007   2.879   2.655  17.454  0.1330 -1.8159 -0.6881
  194MPD1    H1 3008   2.566   2.451  17.231  1.3280 -0.2076  1.7401
  194MPD1    H2 3009   2.656   2.847  17.151 -1.5709 -1.2046 -1.9593
  194MPD1    H3 3010   2.530   2.651  17.114 -1.4206  0.2243  1.3604
  194MPD1     N 3011   2.742   2.417  17.425  0.1956 -0.6943  0.3862
  194MPD1    H5 3012   2.679   2.338  17.418  0.0906 -0.4279 -1.6102
  194MPD1    N1 3013   2.846   2.897  17.329 -0.1680  0.0367 -0.5715
  194MPD1    H6 3014   2.824   2.981  17.275 -0.3169 -0.0360 -0.6224
  194MPD1    H7 3015   2.899   2.908  17.415 -0.4816 -1.6112 -0.1634
  195MPD1     C 3016   0.631   4.520   0.003 -0.8891 -0.0333 -0.0255
  195MPD1    C1 3017   0.570   4.480   0.120  0.2935 -0.6633 -0.6914
  195MPD1    C2 3018   0.599   4.352   0.171 -0.0890 -0.1280  0.6403
  195MPD1    C3 3019   0.676   4.261   0.096 -0.5268  0.0346 -0.0864
  195MPD1    C4 3020   0.726   4.303  17.727  0.4600 -0.0091 -0.4787
  195MPD1    C5 3021   0.706   4.432  17.687  0.1225 -0.4531 -0.2450
  195MPD1     H 3022   0.537   4.317   0.252 -1.0709  1.9178  0.7792
  195MPD1    H1 3023   0.782   4.231  17.668 -0.6150 -1.7620  0.6637
  195MPD1    H2 3024   0.604   4.613  17.707  0.6306 -0.8657 -2.4807
  195MPD1    H3 3025   0.762   4.470  17.602  1.3957 -2.0072 -0.1053
  195MPD1     N 3026   0.697   4.131   0.138  0.6366  0.1280 -0.3319
  195MPD1    H5 3027   0.754   4.072   0.078 -0.1345 -1.6327  0.7007
  195MPD1    N1 3028   0.457   4.542   0.178 -0.1539  0.5589  0.2751
  195MPD1    H6 3029   0.461   4.525   0.279 -1.4461 -1.7630 -0.0725
  195MPD1    H7 3030   0.463   4.642   0.164  1.2089  0.3783 -0.4475
  196MPD1     C 3031   0.967   3.063   0.856  0.4577 -0.2641  0.1745
  196MPD1    C1 3032   0.922   3.034   0.983 -0.2684  0.1479  0.0610
  196MPD1    C2 3033   0.836   3.121   1.046 -0.0951 -0.5257 -0.6450
  196MPD1    C3 3034   0.797   3.240   0.991 -0.2385  0.2383  0.1727
  196MPD1    C4 3035   0.843   3.268   0.867 -0.0239 -0.3313  0.0011
  196MPD1    C5 3036   0.925   3.179   0.803  0.4055  0.7261  0.7826
  196MPD1     H 3037   0.802   3.096   1.146 -1.5493 -2.1187 -1.5478
  196MPD1    H1 3038   0.802   3.352   0.813  0.8091 -0.0808 -0.2376
  196MPD1    H2 3039   1.027   2.992   0.801 -0.7065 -2.2144  1.4042
  196MPD1    H3 3040   0.962   3.201   0.703 -1.3270  0.3322  0.0655
  196MPD1     N 3041   0.710   3.333   1.063  0.3344  0.9427 -0.4478
  196MPD1    H5 3042   0.715   3.430   1.032  1.5390  1.4913  1.4713
  196MPD1    N1 3043   0.947   2.907   1.031 -0.8853  0.1316  0.2922
  196MPD1    H6 3044   0.961   2.905   1.132 -1.6585 -0.5417  0.3882
  196MPD1    H7 3045   1.039   2.880   0.997 -0.9039  0.9934 -0.4393
  197MPD1     C 3046   3.123   1.440   0.018  0.4806  0.2358 -0.1064
  197MPD1    C1 3047   3.163   1.317  17.721 -0.8900 -0.2610  1.0081
  197MPD1    C2 3048   3.229   1.308  17.601  1.0220 -0.1477 -0.0932
  197MPD1    C3 3049   3.234   1.417  17.515  0.9260  0.7218 -0.2031
  197MPD1    C4 3050   3.180   1.538  17.556  0.2366 -1.0116 -0.0871
  197MPD1    C5 3051   3.135   1.551  17.684 -0.0418  0.0617 -0.1060
  197MPD1     H 3052   3.288   1.220  17.576  1.4788 -0.1407  0.9492
  197MPD1    H1 3053   3.172   1.613  17.478 -1.6783 -1.4544 -0.3215
  197MPD1    H2 3054   3.090   1.463   0.119 -1.0725  0.8274 -0.7510
  197MPD1    H3 3055   3.099   1.644  17.727 -0.5288 -0.1193 -0.1205
  197MPD1     N 3056   3.298   1.421  17.391  0.7354 -0.3538  0.2877
  197MPD1    H5 3057   3.285   1.499  17.327 -0.3431 -0.5424  0.2785
  197MPD1    N1 3058   3.167   1.206   0.060 -0.1112  0.9467  0.2187
  197MPD1    H6 3059   3.167   1.119   0.008 -1.7397  0.9603  0.2075
  197MPD1    H7 3060   3.084   1.215   0.119 -1.6811  0.7415 -1.9842
  198MPD1     C 3061   0.828   3.034  14.964 -0.7358  0.1785  0.3013
  198MPD1    C1 3062   0.910   3.146  14.969  0.2728 -0.3613  0.1739
  198MPD1    C2 3063   0.947   3.193  15.091  1.3511 -0.1070 -0.1413
  198MPD1    C3 3064   0.878   3.161  15.209 -0.1874  0.0911 -0.0190
  198MPD1    C4 3065   0.771   3.066  15.194  0.4316 -0.2932  0.5621
  198MPD1    C5 3066   0.754   2.998  15.072  0.9075 -0.1887 -0.4312
  198MPD1     H 3067   1.030   3.262  15.092 -1.5459  3.3588 -0.8731
  198MPD1    H1 3068   0.713   3.023  15.275 -1.7506  0.4078 -0.6093
  198MPD1    H2 3069   0.827   2.970  14.876  1.5596  0.8843 -0.2252
  198MPD1    H3 3070   0.680   2.920  15.058  1.4498 -0.7175 -0.3174
  198MPD1     N 3071   0.899   3.236  15.319  0.0849  0.3548  0.2312
  198MPD1    H5 3072   0.978   3.299  15.317  0.5833 -0.2387  1.0467
  198MPD1    N1 3073   0.985   3.171  14.857  0.0901  0.1233 -0.2608
  198MPD1    H6 3074   1.029   3.263  14.856  1.8697 -0.7184 -1.1061
  198MPD1    H7 3075   0.937   3.173  14.767  0.9120  2.7187 -0.6475
  199MPD1     C 3076   3.517   0.578  10.191  0.1993  0.6397 -0.3879
  199MPD1    C1 3077   3.425   0.501  10.132  0.0932 -0.6222 -0.0979
  199MPD1    C2 3078   3.336   0.561  10.047 -0.2900  0.1141  0.3684
  199MPD1    C3 3079   3.348   0.695  10.014 -0.3229  0.3534  0.1593
  199MPD1    C4 3080   3.446   0.769  10.074  0.6507  0.2064 -0.5740
  199MPD1    C5 3081   3.538   0.711  10.162  0.6848  0.3037  0.9393
  199MPD1     H 3082   3.263   0.504   9.992  1.6374 -2.5794  0.6128
  199MPD1    H1 3083   3.456   0.875  10.054 -1.7717  0.5365 -0.0035
  199MPD1    H2 3084   3.580   0.528  10.263  0.1502  0.1155 -0.7015
  199MPD1    H3 3085   3.620   0.771  10.199  0.9265 -0.4133  1.5597
  199MPD1     N 3086   3.256   0.770   9.926 -0.0334  0.9316 -0.5943
  199MPD1    H5 3087   3.272   0.865   9.895  1.4177  1.1137  0.7263
  199MPD1    N1 3088   3.421   0.371  10.171  0.2677  0.3944  0.0373
  199MPD1    H6 3089   3.384   0.308  10.100  2.6274  0.1466 -0.9744
  199MPD1    H7 3090   3.510   0.327  10.194  0.0170 -0.7264 -1.0719
  200MPD1     C 3091   2.592   1.163  15.196  0.6171 -0.1649  0.6357
  200MPD1    C1 3092   2.516   1.069  15.260 -0.5663 -0.7523 -0.0930
  200MPD1    C2 3093   2.526   0.940  15.204 -0.2434  0.2754  0.2743
  200MPD1    C3 3094   2.594   0.913  15.085  0.4713  0.1333  0.4377
  200MPD1    C4 3095   2.663   1.018  15.027  0.3767  0.3439  0.2438
  200MPD1    C5 3096   2.653   1.146  15.079  0.2965 -0.1940  0.1750
  200MPD1     H 3097   2.478   0.854  15.249  0.6509 -0.7784 -0.7654
  200MPD1    H1 3098   2.723   1.001  14.938  3.0114  1.3979  1.8241
  200MPD1    H2 3099   2.598   1.265  15.231  1.4793 -0.4013  1.1899
  200MPD1    H3 3100   2.704   1.232  15.038  2.4702 -1.9707 -0.8449
  200MPD1     N 3101   2.578   0.785  15.021 -0.5072 -0.1389 -0.1983
  200MPD1    H5 3102   2.537   0.715  15.081  0.8239  0.3615  1.3060
  200MPD1    N1 3103   2.461   1.087  15.385 -0.4394  0.5124 -0.1495
  200MPD1    H6 3104   2.440   1.186  15.403 -0.3828  0.6348 -0.7718
  200MPD1    H7 3105   2.378   1.028  15.397  0.3138 -0.6118 -0.5264
  201MPD1     C 3106   4.186   3.757  13.117  0.1610  0.4292 -0.2180
  201MPD1    C1 3107   4.300   3.784  13.045  0.7556 -0.1796  0.6044
  201MPD1    C2 3108   4.417   3.706  13.064  0.6001 -0.0751 -0.2453
  201MPD1    C3 3109   4.423   3.615  13.161 -0.0648  0.0719 -0.0432
  201MPD1    C4 3110   4.309   3.588  13.245  0.0774  0.3865 -0.4824
  201MPD1    C5 3111   4.194   3.660  13.211  0.8167  0.1665 -0.7285
  201MPD1     H 3112   4.505   3.713  13.001  1.2482 -0.3639  0.6406
  201MPD1    H1 3113   4.296   3.502  13.309  0.6106  0.8970  0.3194
  201MPD1    H2 3114   4.090   3.807  13.109  0.6140  1.1223 -1.2183
  201MPD1    H3 3115   4.099   3.645  13.260 -0.9640 -0.0522 -4.1820
  201MPD1     N 3116   4.539   3.538  13.168 -0.2036  0.2557  0.6096
  201MPD1    H5 3117   4.608   3.564  13.099  1.5217 -1.4561  1.6887
  201MPD1    N1 3118   4.297   3.871  12.933 -0.7226 -0.4723  0.0287
  201MPD1    H6 3119   4.387   3.903  12.898 -1.1217  0.8981  0.2469
  201MPD1    H7 3120   4.241   3.955  12.946  0.5775  1.0385 -4.2067
  202MPD1     C 3121   0.977   4.379  10.115  0.0753 -0.0930 -0.5495
  202MPD1    C1 3122   0.993   4.313  10.003  0.7412  0.2002 -0.9249
  202MPD1    C2 3123   0.924   4.194  10.011 -1.0376 -0.1095  0.6763
  202MPD1    C3 3124   0.818   4.165  10.100 -0.0211  0.3325 -0.3817
  202MPD1    C4 3125   0.787   4.259  10.193 -0.2133 -0.3644  0.8030
  202MPD1    C5 3126   0.866   4.369  10.201 -0.5735  0.4130  0.2114
  202MPD1     H 3127   0.935   4.127   9.927  0.4601  1.2971 -0.2533
  202MPD1    H1 3128   0.707   4.242  10.264  0.5295 -0.0227  1.7262
  202MPD1    H2 3129   1.042   4.461  10.145 -1.2629  1.2030 -1.2013
  202MPD1    H3 3130   0.850   4.449  10.273  0.4490  0.8423 -0.0418
  202MPD1     N 3131   0.745   4.042  10.104  0.0363 -0.0218  0.3844
  202MPD1    H5 3132   0.667   4.044  10.169  0.7937  1.1585  1.2480
  202MPD1    N1 3133   1.120   4.321   9.943  0.4967  1.0303  0.0921
  202MPD1    H6 3134   1.107   4.285   9.849 -0.1057  1.4604  0.0098
  202MPD1    H7 3135   1.138   4.421   9.940 -1.4390  1.4251  1.6079
  203MPD1     C 3136   2.693   3.886  11.944 -0.5405 -0.3438 -0.1919
  203MPD1    C1 3137   2.759   3.775  11.894 -0.0685 -0.8465  0.2079
  203MPD1    C2 3138   2.867   3.735  11.964  0.0368 -0.0722  0.4525
  203MPD1    C3 3139   2.892   3.776  12.088  0.1167 -0.2688  0.2470
  203MPD1    C4 3140   2.827   3.880  12.143  0.0292 -0.2438  0.4332
  203MPD1    C5 3141   2.727   3.932  12.071 -0.1403  0.6682 -0.4209
  203MPD1     H 3142   2.933   3.658  11.926 -1.8495 -1.5712  0.2232
  203MPD1    H1 3143   2.857   3.926  12.236 -0.2074 -0.6718  0.7209
  203MPD1    H2 3144   2.613   3.936  11.890 -1.2310  0.7727  1.8746
  203MPD1    H3 3145   2.675   4.015  12.119 -0.4497  1.0490 -1.4141
  203MPD1     N 3146   3.000   3.712  12.145 -0.2964  0.0937 -0.2962
  203MPD1    H5 3147   3.058   3.651  12.089 -3.3909 -1.6776 -1.5988
  203MPD1    N1 3148   2.744   3.737  11.761  0.0848 -0.1047  0.2600
  203MPD1    H6 3149   2.650   3.758  11.728 -0.0477  1.7549  1.8497
  203MPD1    H7 3150   2.744   3.635  11.750 -2.2526  0.2191 -2.8469
  204MPD1     C 3151   2.217   0.895  17.422  0.5113 -0.1666  0.1835
  204MPD1    C1 3152   2.345   0.931  17.392  0.6941 -0.7287 -0.1858
  204MPD1    C2 3153   2.439   0.833  17.384 -0.0466  0.5804 -0.1270
  204MPD1    C3 3154   2.417   0.706  17.420  0.6146 -0.3913 -0.4080
  204MPD1    C4 3155   2.287   0.670  17.453  0.9809 -0.0649 -0.2864
  204MPD1    C5 3156   2.193   0.765  17.449 -0.1744 -0.1267 -0.5863
  204MPD1     H 3157   2.538   0.853  17.345  1.2171 -1.0568  2.2560
  204MPD1    H1 3158   2.262   0.575  17.499  3.1162 -2.1145 -3.4135
  204MPD1    H2 3159   2.131   0.961  17.428  0.9159  0.4418 -0.6815
  204MPD1    H3 3160   2.095   0.749  17.493  0.0792 -0.0477  0.0114
  204MPD1     N 3161   2.527   0.615  17.394  0.1825  0.0937 -0.4036
  204MPD1    H5 3162   2.603   0.650  17.338  1.2920  2.3267  2.5448
  204MPD1    N1 3163   2.385   1.062  17.354  0.3525  0.0814 -0.2226
  204MPD1    H6 3164   2.487   1.068  17.352  0.4368 -1.4677 -0.6235
  204MPD1    H7 3165   2.339   1.127  17.417 -0.2074 -0.2981 -0.2398
  205MPD1     C 3166   2.822   3.631  17.134 -0.4027 -0.1719 -0.0000
  205MPD1    C1 3167   2.915   3.600  17.221  0.0233 -0.0489  0.1414
  205MPD1    C2 3168   2.974   3.698  17.299  0.0995  0.5819  0.2186
  205MPD1    C3 3169   2.953   3.831  17.265 -0.7669  0.2306 -0.4498
  205MPD1    C4 3170   2.857   3.866  17.175  0.1956 -0.7837  0.2315
  205MPD1    C5 3171   2.790   3.759  17.110 -0.3034 -1.0440 -0.4092
  205MPD1     H 3172   3.042   3.655  17.371  0.5610  2.7180  1.0557
  205MPD1    H1 3173   2.822   3.968  17.162 -0.8187 -1.0697  0.7581
  205MPD1    H2 3174   2.759   3.562  17.079 -1.6529  2.7605 -2.2320
  205MPD1    H3 3175   2.713   3.789  17.040  0.9138 -1.0098 -1.7299
  205MPD1     N 3176   3.018   3.935  17.337  0.1212 -0.3985 -0.3245
  205MPD1    H5 3177   2.984   4.030  17.328 -1.6328 -0.8974  1.0648
  205MPD1    N1 3178   2.933   3.462  17.251 -0.7392 -0.2220 -0.5108
  205MPD1    H6 3179   3.032   3.447  17.270 -1.2556 -0.0486  2.3301
  205MPD1    H7 3180   2.925   3.410  17.164  0.1726 -1.3256  0.0594
  206MPD1     C 3181   2.985   2.146  17.167 -1.0913  0.2139 -0.0500
  206MPD1    C1 3182   2.986   2.031  17.088  0.1126  0.1004 -0.0197
  206MPD1    C2 3183   2.940   2.044  16.958  0.1464  0.6036 -0.1439
  206MPD1    C3 3184   2.879   2.162  16.914  0.0463  0.3294 -0.0796
  206MPD1    C4 3185   2.864   2.264  17.003  0.0246  0.0911  0.0430
  206MPD1    C5 3186   2.918   2.254  17.127  0.3021  0.1989  0.0185
  206MPD1     H 3187   2.969   1.963  16.892 -2.6017 -0.0058 -0.5812
  206MPD1    H1 3188   2.835   2.363  16.972  1.7139  1.1654  1.9373
  206MPD1    H2 3189   3.027   2.154  17.266  0.6616  2.4069 -0.9735
  206MPD1    H3 3190   2.917   2.347  17.183  2.3633 -0.9606  1.9871
  206MPD1     N 3191   2.820   2.172  16.783  0.3184  0.3102  0.1837
  206MPD1    H5 3192   2.750   2.244  16.766  1.2498  1.9929  3.3745
  206MPD1    N1 3193   3.047   1.916  17.133  0.8735  0.4727  0.4041
  206MPD1    H6 3194   3.039   1.902  17.233 -0.0876 -3.0456 -0.1777
  206MPD1    H7 3195   3.021   1.830  17.085  1.5345  0.0938  0.7295
  207MPD1     C 3196   4.491   0.170  10.574 -0.1404  0.5464 -0.2535
  207MPD1    C1 3197   4.590   0.257  10.555 -0.0048  0.2430  0.0000
  207MPD1    C2 3198   4.714   0.203  10.544  0.1921  0.1664  0.4243
  207MPD1    C3 3199   0.006   0.071  10.577 -0.4774  0.4121  0.2625
  207MPD1    C4 3200   4.641   4.734  10.624 -0.0043 -0.5049  0.3966
  207MPD1    C5 3201   4.515   0.044  10.618  0.3300  0.1761  0.0361
  207MPD1     H 3202   0.059   0.266  10.517 -1.9896  2.1633 -1.6670
  207MPD1    H1 3203   4.654   4.628  10.643 -0.7024 -0.5364  0.7266
  207MPD1    H2 3204   4.393   0.214  10.582 -0.8858 -1.3233  0.8937
  207MPD1    H3 3205   4.435   4.722  10.659 -0.7154  1.3674 -0.2297
  207MPD1     N 3206   0.130   0.003  10.561  0.2457 -0.4825 -0.2326
  207MPD1    H5 3207   0.137   4.651  10.605  0.3451 -2.2924 -3.9908
  207MPD1    N1 3208   4.569   0.383  10.505 -0.0000  0.1784  0.0322
  207MPD1    H6 3209   4.487   0.434  10.539  0.9044  2.0233 -0.5423
  207MPD1    H7 3210   4.645   0.448  10.524  1.4096 -0.3127 -3.9712
  208MPD1     C 3211   0.279   4.190   0.393 -0.2327 -0.1239  0.4857
  208MPD1    C1 3212   0.246   4.065   0.423 -0.3180 -0.0804 -0.0518
  208MPD1    C2 3213   0.135   4.009   0.358 -0.3877  0.6193  0.1295
  208MPD1    C3 3214   0.048   4.089   0.290 -0.3263 -0.3061 -0.5667
  208MPD1    C4 3215   0.067   4.227   0.281  0.1292 -0.6274  0.3248
  208MPD1    C5 3216   0.190   4.272   0.317 -0.1647 -0.0102 -0.1599
  208MPD1     H 3217   0.112   3.903   0.366  0.5859  0.3601 -0.4709
  208MPD1    H1 3218   0.002   4.294   0.225  1.5866  0.6433  0.1636
  208MPD1    H2 3219   0.367   4.233   0.439  0.4905 -1.7378  0.6150
  208MPD1    H3 3220   0.221   4.375   0.299 -2.2875  0.6397 -0.0940
  208MPD1     N 3221   4.666   4.032   0.246 -0.1800 -0.4229  0.3687
  208MPD1    H5 3222   4.645   3.937   0.275  0.6291 -0.7722 -0.1949
  208MPD1    N1 3223   0.324   3.985   0.511  0.0644  0.0609  0.5808
  208MPD1    H6 3224   0.262   3.926   0.567 -0.9114 -0.2710 -0.8321
  208MPD1    H7 3225   0.396   4.030   0.567  0.0714  1.8337 -0.8324
  209MPD1     C 3226   1.094   3.732  10.152  0.3229  0.2072 -0.3253
  209MPD1    C1 3227   1.018   3.826  10.220 -0.3658  0.4771  0.6236
  209MPD1    C2 3228   0.918   3.781  10.298  0.4304  0.3081  0.4981
  209MPD1    C3 3229   0.884   3.647  10.309  0.0857  0.1074  0.2554
  209MPD1    C4 3230   0.947   3.553  10.226  0.4497  0.5456  0.1326
  209MPD1    C5 3231   1.053   3.600  10.154 -0.2543 -0.2649  0.2127
  209MPD1     H 3232   0.860   3.849  10.359  0.3192 -0.4290  1.2240
  209MPD1    H1 3233   0.931   3.446  10.231 -0.1392  0.6678  0.8588
  209MPD1    H2 3234   1.181   3.764  10.096  0.1248  1.9588  0.3600
  209MPD1    H3 3235   1.119   3.538  10.093 -0.2528 -1.6833  1.6585
  209MPD1     N 3236   0.770   3.620  10.388  0.0625  0.0118  0.2036
  209MPD1    H5 3237   0.718   3.697  10.430 -0.9596 -0.5527 -0.0257
  209MPD1    N1 3238   1.066   3.960  10.236  0.1959  0.2715 -0.6359
  209MPD1    H6 3239   1.122   3.998  10.160  0.9821 -0.8669 -0.6321
  209MPD1    H7 3240   0.998   4.035  10.243  0.7886  0.8086 -0.6335
  210MPD1     C 3241   0.143   3.021   9.992 -0.2222  0.4446 -0.0676
  210MPD1    C1 3242   0.057   3.079  10.086  0.8104  0.1146 -0.4792
  210MPD1    C2 3243   0.104   3.184  10.166  0.2089  0.1803 -0.0178
  210MPD1    C3 3244   0.237   3.218  10.163  0.4360 -0.6432  0.3392
  210MPD1    C4 3245   0.319   3.150  10.084  0.1338 -0.1027 -0.8512
  210MPD1    C5 3246   0.274   3.053   9.991 -0.3257 -0.1874 -0.2515
  210MPD1     H 3247   0.028   3.234  10.225 -0.0674 -2.4688  1.9001
  210MPD1    H1 3248   0.423   3.177  10.075 -0.4744  2.1442 -1.1499
  210MPD1    H2 3249   0.102   2.961   9.912 -0.3624  0.8002 -0.2607
  210MPD1    H3 3250   0.344   3.007   9.923  0.4762  0.1272  0.3704
  210MPD1     N 3251   0.306   3.326  10.239 -0.3777 -0.6925 -0.4616
  210MPD1    H5 3252   0.406   3.337  10.229 -0.1201 -0.6290  2.1715
  210MPD1    N1 3253   4.662   3.066  10.059  0.0463  0.6260 -0.0467
  210MPD1    H6 3254   4.609   3.102  10.138  0.8331 -0.7211  1.1056
  210MPD1    H7 3255   4.627   2.972  10.038  1.9029 -0.1535  0.2884
  211MPD1     C 3256   2.570   3.968  15.130  0.6232  0.2410 -0.0251
  211MPD1    C1 3257   2.605   3.919  15.253 -0.2025  0.3841  0.1344
  211MPD1    C2 3258   2.526   3.960  15.355  0.1078 -0.3347 -0.7775
  211MPD1    C3 3259   2.435   4.060  15.336 -0.0545 -0.0919  0.0638
  211MPD1    C4 3260   2.403   4.109  15.216 -0.0371  0.0225  0.2198
  211MPD1    C5 3261   2.476   4.066  15.111  0.4882  0.0184  0.2911
  211MPD1     H 3262   2.539   3.924  15.457 -0.7415  0.7195 -0.3095
  211MPD1    H1 3263   2.333   4.190  15.197  1.4730  1.5645  1.1649
  211MPD1    H2 3264   2.632   3.931  15.049  0.4461 -1.7548  0.7667
  211MPD1    H3 3265   2.460   4.102  15.010 -0.3505 -0.6974  0.1688
  211MPD1     N 3266   2.389   4.107  15.464 -0.6640 -0.8533 -0.2128
  211MPD1    H5 3267   2.431   4.065  15.546 -0.7131 -1.1418 -0.3359
  211MPD1    N1 3268   2.695   3.817  15.270 -0.1941  0.7680  0.4724
  211MPD1    H6 3269   2.747   3.821  15.357 -1.5561  0.7084  1.2901
  211MPD1    H7 3270   2.771   3.801  15.203 -0.0861  1.4777  0.4273
  212MPD1     C 3271   2.103   2.552  15.877  0.3580 -0.6306 -0.2222
  212MPD1    C1 3272   2.010   2.576  15.972  0.7424 -0.1390  0.1340
  212MPD1    C2 3273   2.040   2.552  16.110  0.1039  0.6192  0.9959
  212MPD1    C3 3274   2.167   2.521  16.153 -0.0138  0.0052  0.1897
  212MPD1    C4 3275   2.260   2.512  16.052 -0.1016 -0.2155  0.6254
  212MPD1    C5 3276   2.231   2.522  15.920 -0.8416 -0.2889 -0.6731
  212MPD1     H 3277   1.959   2.556  16.182  0.0896 -0.8044  1.0416
  212MPD1    H1 3278   2.361   2.488  16.083  0.9026  2.7540 -0.3998
  212MPD1    H2 3279   2.094   2.547  15.769 -1.9909  2.0348 -0.1413
  212MPD1    H3 3280   2.311   2.493  15.853  1.1838  4.0962 -0.1477
  212MPD1     N 3281   2.211   2.500  16.292 -0.2435 -0.4229  0.4133
  212MPD1    H5 3282   2.305   2.463  16.307  0.3432  1.3486  1.1136
  212MPD1    N1 3283   1.877   2.578  15.933 -0.0682  0.0859  0.0014
  212MPD1    H6 3284   1.839   2.633  16.010 -1.1619  1.1114 -1.2864
  212MPD1    H7 3285   1.862   2.630  15.847 -0.0263  0.5662  0.2799
  213MPD1     C 3286   0.474   2.334  15.963  0.2417 -0.1849 -0.5859
  213MPD1    C1 3287   0.338   2.322  15.994  0.2434 -0.9483 -0.3287
  213MPD1    C2 3288   0.257   2.391  15.905  0.2499 -0.6756 -0.0162
  213MPD1    C3 3289   0.304   2.493  15.817  0.3005  0.0753 -0.6525
  213MPD1    C4 3290   0.437   2.528  15.818  0.2502 -0.3618  0.7123
  213MPD1    C5 3291   0.517   2.444  15.889 -0.6279 -0.5733 -0.0147
  213MPD1     H 3292   0.148   2.386  15.910  0.1479  2.0355  0.8038
  213MPD1    H1 3293   0.493   2.601  15.762 -1.4587  0.7839  0.4798
  213MPD1    H2 3294   0.552   2.279  16.014 -0.0116 -1.0591 -1.1404
  213MPD1    H3 3295   0.623   2.456  15.866 -0.7691  2.4347  0.7973
  213MPD1     N 3296   0.211   2.562  15.741  0.7979 -0.5041  0.1476
  213MPD1    H5 3297   0.114   2.534  15.750  0.6325 -0.2463 -0.8134
  213MPD1    N1 3298   0.285   2.199  16.038 -0.6276 -0.0281 -0.2451
  213MPD1    H6 3299   0.326   2.171  16.127 -0.2753  0.5157 -0.2362
  213MPD1    H7 3300   0.185   2.195  16.061 -0.6015 -1.5803 -0.4286
  214MPD1     C 3301   3.997   2.612  15.485 -0.4447 -0.4359  0.4645
  214MPD1    C1 3302   4.068   2.627  15.603  0.1830 -0.1776  0.4145
  214MPD1    C2 3303   4.204   2.632  15.594 -0.2089  0.4098  0.3538
  214MPD1    C3 3304   4.272   2.634  15.475 -0.5591  0.1098 -0.1259
  214MPD1    C4 3305   4.200   2.629  15.356  0.6583 -0.1519  0.2716
  214MPD1    C5 3306   4.066   2.607  15.363  0.0324  0.4484  0.7020
  214MPD1     H 3307   4.264   2.622  15.683  1.4554  1.0491 -0.6894
  214MPD1    H1 3308   4.255   2.636  15.263 -0.2918  0.6241 -0.2356
  214MPD1    H2 3309   3.889   2.610  15.494 -0.4091 -0.1157  0.9497
  214MPD1    H3 3310   4.009   2.587  15.273  0.0641  2.2253  0.2809
  214MPD1     N 3311   4.413   2.668  15.463 -0.0248  0.2111  0.8314
  214MPD1    H5 3312   4.441   2.685  15.366 -1.3598 -3.1975 -0.1368
  214MPD1    N1 3313   4.006   2.617  15.732  0.4682 -0.9462 -0.5048
  214MPD1    H6 3314   4.069   2.658  15.800  0.1060  2.4837 -2.2002
  214MPD1    H7 3315   3.906   2.638  15.725  0.7892  0.8782  0.2543
  215MPD1     C 3316   1.361   3.676  10.916  0.1063 -0.2712  0.3444
  215MPD1    C1 3317   1.270   3.660  11.019  0.0913 -0.1424  0.2470
  215MPD1    C2 3318   1.212   3.774  11.074 -0.3201 -0.0337 -0.0814
  215MPD1    C3 3319   1.247   3.893  11.033 -0.5273  0.0761  0.2146
  215MPD1    C4 3320   1.353   3.913  10.940  0.0398  0.3415  0.1979
  215MPD1    C5 3321   1.398   3.801  10.879  0.3523 -0.1169  0.0161
  215MPD1     H 3322   1.122   3.765  11.134  0.6805  3.4968  1.8969
  215MPD1    H1 3323   1.387   4.007  10.898  0.0383 -0.2280 -1.0962
  215MPD1    H2 3324   1.393   3.586  10.864  0.1475  1.0536 -1.8800
  215MPD1    H3 3325   1.479   3.809  10.808  0.6546 -1.8459  0.1597
  215MPD1     N 3326   1.180   4.005  11.095 -0.2469  0.7946 -0.3721
  215MPD1    H5 3327   1.125   3.984  11.178  1.5816  2.0798  1.1605
  215MPD1    N1 3328   1.213   3.530  11.032 -0.5543 -0.2202  0.4168
  215MPD1    H6 3329   1.193   3.502  11.128 -0.5129  1.9810  1.0838
  215MPD1    H7 3330   1.282   3.460  11.006  0.7659  1.3048 -0.2162
  216MPD1     C 3331   2.303   2.743   1.255 -0.5043  0.9324  0.4153
  216MPD1    C1 3332   2.403   2.782   1.167  0.1416  0.9067 -0.0710
  216MPD1    C2 3333   2.474   2.682   1.105  0.1677  0.0771 -0.2909
  216MPD1    C3 3334   2.444   2.550   1.118  0.0860 -0.4909  0.1320
  216MPD1    C4 3335   2.327   2.516   1.190 -0.5449  0.4128  0.3271
  216MPD1    C5 3336   2.260   2.616   1.258 -0.4001  0.1105  0.0230
  216MPD1     H 3337   2.559   2.726   1.055  0.7633 -1.4803 -0.6437
  216MPD1    H1 3338   2.290   2.414   1.188 -1.4991  0.7608  0.0747
  216MPD1    H2 3339   2.244   2.810   1.317 -0.6083 -0.1832  1.5156
  216MPD1    H3 3340   2.177   2.596   1.326 -2.3077  2.2518 -1.6935
  216MPD1     N 3341   2.514   2.451   1.042  0.5965  0.6160  0.1941
  216MPD1    H5 3342   2.574   2.481   0.966 -0.8617 -1.5437 -1.7705
  216MPD1    N1 3343   2.442   2.917   1.175  0.0695  0.1292 -0.0399
  216MPD1    H6 3344   2.514   2.931   1.105  1.3960  3.9540  2.0823
  216MPD1    H7 3345   2.363   2.978   1.153 -0.8332 -0.7084  0.8826
  217MPD1     C 3346   3.589   3.034   8.663  0.7417  0.5750 -0.1446
  217MPD1    C1 3347   3.473   2.998   8.725  0.8897 -0.1447  0.5130
  217MPD1    C2 3348   3.407   3.092   8.802  0.1413  0.3966  0.3088
  217MPD1    C3 3349   3.463   3.216   8.839  0.5622  0.2796  0.0377
  217MPD1    C4 3350   3.587   3.248   8.782 -0.0413 -0.2681 -0.0333
  217MPD1    C5 3351   3.647   3.160   8.698  0.3269 -0.3710  0.8602
  217MPD1     H 3352   3.318   3.051   8.848  0.9793 -1.8333 -0.0846
  217MPD1    H1 3353   3.632   3.343   8.810  1.9698 -1.3183  0.2753
  217MPD1    H2 3354   3.643   2.962   8.603  1.0314 -0.6237  1.5384
  217MPD1    H3 3355   3.747   3.178   8.663  0.7942 -1.3412  1.6984
  217MPD1     N 3356   3.410   3.304   8.929  0.7246  0.4457  0.0765
  217MPD1    H5 3357   3.462   3.392   8.931  1.9439 -0.2820  0.1544
  217MPD1    N1 3358   3.415   2.876   8.692  0.2007 -0.3298  0.5961
  217MPD1    H6 3359   3.488   2.813   8.660 -0.4746  0.4552 -2.4586
  217MPD1    H7 3360   3.353   2.832   8.761 -0.5075  1.6013  1.1897
  218MPD1     C 3361   0.052   2.926  12.005 -0.4649  0.2577 -0.6934
  218MPD1    C1 3362   4.688   3.018  12.011 -0.5090  0.2892  0.0092
  218MPD1    C2 3363   4.710   3.141  12.071  0.7781  0.6652 -0.4191
  218MPD1    C3 3364   0.098   3.189  12.099 -0.0565  0.3878 -0.1250
  218MPD1    C4 3365   0.200   3.098  12.080 -0.2617  0.4960 -0.1349
  218MPD1    C5 3366   0.181   2.967  12.045  0.7670  0.9393  0.3266
  218MPD1     H 3367   4.626   3.207  12.089 -0.8027 -0.8938 -1.9254
  218MPD1    H1 3368   0.304   3.113  12.109  0.3976  0.0319 -2.2140
  218MPD1    H2 3369   0.055   2.823  11.970  0.6699 -0.0355  0.2610
  218MPD1    H3 3370   0.271   2.906  12.039  1.1885  1.5778  0.2086
  218MPD1     N 3371   0.111   3.319  12.151 -0.1183  0.2931 -1.4839
  218MPD1    H5 3372   0.027   3.375  12.164  0.1786  1.1191 -3.0936
  218MPD1    N1 3373   4.557   2.975  11.982 -0.3076 -0.2305  0.3918
  218MPD1    H6 3374   4.482   3.043  11.964 -0.9023  0.0732  3.8651
  218MPD1    H7 3375   4.561   2.916  11.900  0.2082  0.2387  0.0811
  219MPD1     C 3376   4.437   3.983  11.820 -0.0659 -0.4090  0.5785
  219MPD1    C1 3377   4.536   4.048  11.895 -0.2970 -0.6784 -0.0912
  219MPD1    C2 3378   4.614   3.974  11.981 -0.0399  0.3168  0.9858
  219MPD1    C3 3379   4.605   3.838  11.981  0.5165  0.0903  0.3461
  219MPD1    C4 3380   4.515   3.773  11.899 -0.1862  0.3113 -0.2691
  219MPD1    C5 3381   4.431   3.846  11.820  0.2018 -0.0221  0.0936
  219MPD1     H 3382   4.681   4.023  12.051 -1.2705  3.1230  0.1924
  219MPD1    H1 3383   4.505   3.665  11.900  1.1077  0.2174  3.0976
  219MPD1    H2 3384   4.371   4.038  11.753 -0.7327 -0.0804  1.5048
  219MPD1    H3 3385   4.363   3.789  11.758  0.2806 -1.1190  1.0091
  219MPD1     N 3386   4.688   3.760  12.070  0.0505  0.8498 -0.1680
  219MPD1    H5 3387   4.671   3.660  12.062 -0.9020  0.9988 -0.0171
  219MPD1    N1 3388   4.542   4.186  11.897 -0.0974  0.2159  0.1941
  219MPD1    H6 3389   4.636   4.220  11.918  0.6365 -1.3127 -0.6298
  219MPD1    H7 3390   4.506   4.225  11.810  0.4468 -2.0696 -1.0600
  220MPD1     C 3391   0.051   0.596  10.183 -0.2521  0.2812  0.7450
  220MPD1    C1 3392   0.122   0.479  10.178 -0.4962  1.1010  0.0817
  220MPD1    C2 3393   0.191   0.441  10.296  0.1749  0.2272  0.2708
  220MPD1    C3 3394   0.176   0.513  10.414 -0.3114 -0.9234  0.0118
  220MPD1    C4 3395   0.109   0.636  10.416 -0.0229  0.7895 -0.0937
  220MPD1    C5 3396   0.041   0.668  10.298 -0.0448  0.3175 -0.0436
  220MPD1     H 3397   0.252   0.351  10.298  0.6700  0.6071  2.2242
  220MPD1    H1 3398   0.113   0.692  10.509  1.1967 -1.6561  1.3391
  220MPD1    H2 3399   4.733   0.633  10.098  1.7789 -0.2446 -0.8398
  220MPD1    H3 3400   4.722   0.760  10.289  0.4342  0.7235  0.9831
  220MPD1     N 3401   0.230   0.451  10.520 -0.0361 -0.3484 -0.0278
  220MPD1    H5 3402   0.283   0.367  10.496  2.3275  1.2249 -0.3082
  220MPD1    N1 3403   0.148   0.415  10.049 -0.2110  0.4283 -0.5957
  220MPD1    H6 3404   0.143   0.315  10.066 -3.6236  0.6158 -0.3182
  220MPD1    H7 3405   0.079   0.441   9.978  0.0687  0.9855 -0.6668
  221MPD1     C 3406   3.514   4.072  16.369  1.0162  0.3440  0.1467
  221MPD1    C1 3407   3.412   4.007  16.308  0.3802 -0.2492 -0.2816
  221MPD1    C2 3408   3.378   3.883  16.358  0.2457  0.1945  0.0654
  221MPD1    C3 3409   3.452   3.823  16.465  0.3904 -0.0304 -0.0293
  221MPD1    C4 3410   3.551   3.898  16.517 -0.3090  0.2784 -0.2838
  221MPD1    C5 3411   3.581   4.017  16.472 -0.0297  0.6229  0.1310
  221MPD1     H 3412   3.292   3.830  16.320  1.4591 -1.6663 -0.0737
  221MPD1    H1 3413   3.614   3.875  16.603 -1.5260  0.5891  0.6884
  221MPD1    H2 3414   3.549   4.169  16.334  0.5201  0.4022 -0.1885
  221MPD1    H3 3415   3.657   4.080  16.516 -1.3261  0.6629  2.2879
  221MPD1     N 3416   3.443   3.694  16.516 -0.2885  0.7635 -0.3680
  221MPD1    H5 3417   3.506   3.658  16.586 -1.7407  0.7839  0.9434
  221MPD1    N1 3418   3.333   4.073  16.210  0.2022  0.3878  0.3486
  221MPD1    H6 3419   3.265   4.019  16.157  0.6397  1.5015 -1.3334
  221MPD1    H7 3420   3.390   4.142  16.162  0.1189  1.2802  1.5281
  222MPD1     C 3421   2.161   2.431  17.316 -0.1333  0.8586 -0.5491
  222MPD1    C1 3422   2.080   2.346  17.390  0.0712  0.1909  0.2695
  222MPD1    C2 3423   2.087   2.335  17.524 -0.1414  0.4074  0.6303
  222MPD1    C3 3424   2.188   2.399  17.590 -0.3145 -0.4447  0.7022
  222MPD1    C4 3425   2.283   2.476  17.514 -0.1201 -0.5164  0.3000
  222MPD1    C5 3426   2.272   2.484  17.376  0.4256 -0.3808 -0.5856
  222MPD1     H 3427   2.015   2.273  17.576 -2.5758  1.9676 -0.8687
  222MPD1    H1 3428   2.364   2.528  17.564  0.4279 -1.8520  0.7971
  222MPD1    H2 3429   2.155   2.440  17.208 -2.8782 -1.4120 -0.6059
  222MPD1    H3 3430   2.342   2.542  17.317 -0.3140  0.2423 -0.8502
  222MPD1     N 3431   2.202   2.396  17.734  0.5622  0.2763  0.2734
  222MPD1    H5 3432   2.284   2.441   0.022 -0.0916  1.4194  0.3097
  222MPD1    N1 3433   1.973   2.290  17.322  0.1379  0.5668  0.2316
  222MPD1    H6 3434   1.939   2.202  17.359  1.4465  1.5928  3.8259
  222MPD1    H7 3435   2.001   2.270  17.226  1.9616  0.4335  0.7889
  223MPD1     C 3436   2.153   1.985   1.005  0.2546  0.1616 -0.1356
  223MPD1    C1 3437   2.157   2.125   1.010 -1.1927 -0.0029 -0.4405
  223MPD1    C2 3438   2.127   2.184   0.888  0.0103 -0.7857 -0.1794
  223MPD1    C3 3439   2.130   2.115   0.771 -0.2583  0.1646 -0.3341
  223MPD1    C4 3440   2.138   1.976   0.772  0.2943 -0.6596 -0.1558
  223MPD1    C5 3441   2.148   1.913   0.888  0.1153 -0.0069  0.0250
  223MPD1     H 3442   2.136   2.292   0.893  0.6307 -0.7767 -1.5159
  223MPD1    H1 3443   2.143   1.918   0.681  0.7856 -0.5677 -0.1878
  223MPD1    H2 3444   2.167   1.920   1.090  0.7579 -1.2698 -1.3156
  223MPD1    H3 3445   2.158   1.805   0.886  1.1010  0.1134 -1.8112
  223MPD1     N 3446   2.125   2.197   0.655 -0.2460 -0.0381  0.1786
  223MPD1    H5 3447   2.122   2.297   0.671  0.5379  0.0461 -0.2074
  223MPD1    N1 3448   2.162   2.192   1.128 -0.4564  0.1418  0.4318
  223MPD1    H6 3449   2.206   2.134   1.199 -0.4641  0.2883  0.5567
  223MPD1    H7 3450   2.186   2.291   1.125  0.4269 -0.0687  0.4940
  224MPD1     C 3451   4.616   4.621   9.896  0.2019  0.0720  0.0142
  224MPD1    C1 3452   4.541   0.000   9.880  0.3377 -0.1228  0.6873
  224MPD1    C2 3453   4.406   4.717   9.879  0.6128  0.8866 -0.4852
  224MPD1    C3 3454   4.340   4.598   9.901  0.1812  0.0730  0.1431
  224MPD1    C4 3455   4.412   4.485   9.938 -0.3318  0.0305 -0.2071
  224MPD1    C5 3456   4.549   4.503   9.934 -0.4931 -0.5438 -0.4563
  224MPD1     H 3457   4.343   0.067   9.880  1.2459  1.3115  2.0282
  224MPD1    H1 3458   4.366   4.391   9.966 -0.9893  0.8193  1.3504
  224MPD1    H2 3459   4.722   4.614   9.876  0.2199 -0.0137  0.1420
  224MPD1    H3 3460   4.604   4.413   9.957 -1.0344 -1.3600 -2.3584
  224MPD1     N 3461   4.198   4.579   9.902  0.1801  0.0964 -0.0438
  224MPD1    H5 3462   4.161   4.485   9.916  0.6598  0.1914  1.8958
  224MPD1    N1 3463   4.596   0.121   9.835  0.1647  0.3100 -0.0374
  224MPD1    H6 3464   4.694   0.144   9.850  0.2649 -1.2080  1.7274
  224MPD1    H7 3465   4.532   0.193   9.869 -0.6514 -0.4779  0.0880
  225MPD1     C 3466   4.667   0.377  13.475 -0.2733  0.7621 -0.3269
  225MPD1    C1 3467   4.550   0.430  13.517  0.0737  0.7188  0.1523
  225MPD1    C2 3468   4.450   0.457  13.419  0.1920  0.5389 -0.7645
  225MPD1    C3 3469   4.466   0.416  13.289  0.3255 -0.1470  0.3393
  225MPD1    C4 3470   4.586   0.354  13.258 -0.2831 -0.9707  0.3020
  225MPD1    C5 3471   4.685   0.339  13.347 -0.1302  0.5195  0.2058
  225MPD1     H 3472   4.354   0.492  13.454 -1.0153 -1.8257 -1.6700
  225MPD1    H1 3473   4.600   0.317  13.157 -0.1025  2.3942 -0.8837
  225MPD1    H2 3474   0.005   0.356  13.548  0.6978  2.8405 -0.7384
  225MPD1    H3 3475   0.038   0.285  13.327  0.2932  1.0023  0.8474
  225MPD1     N 3476   4.365   0.427  13.186 -0.2014 -0.1058 -0.6962
  225MPD1    H5 3477   4.390   0.389  13.095  2.9688 -0.9263  0.5208
  225MPD1    N1 3478   4.533   0.481  13.643  0.2425  0.0964  0.2135
  225MPD1    H6 3479   4.582   0.435  13.720  0.8462 -0.1421 -0.3126
  225MPD1    H7 3480   4.435   0.498  13.666  0.7479  1.6500  1.2553
  226MPD1     C 3481   4.093   4.344   9.519  0.5005 -0.1832  0.5623
  226MPD1    C1 3482   4.205   4.424   9.520  0.0962  0.3358 -0.3621
  226MPD1    C2 3483   4.190   4.560   9.522 -0.3775  0.9235  0.4068
  226MPD1    C3 3484   4.058   4.619   9.509 -0.3184 -0.0195 -0.0130
  226MPD1    C4 3485   3.944   4.540   9.512 -0.4521 -0.4314  0.6739
  226MPD1    C5 3486   3.968   4.406   9.525  0.6923  1.2571  0.0175
  226MPD1     H 3487   4.273   4.624   9.550  0.0466  1.6986 -2.6469
  226MPD1    H1 3488   3.843   4.580   9.511  0.6715  2.3587 -0.9091
  226MPD1    H2 3489   4.100   4.236   9.523  2.2828 -0.1412 -1.9657
  226MPD1    H3 3490   3.883   4.339   9.530  1.2940  0.4317 -0.7329
  226MPD1     N 3491   4.044   0.021   9.510 -0.7784 -0.6511 -0.5483
  226MPD1    H5 3492   4.132   0.067   9.531 -2.3341  1.6128  1.0108
  226MPD1    N1 3493   4.330   4.373   9.536 -0.1476 -0.1694  0.1507
  226MPD1    H6 3494   4.397   4.441   9.501  1.1707 -2.1292 -1.1312
  226MPD1    H7 3495   4.340   4.290   9.478  0.4575  1.1066 -1.5626
  227MPD1     C 3496   3.342   0.876   9.602 -0.0805  0.3979  0.1261
  227MPD1    C1 3497   3.447   0.911   9.682 -0.7380 -0.1659 -0.1482
  227MPD1    C2 3498   3.557   0.821   9.681 -0.0641  0.0998  0.4005
  227MPD1    C3 3499   3.566   0.712   9.599  0.3098 -0.2552  0.2897
  227MPD1    C4 3500   3.454   0.682   9.517 -0.1273  0.2665  0.8116
  227MPD1    C5 3501   3.351   0.767   9.516  0.0139  0.3017 -0.2437
  227MPD1     H 3502   3.632   0.844   9.755  1.0133 -0.2785 -0.5722
  227MPD1    H1 3503   3.452   0.592   9.456 -0.1071  0.8186  0.0033
  227MPD1    H2 3504   3.255   0.941   9.598  1.5842  2.6656  0.8297
  227MPD1    H3 3505   3.277   0.748   9.440  1.2152  0.2571 -1.3941
  227MPD1     N 3506   3.671   0.615   9.623 -0.4204  0.8682 -0.0445
  227MPD1    H5 3507   3.733   0.624   9.702  0.1623 -0.3791 -0.3629
  227MPD1    N1 3508   3.442   1.009   9.788  0.6561  0.6852  0.5744
  227MPD1    H6 3509   3.538   1.039   9.802  1.1937 -0.7479 -0.0927
  227MPD1    H7 3510   3.393   1.085   9.742 -1.8732 -0.0244  2.0324
  228MPD1     C 3511   1.946   2.580  13.724 -0.4146 -0.5192 -0.2705
  228MPD1    C1 3512   1.856   2.679  13.673 -0.1325 -0.2257  0.2156
  228MPD1    C2 3513   1.778   2.637  13.562 -0.9153  0.0203 -0.5545
  228MPD1    C3 3514   1.775   2.508  13.518 -0.6014 -0.7473 -0.0828
  228MPD1    C4 3515   1.854   2.414  13.580  0.0474  0.2365 -0.5224
  228MPD1    C5 3516   1.940   2.455  13.678 -0.7837 -0.4603 -0.6838
  228MPD1     H 3517   1.702   2.698  13.516 -2.6497 -0.8416  1.1536
  228MPD1    H1 3518   1.861   2.315  13.538 -1.0284  0.2241 -0.6803
  228MPD1    H2 3519   2.030   2.622  13.778  0.2766  0.5765 -2.1964
  228MPD1    H3 3520   2.008   2.377  13.710  0.9135  0.0772 -2.9841
  228MPD1     N 3521   1.688   2.473  13.415 -0.0945  0.0074  0.6629
  228MPD1    H5 3522   1.624   2.547  13.389 -0.4191 -0.6495 -0.3797
  228MPD1    N1 3523   1.874   2.813  13.709 -0.3004  0.3938  0.0909
  228MPD1    H6 3524   1.902   2.821  13.806  1.9147  2.6447 -0.7160
  228MPD1    H7 3525   1.795   2.877  13.699  1.6949  3.1084  1.5807
  229MPD1     C 3526   1.200   1.265  14.233 -0.3605 -0.2890  0.2913
  229MPD1    C1 3527   1.068   1.292  14.247 -1.0107 -0.7894 -0.8096
  229MPD1    C2 3528   1.003   1.275  14.369 -0.4655 -1.0350 -0.2886
  229MPD1    C3 3529   1.068   1.207  14.471 -0.0099  0.4098  0.6990
  229MPD1    C4 3530   1.202   1.170  14.454 -0.5576 -0.3253 -0.1050
  229MPD1    C5 3531   1.264   1.199  14.338  0.4124  0.1243 -0.6705
  229MPD1     H 3532   0.902   1.313  14.379  0.3714  1.1387 -0.0813
  229MPD1    H1 3533   1.263   1.125  14.532 -0.9544 -0.5137  0.0975
  229MPD1    H2 3534   1.259   1.310  14.154 -1.1029  0.0365 -0.0718
  229MPD1    H3 3535   1.370   1.175  14.337  0.4871  0.5235 -2.0524
  229MPD1     N 3536   1.014   1.190  14.598 -0.0707 -0.1653 -0.4327
  229MPD1    H5 3537   1.073   1.147  14.669  0.5504  0.7817 -0.3797
  229MPD1    N1 3538   0.997   1.387  14.155 -0.2025  0.4407  0.3460
  229MPD1    H6 3539   0.896   1.396  14.166 -0.4079  0.3495 -1.4315
  229MPD1    H7 3540   1.013   1.371  14.056  1.1941  2.8678  0.1718
  230MPD1     C 3541   0.404   1.421  15.484  0.8722  0.1219  0.0835
  230MPD1    C1 3542   0.536   1.445  15.524  0.2838 -0.3964  0.3185
  230MPD1    C2 3543   0.635   1.428  15.431 -0.3384  0.6674  0.5486
  230MPD1    C3 3544   0.602   1.407  15.295 -0.1443  0.3589  0.4807
  230MPD1    C4 3545   0.471   1.393  15.259  0.0884 -0.0975 -0.1769
  230MPD1    C5 3546   0.373   1.389  15.356  0.0587  0.4682  0.3773
  230MPD1     H 3547   0.740   1.446  15.452  0.0495  0.6095 -1.2840
  230MPD1    H1 3548   0.438   1.380  15.157 -1.3612 -0.8682  0.3856
  230MPD1    H2 3549   0.328   1.422  15.561 -0.2758  2.3092 -1.0864
  230MPD1    H3 3550   0.273   1.367  15.321  0.6663 -0.2351 -0.9199
  230MPD1     N 3551   0.707   1.389  15.195  0.1711 -0.0783 -0.5889
  230MPD1    H5 3552   0.803   1.383  15.227  0.1933 -0.6054 -0.7669
  230MPD1    N1 3553   0.571   1.434  15.661  0.3724  0.2865  0.5072
  230MPD1    H6 3554   0.517   1.501  15.716  3.9557  3.1859  0.4341
  230MPD1    H7 3555   0.667   1.458  15.682  0.3428  0.6548  0.2105
  231MPD1     C 3556   4.101   2.998  15.557 -0.3285 -0.3724  0.2718
  231MPD1    C1 3557   4.060   3.024  15.428  0.3314  0.1633  0.2977
  231MPD1    C2 3558   4.151   3.088  15.345  0.8198  0.1895 -0.8777
  231MPD1    C3 3559   4.281   3.120  15.393  0.0463  1.0584  0.5915
  231MPD1    C4 3560   4.325   3.089  15.521  0.4768 -0.0135  0.0074
  231MPD1    C5 3561   4.231   3.027  15.602  0.6743  0.3673  0.2695
  231MPD1     H 3562   4.124   3.117  15.244  1.3436  0.8839 -0.8222
  231MPD1    H1 3563   4.426   3.103  15.558  0.6657  0.6318 -0.7678
  231MPD1    H2 3564   4.037   2.945  15.627 -2.1812  1.5294  0.0348
  231MPD1    H3 3565   4.264   2.999  15.702 -0.0134 -1.0389  0.0961
  231MPD1     N 3566   4.378   3.164  15.301  0.0575  0.7977  0.2145
  231MPD1    H5 3567   4.358   3.155  15.202  2.6880 -2.0842 -0.0640
  231MPD1    N1 3568   3.929   2.993  15.391  0.5619  0.2410  0.0550
  231MPD1    H6 3569   3.915   2.938  15.306 -0.1411 -0.3911  0.5884
  231MPD1    H7 3570   3.895   2.931  15.464  1.6590 -1.0403 -0.5096
  232MPD1     C 3571   2.251   0.791   0.238 -0.4608 -0.5302  0.2115
  232MPD1    C1 3572   2.217   0.766   0.371 -0.6844 -0.2269 -0.6186
  232MPD1    C2 3573   2.110   0.682   0.391 -0.3527  0.1872  0.0259
  232MPD1    C3 3574   2.056   0.607   0.290 -0.8950 -0.1062  0.2662
  232MPD1    C4 3575   2.114   0.614   0.168  0.1538 -0.6028  0.5669
  232MPD1    C5 3576   2.209   0.710   0.139 -0.6083  0.2261  0.3760
  232MPD1     H 3577   2.061   0.680   0.488 -2.1777 -0.1738 -0.8919
  232MPD1    H1 3578   2.087   0.561   0.077  0.6302 -0.5406  0.3889
  232MPD1    H2 3579   2.333   0.858   0.216  1.0118 -2.2113  0.5269
  232MPD1    H3 3580   2.255   0.723   0.041  1.6463 -2.1600  1.1145
  232MPD1     N 3581   1.938   0.530   0.312  0.3994 -0.0641 -0.6306
  232MPD1    H5 3582   1.905   0.546   0.407 -0.2009 -0.0400 -0.8415
  232MPD1    N1 3583   2.263   0.850   0.476  0.0003  0.4920 -0.0736
  232MPD1    H6 3584   2.347   0.901   0.452  1.1860 -0.9978  0.9006
  232MPD1    H7 3585   2.289   0.795   0.558  2.4280  1.2878 -0.3259
  233MPD1     C 3586   2.948   3.528   0.883  0.5669  0.4168 -0.1844
  233MPD1    C1 3587   3.069   3.598   0.880 -0.7419  0.0488  0.3068
  233MPD1    C2 3588   3.095   3.692   0.979 -0.2383 -0.8290  0.5053
  233MPD1    C3 3589   2.996   3.746   1.059 -0.7064  0.9826 -0.7350
  233MPD1    C4 3590   2.879   3.681   1.049 -0.2384 -0.1315  0.1987
  233MPD1    C5 3591   2.856   3.577   0.966 -0.9833  0.2925  0.5817
  233MPD1     H 3592   3.199   3.723   0.978 -0.8942  1.3512 -0.3528
  233MPD1    H1 3593   2.801   3.720   1.113 -2.0395 -2.0233 -0.8507
  233MPD1    H2 3594   2.922   3.439   0.827  1.0818 -1.1033  1.9919
  233MPD1    H3 3595   2.760   3.526   0.967 -0.7471 -0.1691 -0.2873
  233MPD1     N 3596   3.020   3.847   1.156  0.2462 -0.6161  0.1478
  233MPD1    H5 3597   2.942   3.882   1.210  1.7163  1.0894  1.1727
  233MPD1    N1 3598   3.169   3.545   0.803 -0.3985 -0.0244 -0.0649
  233MPD1    H6 3599   3.130   3.502   0.719 -1.5268 -0.5564  0.7192
  233MPD1    H7 3600   3.227   3.617   0.761 -0.9549  0.6584  0.3301
  234MPD1     C 3601   4.593   3.460  10.124  0.6074 -0.0471  0.0778
  234MPD1    C1 3602   4.528   3.474  10.241 -1.5583 -0.6885 -0.3007
  234MPD1    C2 3603   4.388   3.476  10.239  0.5368  0.8058  0.1664
  234MPD1    C3 3604   4.312   3.459  10.125 -0.3010 -0.0845 -0.3529
  234MPD1    C4 3605   4.382   3.459  10.011  0.6656 -0.6369  0.0906
  234MPD1    C5 3606   4.520   3.462  10.011 -0.1135  0.2990  0.0575
  234MPD1     H 3607   4.331   3.471  10.331  2.4101  0.1266  1.3041
  234MPD1    H1 3608   4.338   3.465   9.912  2.0744  1.3670 -0.4137
  234MPD1    H2 3609   4.701   3.453  10.112  0.6114 -0.8310  0.6196
  234MPD1    H3 3610   4.578   3.447   9.920  1.2036  0.1100  0.9287
  234MPD1     N 3611   4.172   3.441  10.131  0.7579 -0.2406 -0.1814
  234MPD1    H5 3612   4.132   3.437  10.224 -0.1681  2.0494 -0.4858
  234MPD1    N1 3613   4.604   3.474  10.358 -0.5718 -0.8439 -0.7250
  234MPD1    H6 3614   4.565   3.546  10.418 -0.9310 -0.9334 -0.8546
  234MPD1    H7 3615   4.702   3.482  10.331 -0.3555 -1.8782 -0.2155
  235MPD1     C 3616   4.561   0.901   9.465 -0.0491 -0.7805 -0.1252
  235MPD1    C1 3617   4.570   1.039   9.437  0.1466  0.0942  0.0054
  235MPD1    C2 3618   4.696   1.098   9.426  0.2947 -0.1941 -0.6576
  235MPD1    C3 3619   0.068   1.023   9.454 -0.0744  0.1278  0.7287
  235MPD1    C4 3620   0.050   0.892   9.504  0.4164  0.2865 -0.5426
  235MPD1    C5 3621   4.667   0.835   9.510  0.6997  0.1980  0.2002
  235MPD1     H 3622   4.716   1.201   9.397  0.1992 -0.2855 -1.0533
  235MPD1    H1 3623   0.138   0.833   9.527 -1.1012 -1.3353  1.0721
  235MPD1    H2 3624   4.473   0.845   9.494  0.2440 -0.4520  1.3700
  235MPD1    H3 3625   4.649   0.729   9.520  5.1634 -0.7921 -2.4552
  235MPD1     N 3626   0.189   1.093   9.450 -0.0265 -0.2352  0.6028
  235MPD1    H5 3627   0.180   1.184   9.407 -1.3041 -0.9081 -0.5817
  235MPD1    N1 3628   4.449   1.114   9.423  0.2009  0.1925 -0.3610
  235MPD1    H6 3629   4.371   1.059   9.457 -1.3040  0.1383 -3.8948
  235MPD1    H7 3630   4.448   1.206   9.465  1.2088 -0.7965  1.7961
  236MPD1     C 3631   3.917   1.898   9.858  0.0124 -0.5054 -0.1562
  236MPD1    C1 3632   4.035   1.933   9.796  0.3789  0.0639 -0.3586
  236MPD1    C2 3633   4.153   1.893   9.851  0.1075  0.5173 -0.3725
  236MPD1    C3 3634   4.157   1.810   9.962  0.0709  0.5493  0.1641
  236MPD1    C4 3635   4.045   1.786  10.028  0.4876  0.5655  0.6800
  236MPD1    C5 3636   3.924   1.833   9.985 -0.9762  0.2061 -0.3814
  236MPD1     H 3637   4.245   1.899   9.795  0.8783  2.3977  1.1097
  236MPD1    H1 3638   4.037   1.711  10.106 -1.3805 -0.3045 -0.3379
  236MPD1    H2 3639   3.826   1.934   9.813 -0.1955  0.8531  1.3736
  236MPD1    H3 3640   3.841   1.801  10.047 -1.5251 -0.8178 -1.6382
  236MPD1     N 3641   4.271   1.758  10.006 -0.5111  0.0635 -0.4714
  236MPD1    H5 3642   4.257   1.694  10.084 -2.7834 -0.6161 -1.4193
  236MPD1    N1 3643   4.035   1.996   9.670 -0.2721  0.4647  0.6964
  236MPD1    H6 3644   3.958   2.057   9.643 -0.1548  0.6069  0.6847
  236MPD1    H7 3645   4.124   2.041   9.653  0.7074 -1.9369 -0.5032
  237MPD1     C 3646   0.305   4.100  15.059  0.4714  0.9010  0.6121
  237MPD1    C1 3647   0.203   4.127  14.963  1.0002 -0.3263  0.4869
  237MPD1    C2 3648   0.069   4.128  14.999  0.1917  0.5692  0.0800
  237MPD1    C3 3649   0.027   4.104  15.128 -0.2425  0.0175 -0.4722
  237MPD1    C4 3650   0.132   4.091  15.228  0.3802  0.4999 -0.7960
  237MPD1    C5 3651   0.264   4.094  15.192 -0.5556 -0.0843  0.0661
  237MPD1     H 3652   4.732   4.147  14.924  0.6708 -0.2073 -0.5961
  237MPD1    H1 3653   0.114   4.102  15.334 -0.8315  1.4488 -1.0990
  237MPD1    H2 3654   0.412   4.113  15.046  0.5005 -0.7210 -0.8671
  237MPD1    H3 3655   0.340   4.085  15.269  1.4844  1.6685 -1.7431
  237MPD1     N 3656   4.632   4.094  15.172  0.0880  0.9093  0.1925
  237MPD1    H5 3657   4.633   4.053  15.264  1.2239 -0.2827 -0.3484
  237MPD1    N1 3658   0.244   4.156  14.832  0.0984 -0.1173  0.5433
  237MPD1    H6 3659   0.331   4.110  14.805 -0.7819 -1.5894  0.1934
  237MPD1    H7 3660   0.168   4.148  14.764  0.1816 -0.3836  0.4805
  238MPD1     C 3661   2.011   2.754  14.801  0.3244  0.4253 -0.6579
  238MPD1    C1 3662   1.973   2.630  14.838 -0.6380 -0.3481 -0.4116
  238MPD1    C2 3663   1.846   2.587  14.819  0.5260  0.5221 -1.1284
  238MPD1    C3 3664   1.749   2.664  14.745 -0.3316 -0.5443 -0.0771
  238MPD1    C4 3665   1.793   2.793  14.703 -1.0516 -0.0868  0.9863
  238MPD1    C5 3666   1.923   2.831  14.734  0.5955 -0.3186 -0.7099
  238MPD1     H 3667   1.822   2.484  14.840 -2.3017  1.7532  1.7155
  238MPD1    H1 3668   1.725   2.857  14.647  1.9809  2.9904  0.8058
  238MPD1    H2 3669   2.104   2.799  14.834 -2.7838  4.4781  2.6831
  238MPD1    H3 3670   1.957   2.931  14.711  1.3822 -0.0791  1.4446
  238MPD1     N 3671   1.615   2.619  14.726 -0.4541  0.4095 -0.0839
  238MPD1    H5 3672   1.555   2.673  14.663  1.6633  1.2106 -1.4014
  238MPD1    N1 3673   2.076   2.552  14.890  0.7296  0.1514 -0.2402
  238MPD1    H6 3674   2.049   2.457  14.915 -0.0569  0.4403  0.0175
  238MPD1    H7 3675   2.156   2.535  14.830  0.8291 -0.6966  0.1425
  239MPD1     C 3676   1.723   3.183  14.910 -0.9452  0.1727 -0.1356
  239MPD1    C1 3677   1.826   3.245  14.852 -0.3209 -0.6000  0.0914
  239MPD1    C2 3678   1.803   3.379  14.807 -0.1742  0.1603  0.5342
  239MPD1    C3 3679   1.689   3.451  14.819  0.0574 -0.2682  0.3764
  239MPD1    C4 3680   1.582   3.387  14.879  0.2068 -0.5285  0.2188
  239MPD1    C5 3681   1.606   3.259  14.928  0.1238  0.4412 -0.4737
  239MPD1     H 3682   1.888   3.423  14.755  0.5016 -2.1386 -0.2886
  239MPD1    H1 3683   1.487   3.431  14.907  1.0012  0.4487  1.4036
  239MPD1    H2 3684   1.723   3.086  14.958 -1.3656  0.4250  0.3789
  239MPD1    H3 3685   1.525   3.216  14.986  2.3669 -0.3547  2.0954
  239MPD1     N 3686   1.653   3.573  14.748 -0.3767  0.1969  0.0112
  239MPD1    H5 3687   1.559   3.606  14.768 -0.5512 -0.6321  0.5620
  239MPD1    N1 3688   1.948   3.180  14.822  0.0358  0.8982 -0.4001
  239MPD1    H6 3689   2.022   3.245  14.846  1.6969 -1.1703  0.0250
  239MPD1    H7 3690   1.962   3.095  14.876 -0.4135  0.6098 -0.7382
  240MPD1     C 3691   0.810   3.884  13.829  0.0716 -0.1558 -0.8654
  240MPD1    C1 3692   0.830   3.781  13.741  0.7514 -0.2018  0.5087
  240MPD1    C2 3693   0.839   3.653  13.800  0.2600 -0.8055 -0.0781
  240MPD1    C3 3694   0.802   3.625  13.921  0.4116 -0.9028 -0.2998
  240MPD1    C4 3695   0.764   3.727  14.002  0.4253  0.0617 -0.2787
  240MPD1    C5 3696   0.774   3.856  13.958  0.2398  0.0527 -0.6859
  240MPD1     H 3697   0.868   3.572  13.733  0.7147 -0.6733 -0.0402
  240MPD1    H1 3698   0.745   3.713  14.108 -0.5840 -1.6718 -0.6948
  240MPD1    H2 3699   0.819   3.990  13.807  1.2462 -0.3410 -1.2661
  240MPD1    H3 3700   0.748   3.937  14.025  0.3083 -0.8708  0.4615
  240MPD1     N 3701   0.814   3.492  13.960  0.3114 -0.3936  0.1810
  240MPD1    H5 3702   0.850   3.421  13.898  0.7206 -0.7609  0.8473
  240MPD1    N1 3703   0.873   3.807  13.610  0.1993 -0.0225  0.2544
  240MPD1    H6 3704   0.869   3.726  13.548 -0.0725  1.0773 -1.1620
  240MPD1    H7 3705   0.820   3.882  13.566  1.2909  0.9131  0.5228
  241MPD1     C 3706   1.589   2.895  14.026  0.4596  0.1289  0.4407
  241MPD1    C1 3707   1.583   3.032  14.033 -0.1023 -0.3910  0.3679
  241MPD1    C2 3708   1.454   3.080  14.052 -0.3922  0.2721 -0.5271
  241MPD1    C3 3709   1.339   3.007  14.073 -0.2171  0.5347  0.4481
  241MPD1    C4 3710   1.354   2.874  14.050 -0.1804 -0.9128 -0.1532
  241MPD1    C5 3711   1.478   2.821  14.033  0.5690  0.8106 -0.2945
  241MPD1     H 3712   1.438   3.188  14.052  1.7176  0.5818  0.4594
  241MPD1    H1 3713   1.268   2.810  14.062 -0.9024 -0.0709 -0.7728
  241MPD1    H2 3714   1.684   2.845  14.010  1.1117  1.6448 -0.4148
  241MPD1    H3 3715   1.489   2.713  14.027 -1.6236  0.4039  3.0073
  241MPD1     N 3716   1.209   3.053  14.083 -0.0697  0.0291  0.4604
  241MPD1    H5 3717   1.143   2.980  14.110 -0.4562  0.0704 -0.3833
  241MPD1    N1 3718   1.681   3.125  14.001 -0.1099  0.3900 -0.0278
  241MPD1    H6 3719   1.659   3.218  14.034  0.5884  0.6891 -0.3906
  241MPD1    H7 3720   1.777   3.097  14.023 -0.0814  1.9805  1.8572
  242MPD1     C 3721   1.047   1.397  16.080 -0.8721  0.7074 -0.6404
  242MPD1    C1 3722   0.954   1.357  15.992  0.6688 -0.2873  0.0958
  242MPD1    C2 3723   0.946   1.429  15.870  0.4660  0.3790  0.5881
  242MPD1    C3 3724   1.034   1.536  15.845 -0.2464 -0.3366 -0.7178
  242MPD1    C4 3725   1.118   1.580  15.946 -0.3087  0.1777 -0.0840
  242MPD1    C5 3726   1.118   1.511  16.065 -0.0695  0.8956 -0.0106
  242MPD1     H 3727   0.882   1.396  15.789  0.4445 -0.5857  0.9984
  242MPD1    H1 3728   1.185   1.663  15.930  1.3907 -1.2875 -0.6599
  242MPD1    H2 3729   1.070   1.338  16.168 -1.4965 -0.3168 -1.1665
  242MPD1    H3 3730   1.193   1.537  16.138 -0.4729  0.9123  0.3937
  242MPD1     N 3731   1.030   1.602  15.718  0.4009 -0.0510  0.3700
  242MPD1    H5 3732   1.102   1.671  15.701  0.5242 -0.2169  0.2176
  242MPD1    N1 3733   0.881   1.240  16.016  0.7780 -0.3038  0.0610
  242MPD1    H6 3734   0.854   1.240  16.114 -1.1456  1.5736 -0.4497
  242MPD1    H7 3735   0.801   1.240  15.953  0.4426  0.3534  0.4840
  243MPD1     C 3736   2.448   0.106  17.250 -0.5556  0.8559 -0.4350
  243MPD1    C1 3737   2.551   0.046  17.181  0.3923 -0.0879  0.0286
  243MPD1    C2 3738   2.590   0.097  17.062 -0.7661 -0.4880 -0.1703
  243MPD1    C3 3739   2.528   0.209  17.011 -0.2509 -0.1491  0.4111
  243MPD1    C4 3740   2.429   0.270  17.087 -0.2902  0.1850 -0.5771
  243MPD1    C5 3741   2.387   0.219  17.206  0.8125  0.6284  0.3325
  243MPD1     H 3742   2.656   0.036  17.001 -0.1921 -0.2226  0.1958
  243MPD1    H1 3743   2.375   0.352  17.039  0.2941 -0.6126 -2.6260
  243MPD1    H2 3744   2.410   0.068  17.344  1.1895 -3.1944 -1.3690
  243MPD1    H3 3745   2.312   0.268  17.267 -0.6863 -1.4914  0.1603
  243MPD1     N 3746   2.575   0.262  16.890 -0.2948  0.1725  0.6502
  243MPD1    H5 3747   2.657   0.222  16.846  0.8137  1.0750  1.8987
  243MPD1    N1 3748   2.597   4.661  17.228  0.1061  0.2160  0.0017
  243MPD1    H6 3749   2.582   4.657  17.328  1.9035 -2.4176  0.1576
  243MPD1    H7 3750   2.693   4.648  17.198  0.0245  1.1721 -0.6749
  244MPD1     C 3751   3.060   4.512  16.436 -0.0529  0.0037 -0.2195
  244MPD1    C1 3752   3.029   4.534  16.567  0.2092 -0.0302  0.0999
  244MPD1    C2 3753   2.981   4.657  16.596  0.2086 -0.0886 -0.2101
  244MPD1    C3 3754   2.933   4.737  16.498  0.2212  0.3532  0.9883
  244MPD1    C4 3755   2.957   4.709  16.362  0.0192  0.8424  0.1785
  244MPD1    C5 3756   3.029   4.595  16.335  0.2644 -0.7344  0.6535
  244MPD1     H 3757   2.954   4.673  16.700  0.0556 -1.9905  0.0438
  244MPD1    H1 3758   2.927   0.029  16.276  0.0404  0.4561 -0.0907
  244MPD1    H2 3759   3.115   4.421  16.414 -2.9939 -1.6881 -0.6526
  244MPD1    H3 3760   3.059   4.573  16.233  1.7151  1.7115  0.5510
  244MPD1     N 3761   2.856   0.110  16.535 -0.2800  0.1798  0.0700
  244MPD1    H5 3762   2.856   0.127  16.635 -0.4715  1.1987 -0.1040
  244MPD1    N1 3763   3.075   4.455  16.672 -0.4089  0.4461  0.0376
  244MPD1    H6 3764   3.020   4.488  16.752 -1.8398  0.3908 -0.9396
  244MPD1    H7 3765   3.041   4.365  16.640 -0.1937 -0.0483  1.1673
  245MPD1     C 3766   3.884   1.031  12.966  0.1850 -0.3555  0.3290
  245MPD1    C1 3767   3.986   1.002  13.051 -0.2706  0.5982  0.4357
  245MPD1    C2 3768   4.040   1.100  13.133 -0.1255  0.0298  0.7374
  245MPD1    C3 3769   3.989   1.229  13.125  0.4460 -0.4496 -0.1703
  245MPD1    C4 3770   3.891   1.264  13.036 -1.2158 -0.1185  0.4255
  245MPD1    C5 3771   3.843   1.162  12.956  0.1437 -0.4088 -0.0846
  245MPD1     H 3772   4.126   1.082  13.197  0.2713  1.9124  0.7442
  245MPD1    H1 3773   3.841   1.360  13.035  0.9134  0.9994  3.4608
  245MPD1    H2 3774   3.841   0.956  12.901 -0.0592 -1.7433  2.1144
  245MPD1    H3 3775   3.763   1.186  12.887  1.5503  1.1015 -1.1962
  245MPD1     N 3776   4.045   1.318  13.213 -0.1665  0.1619 -0.2524
  245MPD1    H5 3777   4.115   1.285  13.279 -1.3607  0.4511  1.1635
  245MPD1    N1 3778   4.037   0.877  13.060  0.8776 -0.3619 -0.2829
  245MPD1    H6 3779   3.966   0.808  13.082  0.0747  0.4264 -0.4145
  245MPD1    H7 3780   4.108   0.873  13.134 -1.1332  1.4446  1.7357
  246MPD1     C 3781   4.593   0.412   9.648 -0.2871  0.3113 -0.0848
  246MPD1    C1 3782   4.692   0.470   9.716  0.2992 -0.0885  0.0195
  246MPD1    C2 3783   4.668   0.597   9.767  0.2752 -0.4660  0.5660
  246MPD1    C3 3784   4.538   0.647   9.774 -0.3479  0.4848 -0.1913
  246MPD1    C4 3785   4.430   0.574   9.723  0.1043 -0.6142 -0.2696
  246MPD1    C5 3786   4.460   0.453   9.665  0.3841 -0.8862 -0.3295
  246MPD1     H 3787   0.007   0.665   9.799  1.2786 -2.5155  2.4817
  246MPD1    H1 3788   4.330   0.614   9.710  1.0037  1.8159  0.3759
  246MPD1    H2 3789   4.616   0.327   9.585 -0.3379  0.0777  0.2065
  246MPD1    H3 3790   4.382   0.406   9.606 -0.7373 -0.5992  0.9511
  246MPD1     N 3791   4.525   0.784   9.813  0.4163  0.1961  0.6206
  246MPD1    H5 3792   4.611   0.831   9.837 -0.3416  1.2169  1.3576
  246MPD1    N1 3793   0.085   0.429   9.699 -0.1640 -0.6079 -0.0783
  246MPD1    H6 3794   0.091   0.338   9.743 -0.0125 -0.6690 -0.2241
  246MPD1    H7 3795   0.154   0.497   9.729 -0.6468 -0.1544  0.0157
  247MPD1     C 3796   3.229   2.400  14.903  0.7616  0.4829 -0.4719
  247MPD1    C1 3797   3.177   2.272  14.889  0.0044  0.4338  0.5450
  247MPD1    C2 3798   3.213   2.186  14.985 -0.3317  0.0427  0.3834
  247MPD1    C3 3799   3.288   2.225  15.095  0.3639  0.6100 -0.0322
  247MPD1    C4 3800   3.345   2.355  15.107  0.5448 -0.3986 -0.0237
  247MPD1    C5 3801   3.310   2.445  15.010  0.3771  0.4043  0.1067
  247MPD1     H 3802   3.181   2.082  14.981 -0.5522  0.1722 -1.2261
  247MPD1    H1 3803   3.401   2.391  15.194  0.6836  1.1607 -0.7554
  247MPD1    H2 3804   3.206   2.471  14.824 -0.2582  2.4206  1.5458
  247MPD1    H3 3805   3.345   2.548  15.009 -1.1884  0.9518  0.5502
  247MPD1     N 3806   3.327   2.137  15.195  0.2928 -0.2798 -1.0353
  247MPD1    H5 3807   3.382   2.166  15.275 -1.2091  3.7039 -1.4621
  247MPD1    N1 3808   3.144   2.220  14.764 -0.0675  0.1444  0.3935
  247MPD1    H6 3809   3.085   2.292  14.722 -0.6095  0.9400  2.5322
  247MPD1    H7 3810   3.087   2.136  14.770 -0.8362  0.7866  2.1412
  248MPD1     C 3811   0.350   0.537   0.464  0.5186  0.0176 -0.7767
  248MPD1    C1 3812   0.219   0.565   0.422  0.6884  0.2516  0.0865
  248MPD1    C2 3813   0.132   0.613   0.516 -0.2482  0.1151 -0.5960
  248MPD1    C3 3814   0.166   0.630   0.647 -0.1946  0.4886 -0.0683
  248MPD1    C4 3815   0.295   0.607   0.685  1.5925  0.2934 -0.2428
  248MPD1    C5 3816   0.383   0.556   0.595  0.2514 -0.8886  0.7659
  248MPD1     H 3817   0.028   0.625   0.489 -0.3062 -2.4521 -1.4807
  248MPD1    H1 3818   0.334   0.629   0.784  1.6773  0.0100 -0.2120
  248MPD1    H2 3819   0.434   0.499   0.407  0.9225  0.7142 -0.6446
  248MPD1    H3 3820   0.484   0.528   0.622 -0.3385 -2.6405  1.1833
  248MPD1     N 3821   0.075   0.694   0.737 -0.0324 -0.3552  0.5115
  248MPD1    H5 3822   4.723   0.714   0.697 -0.2936  0.9987  1.8027
  248MPD1    N1 3823   0.179   0.560   0.289  0.2018  0.2710  0.1883
  248MPD1    H6 3824   0.248   0.495   0.252 -0.8933 -0.6066 -0.3070
  248MPD1    H7 3825   0.082   0.530   0.276  0.1121  0.3381  0.7184
  249MPD1     C 3826   1.191   0.623   9.077 -0.0270 -0.5248  1.0573
  249MPD1    C1 3827   1.086   0.578   9.154 -0.6811 -0.7852 -0.4884
  249MPD1    C2 3828   1.126   0.509   9.268 -0.5967 -0.2796  0.7671
  249MPD1    C3 3829   1.252   0.490   9.309  0.3158  0.3327 -0.0116
  249MPD1    C4 3830   1.352   0.551   9.246 -0.7125  0.2438  0.6068
  249MPD1    C5 3831   1.323   0.613   9.121  0.3192  0.1693  0.4928
  249MPD1     H 3832   1.048   0.462   9.326 -0.3968  0.5122  1.6840
  249MPD1    H1 3833   1.455   0.548   9.282 -0.0929 -0.4395 -1.1974
  249MPD1    H2 3834   1.179   0.673   8.982 -2.0771 -3.1151 -0.0380
  249MPD1    H3 3835   1.402   0.655   9.061 -0.9771 -0.5555 -1.7423
  249MPD1     N 3836   1.269   0.424   9.432  0.2684 -0.2593  0.0432
  249MPD1    H5 3837   1.193   0.380   9.482  1.0322 -1.1048  0.4396
  249MPD1    N1 3838   0.956   0.574   9.098 -0.5237  0.2667  0.4260
  249MPD1    H6 3839   0.951   0.644   9.024  1.4630 -0.5254 -0.4563
  249MPD1    H7 3840   0.895   0.601   9.175 -2.1394 -0.4951 -0.5832
  250MPD2     C 3841   2.873   4.145  12.658 -0.5638 -0.0808  0.1885
  250MPD2    C1 3842   2.774   4.238  12.615 -0.1332 -0.8355  0.8985
  250MPD2    C2 3843   2.665   4.184  12.547 -0.6552 -0.2780  0.0356
  250MPD2    C3 3844   2.663   4.050  12.515  0.2108  0.2089 -0.3346
  250MPD2    C4 3845   2.764   3.968  12.553  1.0401  0.6455  0.4901
  250MPD2    C5 3846   2.865   4.010  12.636  0.4303  0.0747  0.1193
  250MPD2     H 3847   2.587   4.250  12.512  0.3132  1.3862  1.0123
  250MPD2    H1 3848   2.770   3.863  12.529 -1.6080  0.6035  0.0318
  250MPD2    H2 3849   2.962   4.182  12.708 -0.3485 -0.4898  0.1118
  250MPD2    H3 3850   2.941   3.935  12.656  0.9969  0.5366 -0.3199
  250MPD2     N 3851   2.562   3.982  12.437 -0.2918  0.3057  0.2730
  250MPD2    H5 3852   2.563   3.880  12.434  2.5018  0.2559  3.0635
  250MPD2    N1 3853   2.779   4.368  12.668 -0.3499  0.0770 -0.5223
  250MPD2    H7 3854   2.866   4.396  12.712 -2.1628  1.5648  2.1032
  251TMC3    C1 3855   2.723   4.592  12.693 -0.5290  0.9588  0.1222
  251TMC3    C2 3856   2.623   4.676  12.736  0.7743 -0.5238 -0.5109
  251TMC3    C3 3857   2.663   0.055  12.790 -0.3174 -0.7119  0.2020
  251TMC3    C4 3858   2.855   4.613  12.692  0.1644 -0.4022  0.4162
  251TMC3    C5 3859   2.885   0.000  12.722  0.6270 -0.1442  0.2818
  251TMC3    C6 3860   2.799   0.088  12.790 -0.7969  0.0571 -0.5325
  251TMC3     C 3861   2.681   4.456  12.659 -0.3395 -0.2681 -0.1281
  251TMC3     O 3862   2.562   4.426  12.664 -0.4540 -0.0572  0.6497
  251TMC3     H 3863   2.518   4.653  12.728  0.9300 -1.2227 -0.5611
  251TMC3    H1 3864   2.928   4.549  12.645 -0.6931 -1.9367  1.1665
  251TMC3    H2 3865   2.821   0.189  12.821 -0.2190 -0.5140  0.8975
  251TMC3    C7 3866   3.025   0.022  12.723  0.1164 -0.3215 -0.0909
  251TMC3    C8 3867   2.566   0.143  12.854  0.3802 -0.8317 -0.1276
  251TMC3    O1 3868   3.107   4.674  12.701  0.8015  0.1762  0.0053
  251TMC3    O2 3869   2.447   0.141  12.812 -0.5159  0.0558  0.2167
  252TMC3    C1 3870   3.009   1.859   9.249  0.2934 -0.6145  0.5362
  252TMC3    C2 3871   3.105   1.914   9.338  0.3992  0.1690  0.3165
  252TMC3    C3 3872   3.109   1.857   9.468  0.3688 -0.7236  0.1376
  252TMC3    C4 3873   2.905   1.783   9.300 -0.0621  0.0123  0.2077
  252TMC3    C5 3874   2.916   1.735   9.438  1.0088  1.0235 -0.0602
  252TMC3    C6 3875   3.015   1.777   9.519  0.1957  0.4713 -0.6966
  252TMC3     C 3876   2.999   1.901   9.100 -0.3599 -0.6581  0.4687
  252TMC3     O 3877   2.888   1.886   9.046 -0.3704  0.1447  0.0288
  252TMC3     H 3878   3.184   1.978   9.300  2.3134 -2.2498  0.2295
  252TMC3    H1 3879   2.829   1.745   9.233  1.2846 -0.6278 -0.9525
  252TMC3    H2 3880   3.014   1.780   9.628  2.9027  3.5229 -0.7333
  252TMC3    C7 3881   2.797   1.671   9.483  0.3754  0.2535 -0.2267
  252TMC3    C8 3882   3.228   1.895   9.542  0.3029  0.1335  0.4207
  252TMC3    O1 3883   2.691   1.709   9.433 -0.1957  0.6231  0.4109
  252TMC3    O2 3884   3.283   1.997   9.506  0.2287 -0.2102 -0.3921
  253MPD2     C 3885   4.237   4.560  15.150  0.7623  0.5119  0.3626
  253MPD2    C1 3886   4.104   4.573  15.194 -0.0459 -0.5227  0.2921
  253MPD2    C2 3887   4.077   4.567  15.325  0.7673 -0.3280  0.3116
  253MPD2    C3 3888   4.181   4.553  15.423  0.1237 -0.9833  0.2873
  253MPD2    C4 3889   4.311   4.540  15.372  0.2104  0.1919  0.5758
  253MPD2    C5 3890   4.336   4.538  15.237 -0.1397 -0.5275 -0.0070
  253MPD2     H 3891   3.972   4.587  15.344  0.5519 -0.3353 -0.8703
  253MPD2    H1 3892   4.391   4.510  15.438 -1.3919 -1.5761  1.7171
  253MPD2    H2 3893   4.261   4.547  15.045 -0.4967 -0.1393  0.1510
  253MPD2    H3 3894   4.436   4.514  15.203  0.4082  0.5908  0.7926
  253MPD2     N 3895   4.162   4.559  15.566 -0.1193  0.1129 -0.1969
  253MPD2    H5 3896   4.243   4.556  15.628  0.5181 -1.3288 -1.1088
  253MPD2    N1 3897   3.987   4.597  15.120 -0.1232  0.4538 -0.4099
  253MPD2    H7 3898   3.905   4.590  15.179  0.2120  1.2996  0.1624
  254TMC3    C1 3899   4.034   4.547  15.778 -0.3540 -0.0021  0.1558
  254TMC3    C2 3900   3.912   4.567  15.834  0.1243 -0.2524  0.8024
  254TMC3    C3 3901   3.902   4.577  15.964 -0.3755 -0.0163 -0.2007
  254TMC3    C4 3902   4.141   4.544  15.864  1.0845  0.3406 -0.0855
  254TMC3    C5 3903   4.130   4.584  15.991 -0.2016 -0.8784  0.3301
  254TMC3    C6 3904   4.005   4.587  16.052  0.3002 -0.2567 -0.3624
  254TMC3     C 3905   4.045   4.552  15.635  0.0097 -0.5768 -0.2941
  254TMC3     O 3906   3.935   4.541  15.581 -0.7570 -0.1006 -0.3725
  254TMC3     H 3907   3.819   4.586  15.781  0.3580  1.3223  0.9581
  254TMC3    H1 3908   4.242   4.529  15.826  0.7740 -3.5850  0.6170
  254TMC3    H2 3909   3.990   4.648  16.141  0.0533 -1.4028  0.3818
  254TMC3    C7 3910   4.250   4.638  16.067 -0.2925 -0.1622 -0.0068
  254TMC3    C8 3911   3.787   4.645  16.004 -0.2985  0.8944 -0.2398
  254TMC3    O1 3912   4.225   4.674  16.182  0.3408  0.5549  0.4564
  254TMC3    O2 3913   3.747   4.616  16.116  0.0281  0.2822  0.5641
  255MPD2     C 3914   1.996   2.162  10.404 -0.4312  0.1947 -0.7608
  255MPD2    C1 3915   2.111   2.242  10.430 -0.7887 -0.2548 -0.2691
  255MPD2    C2 3916   2.239   2.185  10.400  0.5007  0.2870 -0.2688
  255MPD2    C3 3917   2.246   2.059  10.341  0.0453 -0.6482  0.5815
  255MPD2    C4 3918   2.133   1.982  10.322  0.2877 -0.7805 -0.6032
  255MPD2    C5 3919   2.009   2.043  10.345  0.5449 -0.6046 -0.7283
  255MPD2     H 3920   2.333   2.236  10.416  0.1975  0.6557  0.3243
  255MPD2    H1 3921   2.134   1.885  10.275  0.1653 -0.4557 -1.2791
  255MPD2    H2 3922   1.898   2.206  10.421  0.0707  0.5524  1.2942
  255MPD2    H3 3923   1.914   1.993  10.327 -0.5725  1.3973 -0.3415
  255MPD2     N 3924   2.374   2.028  10.289  0.6318 -0.0176  0.1285
  255MPD2    H5 3925   2.448   2.092  10.316  0.2087  0.5218  0.0104
  255MPD2    N1 3926   2.092   2.373  10.487 -0.6190 -0.2956  0.1601
  255MPD2    H7 3927   1.994   2.386  10.508 -0.3115 -0.1736  1.5187
  256TMC3    C1 3928   2.145   2.590  10.579  0.2887 -0.0910  0.7146
  256TMC3    C2 3929   2.242   2.668  10.636 -0.1107  0.4802  0.3366
  256TMC3    C3 3930   2.235   2.800  10.610 -0.1445  0.5972 -0.0586
  256TMC3    C4 3931   2.040   2.644  10.513 -0.1383  0.1802  0.0385
  256TMC3    C5 3932   2.027   2.782  10.510 -0.3039  0.2723 -0.2074
  256TMC3    C6 3933   2.126   2.857  10.556  0.5586  1.3746  0.0294
  256TMC3     C 3934   2.194   2.463  10.525  0.6704 -0.1500  0.5397
  256TMC3     O 3935   2.316   2.461  10.508  0.8085  0.3617  0.1414
  256TMC3     H 3936   2.320   2.626  10.699  3.0122  3.0704 -1.8199
  256TMC3    H1 3937   1.958   2.589  10.468  0.5615 -0.4402 -0.4908
  256TMC3    H2 3938   2.116   2.964  10.571 -1.6625  0.9186  1.7560
  256TMC3    C7 3939   1.943   2.842  10.408 -0.7210  0.1559  0.0777
  256TMC3    C8 3940   2.359   2.841  10.552  0.0088  0.0903  0.6886
  256TMC3    O1 3941   1.892   2.776  10.317  0.3432 -0.5832  0.5845
  256TMC3    O2 3942   2.455   2.766  10.570  0.1254  0.1750  0.4297
  257MPD2     C 3943   1.148   4.319  13.423 -0.5060 -0.8070 -0.3240
  257MPD2    C1 3944   1.096   4.198  13.380 -0.2153 -0.2666  0.2609
  257MPD2    C2 3945   1.081   4.086  13.456 -0.3794  0.3789 -0.9827
  257MPD2    C3 3946   1.143   4.084  13.579  0.2883 -0.3813  0.5407
  257MPD2    C4 3947   1.207   4.199  13.622  0.2209 -0.0165  0.4966
  257MPD2    C5 3948   1.201   4.316  13.544 -0.8387  0.4372  0.1654
  257MPD2     H 3949   1.047   3.995  13.406 -1.2784  1.2742 -2.0037
  257MPD2    H1 3950   1.244   4.211  13.723  0.3805  2.7722  0.1158
  257MPD2    H2 3951   1.137   4.414  13.373  1.6122 -1.5324 -2.1643
  257MPD2    H3 3952   1.239   4.407  13.589  0.2241  0.1293 -0.1026
  257MPD2     N 3953   1.147   3.965  13.652 -0.3527 -0.4358  0.3999
  257MPD2    H5 3954   1.073   3.897  13.645 -0.2461 -0.2768 -2.2778
  257MPD2    N1 3955   1.038   4.196  13.249  0.4960 -0.0595 -0.8921
  257MPD2    H7 3956   0.978   4.116  13.229  1.8164 -1.3536  0.2911
  258TMC3    C1 3957   1.227   3.819  13.801  0.6593 -0.0676 -1.0103
  258TMC3    C2 3958   1.197   3.715  13.714 -0.5493 -0.3371  0.2426
  258TMC3    C3 3959   1.211   3.587  13.756  0.0728  0.3206 -0.6501
  258TMC3    C4 3960   1.274   3.796  13.929 -0.5352  0.1515  0.6079
  258TMC3    C5 3961   1.298   3.664  13.966  0.1842  0.1005 -0.1443
  258TMC3    C6 3962   1.251   3.562  13.888 -0.0310  0.0737  0.1861
  258TMC3     C 3963   1.240   3.945  13.749 -0.3375 -0.2012  0.3599
  258TMC3     O 3964   1.342   4.010  13.777  0.0491 -0.3542  0.5222
  258TMC3     H 3965   1.172   3.741  13.611 -0.5191  2.6342  0.9823
  258TMC3    H1 3966   1.305   3.876  13.995  1.6354  0.9885 -1.4279
  258TMC3    H2 3967   1.260   3.462  13.928 -2.6301 -0.0607  0.4503
  258TMC3    C7 3968   1.404   3.650  14.058 -0.2027  0.5651  0.4417
  258TMC3    C8 3969   1.178   3.487  13.664 -0.2250 -0.1372  0.0803
  258TMC3    O1 3970   1.472   3.748  14.087  0.6698  0.0890 -0.3516
  258TMC3    O2 3971   1.135   3.526  13.557 -0.0466  0.5275 -0.2026
  259MPD2     C 3972   0.427   1.404   0.723 -0.6420 -0.1086 -0.1007
  259MPD2    C1 3973   0.527   1.365   0.804 -0.0896  0.2128  0.2203
  259MPD2    C2 3974   0.638   1.298   0.748  0.2389 -0.2284 -0.5606
  259MPD2    C3 3975   0.646   1.275   0.612  0.2415  0.7018  0.1760
  259MPD2    C4 3976   0.541   1.320   0.526 -0.9946  0.0435  0.0429
  259MPD2    C5 3977   0.429   1.383   0.588 -0.0466 -0.5969 -0.2237
  259MPD2     H 3978   0.724   1.268   0.806 -0.9672 -0.7958  0.9111
  259MPD2    H1 3979   0.542   1.304   0.419 -0.8034 -0.0657  0.0613
  259MPD2    H2 3980   0.335   1.450   0.758  1.3926  3.0855  1.0158
  259MPD2    H3 3981   0.343   1.413   0.530 -0.0934 -0.6605 -0.1879
  259MPD2     N 3982   0.758   1.196   0.566  0.1272  0.2108  0.3117
  259MPD2    H5 3983   0.816   1.145   0.632 -1.3535 -0.1466  1.3393
  259MPD2    N1 3984   0.519   1.374   0.942  0.3282  0.4898 -0.0050
  259MPD2    H7 3985   0.427   1.404   0.973 -0.0774  1.0885 -1.8142
  260TMC3    C1 3986   0.900   1.077   0.422 -0.3259 -0.1527 -0.0147
  260TMC3    C2 3987   0.967   1.081   0.306  0.3378  0.1852  0.1826
  260TMC3    C3 3988   1.091   1.025   0.306  0.0183 -0.0159 -0.3861
  260TMC3    C4 3989   0.935   0.995   0.529  0.2432 -1.2566 -0.5921
  260TMC3    C5 3990   1.057   0.952   0.525 -0.2426  0.1658  0.5254
  260TMC3    C6 3991   1.143   0.961   0.419 -0.2476 -0.5945 -0.1577
  260TMC3     C 3992   0.775   1.155   0.433  0.0962 -0.5051 -0.5125
  260TMC3     O 3993   0.726   1.206   0.333  0.1071  0.0421 -0.2142
  260TMC3     H 3994   0.935   1.136   0.218  1.4746 -0.1243 -0.4282
  260TMC3    H1 3995   0.876   0.988   0.620 -0.1727 -0.0588 -0.7764
  260TMC3    H2 3996   1.247   0.933   0.425  0.1545  0.8639 -0.3339
  260TMC3    C7 3997   1.075   0.814   0.579 -0.4314  0.3682 -0.1820
  260TMC3    C8 3998   1.145   0.979   0.176  1.5363 -0.3548 -0.5509
  260TMC3    O1 3999   1.130   0.751   0.493 -0.0719 -0.3139  0.4627
  260TMC3    O2 4000   1.156   1.049   0.076 -0.0412  0.4777  0.1024
  261MPD2     C 4001   2.178   3.934  11.706  0.4116 -0.4075 -0.6801
  261MPD2    C1 4002   2.213   4.036  11.788 -0.3571 -0.1637  0.7600
  261MPD2    C2 4003   2.197   4.168  11.732 -0.0596 -0.0199  0.2438
  261MPD2    C3 4004   2.162   4.196  11.606  0.9508 -0.1624  0.4808
  261MPD2    C4 4005   2.135   4.089  11.524 -0.0287 -0.0331 -0.2214
  261MPD2    C5 4006   2.152   3.964  11.572 -0.2892  0.1212  0.3249
  261MPD2     H 4007   2.229   4.251  11.794 -1.4329  0.4912  0.2644
  261MPD2    H1 4008   2.098   4.102  11.423  1.1770 -1.9377 -0.9173
  261MPD2    H2 4009   2.173   3.829  11.731  0.1704 -0.3801 -0.6048
  261MPD2    H3 4010   2.103   3.888  11.513 -0.0653  0.4842 -0.3231
  261MPD2     N 4011   2.161   4.336  11.556  0.0499 -0.2047  0.0657
  261MPD2    H5 4012   2.172   4.406  11.629 -0.4742  0.8773 -0.8845
  261MPD2    N1 4013   2.262   4.018  11.924 -0.0942  0.2878 -0.2251
  261MPD2    H7 4014   2.251   4.091  11.993  1.2631 -0.0540  0.3471
  262TMC3    C1 4015   2.111   4.523  11.400 -0.1119  0.2365  0.4772
  262TMC3    C2 4016   2.051   4.564  11.286 -0.4576 -0.2048 -0.5230
  262TMC3    C3 4017   2.066   4.698  11.246  0.6362 -0.8708 -0.1525
  262TMC3    C4 4018   2.210   4.596  11.465 -0.0699 -0.3191 -0.1873
  262TMC3    C5 4019   2.238   4.717  11.406 -0.6871 -0.7181 -0.0585
  262TMC3    C6 4020   2.165   0.036  11.299 -0.5147  0.0997  0.3497
  262TMC3     C 4021   2.105   4.376  11.435  0.0400  0.1480  0.1836
  262TMC3     O 4022   2.016   4.322  11.367  0.1274  0.1473  0.5623
  262TMC3     H 4023   1.988   4.495  11.230 -0.6672  0.3164 -0.9301
  262TMC3    H1 4024   2.274   4.553  11.541  0.5897 -0.5085 -0.8530
  262TMC3    H2 4025   2.192   0.131  11.256 -0.3030 -1.2911 -2.6313
  262TMC3    C7 4026   2.346   0.058  11.470 -0.1252 -0.1270  0.3091
  262TMC3    C8 4027   1.949   0.029  11.215 -0.3406  0.4223  0.7282
  262TMC3    O1 4028   2.421   4.733  11.542  0.1496  0.0063 -0.0779
  262TMC3    O2 4029   1.963   0.140  11.167 -0.0218  0.0913 -0.4308
  263MPD2     C 4030   3.241   3.811  11.360  0.4518 -0.4021  0.4934
  263MPD2    C1 4031   3.348   3.779  11.280  0.1966 -0.0670 -0.3003
  263MPD2    C2 4032   3.353   3.816  11.143  0.5794 -0.5529 -0.1454
  263MPD2    C3 4033   3.247   3.878  11.080  0.3600 -0.2151 -0.6633
  263MPD2    C4 4034   3.136   3.906  11.159 -0.1066  0.6600 -0.5788
  263MPD2    C5 4035   3.129   3.872  11.297  0.2433  0.2505  0.7858
  263MPD2     H 4036   3.442   3.795  11.085  0.8181 -0.1921  0.0881
  263MPD2    H1 4037   3.042   3.924  11.109 -0.6465 -0.6682 -0.0602
  263MPD2    H2 4038   3.237   3.775  11.462  0.1308  2.0813  1.3409
  263MPD2    H3 4039   3.041   3.890  11.358  1.2278 -2.1579  2.9783
  263MPD2     N 4040   3.258   3.900  10.939  0.1541 -0.2268  0.0766
  263MPD2    H5 4041   3.339   3.871  10.886 -0.8220 -0.8300 -1.0857
  263MPD2    N1 4042   3.449   3.698  11.345  0.7570  0.6541  0.2277
  263MPD2    H7 4043   3.422   3.649  11.429  2.2798  0.4103  0.5671
  264TMC3    C1 4044   3.216   4.004  10.739 -0.2846  0.0951  1.1041
  264TMC3    C2 4045   3.111   4.058  10.663 -0.5660 -0.9193 -0.6490
  264TMC3    C3 4046   3.137   4.176  10.600  0.3959 -0.1515  0.1154
  264TMC3    C4 4047   3.346   4.051  10.734  0.8330 -0.3148  0.0326
  264TMC3    C5 4048   3.366   4.165  10.660  0.1823 -0.7425  0.4994
  264TMC3    C6 4049   3.262   4.226  10.589 -0.5336 -0.3164  0.0017
  264TMC3     C 4050   3.175   3.983  10.869 -0.1670  0.0206 -0.4644
  264TMC3     O 4051   3.075   4.048  10.908  0.4582 -0.7849 -0.9296
  264TMC3     H 4052   3.011   4.020  10.680  0.1468 -1.2531  2.6654
  264TMC3    H1 4053   3.420   4.001  10.794 -0.4021 -0.0618  1.7765
  264TMC3    H2 4054   3.276   4.327  10.552  1.2050 -0.6734 -0.2861
  264TMC3    C7 4055   3.498   4.224  10.669 -1.2340 -0.2489  0.5521
  264TMC3    C8 4056   3.040   4.271  10.626 -0.1669 -0.2021  0.5265
  264TMC3    O1 4057   3.586   4.148  10.707 -0.3971 -0.2295  0.0095
  264TMC3    O2 4058   3.055   4.365  10.550  0.0281 -0.3686  0.2743
  265MPD2     C 4059   0.460   3.710  15.806 -0.4321 -0.2605  0.2884
  265MPD2    C1 4060   0.457   3.812  15.714  0.0995  0.7181  0.3641
  265MPD2    C2 4061   0.502   3.791  15.585 -0.2451  0.6137  0.0312
  265MPD2    C3 4062   0.533   3.660  15.544  0.2406 -0.7285 -0.3557
  265MPD2    C4 4063   0.513   3.558  15.624  0.4008  0.3955 -0.5118
  265MPD2    C5 4064   0.472   3.581  15.756  0.1641 -0.4465 -0.2360
  265MPD2     H 4065   0.510   3.883  15.528 -1.9457 -0.9565 -2.7707
  265MPD2    H1 4066   0.558   3.461  15.608  0.4728  0.5151 -1.0297
  265MPD2    H2 4067   0.418   3.712  15.906 -1.0129 -0.6909  0.0540
  265MPD2    H3 4068   0.454   3.495  15.819  3.1434 -0.3660  0.7202
  265MPD2     N 4069   0.556   3.629  15.403 -0.5909 -0.2780 -0.3031
  265MPD2    H5 4070   0.560   3.531  15.378  1.0821 -1.0700  3.0875
  265MPD2    N1 4071   0.430   3.946  15.752  0.3516 -0.1713 -0.2343
  265MPD2    H7 4072   0.440   4.018  15.680 -1.8671 -0.0293 -0.4037
  266TMC3    C1 4073   0.421   4.129  15.916 -0.4088 -0.3285 -0.4005
  266TMC3    C2 4074   0.476   4.171  16.030 -0.2835 -0.2876  0.3096
  266TMC3    C3 4075   0.465   4.304  16.064  0.1920 -0.2861  0.2797
  266TMC3    C4 4076   0.344   4.219  15.853  0.3035  0.2757 -0.3769
  266TMC3    C5 4077   0.318   4.342  15.894  0.1692  0.2280  0.1416
  266TMC3    C6 4078   0.385   4.396  15.987 -0.2351  0.2406 -0.4129
  266TMC3     C 4079   0.406   3.992  15.885 -0.6074 -0.1807  0.4293
  266TMC3     O 4080   0.373   3.927  15.977  0.3383  0.1103 -0.3119
  266TMC3     H 4081   0.541   4.104  16.086 -0.0171  1.8225  2.5516
  266TMC3    H1 4082   0.280   4.177  15.775  1.3902 -0.0638 -1.0881
  266TMC3    H2 4083   0.364   4.499  16.014 -2.5511 -0.3848  0.1348
  266TMC3    C7 4084   0.239   4.420  15.815  0.4766 -0.4464 -0.2533
  266TMC3    C8 4085   0.563   4.351  16.156 -0.7260  0.1570 -0.0599
  266TMC3    O1 4086   0.174   4.509  15.867  0.5572 -0.3488 -0.5029
  266TMC3    O2 4087   0.625   4.266  16.217  0.0579  0.4103 -0.5384
  267MPD2     C 4088   2.691   1.460   1.138 -0.8173  0.1454  0.6475
  267MPD2    C1 4089   2.719   1.493   1.010 -0.5407  0.2426  0.0024
  267MPD2    C2 4090   2.678   1.621   0.973  0.1473 -0.0067  0.0445
  267MPD2    C3 4091   2.609   1.711   1.054 -0.7582 -0.4300 -0.4972
  267MPD2    C4 4092   2.576   1.669   1.182 -0.2206 -0.3705  0.1239
  267MPD2    C5 4093   2.620   1.548   1.220  0.2230  0.4659 -0.2167
  267MPD2     H 4094   2.711   1.651   0.874 -0.1533  1.1794  0.3020
  267MPD2    H1 4095   2.526   1.735   1.252 -0.7304  1.4168 -1.9364
  267MPD2    H2 4096   2.740   1.377   1.187  0.2228  0.1328 -0.3984
  267MPD2    H3 4097   2.595   1.520   1.322 -0.4998 -1.0416 -0.8112
  267MPD2     N 4098   2.567   1.838   1.006 -0.0267  0.0850  0.5611
  267MPD2    H5 4099   2.506   1.881   1.074 -1.6027 -3.3286  1.3052
  267MPD2    N1 4100   2.808   1.417   0.930  0.7121 -0.1756  0.0533
  267MPD2    H7 4101   2.865   1.347   0.977  0.0154  0.2433  1.4996
  268TMC3    C1 4102   2.919   1.362   0.721  0.6048 -0.6254  0.0847
  268TMC3    C2 4103   2.957   1.423   0.601  0.8467  0.0988  0.2565
  268TMC3    C3 4104   3.072   1.372   0.536  0.2610  0.1056 -0.3553
  268TMC3    C4 4105   2.982   1.258   0.774 -0.3626  0.1601  0.0742
  268TMC3    C5 4106   3.088   1.210   0.705  0.2005 -0.0396 -0.0933
  268TMC3    C6 4107   3.138   1.266   0.595 -0.2020  0.3911  0.1582
  268TMC3     C 4108   2.813   1.429   0.793 -0.8948  0.5402 -0.6000
  268TMC3     O 4109   2.723   1.477   0.720  0.5022 -0.2871  0.3359
  268TMC3     H 4110   2.918   1.523   0.584 -0.8541 -0.3412  1.7032
  268TMC3    H1 4111   2.947   1.215   0.867 -0.1433 -1.3677 -0.5515
  268TMC3    H2 4112   3.204   1.206   0.533  1.1481  0.6459  1.3604
  268TMC3    C7 4113   3.161   1.097   0.767 -0.1709  0.5604  0.4798
  268TMC3    C8 4114   3.141   1.433   0.424 -0.3879 -0.6754  0.4962
  268TMC3    O1 4115   3.104   1.018   0.835  0.5643 -0.6021 -0.0161
  268TMC3    O2 4116   3.252   1.393   0.404  0.0243  0.1060  0.0451
  269MPD2     C 4117   3.297   0.302  15.599 -0.1104 -0.0112 -0.1514
  269MPD2    C1 4118   3.162   0.303  15.628 -0.0695  0.1373  0.4659
  269MPD2    C2 4119   3.081   0.393  15.562 -0.2662 -0.7101 -0.0977
  269MPD2    C3 4120   3.143   0.492  15.482  0.0155  0.2545 -0.0745
  269MPD2    C4 4121   3.275   0.485  15.440  0.4301 -0.3082  0.1037
  269MPD2    C5 4122   3.348   0.387  15.501 -0.4632  0.2135  1.0294
  269MPD2     H 4123   2.975   0.411  15.575 -0.4329  0.8020 -3.6665
  269MPD2    H1 4124   3.316   0.553  15.366  2.3632 -2.2015 -0.5605
  269MPD2    H2 4125   3.369   0.236  15.646  1.1612  0.1141 -1.9131
  269MPD2    H3 4126   3.453   0.390  15.474 -0.8107 -1.0964 -0.4825
  269MPD2     N 4127   3.060   0.585  15.427  0.5477 -0.4792  0.6569
  269MPD2    H5 4128   2.968   0.602  15.468 -0.3622 -0.1270 -1.5534
  269MPD2    N1 4129   3.116   0.207  15.719 -0.2030 -0.3176 -0.6393
  269MPD2    H7 4130   3.187   0.158  15.772 -1.7712 -1.2906  0.5472
  270TMC3    C1 4131   2.958   0.075  15.847 -0.7069 -0.1275  0.2278
  270TMC3    C2 4132   2.826   0.023  15.849 -0.1513  0.1123  0.4187
  270TMC3    C3 4133   2.803   4.639  15.910  0.2811  0.2752 -0.5281
  270TMC3    C4 4134   3.063   0.019  15.912  0.2972  0.2679 -1.1229
  270TMC3    C5 4135   3.032   4.643  15.978 -0.1996  0.5097 -0.4731
  270TMC3    C6 4136   2.912   4.581  15.984  0.7857  0.8694 -0.5410
  270TMC3     C 4137   2.979   0.184  15.746  0.2865  0.1713 -0.5461
  270TMC3     O 4138   2.879   0.246  15.707 -0.2172 -0.3250 -0.1553
  270TMC3     H 4139   2.754   0.070  15.783  1.0499  1.2585 -0.0683
  270TMC3    H1 4140   3.165   0.056  15.902  0.7766 -0.7844 -0.0775
  270TMC3    H2 4141   2.895   4.481  16.020  2.9305  0.9648  0.7122
  270TMC3    C7 4142   3.134   4.548  15.953 -0.5101 -0.1752  0.0140
  270TMC3    C8 4143   2.750   4.540  15.817  0.4448  0.0310 -0.0196
  270TMC3    O1 4144   3.239   4.547  16.020 -0.4291  0.0169  0.0005
  270TMC3    O2 4145   2.814   4.438  15.804  0.0885  0.0519  0.3162
  271MPD2     C 4146   2.375   4.270  13.969  0.2192 -1.2907  0.5543
  271MPD2    C1 4147   2.321   4.329  14.091 -0.1080  0.4426  0.7287
  271MPD2    C2 4148   2.212   4.408  14.079  0.2441  0.6061 -0.4934
  271MPD2    C3 4149   2.155   4.444  13.954  0.9726 -0.2331  0.5107
  271MPD2    C4 4150   2.220   4.396  13.838 -0.1467  0.0777  0.5311
  271MPD2    C5 4151   2.323   4.305  13.846 -0.4727 -0.4063 -0.6840
  271MPD2     H 4152   2.172   4.451  14.170  2.6931 -1.1154  1.3822
  271MPD2    H1 4153   2.175   4.421  13.743  0.1063  0.1859  0.4410
  271MPD2    H2 4154   2.458   4.201  13.968  1.0824 -0.2246 -1.1357
  271MPD2    H3 4155   2.366   4.277  13.750 -1.3700  0.9901 -1.4989
  271MPD2     N 4156   2.048   4.538  13.932 -0.3884  0.3737 -0.6053
  271MPD2    H5 4157   2.024   4.560  13.836  1.2609  2.1023 -0.6150
  271MPD2    N1 4158   2.372   4.303  14.218  0.0847 -0.3381 -0.3098
  271MPD2    H7 4159   2.332   4.351  14.298  0.6871 -0.8222  0.2863
  272TMC3    C1 4160   2.498   4.186  14.381 -0.8843 -0.6094 -0.2238
  272TMC3    C2 4161   2.609   4.112  14.414 -0.2656  0.1465 -0.1868
  272TMC3    C3 4162   2.631   4.081  14.542  0.0667 -0.5042  0.5470
  272TMC3    C4 4163   2.402   4.227  14.478 -0.4886  0.2764 -0.0207
  272TMC3    C5 4164   2.436   4.192  14.609  0.1498  0.0370 -0.4037
  272TMC3    C6 4165   2.546   4.126  14.649  0.3589 -0.0346  0.2215
  272TMC3     C 4166   2.473   4.209  14.244  0.5482  0.6431 -0.5154
  272TMC3     O 4167   2.536   4.141  14.168 -0.1992 -0.1899 -0.1650
  272TMC3     H 4168   2.688   4.086  14.344 -0.0828  1.2457 -0.3912
  272TMC3    H1 4169   2.313   4.285  14.455  1.1535  3.3601  1.3114
  272TMC3    H2 4170   2.558   4.090  14.751 -0.1443 -0.6615  0.0574
  272TMC3    C7 4171   2.351   4.256  14.715  0.6466  0.1292 -0.3603
  272TMC3    C8 4172   2.768   4.023  14.562  0.0654 -0.5588  0.1741
  272TMC3    O1 4173   2.242   4.301  14.676  0.0856  0.1458  0.1729
  272TMC3    O2 4174   2.850   4.066  14.486  0.2134  0.0897  0.6094
  273MPD2     C 4175   3.772   2.368  11.123  0.2173 -0.0747  1.3003
  273MPD2    C1 4176   3.845   2.467  11.190 -0.2756  0.7384  0.5509
  273MPD2    C2 4177   3.949   2.528  11.117  0.1368 -0.2048  0.2202
  273MPD2    C3 4178   3.972   2.489  10.984 -0.1001  0.3499  0.0543
  273MPD2    C4 4179   3.897   2.398  10.924  0.6739 -0.1060 -0.5324
  273MPD2    C5 4180   3.795   2.343  10.993  0.2858 -0.2008  0.0435
  273MPD2     H 4181   3.992   2.618  11.158 -0.3202  0.1277 -0.0226
  273MPD2    H1 4182   3.911   2.372  10.820  2.0319 -1.2109 -0.0752
  273MPD2    H2 4183   3.686   2.316  11.163  0.7391 -2.1424 -0.2955
  273MPD2    H3 4184   3.729   2.275  10.941 -0.3775  0.2524  0.2969
  273MPD2     N 4185   4.051   2.564  10.896 -0.1640  0.1205  0.3700
  273MPD2    H5 4186   4.055   2.520  10.804 -1.6398 -0.2652  0.4967
  273MPD2    N1 4187   3.813   2.492  11.327  0.5443 -0.2802  0.3266
  273MPD2    H7 4188   3.736   2.438  11.367  1.0861 -0.8097  0.6526
  274TMC3    C1 4189   4.166   2.728  10.790 -0.4550  0.3928 -0.5977
  274TMC3    C2 4190   4.065   2.729  10.694  0.0266  0.1920 -0.0579
  274TMC3    C3 4191   4.041   2.852  10.642  0.4170 -0.1248 -0.1104
  274TMC3    C4 4192   4.242   2.840  10.815  0.3163  0.0657  0.4304
  274TMC3    C5 4193   4.205   2.961  10.768  0.1978  0.3685 -0.6773
  274TMC3    C6 4194   4.110   2.963  10.672  0.0813  0.5377  0.1321
  274TMC3     C 4195   4.120   2.678  10.914 -0.0121 -0.0123 -0.4033
  274TMC3     O 4196   4.139   2.748  11.014 -0.2294 -0.3183  0.7075
  274TMC3     H 4197   3.989   2.652  10.681  0.3926 -0.2595  0.4672
  274TMC3    H1 4198   4.312   2.847  10.898 -0.9983  1.1985  1.4457
  274TMC3    H2 4199   4.068   3.060  10.649 -1.1015 -0.3924 -1.6543
  274TMC3    C7 4200   4.169   3.050  10.879  0.5116 -0.2404  0.5021
  274TMC3    C8 4201   3.944   2.864  10.538 -0.6944 -0.0234 -0.2315
  274TMC3    O1 4202   4.050   3.057  10.903  0.2190 -0.4208 -0.3740
  274TMC3    O2 4203   3.831   2.818  10.562  0.6240  0.6213  0.0948
  275MPD2     C 4204   3.983   0.342  14.442 -0.0108  0.1450  0.1968
  275MPD2    C1 4205   3.875   0.435  14.424 -0.5626  0.7030  0.5744
  275MPD2    C2 4206   3.744   0.401  14.443 -0.0972 -0.7229  0.1893
  275MPD2    C3 4207   3.706   0.274  14.483  1.5082  0.0267  0.2256
  275MPD2    C4 4208   3.805   0.182  14.514  0.0012  0.0455 -0.0024
  275MPD2    C5 4209   3.941   0.220  14.492  0.1494 -0.0178 -0.9769
  275MPD2     H 4210   3.671   0.477  14.416 -0.0396 -0.4262  0.8899
  275MPD2    H1 4211   3.784   0.078  14.536 -1.0030 -0.1941 -2.1087
  275MPD2    H2 4212   4.086   0.354  14.411 -0.0155 -0.7033 -0.1625
  275MPD2    H3 4213   4.010   0.137  14.501  1.1814  0.8772 -0.6433
  275MPD2     N 4214   3.575   0.238  14.512  0.0618 -0.5840 -0.3850
  275MPD2    H5 4215   3.565   0.144  14.551 -0.6436  0.3719  1.7415
  275MPD2    N1 4216   3.878   0.571  14.393  0.3602  0.5600 -0.2717
  275MPD2    H7 4217   3.791   0.621  14.378 -0.8113 -0.8963  1.6789
  276TMC3    C1 4218   3.957   0.790  14.396 -0.2286 -0.5392 -0.1019
  276TMC3    C2 4219   3.825   0.810  14.415 -0.2736 -0.0254  0.7542
  276TMC3    C3 4220   3.784   0.907  14.501  0.1762  0.3878 -0.0040
  276TMC3    C4 4221   4.056   0.867  14.459 -0.2195  0.1476  0.5493
  276TMC3    C5 4222   4.010   0.965  14.547 -0.3153  0.2372 -0.0863
  276TMC3    C6 4223   3.877   0.979  14.569 -0.4592 -0.4978 -0.2970
  276TMC3     C 4224   3.993   0.647  14.391 -0.3293 -0.2615 -0.1373
  276TMC3     O 4225   4.111   0.608  14.394  0.4688  0.2551  0.1487
  276TMC3     H 4226   3.749   0.772  14.347  0.8640 -0.0272 -0.5243
  276TMC3    H1 4227   4.162   0.849  14.446 -0.6298 -1.7043 -0.2717
  276TMC3    H2 4228   3.849   1.056  14.639  0.7721  0.9591 -1.3944
  276TMC3    C7 4229   4.093   1.021  14.652 -0.4148  0.3009 -0.0677
  276TMC3    C8 4230   3.664   0.869  14.578  0.0467 -0.5951  0.4418
  276TMC3    O1 4231   4.082   1.135  14.693  0.0734  0.2030  0.0063
  276TMC3    O2 4232   3.555   0.922  14.548  0.0218 -0.6149 -0.4263
  277MPD2     C 4233   0.816   4.319  13.701  0.6245  0.4073 -0.3706
  277MPD2    C1 4234   0.682   4.325  13.661 -0.5722  0.0245 -0.3783
  277MPD2    C2 4235   0.581   4.289  13.752 -0.2054 -0.2131  0.0320
  277MPD2    C3 4236   0.615   4.241  13.878 -0.0810  0.0051  0.1457
  277MPD2    C4 4237   0.742   4.241  13.911  0.0748 -0.7235  0.0285
  277MPD2    C5 4238   0.842   4.278  13.827  0.5244 -0.0986 -0.2984
  277MPD2     H 4239   0.477   4.293  13.722  0.2980 -1.6621 -1.8968
  277MPD2    H1 4240   0.787   4.204  14.002 -0.0892 -0.0804  0.3677
  277MPD2    H2 4241   0.894   4.334  13.628 -1.9273  3.4167 -2.4697
  277MPD2    H3 4242   0.945   4.288  13.860  0.5717  2.3030 -1.2259
  277MPD2     N 4243   0.511   4.192  13.957 -0.9029  0.2894 -0.2814
  277MPD2    H5 4244   0.419   4.181  13.915 -1.4487 -1.2135  1.3105
  277MPD2    N1 4245   0.644   4.373  13.533 -0.6164  0.7941  0.4055
  277MPD2    H7 4246   0.545   4.388  13.518 -0.7820  0.2525  0.9920
  278TMC3    C1 4247   0.416   4.063  14.109 -0.5544 -0.6758 -0.9522
  278TMC3    C2 4248   0.419   3.919  14.098  0.4740 -0.1392 -0.4589
  278TMC3    C3 4249   0.325   3.853  14.024  0.2164 -0.7041 -0.7883
  278TMC3    C4 4250   0.301   4.123  14.053 -0.2955  0.1173  0.1713
  278TMC3    C5 4251   0.204   4.054  13.987 -0.1374  0.3182 -0.2507
  278TMC3    C6 4252   0.212   3.915  13.973  0.1280 -0.0993  0.4017
  278TMC3     C 4253   0.535   4.136  14.077  1.2909 -0.0929 -0.0191
  278TMC3     O 4254   0.633   4.118  14.149  0.2442  0.0996  0.3488
  278TMC3     H 4255   0.513   3.879  14.135 -0.1710  0.3010  1.6738
  278TMC3    H1 4256   0.284   4.228  14.074  2.8358  0.8721 -1.0529
  278TMC3    H2 4257   0.142   3.860  13.911  1.0505 -2.5615  1.5564
  278TMC3    C7 4258   0.163   4.130  13.875 -0.2309 -0.1715  0.0663
  278TMC3    C8 4259   0.349   3.708  13.997 -0.3741  0.1511  0.1209
  278TMC3    O1 4260   0.231   4.223  13.833  0.3782  0.2403  0.0973
  278TMC3    O2 4261   0.428   3.661  14.078 -0.0312  0.7912  0.1139
  279MPD2     C 4262   0.047   4.648   0.313 -0.2785 -1.0691  0.4901
  279MPD2    C1 4263   4.693   0.001   0.346 -0.2053 -0.1262 -0.2080
  279MPD2    C2 4264   4.672   0.111   0.267  0.1335  0.6206  1.4301
  279MPD2    C3 4265   0.006   0.124   0.146  0.3763  0.5290 -0.6228
  279MPD2    C4 4266   0.088   0.017   0.104 -0.8540 -0.0876 -0.2722
  279MPD2    C5 4267   0.110   4.651   0.183  0.2473 -0.9323  0.0709
  279MPD2     H 4268   4.589   0.180   0.278 -0.9102 -0.1540 -1.4821
  279MPD2    H1 4269   0.133   0.024   0.005  1.1006  3.8181  0.8545
  279MPD2    H2 4270   0.091   4.572   0.376  1.8510 -0.8118 -0.6784
  279MPD2    H3 4271   0.178   4.580   0.138 -0.1708 -0.8719 -0.6727
  279MPD2     N 4272   4.724   0.233   0.060 -0.0863  0.4740 -0.2072
  279MPD2    H5 4273   0.018   0.221  17.717 -0.1304 -1.6544  0.0301
  279MPD2    N1 4274   4.606   4.710   0.452  0.6228  0.1173 -0.2282
  279MPD2    H7 4275   4.599   4.615   0.487 -1.6259  1.0476  1.8674
  280TMC3    C1 4276   4.406   4.735   0.575  0.3094 -0.0892  0.3817
  280TMC3    C2 4277   4.352   4.635   0.491 -0.4853 -0.1418  1.0085
  280TMC3    C3 4278   4.220   4.640   0.454 -0.1361  0.1668  0.3782
  280TMC3    C4 4279   4.324   0.084   0.635 -0.2421 -0.2562  0.3316
  280TMC3    C5 4280   4.186   0.083   0.609 -0.1306 -0.3797  0.4062
  280TMC3    C6 4281   4.137   4.729   0.520  0.1984 -0.3993  0.3182
  280TMC3     C 4282   4.520   0.064   0.511 -0.0020  0.0545  0.0181
  280TMC3     O 4283   4.521   0.188   0.509 -0.8955  0.5153  0.4205
  280TMC3     H 4284   4.425   4.558   0.468 -0.8430 -0.5326  1.1595
  280TMC3    H1 4285   4.375   0.160   0.692 -1.2761 -0.5355  1.6450
  280TMC3    H2 4286   4.029   4.729   0.505  0.5749  0.7309 -2.4339
  280TMC3    C7 4287   4.148   0.219   0.579 -0.2658  0.6308  0.0920
  280TMC3    C8 4288   4.198   4.659   0.316 -0.3199  0.2046  0.6813
  280TMC3    O1 4289   4.159   0.308   0.665 -0.7971 -0.3611 -0.5621
  280TMC3    O2 4290   4.097   4.722   0.287 -0.0283  0.0463 -0.2098
  281TMC3    C1 4291   3.493   4.552  13.362 -0.0212 -0.6038 -0.7142
  281TMC3    C2 4292   3.455   4.632  13.253 -0.1742  0.0304  0.6013
  281TMC3    C3 4293   3.513   4.604  13.132 -0.2219  0.3440  0.1740
  281TMC3    C4 4294   3.568   4.441  13.344  0.0871  0.1296 -0.4611
  281TMC3    C5 4295   3.615   4.409  13.217  0.1710  0.5456 -0.3287
  281TMC3    C6 4296   3.583   4.491  13.111  0.4895 -0.5143  0.2284
  281TMC3     C 4297   3.442   4.593  13.492 -0.6227 -0.1021 -0.8040
  281TMC3     O 4298   3.450   4.513  13.583 -0.1222 -0.3331  0.5694
  281TMC3     H 4299   3.392   4.719  13.270 -2.3294 -1.5397  0.5546
  281TMC3    H1 4300   3.590   4.376  13.428 -2.1448 -0.3862 -0.2704
  281TMC3    H2 4301   3.614   4.473  13.009 -1.6285  0.4621 -0.5842
  281TMC3    C7 4302   3.641   4.278  13.162 -0.1331 -0.2435  0.3122
  281TMC3    C8 4303   3.458   4.676  13.017  0.0097 -0.5178 -0.0984
  281TMC3    O1 4304   3.675   4.265  13.047  0.7918  0.7350  0.2089
  281TMC3    O2 4305   3.452   4.625  12.906  0.0991 -0.1534 -0.3460
  282MPD2     C 4306   0.162   0.925  15.223  0.2380 -0.4501 -0.0971
  282MPD2    C1 4307   0.056   1.002  15.195  0.1757  0.1102  0.4115
  282MPD2    C2 4308   0.016   1.010  15.063  0.5882  0.1581 -0.0617
  282MPD2    C3 4309   0.093   0.944  14.966 -0.0460  0.4315  0.0045
  282MPD2    C4 4310   0.195   0.856  14.999 -0.7636 -0.1559 -0.4736
  282MPD2    C5 4311   0.225   0.842  15.133  0.1005  0.4248  1.0065
  282MPD2     H 4312   4.665   1.067  15.044 -0.0970 -0.5566  1.0175
  282MPD2    H1 4313   0.257   0.810  14.922 -1.1620  0.2579 -1.0362
  282MPD2    H2 4314   0.198   0.922  15.325  2.2112 -0.2774 -0.7902
  282MPD2    H3 4315   0.302   0.781  15.179  0.0630 -0.8839 -0.6633
  282MPD2     N 4316   0.076   0.987  14.830 -0.0887 -0.1510  0.1474
  282MPD2    H5 4317   0.016   1.067  14.811  1.5075  0.9040 -0.4655
  282MPD2    N1 4318   4.729   1.071  15.297  0.9106  0.6167 -0.1041
  282MPD2    H7 4319   4.634   1.096  15.270  1.0590  0.9137 -0.3531
  283TMC3    C1 4320   4.710   1.161  15.509  0.6427 -0.3151 -0.4510
  283TMC3    C2 4321   0.023   1.264  15.581  1.0486 -0.7595  0.1143
  283TMC3    C3 4322   4.702   1.298  15.698  0.6445  0.5447 -0.1756
  283TMC3    C4 4323   4.621   1.067  15.561 -0.1402  0.0301  0.8712
  283TMC3    C5 4324   4.563   1.104  15.675 -0.0313  1.0189 -0.3838
  283TMC3    C6 4325   4.606   1.212  15.750 -0.2163 -0.1358  0.1217
  283TMC3     C 4326   0.058   1.121  15.407 -0.0726  0.1235 -0.0715
  283TMC3     O 4327   0.177   1.136  15.427 -0.6495  0.3227  0.2135
  283TMC3     H 4328   0.096   1.324  15.528 -0.1703  2.7865  2.4755
  283TMC3    H1 4329   4.579   0.987  15.501 -2.7967  2.1429 -0.0877
  283TMC3    H2 4330   4.575   1.231  15.853 -2.6919 -0.0357 -0.6346
  283TMC3    C7 4331   4.420   1.080  15.699  0.0296 -0.7209 -0.5674
  283TMC3    C8 4332   4.737   1.421  15.769 -0.7228  0.2832 -0.4598
  283TMC3    O1 4333   4.369   1.141  15.791 -0.7863 -0.4702 -0.2010
  283TMC3    O2 4334   4.685   1.432  15.881  0.0865 -0.1882  0.1529
  284MPD2     C 4335   2.774   0.195  12.041  0.0780  0.3924  0.6789
  284MPD2    C1 4336   2.810   0.204  11.908 -0.8219  0.0589 -0.2755
  284MPD2    C2 4337   2.824   0.083  11.832 -0.0815 -0.2657 -0.2913
  284MPD2    C3 4338   2.788   4.701  11.885 -1.3363 -0.7701 -0.1104
  284MPD2    C4 4339   2.735   4.699  12.020  0.4056 -0.6285 -0.3925
  284MPD2    C5 4340   2.734   0.078  12.094 -0.3209  0.2769 -0.1096
  284MPD2     H 4341   2.854   0.090  11.728  0.3580 -0.7104 -0.1927
  284MPD2    H1 4342   2.697   4.603  12.052 -0.6636  0.1295  0.6418
  284MPD2    H2 4343   2.777   0.280  12.109  1.5408  1.9416 -1.3292
  284MPD2    H3 4344   2.697   0.068  12.195 -0.9712  1.2780 -0.2550
  284MPD2     N 4345   2.786   4.586  11.809 -0.2448 -0.1006 -0.7488
  284MPD2    H5 4346   2.756   4.498  11.850 -2.2263  2.1089  2.5269
  284MPD2    N1 4347   2.841   0.328  11.847 -0.4891 -0.5384  0.3584
  284MPD2    H7 4348   2.877   0.323  11.752 -0.0310  2.8277  0.3387
  285TMC3    C1 4349   2.888   0.545  11.807 -0.1756 -0.0601 -0.3714
  285TMC3    C2 4350   2.974   0.509  11.707 -0.5051  0.6209 -0.2554
  285TMC3    C3 4351   3.003   0.606  11.616  0.4337  0.2079 -0.2490
  285TMC3    C4 4352   2.830   0.668  11.817  0.5675 -0.0162  0.2048
  285TMC3    C5 4353   2.845   0.756  11.710 -1.5202 -0.7170  0.7579
  285TMC3    C6 4354   2.931   0.726  11.611 -0.3282  0.2307 -0.1198
  285TMC3     C 4355   2.836   0.444  11.904 -0.0441  0.4632 -0.0084
  285TMC3     O 4356   2.772   0.479  12.001  0.1858  0.4816  0.3768
  285TMC3     H 4357   3.020   0.412  11.690  2.7774  2.1824 -0.4517
  285TMC3    H1 4358   2.764   0.696  11.898 -1.4297 -1.4830 -0.9031
  285TMC3    H2 4359   2.954   0.803  11.538  0.4349 -0.9491 -1.1263
  285TMC3    C7 4360   2.790   0.893  11.715 -0.4025 -0.3123 -0.0794
  285TMC3    C8 4361   3.064   0.551  11.494  0.0441  1.1534 -0.1065
  285TMC3    O1 4362   2.795   0.963  11.614 -0.2684  0.4245  0.3971
  285TMC3    O2 4363   3.064   0.429  11.466  0.3844  0.5526 -0.4382
  286MPD2     C 4364   4.071   4.508   1.610  0.7752 -0.3500 -0.5272
  286MPD2    C1 4365   4.081   4.470   1.477 -0.2104  0.4099 -0.1155
  286MPD2    C2 4366   4.194   4.403   1.436  0.6618 -0.4433 -0.3214
  286MPD2    C3 4367   4.287   4.360   1.524 -0.5629 -0.6470  0.5120
  286MPD2    C4 4368   4.265   4.398   1.658 -0.6575  0.8145  0.3129
  286MPD2    C5 4369   4.163   4.469   1.697  0.3799 -0.3790  0.6779
  286MPD2     H 4370   4.212   4.393   1.330  2.0990  1.0389 -0.2191
  286MPD2    H1 4371   4.329   4.363   1.738  0.2054  0.1498 -0.6687
  286MPD2    H2 4372   3.993   4.569   1.655  1.1017 -1.3406  1.4239
  286MPD2    H3 4373   4.156   4.518   1.794  2.7217  0.2069  0.5379
  286MPD2     N 4374   4.410   4.291   1.496  0.3758 -0.6513  0.2300
  286MPD2    H5 4375   4.457   4.251   1.576 -0.6559  0.6071  1.4699
  286MPD2    N1 4376   3.985   4.521   1.380 -0.1360  0.1169  0.3028
  286MPD2    H7 4377   4.008   4.510   1.282  0.9187 -0.9784  0.6817
  287TMC3    C1 4378   4.570   4.184   1.349 -0.2712 -0.2128 -0.1036
  287TMC3    C2 4379   4.575   4.109   1.227  0.2983  0.5471  0.0980
  287TMC3    C3 4380   4.689   4.032   1.209 -0.1816  0.0755 -0.4202
  287TMC3    C4 4381   4.677   4.190   1.432  0.8580  0.1631 -0.0567
  287TMC3    C5 4382   0.046   4.111   1.404  0.8527 -0.5332  0.4577
  287TMC3    C6 4383   0.055   4.027   1.295  0.7017 -0.5586 -0.0586
  287TMC3     C 4384   4.451   4.266   1.362  0.5015 -0.1408 -0.0223
  287TMC3     O 4385   4.400   4.298   1.255  0.5605  0.6511  0.3401
  287TMC3     H 4386   4.486   4.104   1.165 -0.2859 -1.0691  1.0776
  287TMC3    H1 4387   4.660   4.237   1.528 -1.4087  0.5524 -0.6321
  287TMC3    H2 4388   0.149   3.983   1.265  1.0991 -0.3614  0.8838
  287TMC3    C7 4389   0.167   4.153   1.469  0.6415  0.7359  0.0421
  287TMC3    C8 4390   4.677   3.928   1.104  1.3066  0.1031  0.3340
  287TMC3    O1 4391   0.156   4.253   1.534  0.0585  0.6446  0.1903
  287TMC3    O2 4392   4.591   3.955   1.025  0.1587  0.3469  0.2674
  288TMC3    C1 4393   0.876   3.505  14.534 -0.3174 -0.1720  0.2266
  288TMC3    C2 4394   0.777   3.543  14.621 -0.4298  0.2637 -0.4940
  288TMC3    C3 4395   0.750   3.676  14.614  0.1465 -0.2613 -0.2008
  288TMC3    C4 4396   0.907   3.580  14.425 -0.1617 -0.8202  0.0150
  288TMC3    C5 4397   0.877   3.710  14.425  0.6273  0.4681 -0.3914
  288TMC3    C6 4398   0.798   3.768  14.523  0.2325 -0.0365  0.2019
  288TMC3     C 4399   0.904   3.360  14.531  0.0142  0.1504 -0.6171
  288TMC3     O 4400   0.822   3.296  14.596 -0.2498  0.2215 -0.1923
  288TMC3     H 4401   0.751   3.476  14.702 -1.2555  0.8578 -0.2741
  288TMC3    H1 4402   0.969   3.537  14.346  0.0323 -0.9925  0.2612
  288TMC3    H2 4403   0.751   3.865  14.511  0.0966  0.0249  1.2579
  288TMC3    C7 4404   0.918   3.780  14.308  0.6223  0.3318 -0.6512
  288TMC3    C8 4405   0.659   3.736  14.708  0.5671 -0.3458  0.2522
  288TMC3    O1 4406   0.977   3.721  14.223 -0.3373 -0.0376 -0.6930
  288TMC3    O2 4407   0.641   3.856  14.723  0.3737 -0.1811 -0.1635
  289MPD2     C 4408   0.796   2.622  14.238  0.0555  1.1281  0.4623
  289MPD2    C1 4409   0.733   2.733  14.194 -0.0919  0.5886 -0.4472
  289MPD2    C2 4410   0.627   2.708  14.113 -0.2178 -0.6089 -0.8680
  289MPD2    C3 4411   0.566   2.584  14.083 -0.2442 -1.2457 -0.2233
  289MPD2    C4 4412   0.624   2.476  14.146 -0.7292  0.5257  0.0162
  289MPD2    C5 4413   0.746   2.501  14.204  0.3077 -0.3942  0.5567
  289MPD2     H 4414   0.581   2.800  14.077 -1.8253 -1.3894 -0.8003
  289MPD2    H1 4415   0.592   2.374  14.132 -1.5959  0.6397  1.1039
  289MPD2    H2 4416   0.890   2.621  14.294 -0.1040  0.6452  0.7199
  289MPD2    H3 4417   0.801   2.416  14.244  1.1907  0.0249  0.2282
  289MPD2     N 4418   0.450   2.565  14.012 -0.0866 -0.3927 -0.2129
  289MPD2    H5 4419   0.410   2.472  14.014 -0.3148 -0.3214 -1.3336
  289MPD2    N1 4420   0.788   2.863  14.209 -0.4082  0.3701  0.3388
  289MPD2    H7 4421   0.882   2.865  14.247 -0.5906 -0.7565  0.8409
  290TMC3    C1 4422   0.248   2.627  13.901 -0.6574 -0.0494  0.3115
  290TMC3    C2 4423   0.205   2.728  13.817 -0.5718 -0.1774  0.1013
  290TMC3    C3 4424   0.075   2.775  13.818  0.5944  0.4152 -0.0614
  290TMC3    C4 4425   0.158   2.596  14.006  0.9949  0.4857  0.4714
  290TMC3    C5 4426   0.031   2.653  14.013  0.6721  0.0637  0.0666
  290TMC3    C6 4427   4.722   2.745  13.921 -0.0004 -0.2005 -0.2429
  290TMC3     C 4428   0.385   2.656  13.940 -1.2275 -0.3906 -0.2591
  290TMC3     O 4429   0.409   2.778  13.931  0.6081 -0.3619 -0.1963
  290TMC3     H 4430   0.271   2.773  13.744  2.0979  0.1974  2.7647
  290TMC3    H1 4431   0.189   2.528  14.084 -2.5705  0.0928  1.5393
  290TMC3    H2 4432   4.629   2.800  13.930  1.4291  1.9039  1.4623
  290TMC3    C7 4433   4.675   2.635  14.123  0.1835  0.3203 -0.5782
  290TMC3    C8 4434   0.076   2.906  13.763  0.6461 -0.2679  0.1664
  290TMC3    O1 4435   4.564   2.688  14.117 -0.1637  0.2608 -0.1304
  290TMC3    O2 4436   0.077   2.914  13.645 -0.0320 -0.7457 -0.3660
  291MPD2     C 4437   0.127   3.427   0.554  0.1676 -0.0052  0.6819
  291MPD2    C1 4438   0.248   3.370   0.527  0.2280  0.1470  0.3971
  291MPD2    C2 4439   0.358   3.451   0.506 -0.0766  0.5760 -0.5103
  291MPD2    C3 4440   0.344   3.589   0.483  0.8684  0.4311 -0.1286
  291MPD2    C4 4441   0.216   3.642   0.494  0.8866  0.6836 -0.5210
  291MPD2    C5 4442   0.109   3.564   0.533  0.1279 -0.8240  0.7645
  291MPD2     H 4443   0.455   3.403   0.502 -1.2001 -1.7410  0.2330
  291MPD2    H1 4444   0.197   3.748   0.483 -2.2987  0.3337  1.8235
  291MPD2    H2 4445   0.044   3.364   0.583 -0.4404  0.5008  0.0161
  291MPD2    H3 4446   0.012   3.609   0.548  0.5320  1.4748 -3.4699
  291MPD2     N 4447   0.451   3.685   0.460  0.2256  0.2003  0.2389
  291MPD2    H5 4448   0.427   3.783   0.468 -1.7457 -0.2246 -0.5935
  291MPD2    N1 4449   0.270   3.230   0.505  0.1803 -0.3719 -0.5424
  291MPD2    H7 4450   0.364   3.206   0.476  0.7358  1.1358 -0.0049
  292TMC3    C1 4451   0.236   2.998   0.497 -0.2541 -0.1700 -0.2920
  292TMC3    C2 4452   0.283   2.951   0.613 -0.5170  0.8582  0.1210
  292TMC3    C3 4453   0.309   2.820   0.629 -0.3875 -0.2202  0.3995
  292TMC3    C4 4454   0.197   2.912   0.400  0.0741 -1.1100 -0.0429
  292TMC3    C5 4455   0.220   2.776   0.418  0.1493 -0.2633 -0.8840
  292TMC3    C6 4456   0.275   2.728   0.532  0.2731  0.0791  0.2030
  292TMC3     C 4457   0.173   3.129   0.495  0.4986  0.0558 -0.0181
  292TMC3     O 4458   0.052   3.136   0.514 -0.1674  0.0114 -0.3383
  292TMC3     H 4459   0.299   3.015   0.699  2.0811  1.7034 -0.9759
  292TMC3    H1 4460   0.148   2.935   0.306  2.2991  0.2146 -0.8780
  292TMC3    H2 4461   0.286   2.622   0.553  1.0858  0.3556  1.1778
  292TMC3    C7 4462   0.145   2.678   0.349 -0.7444  0.0845  0.1840
  292TMC3    C8 4463   0.339   2.776   0.766  0.7086 -0.6917 -0.2940
  292TMC3    O1 4464   0.194   2.567   0.342 -0.5300 -0.1861 -0.5213
  292TMC3    O2 4465   0.432   2.840   0.814 -0.2859 -0.4215 -0.0060
  293MPD2     C 4466   1.205   3.695  12.866 -0.2640  0.2877  0.0972
  293MPD2    C1 4467   1.146   3.816  12.864  0.0046  0.7710 -0.2496
  293MPD2    C2 4468   1.180   3.911  12.965 -0.0205  0.1747  0.2600
  293MPD2    C3 4469   1.262   3.869  13.068 -0.1817 -0.0978  0.4005
  293MPD2    C4 4470   1.316   3.745  13.068 -0.5012 -0.7348  0.5486
  293MPD2    C5 4471   1.282   3.655  12.969  0.1906 -0.5596 -0.5107
  293MPD2     H 4472   1.160   4.017  12.958 -0.0823  0.0362 -1.5251
  293MPD2    H1 4473   1.383   3.698  13.138  0.2826  1.3819  1.2189
  293MPD2    H2 4474   1.180   3.625  12.786 -0.3252  0.6500 -0.2023
  293MPD2    H3 4475   1.321   3.555  12.977 -1.2728 -1.1735 -1.0293
  293MPD2     N 4476   1.297   3.969  13.157 -0.3051  1.1306  0.5334
  293MPD2    H5 4477   1.254   4.061  13.150 -1.2386  0.6748  0.2302
  293MPD2    N1 4478   1.053   3.838  12.761  0.2501  0.0451  0.5494
  293MPD2    H7 4479   1.052   3.769  12.686 -1.7248  1.2229 -0.5048
  294TMC3    C1 4480   0.875   3.930  12.639  0.2664  0.5422  0.2886
  294TMC3    C2 4481   0.903   3.845  12.538  0.1154 -0.5713  0.0488
  294TMC3    C3 4482   0.828   3.855  12.419 -0.0249 -0.0885  0.1622
  294TMC3    C4 4483   0.774   4.024  12.627 -0.3205  0.8301 -0.4288
  294TMC3    C5 4484   0.713   4.029  12.511  0.5377  0.1788  0.4403
  294TMC3    C6 4485   0.736   3.953  12.393 -0.3373  0.7816  0.2454
  294TMC3     C 4486   0.965   3.938  12.754 -0.1143  0.1612  0.1245
  294TMC3     O 4487   0.952   4.037  12.822 -0.7010 -0.4301  0.2047
  294TMC3     H 4488   0.978   3.767  12.543  0.4816 -0.0929  1.8239
  294TMC3    H1 4489   0.766   4.101  12.703  2.1025 -0.3427  1.0235
  294TMC3    H2 4490   0.676   3.959  12.302 -0.4827  2.2188  0.4346
  294TMC3    C7 4491   0.648   4.157  12.485 -0.3641  0.1631 -0.0473
  294TMC3    C8 4492   0.856   3.761  12.307 -1.0034  0.1337 -0.6062
  294TMC3    O1 4493   0.587   4.224  12.565  0.4054 -0.3274 -0.0989
  294TMC3    O2 4494   0.969   3.715  12.309  0.1461  0.3497  0.0273
  295MPD2     C 4495   3.185   3.011   0.758  0.4702  0.3916 -0.2204
  295MPD2    C1 4496   3.047   3.011   0.764 -0.2097 -0.4813 -0.0234
  295MPD2    C2 4497   2.980   2.961   0.873 -0.0357  0.8102  0.6562
  295MPD2    C3 4498   3.048   2.912   0.987 -0.4903 -0.3141 -0.5038
  295MPD2    C4 4499   3.185   2.896   0.972 -0.1792  0.0898  0.1142
  295MPD2    C5 4500   3.253   2.949   0.865 -0.8612 -0.3531 -0.3323
  295MPD2     H 4501   2.872   2.958   0.869 -0.0617  0.9321  1.2942
  295MPD2    H1 4502   3.237   2.852   1.057 -0.9995 -1.1781 -0.0445
  295MPD2    H2 4503   3.239   3.039   0.669  0.5380 -0.7258 -0.5313
  295MPD2    H3 4504   3.360   2.933   0.869 -0.7782  0.0628 -0.8840
  295MPD2     N 4505   2.980   2.859   1.098 -0.4415  0.0205  0.0279
  295MPD2    H5 4506   3.031   2.805   1.167 -0.3938 -0.3778 -0.3149
  295MPD2    N1 4507   2.962   3.073   0.674  0.0760 -0.2047 -0.0517
  295MPD2    H7 4508   2.864   3.074   0.701  0.0094  0.9495 -0.3295
  296TMC3    C1 4509   2.803   2.786   1.227 -0.2377  1.0177  0.9424
  296TMC3    C2 4510   2.706   2.828   1.314 -0.0787 -0.0038 -0.1477
  296TMC3    C3 4511   2.653   2.734   1.401  0.5571  1.2913  0.3399
  296TMC3    C4 4512   2.846   2.658   1.222 -0.4265 -0.0932 -0.5537
  296TMC3    C5 4513   2.793   2.569   1.309 -0.6702  0.6262  0.4982
  296TMC3    C6 4514   2.697   2.607   1.397 -0.0802 -0.0536  0.1940
  296TMC3     C 4515   2.844   2.870   1.120  0.5433  0.1839 -0.4135
  296TMC3     O 4516   2.759   2.951   1.072  0.3302  0.1610 -0.0997
  296TMC3     H 4517   2.661   2.927   1.315  2.1101  0.9769  0.7966
  296TMC3    H1 4518   2.918   2.627   1.147  2.1688 -0.7016  2.2111
  296TMC3    H2 4519   2.661   2.542   1.476 -0.4188  1.8238  1.5808
  296TMC3    C7 4520   2.819   2.427   1.284 -0.2728  0.3080  0.9890
  296TMC3    C8 4521   2.554   2.771   1.507 -0.1373  0.2133  0.2909
  296TMC3    O1 4522   2.889   2.401   1.187  0.0745 -0.5704 -0.1733
  296TMC3    O2 4523   2.563   2.704   1.611  0.0170 -0.2909  0.1881
  297MPD2     C 4524   3.770   0.267  16.187  1.1457 -0.1191 -0.1287
  297MPD2    C1 4525   3.790   0.399  16.150 -0.3912  0.3376  0.8141
  297MPD2    C2 4526   3.910   0.447  16.106  0.5050 -0.7949 -0.5482
  297MPD2    C3 4527   4.021   0.360  16.094 -0.9039  0.0117 -0.4967
  297MPD2    C4 4528   4.007   0.230  16.136 -0.3170 -1.0610 -0.3661
  297MPD2    C5 4529   3.884   0.185  16.183  0.3697  0.4434 -0.2493
  297MPD2     H 4530   3.927   0.551  16.081 -3.1070 -0.4248 -1.4468
  297MPD2    H1 4531   4.089   0.160  16.124 -0.4579 -1.3119  0.1186
  297MPD2    H2 4532   3.671   0.233  16.217  1.2206  1.1851  1.5899
  297MPD2    H3 4533   3.867   0.083  16.214 -0.5829  0.5735 -0.3250
  297MPD2     N 4534   4.142   0.410  16.044  0.0116  0.2389 -0.2776
  297MPD2    H5 4535   4.155   0.510  16.035  1.4224  0.2156  1.7160
  297MPD2    N1 4536   3.685   0.493  16.151  0.0406  0.7386  0.4497
  297MPD2    H7 4537   3.700   0.590  16.124 -1.3046  0.9033  0.2967
  298TMC3    C1 4538   3.481   0.595  16.203 -0.4836  0.2737  0.1881
  298TMC3    C2 4539   3.470   0.655  16.083  0.0723 -0.0500 -0.0975
  298TMC3    C3 4540   3.379   0.754  16.059  0.1190  0.9092 -0.3895
  298TMC3    C4 4541   3.393   0.639  16.301 -0.1407  0.6024  0.5127
  298TMC3    C5 4542   3.300   0.737  16.274 -0.0492  0.2707  0.0195
  298TMC3    C6 4543   3.287   0.795  16.154  0.5097 -0.1696 -0.0802
  298TMC3     C 4544   3.566   0.480  16.218  0.2528 -0.1116  0.5630
  298TMC3     O 4545   3.533   0.394  16.293 -0.1386  0.5630  0.5586
  298TMC3     H 4546   3.544   0.634  16.006 -0.3937 -0.9977 -0.2896
  298TMC3    H1 4547   3.388   0.603  16.403 -0.4874  1.3943  0.7761
  298TMC3    H2 4548   3.217   0.873  16.127  0.4359  0.2602  1.3733
  298TMC3    C7 4549   3.207   0.781  16.383  0.1256  0.2987 -0.1498
  298TMC3    C8 4550   3.409   0.850  15.964 -0.0432 -0.3147  0.4706
  298TMC3    O1 4551   3.257   0.783  16.496  0.0844  0.6055  0.1051
  298TMC3    O2 4552   3.368   0.966  15.990  0.1869 -0.7259 -0.1288
  299MPD2     C 4553   4.220   0.189  11.008  0.1635 -1.0168 -0.2404
  299MPD2    C1 4554   4.292   0.291  10.958  0.2001  0.2376  0.4279
  299MPD2    C2 4555   4.283   0.328  10.824 -0.0606 -0.0254  0.5610
  299MPD2    C3 4556   4.186   0.261  10.747 -0.4462  0.0263 -0.8802
  299MPD2    C4 4557   4.107   0.158  10.802  0.8972 -0.0443  0.3500
  299MPD2    C5 4558   4.133   0.122  10.932  0.1470 -0.1178  0.6290
  299MPD2     H 4559   4.342   0.409  10.784  0.7726 -0.1762  1.4860
  299MPD2    H1 4560   4.034   0.106  10.742 -1.0249  0.5560  2.1896
  299MPD2    H2 4561   4.230   0.157  11.111 -0.4792  0.5948  0.3213
  299MPD2    H3 4562   4.074   0.040  10.973  1.9118 -1.6783  0.0463
  299MPD2     N 4563   4.145   0.303  10.612 -0.1754 -0.2581  0.3482
  299MPD2    H5 4564   4.059   0.265  10.575 -0.2242 -1.6567  1.8457
  299MPD2    N1 4565   4.379   0.352  11.051  0.0642 -0.1241  0.0750
  299MPD2    H7 4566   4.397   0.299  11.136 -1.9688 -1.3289 -0.2591
  300TMC3    C1 4567   4.129   0.422  10.407  0.4818  0.7301  0.7166
  300TMC3    C2 4568   4.163   0.534  10.338  0.0668 -0.2145 -0.2842
  300TMC3    C3 4569   4.100   0.553  10.215  0.5282  0.6618 -0.1152
  300TMC3    C4 4570   4.033   0.340  10.361  0.0022 -0.2102  0.2378
  300TMC3    C5 4571   3.978   0.361  10.237  0.4938  0.2444  0.5727
  300TMC3    C6 4572   4.011   0.466  10.158 -0.3508  0.0749  0.1651
  300TMC3     C 4573   4.199   0.402  10.533  0.0735 -0.4901 -0.4324
  300TMC3     O 4574   4.293   0.476  10.566  0.6470  0.7340 -0.5506
  300TMC3     H 4575   4.235   0.606  10.376  0.0430 -0.9483  1.1486
  300TMC3    H1 4576   4.010   0.251  10.418 -1.3634 -0.1277 -0.1772
  300TMC3    H2 4577   3.956   0.494  10.069 -1.2355  1.0312  1.0057
  300TMC3    C7 4578   3.876   0.269  10.192 -0.6274  0.0079 -0.1396
  300TMC3    C8 4579   4.097   0.693  10.190  0.5036  0.6659  0.3876
  300TMC3    O1 4580   3.861   0.255  10.073  0.5410  0.6585 -0.0684
  300TMC3    O2 4581   4.133   0.764  10.282 -0.1960  0.1454 -0.0046
  301MPD2     C 4582   2.021   1.658   1.279 -0.7338 -0.5950 -0.4522
  301MPD2    C1 4583   2.023   1.670   1.139  0.4727  0.0225 -0.1483
  301MPD2    C2 4584   2.116   1.599   1.068  0.0338 -0.3747 -0.3597
  301MPD2    C3 4585   2.204   1.510   1.129 -0.2845 -0.3645  0.3826
  301MPD2    C4 4586   2.201   1.492   1.267 -0.8263 -0.3236 -1.2969
  301MPD2    C5 4587   2.110   1.566   1.343 -0.0953  0.3174 -0.6507
  301MPD2     H 4588   2.124   1.610   0.961  2.3025 -1.1646 -0.2743
  301MPD2    H1 4589   2.267   1.428   1.324  3.0161  2.0199 -3.0723
  301MPD2    H2 4590   1.964   1.733   1.333 -1.8699 -1.7532 -0.0628
  301MPD2    H3 4591   2.121   1.552   1.450  2.2391 -0.2682 -0.9489
  301MPD2     N 4592   2.304   1.428   1.068 -0.5066 -0.1157  0.3822
  301MPD2    H5 4593   2.371   1.374   1.122  1.1551  1.4707 -0.0863
  301MPD2    N1 4594   1.932   1.751   1.062  0.0415  0.6305  0.3450
  301MPD2    H7 4595   1.939   1.742   0.961 -1.4542 -0.1560  0.3040
  302TMC3    C1 4596   2.406   1.293   0.902 -0.9278  0.4766  0.4198
  302TMC3    C2 4597   2.476   1.225   0.994 -0.2591  0.0192 -0.9653
  302TMC3    C3 4598   2.581   1.151   0.950 -0.2659  0.1899 -0.6730
  302TMC3    C4 4599   2.434   1.285   0.765 -0.2009 -0.0509 -0.0695
  302TMC3    C5 4600   2.532   1.201   0.729  0.0809  0.3867  0.2816
  302TMC3    C6 4601   2.612   1.130   0.820 -0.0723 -0.1934  0.2693
  302TMC3     C 4602   2.310   1.393   0.938  0.0735 -0.8339 -0.0061
  302TMC3     O 4603   2.237   1.433   0.850  0.5019  0.3044 -0.0538
  302TMC3     H 4604   2.454   1.237   1.100 -0.8820 -3.0768 -0.7322
  302TMC3    H1 4605   2.368   1.325   0.689  0.9643 -0.0304 -1.0705
  302TMC3    H2 4606   2.688   1.059   0.788 -0.0799 -1.0482  2.1328
  302TMC3    C7 4607   2.540   1.160   0.591 -0.0527 -0.6132 -0.2455
  302TMC3    C8 4608   2.619   1.038   1.028  0.5056 -0.0017 -0.3116
  302TMC3    O1 4609   2.640   1.092   0.564 -0.1237 -0.1969 -0.2579
  302TMC3    O2 4610   2.687   0.958   0.964  0.3205  0.6212 -0.4003
  303MPD2     C 4611   2.489   0.293  10.280 -0.5186 -0.5288 -0.2528
  303MPD2    C1 4612   2.382   0.200  10.267  0.3079 -0.2352  0.5820
  303MPD2    C2 4613   2.306   0.189  10.151  0.7050  0.6195 -0.0388
  303MPD2    C3 4614   2.332   0.269  10.039  0.1885  0.4915  0.0881
  303MPD2    C4 4615   2.444   0.352  10.049  0.2584 -0.4840 -0.0399
  303MPD2    C5 4616   2.522   0.355  10.164 -0.6923  0.7320  0.3624
  303MPD2     H 4617   2.222   0.121  10.143  0.2276  1.3911 -1.6908
  303MPD2    H1 4618   2.469   0.415   9.965 -3.5972 -0.9638 -1.5347
  303MPD2    H2 4619   2.548   0.305  10.371 -0.9465 -1.5485  0.1645
  303MPD2    H3 4620   2.607   0.422  10.160 -0.5095  0.5065  0.4601
  303MPD2     N 4621   2.256   0.278   9.917 -0.5897  0.3338 -0.2298
  303MPD2    H5 4622   2.285   0.350   9.851  0.0936  0.0135 -0.2825
  303MPD2    N1 4623   2.350   0.139  10.394 -0.1907 -0.2512  0.3243
  303MPD2    H7 4624   2.405   0.156  10.477  0.8911  1.3792 -0.7302
  304TMC3    C1 4625   2.266   4.709  10.520 -0.3525  0.5671 -0.5289
  304TMC3    C2 4626   2.146   4.685  10.582  0.6672  0.0490  0.4165
  304TMC3    C3 4627   2.125   4.570  10.655  0.1525  0.0618  1.2238
  304TMC3    C4 4628   2.365   4.621  10.514 -0.1847 -0.2754 -0.6989
  304TMC3    C5 4629   2.336   4.500  10.574 -0.7580  0.3382 -0.1730
  304TMC3    C6 4630   2.234   4.482  10.664 -0.6073 -0.4201  0.4059
  304TMC3     C 4631   2.249   0.050  10.404 -0.7668 -0.2938  0.1982
  304TMC3     O 4632   2.171   0.004  10.320 -0.1885 -0.5868  0.6354
  304TMC3     H 4633   2.062   0.012  10.560 -0.1409 -1.1477 -0.0486
  304TMC3    H1 4634   2.438   4.638  10.436  2.9448  0.3725  2.3521
  304TMC3    H2 4635   2.213   4.382  10.699  1.0180 -1.0383 -0.3975
  304TMC3    C7 4636   2.357   4.381  10.495 -0.4692 -0.4517 -0.4027
  304TMC3    C8 4637   1.998   4.507  10.624  0.1217 -0.3303  0.1506
  304TMC3    O1 4638   2.314   4.274  10.536 -0.6420  0.1407 -0.1061
  304TMC3    O2 4639   1.942   4.548  10.520 -0.0096  0.2041 -0.0799
  305MPD2     C 4640   0.144   1.573  14.198  0.1988  0.3905  0.0242
  305MPD2    C1 4641   0.206   1.452  14.225 -0.3912  0.2514  0.4223
  305MPD2    C2 4642   0.204   1.355  14.127 -1.2497  0.4234 -1.3539
  305MPD2    C3 4643   0.139   1.370  14.003 -0.4233  0.8113  0.4398
  305MPD2    C4 4644   0.076   1.493  13.989  0.1290  0.1553  0.0140
  305MPD2    C5 4645   0.087   1.591  14.079 -0.3320  0.3475 -0.0530
  305MPD2     H 4646   0.265   1.266  14.134  1.0464  2.2205  1.1099
  305MPD2    H1 4647   0.018   1.516  13.900 -0.1183  1.5334  0.5284
  305MPD2    H2 4648   0.130   1.651  14.272 -0.8553  2.5493 -2.4271
  305MPD2    H3 4649   0.028   1.676  14.047 -1.3744  0.0666  1.1199
  305MPD2     N 4650   0.130   1.277  13.897 -0.1122 -0.3628  0.3452
  305MPD2    H5 4651   0.094   1.299  13.805 -1.7096  0.8856  1.2649
  305MPD2    N1 4652   0.259   1.435  14.357  0.1424  0.2779  0.5712
  305MPD2    H7 4653   0.237   1.514  14.417  1.3100  0.3283  0.9392
  306TMC3    C1 4654   0.372   1.339  14.542  0.1176 -0.9653  0.0857
  306TMC3    C2 4655   0.427   1.226  14.596  0.2136  0.1727 -0.1199
  306TMC3    C3 4656   0.449   1.216  14.730 -0.0117 -0.6305 -0.0063
  306TMC3    C4 4657   0.320   1.439  14.616 -0.5040 -0.0294 -0.0089
  306TMC3    C5 4658   0.337   1.424  14.751 -0.0707  0.2411 -0.3889
  306TMC3    C6 4659   0.394   1.316  14.808  0.3562  0.2140  0.0191
  306TMC3     C 4660   0.348   1.337  14.398 -0.8755 -0.8865  0.2163
  306TMC3     O 4661   0.381   1.235  14.338  0.0726 -0.1404 -0.7853
  306TMC3     H 4662   0.471   1.153  14.529 -0.4206  0.4258 -0.8087
  306TMC3    H1 4663   0.255   1.518  14.582  1.0096  0.8816 -0.8064
  306TMC3    H2 4664   0.396   1.313  14.916  0.1683  1.2987  0.0439
  306TMC3    C7 4665   0.277   1.510  14.856 -0.3912 -0.4354 -0.5928
  306TMC3    C8 4666   0.492   1.093  14.796 -0.2102 -0.4778 -0.2893
  306TMC3    O1 4667   0.160   1.543  14.857 -0.3861  0.1949  0.8244
  306TMC3    O2 4668   0.530   1.002  14.723 -0.1936  0.2522  0.4775
  307MPD2     C 4669   3.738   4.387   0.146 -0.5511 -0.1214  0.1095
  307MPD2    C1 4670   3.616   4.448   0.128  0.7106 -0.9335  1.0497
  307MPD2    C2 4671   3.519   4.442   0.229  0.1048 -0.6226 -0.7825
  307MPD2    C3 4672   3.549   4.381   0.352  0.8778  0.1415 -0.4371
  307MPD2    C4 4673   3.666   4.314   0.373  0.2765 -0.1468 -0.2496
  307MPD2    C5 4674   3.759   4.315   0.271  0.0602 -1.0086 -0.3786
  307MPD2     H 4675   3.422   4.489   0.214 -0.1379 -0.8929 -0.0869
  307MPD2    H1 4676   3.698   4.268   0.466 -0.9541 -0.1064  0.1883
  307MPD2    H2 4677   3.816   4.386   0.072  1.5127 -0.5002  2.2922
  307MPD2    H3 4678   3.856   4.268   0.278  0.3221 -0.2140  1.2760
  307MPD2     N 4679   3.448   4.391   0.450 -0.2959 -0.1546  0.8556
  307MPD2    H5 4680   3.362   4.438   0.425  0.8566  0.7589 -1.3950
  307MPD2    N1 4681   3.581   4.510   0.006  0.1813 -0.2107 -0.0694
  307MPD2    H7 4682   3.489   4.553   0.005  1.1160  1.9784  5.3235
  308TMC3    C1 4683   3.088   4.357   0.615  0.0670 -0.2623  0.2332
  308TMC3    C2 4684   3.093   4.483   0.656 -0.2273 -0.6244 -0.2929
  308TMC3    C3 4685   3.213   4.539   0.699  0.0084  0.2322  0.0549
  308TMC3    C4 4686   3.205   4.283   0.599  0.3560 -0.1841 -0.6828
  308TMC3    C5 4687   3.321   4.343   0.632 -0.2455 -0.0299 -0.9715
  308TMC3    C6 4688   3.326   4.472   0.685  0.0576  0.0006 -0.5529
  308TMC3     C 4689   2.963   4.303   0.566  0.3581 -0.6869  0.2020
  308TMC3     O 4690   2.965   4.181   0.549 -0.1632  0.1427  0.4030
  308TMC3     H 4691   3.007   4.546   0.674  0.2667  0.0216 -0.1932
  308TMC3    H1 4692   3.204   4.176   0.585  0.8856 -0.1414 -1.0178
  308TMC3    H2 4693   3.425   4.515   0.703  0.0850  0.2688 -1.3347
  308TMC3    C7 4694   3.437   4.304   0.554  0.4796 -0.3177  0.4028
  308TMC3    C8 4695   3.241   4.680   0.705  0.6144 -0.1869  0.1174
  308TMC3    O1 4696   3.519   4.232   0.607 -0.0478 -0.0529  0.0796
  308TMC3    O2 4697   3.336   4.714   0.773  0.6814 -0.3110 -0.3145
  309MPD2     C 4698   2.233   4.692  17.017  0.5062 -0.2410  0.2154
  309MPD2    C1 4699   2.173   0.053  16.939  0.5543 -0.2251 -0.2497
  309MPD2    C2 4700   2.057   0.112  16.985  0.3109 -0.0877 -0.2252
  309MPD2    C3 4701   1.993   0.071  17.104  0.7503 -0.1074  0.1809
  309MPD2    C4 4702   2.050   4.711  17.178  0.4365  0.2079  0.4388
  309MPD2    C5 4703   2.168   4.655  17.135  0.1306 -0.0034 -0.1754
  309MPD2     H 4704   2.007   0.184  16.921 -1.4989 -0.2684  0.9791
  309MPD2    H1 4705   2.004   4.684  17.272  2.9223  0.6750  1.8031
  309MPD2    H2 4706   2.330   4.645  17.006  0.4744  0.4516 -3.2009
  309MPD2    H3 4707   2.215   4.585  17.203 -1.1593 -1.3715 -0.6985
  309MPD2     N 4708   1.880   0.135  17.165  0.3167  0.0321 -0.2416
  309MPD2    H5 4709   1.855   0.097  17.256 -1.1900 -0.0031 -0.6697
  309MPD2    N1 4710   2.223   0.096  16.813 -0.5586 -0.1219  0.6077
  309MPD2    H7 4711   2.173   0.175  16.773  1.0664 -0.2309 -1.6341
  310TMC3    C1 4712   2.347   0.121  16.617  0.3433 -0.0537  0.1218
  310TMC3    C2 4713   2.277   0.227  16.578  0.3998  0.3138  0.0088
  310TMC3    C3 4714   2.292   0.270  16.446 -0.4765 -0.0850 -0.3320
  310TMC3    C4 4715   2.433   0.057  16.536  0.0444 -0.2998 -0.7774
  310TMC3    C5 4716   2.457   0.104  16.408  0.5294 -1.0419  0.0106
  310TMC3    C6 4717   2.376   0.204  16.359 -0.1224  0.1730  0.1509
  310TMC3     C 4718   2.330   0.048  16.744 -0.4221  0.1598 -0.1224
  310TMC3     O 4719   2.406   4.697  16.774 -0.4704  0.2315 -0.2422
  310TMC3     H 4720   2.231   0.290  16.653  2.6441  1.1604  0.6648
  310TMC3    H1 4721   2.480   4.706  16.573 -0.4713 -0.2250  0.0694
  310TMC3    H2 4722   2.387   0.245  16.259 -2.3533 -1.0189 -0.5752
  310TMC3    C7 4723   2.510   0.018  16.307 -0.0562  0.7557  0.4181
  310TMC3    C8 4724   2.187   0.353  16.383 -0.0422 -0.2168 -0.4988
  310TMC3    O1 4725   2.474   0.048  16.192  0.7784 -0.3502 -0.2470
  310TMC3    O2 4726   2.200   0.376  16.266 -0.0549  0.0861 -0.1547
  311MPD2     C 4727   3.724   1.818  12.348 -0.3460  0.4098 -0.1990
  311MPD2    C1 4728   3.818   1.759  12.433  0.0701 -0.4952  0.2992
  311MPD2    C2 4729   3.775   1.668  12.524 -0.3452  0.3741 -0.2095
  311MPD2    C3 4730   3.644   1.632  12.539  0.2848  0.1890  0.4733
  311MPD2    C4 4731   3.554   1.681  12.451  0.1651 -0.5132  0.0906
  311MPD2    C5 4732   3.594   1.774  12.356 -0.7391  0.0793 -0.0129
  311MPD2     H 4733   3.852   1.629  12.590 -0.1872  0.1023 -0.5501
  311MPD2    H1 4734   3.449   1.658  12.461  0.5075 -0.6906  3.3708
  311MPD2    H2 4735   3.745   1.881  12.263 -0.4625  4.1433  2.5280
  311MPD2    H3 4736   3.520   1.817  12.290 -0.0159 -0.2156 -1.0137
  311MPD2     N 4737   3.605   1.541  12.642  0.4673 -0.1179 -0.2989
  311MPD2    H5 4738   3.679   1.505  12.702 -0.3082 -1.9760 -0.4600
  311MPD2    N1 4739   3.959   1.783  12.416  0.6075  0.1888  0.0022
  311MPD2    H7 4740   4.029   1.736  12.472  2.3141  1.2263 -1.2481
  312TMC3    C1 4741   3.473   1.385  12.775 -0.2924  0.4918  0.0225
  312TMC3    C2 4742   3.376   1.297  12.780 -0.4620 -0.4662  0.0490
  312TMC3    C3 4743   3.351   1.235  12.900 -0.1248  0.2123 -0.8892
  312TMC3    C4 4744   3.539   1.427  12.891 -0.0850  0.1282  0.2920
  312TMC3    C5 4745   3.521   1.353  13.004  0.1862  0.5407 -0.4622
  312TMC3    C6 4746   3.420   1.259  13.016  0.1097  0.3318  0.6934
  312TMC3     C 4747   3.474   1.490  12.669 -0.3518  0.3297 -0.3694
  312TMC3     O 4748   3.373   1.495  12.606 -0.0053  0.8572 -0.2037
  312TMC3     H 4749   3.319   1.266  12.692  1.9055  0.9702 -1.9887
  312TMC3    H1 4750   3.597   1.519  12.893 -1.7327  1.2044 -1.0947
  312TMC3    H2 4751   3.407   1.202  13.108 -0.5095 -1.6909 -0.6372
  312TMC3    C7 4752   3.552   1.424  13.133 -0.2493 -0.3380 -0.0846
  312TMC3    C8 4753   3.227   1.160  12.905 -0.1108  0.7832  0.9355
  312TMC3    O1 4754   3.541   1.545  13.116 -0.0523 -0.1662 -0.5191
  312TMC3    O2 4755   3.182   1.110  12.805  0.1305  0.2223  0.5348
  313MPD2     C 4756   3.017   0.960  11.264 -0.0808 -0.5094  0.3476
  313MPD2    C1 4757   3.088   1.060  11.201 -0.0803 -0.7051  0.3555
  313MPD2    C2 4758   3.132   1.037  11.074  0.4563 -0.0589 -0.4644
  313MPD2    C3 4759   3.104   0.917  11.007 -0.2692  0.5982  0.8760
  313MPD2    C4 4760   3.037   0.820  11.070  0.2020  0.2837  0.2773
  313MPD2    C5 4761   2.993   0.840  11.199 -0.0326  0.8370  0.4142
  313MPD2     H 4762   3.169   1.119  11.014 -0.2821  0.6104 -0.0034
  313MPD2    H1 4763   3.011   0.729  11.018  1.6647 -0.8149  1.4653
  313MPD2    H2 4764   2.982   0.986  11.364 -0.5544  1.5918 -0.3596
  313MPD2    H3 4765   2.931   0.766  11.248  0.3287 -0.5544 -1.2126
  313MPD2     N 4766   3.156   0.901  10.877  0.4476  0.0988 -0.0732
  313MPD2    H5 4767   3.221   0.968  10.838 -1.5271  0.9731 -1.8615
  313MPD2    N1 4768   3.109   1.186  11.260  0.4989 -0.5797 -0.1171
  313MPD2    H7 4769   3.150   1.260  11.203  0.7505 -0.9051 -0.3573
  314TMC3    C1 4770   3.104   1.362  11.406  0.3713 -0.0220  1.1580
  314TMC3    C2 4771   3.228   1.390  11.458  0.0032  0.3420  0.0308
  314TMC3    C3 4772   3.278   1.514  11.421 -0.3101  0.2768  0.2006
  314TMC3    C4 4773   3.033   1.446  11.326 -0.7787 -0.1777  0.0261
  314TMC3    C5 4774   3.091   1.566  11.291 -0.1143 -0.3877 -0.0482
  314TMC3    C6 4775   3.218   1.600  11.329 -0.3390  0.6415  0.1165
  314TMC3     C 4776   3.077   1.220  11.389 -0.3316  0.6541 -0.7777
  314TMC3     O 4777   3.092   1.157  11.489  0.2137  0.0915 -0.1932
  314TMC3     H 4778   3.286   1.313  11.508 -1.8810 -0.3787  1.0825
  314TMC3    H1 4779   2.940   1.423  11.276 -1.2913  1.0161  0.4269
  314TMC3    H2 4780   3.268   1.690  11.294  3.1228 -2.2812 -2.5605
  314TMC3    C7 4781   3.043   1.634  11.177  0.1004 -0.4566 -0.7682
  314TMC3    C8 4782   3.422   1.525  11.423 -0.2684 -0.3468  0.7808
  314TMC3    O1 4783   2.924   1.671  11.170 -0.1594 -0.2402  0.3761
  314TMC3    O2 4784   3.472   1.583  11.323 -0.0412 -0.0881 -0.4803
  315MPD2     C 4785   3.885   4.651  17.217  0.1292  0.7958  0.1344
  315MPD2    C1 4786   3.909   4.658  17.353  0.0731 -0.9468  0.6877
  315MPD2    C2 4787   3.863   0.036  17.413  0.5364 -0.5247  0.0809
  315MPD2    C3 4788   3.786   0.131  17.360 -0.2045 -0.2677  0.1602
  315MPD2    C4 4789   3.760   0.123  17.228 -0.4956  0.2804  0.5409
  315MPD2    C5 4790   3.810   0.014  17.154  0.2865  0.6349 -0.4369
  315MPD2     H 4791   3.889   0.041  17.518 -0.0938 -1.1635  0.2702
  315MPD2    H1 4792   3.693   0.189  17.174 -1.8158 -0.9955  0.5870
  315MPD2    H2 4793   3.924   4.572  17.154  0.2694 -0.1082  1.3584
  315MPD2    H3 4794   3.794   0.001  17.048  0.3712 -0.3810 -0.3299
  315MPD2     N 4795   3.750   0.240  17.445  0.3835 -0.2569 -0.5991
  315MPD2    H5 4796   3.791   0.236  17.538  0.7246 -2.6724 -0.8498
  315MPD2    N1 4797   3.999   4.576  17.419  0.1107 -0.4103 -0.8348
  315MPD2    H7 4798   4.013   4.587  17.518  0.3618 -1.7780 -0.7223
  316TMC3    C1 4799   3.655   0.440  17.514 -0.2424 -0.3015 -0.5612
  316TMC3    C2 4800   3.763   0.469  17.599 -0.1267 -0.2526 -0.1658
  316TMC3    C3 4801   3.745   0.570  17.692 -0.2974  0.5149  0.1305
  316TMC3    C4 4802   3.545   0.520  17.510 -0.1907  0.4424  0.2414
  316TMC3    C5 4803   3.535   0.618  17.605  1.0511 -0.9129  0.4233
  316TMC3    C6 4804   3.628   0.642  17.698  0.2572  0.3577  0.7694
  316TMC3     C 4805   3.662   0.336  17.407  0.5922  0.0189  0.3202
  316TMC3     O 4806   3.582   0.342  17.315 -0.6197  0.5043 -0.6444
  316TMC3     H 4807   3.852   0.408  17.592  0.0757  0.1453 -1.0686
  316TMC3    H1 4808   3.459   0.486  17.453  1.2558 -0.1316 -1.5901
  316TMC3    H2 4809   3.603   0.709   0.026  1.2770  1.6785 -0.0156
  316TMC3    C7 4810   3.406   0.669  17.636  0.1073 -0.4847  0.0427
  316TMC3    C8 4811   3.827   0.584   0.059  0.1052 -0.8161 -0.1174
  316TMC3    O1 4812   3.364   0.654  17.751  0.1713 -0.0005  0.4500
  316TMC3    O2 4813   3.833   0.693   0.114 -0.3702 -0.3728 -0.9508
  317MPD2     C 4814   0.706   3.098  12.888  0.3848  0.3257  0.3408
  317MPD2    C1 4815   0.825   3.032  12.872  0.1064 -0.0868 -0.6334
  317MPD2    C2 4816   0.875   2.960  12.981 -0.0805  0.2667 -0.4197
  317MPD2    C3 4817   0.815   2.961  13.107 -0.3482  0.4000  0.3036
  317MPD2    C4 4818   0.699   3.033  13.122  0.2506  0.6450  0.2789
  317MPD2    C5 4819   0.650   3.098  13.015 -0.3820 -0.7609 -0.0928
  317MPD2     H 4820   0.963   2.897  12.970  0.0495  0.5547 -1.0184
  317MPD2    H1 4821   0.646   3.031  13.216 -0.3400 -2.6297 -0.1061
  317MPD2    H2 4822   0.656   3.159  12.814  0.3206 -0.0124  0.1032
  317MPD2    H3 4823   0.559   3.153  13.037 -1.0448 -1.0733 -2.1136
  317MPD2     N 4824   0.870   2.866  13.197  0.0935  0.1452 -0.1336
  317MPD2    H5 4825   0.945   2.804  13.171  0.1325  0.3671 -0.5479
  317MPD2    N1 4826   0.901   3.030  12.755  0.6190 -0.2127 -0.3411
  317MPD2    H7 4827   0.975   2.962  12.748  0.7075 -0.5070  3.3997
  318TMC3    C1 4828   0.861   2.715  13.359 -0.6121  0.5571 -0.2601
  318TMC3    C2 4829   0.837   2.627  13.256  0.4514  0.0662  0.6695
  318TMC3    C3 4830   0.899   2.503  13.270 -0.1429  0.0637 -0.4664
  318TMC3    C4 4831   0.955   2.694  13.448  0.0076  0.5123  0.0784
  318TMC3    C5 4832   1.017   2.568  13.464  0.3400  0.4556 -0.2201
  318TMC3    C6 4833   0.984   2.467  13.376 -1.1928 -1.4252  0.3938
  318TMC3     C 4834   0.828   2.851  13.323 -0.3218 -0.3476 -0.2018
  318TMC3     O 4835   0.773   2.923  13.399  0.1130  0.1371 -0.0858
  318TMC3     H 4836   0.755   2.646  13.188  0.6695  0.2349  0.4518
  318TMC3    H1 4837   0.979   2.774  13.517  0.1948 -1.1798  1.9693
  318TMC3    H2 4838   1.017   2.365  13.394  0.6592 -1.0025 -0.5709
  318TMC3    C7 4839   1.122   2.558  13.561 -0.2803  0.0253  0.0469
  318TMC3    C8 4840   0.835   2.387  13.201  0.1135 -0.1708  0.0992
  318TMC3    O1 4841   1.132   2.651  13.642 -0.1761  0.1705 -0.1058
  318TMC3    O2 4842   0.820   2.282  13.255 -0.1094  0.1265  0.6157
  319MPD2     C 4843   1.518   3.966  16.677  0.6479  0.4264  0.0958
  319MPD2    C1 4844   1.450   3.863  16.738 -0.2799  0.6903  0.1789
  319MPD2    C2 4845   1.346   3.797  16.668  0.0567 -1.0277 -0.7363
  319MPD2    C3 4846   1.314   3.841  16.542  0.0841  0.1425  0.4804
  319MPD2    C4 4847   1.375   3.956  16.489 -0.6355  0.2293  0.5845
  319MPD2    C5 4848   1.483   4.015  16.557 -0.5553  0.0418  0.1982
  319MPD2     H 4849   1.297   3.713  16.714 -0.2895 -0.5349 -0.2064
  319MPD2    H1 4850   1.344   4.001  16.395  0.6657 -0.0221  0.0347
  319MPD2    H2 4851   1.601   4.020  16.722  4.0727 -2.2932 -2.9407
  319MPD2    H3 4852   1.526   4.105  16.514 -0.9304 -0.3477 -1.0138
  319MPD2     N 4853   1.206   3.796  16.471  0.3130  0.1893  0.1864
  319MPD2    H5 4854   1.200   3.823  16.373 -1.0205  0.9440  0.4720
  319MPD2    N1 4855   1.479   3.818  16.867  0.3923 -0.2147  0.7490
  319MPD2    H7 4856   1.411   3.755  16.909 -0.5299 -0.7442 -1.5183
  320TMC3    C1 4857   1.001   3.695  16.416  0.1597  0.2336 -0.1575
  320TMC3    C2 4858   0.977   3.806  16.343  0.2940 -0.1033  0.2199
  320TMC3    C3 4859   0.870   3.803  16.259 -0.1808  0.2540 -0.0925
  320TMC3    C4 4860   0.917   3.583  16.417  0.1382 -0.0052  0.3144
  320TMC3    C5 4861   0.815   3.586  16.330  0.7469  0.4811  0.7114
  320TMC3    C6 4862   0.796   3.691  16.242  0.1925  0.1627  1.3203
  320TMC3     C 4863   1.114   3.701  16.513  0.1964 -0.0630 -0.8862
  320TMC3     O 4864   1.105   3.638  16.617  0.4859  0.1053  0.0918
  320TMC3     H 4865   1.021   3.902  16.367  1.0244  0.2866 -2.7380
  320TMC3    H1 4866   0.945   3.491  16.467 -1.1263 -0.5768 -0.0278
  320TMC3    H2 4867   0.706   3.696  16.182  0.2673  2.0284  1.3512
  320TMC3    C7 4868   0.761   3.461  16.273 -0.1548 -0.6689  0.0128
  320TMC3    C8 4869   0.856   3.915  16.170  0.0555  0.0874 -0.2708
  320TMC3    O1 4870   0.715   3.467  16.162  0.3813  0.7643  0.0636
  320TMC3    O2 4871   0.909   4.016  16.212  0.3930  0.6247 -0.1548
  321TMC3    C1 4872   1.570   3.811  17.077  0.1261 -0.6650  1.0950
  321TMC3    C2 4873   1.596   3.673  17.083  0.2991  0.3992  0.2749
  321TMC3    C3 4874   1.656   3.616  17.193 -0.5706 -0.9560  0.3811
  321TMC3    C4 4875   1.626   3.893  17.171 -0.5273  0.3446 -0.1773
  321TMC3    C5 4876   1.681   3.837  17.286  0.7810  0.1065  0.2462
  321TMC3    C6 4877   1.688   3.696  17.304  0.2807  0.2262 -0.8249
  321TMC3     C 4878   1.577   3.875  16.947  0.7478 -0.0813  0.2370
  321TMC3     O 4879   1.668   3.954  16.929 -0.0910 -0.4510 -0.2051
  321TMC3     H 4880   1.585   3.604  17.000 -4.2244  0.0583  1.1154
  321TMC3    H1 4881   1.620   3.999  17.147 -1.3540  0.6701  1.4688
  321TMC3    H2 4882   1.737   3.650  17.390  2.1722  1.1772 -1.3855
  321TMC3    C7 4883   1.798   3.906  17.338  0.3107 -0.0747  0.9762
  321TMC3    C8 4884   1.756   3.522  17.164 -0.2234 -0.1825 -0.2389
  321TMC3    O1 4885   1.880   3.837  17.399 -0.1058 -0.4790  0.4203
  321TMC3    O2 4886   1.730   3.408  17.122  0.1902 -0.1603 -0.1379
  322MPD2     C 4887   0.246   0.496  13.600  0.1475 -0.8616 -0.1808
  322MPD2    C1 4888   0.232   0.421  13.717 -0.0988 -0.6450  0.0925
  322MPD2    C2 4889   0.258   0.283  13.710  0.4009  0.0994 -0.6385
  322MPD2    C3 4890   0.302   0.230  13.592  0.2289  0.5490 -0.2089
  322MPD2    C4 4891   0.294   0.297  13.476 -0.2001 -0.5035 -0.4177
  322MPD2    C5 4892   0.270   0.433  13.481  0.2186  0.1362  0.7736
  322MPD2     H 4893   0.259   0.219  13.797  3.7240  0.7759 -0.1672
  322MPD2    H1 4894   0.316   0.250  13.381 -0.1676  1.0186 -1.1617
  322MPD2    H2 4895   0.235   0.603  13.606  0.2799 -0.7994 -1.0313
  322MPD2    H3 4896   0.260   0.492  13.390 -1.9973  0.5940  1.3195
  322MPD2     N 4897   0.371   0.102  13.604  0.2430 -1.5041  0.3399
  322MPD2    H5 4898   0.384   0.066  13.699 -0.4460  1.0237  1.3816
  322MPD2    N1 4899   0.226   0.498  13.835  0.7595 -0.3524 -0.4671
  322MPD2    H7 4900   0.254   0.596  13.826 -0.7652  0.2272  1.2327
  323TMC3    C1 4901   0.273   0.517  14.063  0.1805 -0.3159  1.3582
  323TMC3    C2 4902   0.390   0.579  14.030  0.1358  0.2273 -0.0263
  323TMC3    C3 4903   0.456   0.647  14.129  0.3575  0.2136  0.0779
  323TMC3    C4 4904   0.241   0.493  14.191 -0.3764  0.1099  0.1881
  323TMC3    C5 4905   0.310   0.556  14.290 -0.4902 -0.5373  0.3562
  323TMC3    C6 4906   0.426   0.622  14.259  0.1712 -0.2957  0.6432
  323TMC3     C 4907   0.202   0.446  13.960  0.0254  0.6078  0.3860
  323TMC3     O 4908   0.142   0.346  13.996  0.1325 -0.0925  0.3389
  323TMC3     H 4909   0.410   0.610  13.928  0.6801 -2.0108 -0.6021
  323TMC3    H1 4910   0.151   0.438  14.216 -0.9425  1.0270  0.1625
  323TMC3    H2 4911   0.500   0.648  14.334  0.4040 -0.9375  0.6450
  323TMC3    C7 4912   0.302   0.490  14.418 -0.3387  0.1671 -0.2224
  323TMC3    C8 4913   0.588   0.691  14.109 -0.0289  0.4783  0.5213
  323TMC3    O1 4914   0.258   0.377  14.417  0.0249 -0.2000  0.4341
  323TMC3    O2 4915   0.658   0.730  14.202 -0.0130 -0.3215 -0.0262
  324MPD2     C 4916   2.076   1.735  14.146 -0.3814 -0.4997  0.0070
  324MPD2    C1 4917   2.033   1.861  14.122 -0.7354 -0.4228  0.2058
  324MPD2    C2 4918   1.909   1.882  14.065  0.9428 -0.4449  0.4577
  324MPD2    C3 4919   1.817   1.781  14.048  0.1062 -0.9672  1.2277
  324MPD2    C4 4920   1.856   1.652  14.083 -0.2776  0.6100 -0.1342
  324MPD2    C5 4921   1.986   1.631  14.134  0.4064 -0.3663  0.2299
  324MPD2     H 4922   1.886   1.983  14.033 -1.6400 -1.3933 -0.6919
  324MPD2    H1 4923   1.794   1.563  14.074  1.0672 -0.2726 -0.6720
  324MPD2    H2 4924   2.176   1.721  14.185  0.6780  1.2412 -2.1532
  324MPD2    H3 4925   2.019   1.528  14.143 -3.1244 -1.5737 -0.4838
  324MPD2     N 4926   1.683   1.794  14.016 -0.4455 -0.3297  1.2710
  324MPD2    H5 4927   1.638   1.704  14.034  1.5249 -1.3023  1.3219
  324MPD2    N1 4928   2.106   1.982  14.157 -0.3812 -0.2775  0.4807
  324MPD2    H7 4929   2.065   2.068  14.123 -1.2168 -1.1886 -0.8211
  325TMC3    C1 4930   1.481   1.904  13.966 -0.9791  0.4003  0.2741
  325TMC3    C2 4931   1.422   1.792  13.921 -0.1429 -0.0343 -0.5023
  325TMC3    C3 4932   1.298   1.757  13.960  0.2508 -0.7106  0.1496
  325TMC3    C4 4933   1.420   1.969  14.066 -0.0283  0.7566  0.6916
  325TMC3    C5 4934   1.285   1.943  14.094 -0.5185  0.5640  0.0093
  325TMC3    C6 4935   1.222   1.832  14.045  0.0334 -0.6634  0.8400
  325TMC3     C 4936   1.619   1.912  13.990  0.2883 -0.3759 -0.2454
  325TMC3     O 4937   1.674   2.024  13.970 -0.6141 -0.1894  0.4576
  325TMC3     H 4938   1.470   1.727  13.848  0.8251  0.6554 -0.4824
  325TMC3    H1 4939   1.475   2.047  14.117 -0.1663  2.5485 -1.9224
  325TMC3    H2 4940   1.122   1.809  14.080 -0.2323 -1.2253 -0.2916
  325TMC3    C7 4941   1.229   2.017  14.200  0.3136 -0.3497  0.0679
  325TMC3    C8 4942   1.238   1.643  13.893  0.2737  0.2579  0.7465
  325TMC3    O1 4943   1.313   2.091  14.249  0.6628  0.2269 -0.4093
  325TMC3    O2 4944   1.315   1.552  13.854 -0.0182 -0.1805  0.8803
  326MPD2     C 4945   3.471   2.861  10.776 -0.0620 -0.1490  0.0368
  326MPD2    C1 4946   3.464   2.974  10.699  0.3070 -0.0604  0.8856
  326MPD2    C2 4947   3.557   3.070  10.707  0.1599 -0.1927  0.5523
  326MPD2    C3 4948   3.669   3.041  10.781  0.2503  0.3627 -0.1166
  326MPD2    C4 4949   3.685   2.926  10.855  0.5126 -0.4383 -0.1908
  326MPD2    C5 4950   3.577   2.835  10.852 -0.2107 -0.7540  0.0054
  326MPD2     H 4951   3.554   3.156  10.642  0.8381  1.0093  2.1248
  326MPD2    H1 4952   3.774   2.898  10.909  0.1413  1.4149  1.3983
  326MPD2    H2 4953   3.399   2.781  10.761  1.5694 -1.7168  0.4722
  326MPD2    H3 4954   3.596   2.741  10.903 -0.2561 -1.2334 -0.8548
  326MPD2     N 4955   3.785   3.123  10.790  0.5012 -0.0887  0.1639
  326MPD2    H5 4956   3.853   3.091  10.858 -0.9967 -3.2197  0.2326
  326MPD2    N1 4957   3.364   3.001  10.606  0.4800  0.4609  0.9476
  326MPD2    H7 4958   3.373   3.091  10.560 -2.2613  0.4423  0.3757
  327TMC3    C1 4959   3.200   2.969  10.452 -0.2991 -0.0419 -0.4343
  327TMC3    C2 4960   3.121   3.081  10.461  0.7676 -0.2552 -0.7112
  327TMC3    C3 4961   3.126   3.172  10.359 -0.1208 -0.0486  0.3808
  327TMC3    C4 4962   3.295   2.957  10.351  0.1561  0.3970  0.9795
  327TMC3    C5 4963   3.298   3.056  10.258  0.5876  0.1012 -0.3356
  327TMC3    C6 4964   3.210   3.162  10.252  0.8072 -0.8237 -0.8081
  327TMC3     C 4965   3.251   2.925  10.571  0.6844  0.4004  0.1378
  327TMC3     O 4966   3.201   2.828  10.624  0.2002 -0.2733  0.2479
  327TMC3     H 4967   3.044   3.089  10.537  1.3267 -1.8203  0.0243
  327TMC3    H1 4968   3.369   2.878  10.359  0.7598  0.6084 -2.4596
  327TMC3    H2 4969   3.221   3.239  10.177  0.1942 -1.0355 -1.1189
  327TMC3    C7 4970   3.429   3.101  10.209  0.1790 -0.3328 -0.3550
  327TMC3    C8 4971   3.071   3.304  10.377 -0.0605 -0.5168 -0.3215
  327TMC3    O1 4972   3.438   3.184  10.119 -0.1844 -0.9565 -0.3283
  327TMC3    O2 4973   3.075   3.384  10.283  0.8782 -0.3635 -0.2259
  328MPD2     C 4974   1.373   3.129  17.276  0.2022  0.4109 -0.5079
  328MPD2    C1 4975   1.261   3.063  17.320 -0.6929  0.6238 -0.4734
  328MPD2    C2 4976   1.147   3.072  17.241 -0.7871  0.4957  0.1567
  328MPD2    C3 4977   1.147   3.137  17.116  0.2897 -0.2422  0.0165
  328MPD2    C4 4978   1.253   3.201  17.081  0.0181  0.0299  0.4826
  328MPD2    C5 4979   1.366   3.193  17.159  0.0890  0.6777 -0.0419
  328MPD2     H 4980   1.052   3.026  17.267  0.0982 -1.0855  0.5861
  328MPD2    H1 4981   1.257   3.246  16.982  1.0462 -1.0297  0.0383
  328MPD2    H2 4982   1.462   3.136  17.338  0.5346 -3.0652 -0.5829
  328MPD2    H3 4983   1.452   3.242  17.115  1.0190 -1.6835 -0.8748
  328MPD2     N 4984   1.027   3.160  17.044  0.2573 -1.2083  1.0565
  328MPD2    H5 4985   1.024   3.234  16.975 -0.6767 -2.4940 -0.2856
  328MPD2    N1 4986   1.264   2.997  17.451  0.4424  0.4421  0.1630
  328MPD2    H7 4987   1.328   3.033  17.521  0.2448  0.1746  0.4786
  329TMC3    C1 4988   1.173   2.891  17.654  0.1426 -0.7433  0.2043
  329TMC3    C2 4989   1.274   2.953  17.726 -0.0789  0.7024 -0.0870
  329TMC3    C3 4990   1.249   2.990   0.106 -0.0987  0.2046 -0.0433
  329TMC3    C4 4991   1.055   2.849  17.719 -0.2055  0.0620 -0.1693
  329TMC3    C5 4992   1.042   2.881   0.100 -0.5814 -0.0273  0.1021
  329TMC3    C6 4993   1.137   2.957   0.176 -0.3375 -0.0777  0.7659
  329TMC3     C 4994   1.161   2.915  17.507  0.1435 -0.0134 -0.7793
  329TMC3     O 4995   1.087   2.856  17.437 -0.5950 -0.1772  0.2447
  329TMC3     H 4996   1.369   2.979  17.680 -0.2305  0.8697 -0.3055
  329TMC3    H1 4997   0.988   2.786  17.661  0.5777  0.4888 -1.5481
  329TMC3    H2 4998   1.114   2.989   0.277  1.1772  0.4958  0.9345
  329TMC3    C7 4999   0.921   2.823   0.173  0.5406 -0.0899  0.4145
  329TMC3    C8 5000   1.314   3.113   0.139 -0.1551 -0.7433 -0.3462
  329TMC3    O1 5001   0.829   2.786   0.108  0.4777 -0.2948 -1.3232
  329TMC3    O2 5002   1.425   3.133   0.089 -0.1445  0.0361 -0.1579
  330TMC3    C1 5003   3.701   2.913   9.051  0.5800 -0.0492  0.1110
  330TMC3    C2 5004   3.692   2.794   9.119 -0.7895  0.8586  0.2414
  330TMC3    C3 5005   3.788   2.702   9.100  0.3645  0.0165 -0.1134
  330TMC3    C4 5006   3.808   2.949   8.971  0.1450 -0.2394  0.4412
  330TMC3    C5 5007   3.895   2.845   8.939  0.1605 -0.6188  0.2536
  330TMC3    C6 5008   3.885   2.720   9.000  0.5714 -0.0034  0.6903
  330TMC3     C 5009   3.641   3.027   9.122 -0.3101 -0.6386  0.3554
  330TMC3     O 5010   3.716   3.119   9.159  0.1617  0.0648  0.1175
  330TMC3     H 5011   3.590   2.776   9.151 -0.1864  1.3236  2.4257
  330TMC3    H1 5012   3.799   3.047   8.926  1.9666  0.7227  2.1399
  330TMC3    H2 5013   3.967   2.654   8.974  0.8686  0.5594  0.1753
  330TMC3    C7 5014   3.963   2.851   8.811 -0.6235  0.6150  0.0736
  330TMC3    C8 5015   3.738   2.566   9.110  0.1754 -0.3477 -0.0460
  330TMC3    O1 5016   3.995   2.749   8.760 -0.6850  0.1352  0.2241
  330TMC3    O2 5017   3.768   2.496   9.015  0.5076  0.2018  0.3654
  331MPD2     C 5018   1.743   1.295  13.053  0.5295 -0.5972  0.0481
  331MPD2    C1 5019   1.781   1.276  12.924 -0.0881  0.5677  0.5986
  331MPD2    C2 5020   1.745   1.160  12.863  0.4047 -0.5638  0.5831
  331MPD2    C3 5021   1.663   1.066  12.924 -0.6292 -0.6242  0.2067
  331MPD2    C4 5022   1.623   1.091  13.059  0.2441  0.6846  0.3786
  331MPD2    C5 5023   1.668   1.202  13.123  0.0146  0.7492 -0.7893
  331MPD2     H 5024   1.762   1.128  12.761 -2.5650  0.5552 -0.2577
  331MPD2    H1 5025   1.550   1.033  13.114  1.0844  0.5245  1.3341
  331MPD2    H2 5026   1.765   1.386  13.108  0.6930  0.0665 -1.1057
  331MPD2    H3 5027   1.633   1.229  13.222  1.3378 -0.9962  0.1644
  331MPD2     N 5028   1.613   0.955  12.849 -0.8392 -0.1804 -0.0217
  331MPD2    H5 5029   1.645   0.946  12.753  0.4891  0.3560  0.3623
  331MPD2    N1 5030   1.842   1.374  12.852 -0.2841 -0.8323  0.0566
  331MPD2    H7 5031   1.870   1.458  12.900 -0.3466  0.6180 -2.4282
  332TMC3    C1 5032   1.507   0.771  12.798  0.3146 -0.0378 -0.4158
  332TMC3    C2 5033   1.454   0.819  12.683  0.1167  0.1885  0.3904
  332TMC3    C3 5034   1.449   0.740  12.575 -0.2993  0.0474  0.2756
  332TMC3    C4 5035   1.575   0.651  12.805  0.1984 -0.3538 -0.2628
  332TMC3    C5 5036   1.583   0.577  12.689 -0.4941 -0.3566 -0.2867
  332TMC3    C6 5037   1.512   0.610  12.576  0.2283  0.2152 -0.1761
  332TMC3     C 5038   1.530   0.861  12.897  0.3621 -0.4740  0.1480
  332TMC3     O 5039   1.500   0.827  13.016 -0.1368  0.3159 -0.3150
  332TMC3     H 5040   1.416   0.920  12.681  0.6002  0.2995 -4.1055
  332TMC3    H1 5041   1.618   0.618  12.899  1.0417 -0.3647 -0.6576
  332TMC3    H2 5042   1.528   0.548  12.488  0.5476  0.3612 -0.2221
  332TMC3    C7 5043   1.672   0.462  12.680 -0.0158  0.2194  0.3345
  332TMC3    C8 5044   1.415   0.799  12.440  0.3738  0.7805  0.1053
  332TMC3    O1 5045   1.619   0.361  12.637  0.3615  1.0896  0.4529
  332TMC3    O2 5046   1.471   0.753  12.338  0.0487  0.0739 -0.6025
  333MPD2     C 5047   1.818   1.886  11.031 -0.5807  0.3367 -0.9534
  333MPD2    C1 5048   1.867   1.803  10.936  0.0225 -0.8621  0.6362
  333MPD2    C2 5049   1.793   1.690  10.905  0.6187  0.7971  0.7983
  333MPD2    C3 5050   1.674   1.663  10.976  0.4812  0.5119 -0.5467
  333MPD2    C4 5051   1.623   1.751  11.065  0.2303 -0.0102 -0.2936
  333MPD2    C5 5052   1.698   1.861  11.094  0.6288 -0.5211 -0.4221
  333MPD2     H 5053   1.838   1.621  10.835 -0.1403  0.0691  1.0407
  333MPD2    H1 5054   1.528   1.736  11.115 -0.5049 -1.1533 -2.0085
  333MPD2    H2 5055   1.878   1.974  11.053 -0.6233  0.2208 -0.3915
  333MPD2    H3 5056   1.668   1.934  11.168 -0.8535 -1.2568 -0.2893
  333MPD2     N 5057   1.610   1.540  10.952 -0.1605 -0.3649 -1.1278
  333MPD2    H5 5058   1.636   1.487  10.870 -2.4993  0.0755 -2.1604
  333MPD2    N1 5059   1.989   1.842  10.877 -0.4889 -0.5048 -0.3880
  333MPD2    H7 5060   2.041   1.924  10.906 -0.9934 -0.2961 -0.0920
  334TMC3    C1 5061   2.170   1.870  10.735  0.7245 -0.6562  0.4019
  334TMC3    C2 5062   2.258   1.809  10.648 -0.7106 -0.1624 -0.3620
  334TMC3    C3 5063   2.374   1.877  10.620  0.0803  0.9495 -0.0555
  334TMC3    C4 5064   2.191   1.996  10.786  0.4000 -0.0702 -0.2897
  334TMC3    C5 5065   2.299   2.060  10.747  0.2430 -1.4601 -0.0500
  334TMC3    C6 5066   2.400   2.001  10.675  0.0592 -0.8520 -0.1629
  334TMC3     C 5067   2.060   1.781  10.774  0.5668 -0.6384 -0.0049
  334TMC3     O 5068   2.042   1.671  10.724 -0.2816 -0.0879 -0.0447
  334TMC3     H 5069   2.245   1.710  10.608  1.2580 -0.8149  0.6065
  334TMC3    H1 5070   2.118   2.046  10.848 -0.0652 -1.1204  0.0070
  334TMC3    H2 5071   2.477   2.063  10.632 -2.6341  1.9224 -0.9540
  334TMC3    C7 5072   2.310   2.204  10.790  0.0774 -0.2859  0.5220
  334TMC3    C8 5073   2.477   1.816  10.543 -0.4688 -0.2724  0.7717
  334TMC3    O1 5074   2.423   2.239  10.811 -0.1470  0.2744 -0.3825
  334TMC3    O2 5075   2.442   1.706  10.498 -0.4855  0.3428 -0.8798
  335TMC3    C1 5076   1.453   2.734  17.300  0.2139 -0.5439 -0.2493
  335TMC3    C2 5077   1.333   2.736  17.229 -0.5340  0.3318 -0.2093
  335TMC3    C3 5078   1.335   2.795  17.108  0.3901  0.3101 -0.1262
  335TMC3    C4 5079   1.569   2.780  17.245  0.3297 -0.4526  0.0720
  335TMC3    C5 5080   1.554   2.839  17.126  0.1423 -0.5516 -0.1337
  335TMC3    C6 5081   1.444   2.852  17.052 -0.0008 -0.1364  0.3146
  335TMC3     C 5082   1.449   2.692  17.441  0.4876 -0.6764 -0.7096
  335TMC3     O 5083   1.548   2.720  17.503  0.6508  0.2366 -0.0804
  335TMC3     H 5084   1.236   2.707  17.269 -0.4202 -0.3222 -0.3988
  335TMC3    H1 5085   1.655   2.801  17.308  2.3542  0.3593 -2.9996
  335TMC3    H2 5086   1.440   2.903  16.956 -1.6567 -2.3291 -0.7700
  335TMC3    C7 5087   1.673   2.905  17.073  0.0431 -0.0692 -0.1264
  335TMC3    C8 5088   1.255   2.737  17.003  0.7645  0.4993 -0.4938
  335TMC3    O1 5089   1.652   3.005  17.005 -0.3664  0.8714  0.3016
  335TMC3    O2 5090   1.264   2.787  16.893 -0.0130  0.2567  0.1146
  336MPD2     C 5091   1.028   0.893  16.390 -0.1731 -0.2118 -0.2300
  336MPD2    C1 5092   1.086   0.827  16.287  0.8893 -0.5138  0.2380
  336MPD2    C2 5093   1.188   0.731  16.315  0.4549  0.3315  0.0412
  336MPD2    C3 5094   1.227   0.710  16.450 -0.0975  0.0544  0.2507
  336MPD2    C4 5095   1.163   0.779  16.549  0.1577 -0.1592  0.3599
  336MPD2    C5 5096   1.069   0.872  16.517 -0.7931 -0.2760  0.1961
  336MPD2     H 5097   1.235   0.682  16.231  0.5011  0.2214  0.1299
  336MPD2    H1 5098   1.187   0.767  16.654  0.3229  0.7244  0.4205
  336MPD2    H2 5099   0.947   0.965  16.378  0.2621  0.4843  1.0332
  336MPD2    H3 5100   1.023   0.922  16.601 -0.5855  3.5731 -2.0116
  336MPD2     N 5101   1.318   0.611  16.486  0.1674  0.3935 -0.6099
  336MPD2    H5 5102   1.318   0.590  16.585  0.3877  0.3179 -0.6262
  336MPD2    N1 5103   1.029   0.821  16.157  0.6716  0.1907 -0.0121
  336MPD2    H7 5104   1.092   0.773  16.094  1.5566 -0.0770  1.0711
  337TMC3    C1 5105   0.852   0.822  15.987 -0.2783 -0.0210  0.9640
  337TMC3    C2 5106   0.728   0.862  15.945  0.3634 -0.7912  0.3527
  337TMC3    C3 5107   0.689   0.837  15.817 -0.5090  0.3516  0.0059
  337TMC3    C4 5108   0.953   0.799  15.891 -0.2553 -0.3177 -1.0366
  337TMC3    C5 5109   0.910   0.772  15.764  0.4334 -0.2479 -0.4472
  337TMC3    C6 5110   0.779   0.796  15.721  0.3534 -0.0867  0.0419
  337TMC3     C 5111   0.894   0.853  16.128  0.1375 -0.5201  0.5771
  337TMC3     O 5112   0.810   0.906  16.204  0.2669  0.3579  0.1760
  337TMC3     H 5113   0.649   0.896  16.012 -0.2319 -1.9674  0.2399
  337TMC3    H1 5114   1.057   0.780  15.916  0.9287  3.2320 -3.2411
  337TMC3    H2 5115   0.759   0.780  15.616 -1.3349 -2.4933  0.7332
  337TMC3    C7 5116   1.000   0.776  15.654 -0.5274  0.0159  0.3164
  337TMC3    C8 5117   0.555   0.876  15.783 -0.0325 -0.6133 -0.1340
  337TMC3    O1 5118   0.967   0.837  15.551  0.0416 -0.8234 -0.3228
  337TMC3    O2 5119   0.507   0.972  15.846 -0.4587  0.4067 -0.0839
  338MPD2     C 5120   2.492   0.553   0.596  0.0698 -0.3215  0.0958
  338MPD2    C1 5121   2.359   0.516   0.608  0.3365 -0.3501  0.0145
  338MPD2    C2 5122   2.280   0.594   0.680  0.5444  0.9126  0.4209
  338MPD2    C3 5123   2.318   0.719   0.737  0.7092  0.0289  0.6369
  338MPD2    C4 5124   2.449   0.756   0.719  0.4588  0.4905 -0.4296
  338MPD2    C5 5125   2.534   0.679   0.642  0.6404 -0.2237 -0.3038
  338MPD2     H 5126   2.178   0.557   0.688  0.9552 -0.0707  1.1679
  338MPD2    H1 5127   2.485   0.853   0.753  1.8953  0.2250 -1.1987
  338MPD2    H2 5128   2.566   0.492   0.544 -0.2054 -0.3659 -0.2470
  338MPD2    H3 5129   2.636   0.712   0.626  0.6389  0.4380  1.0539
  338MPD2     N 5130   2.213   0.796   0.804 -0.0469 -0.9462 -0.4817
  338MPD2    H5 5131   2.127   0.746   0.822 -0.3011 -1.1160 -2.1045
  338MPD2    N1 5132   2.308   0.400   0.554 -0.0351  0.3660  0.0549
  338MPD2    H7 5133   2.207   0.389   0.558 -0.2818  1.7129 -2.3754
  339TMC3    C1 5134   2.120   0.953   0.933  0.0455 -0.1709  0.3715
  339TMC3    C2 5135   2.148   0.973   1.069  0.0893 -0.6837  0.1554
  339TMC3    C3 5136   2.056   0.926   1.158 -0.0788 -0.0216  0.5785
  339TMC3    C4 5137   2.006   0.899   0.890  0.3983 -0.5789  0.3160
  339TMC3    C5 5138   1.927   0.836   0.982 -0.1774  1.0206  0.2781
  339TMC3    C6 5139   1.950   0.851   1.115 -0.3658 -0.0274 -0.6091
  339TMC3     C 5140   2.233   0.919   0.856 -0.6994  0.0713  0.0462
  339TMC3     O 5141   2.329   0.997   0.853 -0.2767 -0.7046 -0.0249
  339TMC3     H 5142   2.246   1.014   1.093 -0.7085  1.5581 -0.3965
  339TMC3    H1 5143   1.990   0.899   0.783  1.2620  0.6046  0.1795
  339TMC3    H2 5144   1.866   0.829   1.181  1.9245 -2.5804  1.4426
  339TMC3    C7 5145   1.893   0.709   0.927  0.7621 -0.1092 -0.6202
  339TMC3    C8 5146   2.074   0.966   1.300  0.0555 -0.2584 -0.0779
  339TMC3    O1 5147   1.960   0.679   0.828 -0.4186  0.1834 -0.1023
  339TMC3    O2 5148   2.135   1.066   1.320 -0.5162  0.0149 -0.2830
  340MPD2     C 5149   1.931   3.226  10.062  0.2910 -0.2900  0.5267
  340MPD2    C1 5150   1.890   3.097  10.052 -0.1493  0.2613 -0.0180
  340MPD2    C2 5151   1.892   3.014  10.160  0.4023 -0.2926  0.2612
  340MPD2    C3 5152   1.937   3.058  10.282 -0.1504 -0.3147  0.2936
  340MPD2    C4 5153   1.976   3.186  10.291  0.3299 -0.7032 -0.0740
  340MPD2    C5 5154   1.977   3.270  10.184  0.2518 -0.3648  0.2839
  340MPD2     H 5155   1.851   2.914  10.152  1.6659 -0.8897  1.1539
  340MPD2    H1 5156   2.016   3.217  10.387  0.2405  0.7963 -0.5202
  340MPD2    H2 5157   1.931   3.287   9.972 -0.2136  0.3612  0.9694
  340MPD2    H3 5158   2.007   3.374  10.186  1.9478 -0.8346 -0.2412
  340MPD2     N 5159   1.955   2.977  10.401 -0.6093 -0.1870 -0.7358
  340MPD2    H5 5160   2.000   3.011  10.485 -1.2754  0.6361 -0.7098
  340MPD2    N1 5161   1.832   3.068   9.925 -0.1062  0.0841  0.2208
  340MPD2    H7 5162   1.844   3.133   9.849  0.4702  0.3110  0.5057
  341TMC3    C1 5163   1.719   2.945   9.758 -0.7052  0.1085  0.1845
  341TMC3    C2 5164   1.606   2.893   9.708  0.0772  0.6130  0.9688
  341TMC3    C3 5165   1.586   2.898   9.577 -0.5483  0.1973  0.7824
  341TMC3    C4 5166   1.819   2.989   9.674  1.0105  0.2126 -0.6088
  341TMC3    C5 5167   1.803   2.987   9.537  0.7334 -0.3515  0.6406
  341TMC3    C6 5168   1.683   2.948   9.488  0.6131  0.8790  0.2407
  341TMC3     C 5169   1.754   2.959   9.895  0.0800  0.5967 -0.5122
  341TMC3     O 5170   1.694   2.877   9.966  0.3285  0.4309  0.0517
  341TMC3     H 5171   1.531   2.853   9.775 -0.4420 -0.1233 -0.0524
  341TMC3    H1 5172   1.921   2.991   9.710  0.1379 -0.5392  1.9163
  341TMC3    H2 5173   1.676   2.928   9.382 -0.3426 -2.9686  1.0314
  341TMC3    C7 5174   1.928   2.979   9.461 -0.6542  0.4486  0.0170
  341TMC3    C8 5175   1.505   2.792   9.527 -0.4720 -0.0694  0.5217
  341TMC3    O1 5176   2.015   2.909   9.507 -0.4689  0.1238  0.3935
  341TMC3    O2 5177   1.485   2.695   9.598  0.4176 -0.2259  0.2102
  342MPD2     C 5178   4.088   1.546  17.455 -0.5108 -0.0444 -0.0905
  342MPD2    C1 5179   4.220   1.515  17.427 -0.8569  0.1997  0.0272
  342MPD2    C2 5180   4.323   1.608  17.441  0.4329 -0.1175 -0.0809
  342MPD2    C3 5181   4.291   1.736  17.480 -0.5363  0.4569  0.2672
  342MPD2    C4 5182   4.159   1.764  17.507 -0.6126  0.0285 -0.2274
  342MPD2    C5 5183   4.060   1.674  17.492 -1.0456  0.5019 -1.5233
  342MPD2     H 5184   4.422   1.575  17.412  1.4740  1.2049  1.9292
  342MPD2    H1 5185   4.122   1.858  17.546  0.6272  0.5602 -0.3466
  342MPD2    H2 5186   3.999   1.485  17.443  0.7049 -1.9723  0.5865
  342MPD2    H3 5187   3.958   1.706  17.515 -0.1215  1.3102  1.4638
  342MPD2     N 5188   4.389   1.841  17.508 -0.3143 -0.7656 -0.1191
  342MPD2    H5 5189   4.356   1.934  17.533 -0.0757 -0.8134  0.3605
  342MPD2    N1 5190   4.258   1.395  17.366 -0.0745  0.1010  0.5748
  342MPD2    H7 5191   4.353   1.388  17.331 -0.0243 -0.0526  0.7466
  343TMC3    C1 5192   4.275   1.159  17.335 -0.1533  1.3025 -0.2025
  343TMC3    C2 5193   4.406   1.185  17.296 -0.1300 -0.3432  0.2379
  343TMC3    C3 5194   4.487   1.080  17.263  0.5465 -0.2983  0.0990
  343TMC3    C4 5195   4.240   1.040  17.388  0.4554 -0.3594 -0.1463
  343TMC3    C5 5196   4.335   0.946  17.388 -0.0575  0.2993 -0.3298
  343TMC3    C6 5197   4.452   0.956  17.312  0.1388 -1.3661  0.0133
  343TMC3     C 5198   4.188   1.277  17.369  0.7799 -0.5556  0.3167
  343TMC3     O 5199   4.075   1.264  17.406  0.0804 -0.3234  0.3536
  343TMC3     H 5200   4.435   1.278  17.248 -0.6470  0.2008  0.9660
  343TMC3    H1 5201   4.144   1.027  17.437  0.8882 -2.0399  0.2535
  343TMC3    H2 5202   4.503   0.863  17.291  0.4465 -1.2913  0.4083
  343TMC3    C7 5203   4.304   0.813  17.415 -0.5727 -0.4679  0.1072
  343TMC3    C8 5204   4.626   1.111  17.222  0.9193 -0.3214  0.3383
  343TMC3    O1 5205   4.337   0.728  17.334 -0.8906  0.2647 -0.1687
  343TMC3    O2 5206   4.663   1.222  17.251  0.0847 -0.1940 -0.2787
  344MPD2     C 5207   0.414   0.497  11.045  0.1105 -0.4310 -0.0663
  344MPD2    C1 5208   0.313   0.582  11.013 -0.0255  0.6684  0.6804
  344MPD2    C2 5209   0.340   0.672  10.913 -0.1182 -0.8584 -0.2464
  344MPD2    C3 5210   0.457   0.668  10.840  0.2111 -0.1061  0.4724
  344MPD2    C4 5211   0.559   0.587  10.877  0.4291  1.0783  0.0224
  344MPD2    C5 5212   0.541   0.499  10.983 -0.7730  0.1536 -0.1855
  344MPD2     H 5213   0.262   0.738  10.877  1.7037  1.4135 -0.0201
  344MPD2    H1 5214   0.651   0.581  10.819  0.3181 -0.3630 -0.0186
  344MPD2    H2 5215   0.405   0.426  11.126 -0.8800  2.3608  2.2698
  344MPD2    H3 5216   0.610   0.422  11.015 -0.7946  0.6715  1.0851
  344MPD2     N 5217   0.469   0.726  10.710  0.1512 -0.0294  0.7288
  344MPD2    H5 5218   0.552   0.696  10.660 -1.1272 -1.6939 -0.4005
  344MPD2    N1 5219   0.188   0.586  11.080  0.4727 -0.1758 -0.4441
  344MPD2    H7 5220   0.122   0.659  11.054  2.1546  0.7410 -2.0786
  345TMC3    C1 5221   0.421   0.857  10.528  0.3640  0.2654  0.2414
  345TMC3    C2 5222   0.556   0.866  10.514 -0.1656 -1.0926 -0.4349
  345TMC3    C3 5223   0.604   0.897  10.387  0.5786  0.1630 -0.8625
  345TMC3    C4 5224   0.332   0.878  10.430  0.7886  0.4603  0.2508
  345TMC3    C5 5225   0.375   0.921  10.314 -0.4759  0.0927  0.7745
  345TMC3    C6 5226   0.509   0.927  10.290 -0.3653  0.8116  0.5247
  345TMC3     C 5227   0.375   0.796  10.644  0.0358 -0.3208  0.8961
  345TMC3     O 5228   0.260   0.813  10.672  0.1325 -0.4105  0.4335
  345TMC3     H 5229   0.627   0.864  10.596 -0.7503 -1.1085  0.0699
  345TMC3    H1 5230   0.228   0.890  10.459  0.8176  0.5061  0.3347
  345TMC3    H2 5231   0.541   0.960  10.192 -0.4448  0.9351  0.5397
  345TMC3    C7 5232   0.290   1.015  10.234 -0.2760 -0.1009  0.4917
  345TMC3    C8 5233   0.683   1.011  10.399  0.0684  0.4832 -0.1095
  345TMC3    O1 5234   0.178   0.984  10.196  0.0982 -0.2997 -0.0461
  345TMC3    O2 5235   0.631   1.112  10.365  1.0962  0.6435  0.2252
  346MPD2     C 5236   4.713   1.866  13.724 -0.1076 -0.1900  0.1599
  346MPD2    C1 5237   0.111   1.896  13.741 -0.5339 -0.1574  0.2221
  346MPD2    C2 5238   0.163   1.926  13.862  0.0456  1.1379 -0.0896
  346MPD2    C3 5239   0.086   1.921  13.976 -0.7940  0.0963 -0.1977
  346MPD2    C4 5240   4.690   1.893  13.960  0.2183  0.1537  0.5550
  346MPD2    C5 5241   4.634   1.877  13.833  0.2014  0.1789 -0.0881
  346MPD2     H 5242   0.267   1.942  13.886 -0.1435 -0.5833  1.8829
  346MPD2    H1 5243   4.625   1.892  14.047  0.9598 -0.1113  1.1022
  346MPD2    H2 5244   4.661   1.853  13.630 -0.4786  0.7254  0.2408
  346MPD2    H3 5245   4.528   1.873  13.809  0.3680 -0.3053 -0.7212
  346MPD2     N 5246   0.162   1.944  14.095  0.4684  1.0518  0.9892
  346MPD2    H5 5247   0.260   1.965  14.083  0.5744 -0.1128 -0.1627
  346MPD2    N1 5248   0.203   1.902  13.638 -0.6129 -0.0442 -0.1829
  346MPD2    H7 5249   0.297   1.930  13.663 -0.5270 -1.1879  0.7597
  347TMC3    C1 5250   0.210   1.998  14.310 -0.1300 -0.0431  0.5742
  347TMC3    C2 5251   0.342   1.963  14.292 -0.1282  0.2627  0.2638
  347TMC3    C3 5252   0.433   2.015  14.376  0.1827  0.0448  0.4326
  347TMC3    C4 5253   0.170   2.093  14.395  0.2886  0.2618 -0.6653
  347TMC3    C5 5254   0.263   2.143  14.483  0.4519  0.4892 -0.0624
  347TMC3    C6 5255   0.398   2.104  14.472  0.4658 -0.6200 -0.3760
  347TMC3     C 5256   0.103   1.968  14.216 -0.4400  0.1666 -0.3794
  347TMC3     O 5257   4.726   1.979  14.251 -0.3869 -0.2914  0.3157
  347TMC3     H 5258   0.374   1.883  14.226  2.2250 -0.2598  2.0356
  347TMC3    H1 5259   0.066   2.123  14.399 -0.1293 -1.5895  2.3283
  347TMC3    H2 5260   0.471   2.123  14.549 -0.3784 -0.5855  0.4199
  347TMC3    C7 5261   0.223   2.207  14.603 -0.3065 -0.7452  0.1049
  347TMC3    C8 5262   0.569   2.013  14.331 -0.5636 -0.1030 -0.1547
  347TMC3    O1 5263   0.104   2.206  14.623 -0.0875 -0.2815  0.1861
  347TMC3    O2 5264   0.609   1.916  14.267  0.5767 -0.1041  0.4288
  348MPD2     C 5265   4.117   2.202  11.773  0.3036 -0.4485  0.3215
  348MPD2    C1 5266   4.064   2.121  11.672 -0.3870  0.2186 -0.0858
  348MPD2    C2 5267   4.082   2.161  11.543 -0.5024 -0.2416 -1.0675
  348MPD2    C3 5268   4.154   2.272  11.515  0.2206 -0.2775  1.1458
  348MPD2    C4 5269   4.212   2.335  11.618 -0.1316 -0.0628 -0.2610
  348MPD2    C5 5270   4.194   2.307  11.743 -0.0547  0.4718 -0.2214
  348MPD2     H 5271   4.049   2.100  11.459  1.6391  1.4109 -3.0949
  348MPD2    H1 5272   4.274   2.425  11.614 -0.3497  0.1159  0.4704
  348MPD2    H2 5273   4.094   2.184  11.877 -1.7249 -2.2928 -0.4339
  348MPD2    H3 5274   4.235   2.367  11.824 -1.1870 -1.6736  1.9464
  348MPD2     N 5275   4.163   2.309  11.378  0.2776 -0.1077  0.3279
  348MPD2    H5 5276   4.113   2.254  11.310 -0.4912  1.7788 -0.6417
  348MPD2    N1 5277   3.990   2.002  11.697 -0.4743 -0.2093  0.0857
  348MPD2    H7 5278   3.939   1.955  11.623  0.0490 -0.7207  0.0438
  349TMC3    C1 5279   3.896   1.839  11.835 -0.4507  0.5540 -1.2279
  349TMC3    C2 5280   3.906   1.772  11.954 -0.6201  0.0666 -0.3983
  349TMC3    C3 5281   3.801   1.686  11.979 -0.1109  0.2944  0.4662
  349TMC3    C4 5282   3.787   1.847  11.759  0.1292  0.2155 -0.2819
  349TMC3    C5 5283   3.678   1.767  11.797  0.0131 -0.2432  0.9187
  349TMC3    C6 5284   3.683   1.675  11.898 -0.2120 -0.4057  0.1283
  349TMC3     C 5285   3.985   1.953  11.825 -0.0275  0.6877 -0.3578
  349TMC3     O 5286   4.044   1.977  11.935  0.1307  0.0656 -0.3144
  349TMC3     H 5287   3.990   1.776  12.023 -0.0612  1.4184 -1.1351
  349TMC3    H1 5288   3.766   1.926  11.687  0.5402  1.0870  0.5535
  349TMC3    H2 5289   3.606   1.602  11.918 -0.5547 -0.1062 -0.1002
  349TMC3    C7 5290   3.548   1.774  11.728 -0.2732  0.2892  0.5636
  349TMC3    C8 5291   3.832   1.584  12.085  0.5184 -0.8956 -0.1223
  349TMC3    O1 5292   3.459   1.695  11.761 -0.2724 -0.6795  0.2197
  349TMC3    O2 5293   3.947   1.587  12.130 -0.3493 -0.4086 -0.2618
  350MPD2     C 5294   2.703   0.647  10.018  0.3624 -0.4263 -0.4907
  350MPD2    C1 5295   2.825   0.579  10.006  0.3296  0.3040  0.6703
  350MPD2    C2 5296   2.930   0.616  10.095  0.2011  0.8389 -0.3750
  350MPD2    C3 5297   2.903   0.714  10.192 -0.7739  0.2296  0.5953
  350MPD2    C4 5298   2.781   0.777  10.202  0.2234 -0.5456 -0.8962
  350MPD2    C5 5299   2.682   0.739  10.112  0.4098  0.6462  0.4384
  350MPD2     H 5300   3.023   0.562  10.108 -0.5326 -0.2368  0.3771
  350MPD2    H1 5301   2.757   0.854  10.275  0.1636 -0.7435 -0.7067
  350MPD2    H2 5302   2.622   0.626   9.950 -1.9633 -1.6252  2.6458
  350MPD2    H3 5303   2.578   0.770  10.115  0.2664  0.2339 -0.4824
  350MPD2     N 5304   3.015   0.746  10.272 -0.1047 -0.3514 -0.2027
  350MPD2    H5 5305   3.100   0.705  10.234  0.5844  1.6283 -0.7767
  350MPD2    N1 5306   2.852   0.487   9.905  0.0679 -0.1078 -0.4234
  350MPD2    H7 5307   2.947   0.453   9.892  1.0929  1.6417  2.4807
  351TMC3    C1 5308   2.828   0.341   9.716  0.1742 -0.4125  0.1482
  351TMC3    C2 5309   2.967   0.339   9.705 -0.1648 -0.3401 -0.0604
  351TMC3    C3 5310   3.014   0.236   9.628 -0.0696 -0.0454  0.6204
  351TMC3    C4 5311   2.747   0.256   9.648  0.4027 -0.6429  1.0835
  351TMC3    C5 5312   2.800   0.165   9.565 -0.6032  0.0543  0.1814
  351TMC3    C6 5313   2.936   0.163   9.544  0.0043 -0.1747 -1.2179
  351TMC3     C 5314   2.763   0.433   9.807 -0.6018 -0.1370 -0.2277
  351TMC3     O 5315   2.642   0.446   9.806 -0.1350 -0.2747  0.3985
  351TMC3     H 5316   3.027   0.415   9.754 -2.4150 -0.1191  2.3549
  351TMC3    H1 5317   2.641   0.263   9.670  0.2369  0.9081 -0.1716
  351TMC3    H2 5318   2.987   0.092   9.480  1.0670  1.2168 -1.9022
  351TMC3    C7 5319   2.696   0.068   9.513 -0.7393  0.7401 -0.5820
  351TMC3    C8 5320   3.152   0.200   9.636  0.2850  0.0549 -0.6023
  351TMC3    O1 5321   2.722   0.002   9.414  0.1938  0.1238 -0.1997
  351TMC3    O2 5322   3.176   0.081   9.609 -0.4145 -0.0709 -0.4773
  352MPD2     C 5323   1.628   2.721   1.049 -0.5348  0.6879 -0.1689
  352MPD2    C1 5324   1.710   2.691   0.950 -0.3611 -0.1935  0.0512
  352MPD2    C2 5325   1.737   2.562   0.930  0.2055  0.0771 -0.6998
  352MPD2    C3 5326   1.688   2.463   1.011  0.0747 -0.4669  0.6707
  352MPD2    C4 5327   1.599   2.505   1.112  0.3988 -0.1193 -0.5215
  352MPD2    C5 5328   1.566   2.634   1.129 -0.3521  0.1291  0.0227
  352MPD2     H 5329   1.823   2.542   0.867 -1.6150  0.4529 -3.2627
  352MPD2    H1 5330   1.547   2.435   1.177  0.1376 -1.0224 -1.7114
  352MPD2    H2 5331   1.594   2.822   1.067 -0.2581  0.6354  0.6204
  352MPD2    H3 5332   1.497   2.671   1.205 -1.6103 -1.7548 -0.2116
  352MPD2     N 5333   1.710   2.324   0.997 -0.3109 -0.1775  0.2329
  352MPD2    H5 5334   1.677   2.259   1.068 -0.4697  1.2164  1.4283
  352MPD2    N1 5335   1.750   2.798   0.856 -0.3390 -0.0599 -0.0405
  352MPD2    H7 5336   1.714   2.893   0.865  1.6945  0.6956  0.0723
  353TMC3    C1 5337   1.781   2.131   0.879  0.6127 -0.0167  0.2198
  353TMC3    C2 5338   1.791   2.055   0.999  0.2056  0.2190 -0.1929
  353TMC3    C3 5339   1.789   1.915   0.991  0.7770 -1.0182 -0.0934
  353TMC3    C4 5340   1.793   2.075   0.757  0.0229  0.2025 -0.0727
  353TMC3    C5 5341   1.809   1.941   0.747  0.3121 -0.1195  0.1639
  353TMC3    C6 5342   1.809   1.858   0.863  0.0240  0.6986  0.4980
  353TMC3     C 5343   1.758   2.275   0.880  0.5242  0.6119  0.5796
  353TMC3     O 5344   1.780   2.328   0.770  0.4301 -0.5349 -0.4412
  353TMC3     H 5345   1.789   2.102   1.097  2.4412  0.6794 -0.3615
  353TMC3    H1 5346   1.764   2.132   0.669 -0.1828  1.0950  0.5670
  353TMC3    H2 5347   1.789   1.753   0.848 -2.6779  1.3256 -0.2008
  353TMC3    C7 5348   1.810   1.880   0.614  0.0800  0.3400  0.3062
  353TMC3    C8 5349   1.834   1.843   1.104 -0.7861 -0.1933 -0.5385
  353TMC3    O1 5350   1.794   1.760   0.613 -0.6604 -0.4219 -0.4765
  353TMC3    O2 5351   1.815   1.882   1.220 -0.2755  0.6469 -1.0672
  354TMC3    C1 5352   3.480   3.221  13.523 -0.0351 -0.1993 -0.2051
  354TMC3    C2 5353   3.415   3.329  13.468  0.2215 -0.7431  0.2173
  354TMC3    C3 5354   3.428   3.341  13.331 -0.1559  0.9266  0.2566
  354TMC3    C4 5355   3.558   3.132  13.455  0.2351 -0.4417 -0.1671
  354TMC3    C5 5356   3.567   3.151  13.320 -0.2813  0.0281 -0.6904
  354TMC3    C6 5357   3.506   3.254  13.258 -0.1982  0.6170  0.4787
  354TMC3     C 5358   3.438   3.187  13.660  0.0438  1.1030  0.8690
  354TMC3     O 5359   3.461   3.070  13.694 -0.4570 -0.6655  0.1633
  354TMC3     H 5360   3.356   3.395  13.531 -0.4320  0.1231 -1.3165
  354TMC3    H1 5361   3.585   3.041  13.506 -2.4192 -0.6018  0.9555
  354TMC3    H2 5362   3.510   3.260  13.150  0.7207  1.4981  0.5524
  354TMC3    C7 5363   3.643   3.058  13.234  0.4758  0.2746 -0.2590
  354TMC3    C8 5364   3.319   3.409  13.267  0.1667 -0.1155 -0.6303
  354TMC3    O1 5365   3.670   2.951  13.290 -0.2088  0.8824  0.7048
  354TMC3    O2 5366   3.233   3.453  13.337  0.4916 -0.0195 -0.1602
  355MPD2     C 5367   3.713   3.764  12.003 -0.3230  0.0008  0.2259
  355MPD2    C1 5368   3.684   3.876  11.933  0.3332 -0.0467  0.2717
  355MPD2    C2 5369   3.733   3.996  11.966  0.5100 -0.3380 -0.0042
  355MPD2    C3 5370   3.810   4.012  12.087  0.3574  0.6630  0.0594
  355MPD2    C4 5371   3.844   3.896  12.154 -0.1745  0.0180  0.4058
  355MPD2    C5 5372   3.788   3.775  12.114  0.2876  0.4151 -0.0077
  355MPD2     H 5373   3.723   4.086  11.907 -1.7084 -0.1543  0.6567
  355MPD2    H1 5374   3.898   3.910  12.247 -0.7760 -0.9009  0.9015
  355MPD2    H2 5375   3.669   3.667  11.988  0.7204 -0.6938  1.6335
  355MPD2    H3 5376   3.812   3.686  12.171 -2.1327 -0.6366 -0.6301
  355MPD2     N 5377   3.860   4.138  12.136 -0.0628 -0.5836  0.2411
  355MPD2    H5 5378   3.946   4.132  12.190 -1.6661 -2.3869  2.6026
  355MPD2    N1 5379   3.607   3.856  11.818  0.5203  0.6191 -0.0894
  355MPD2    H7 5380   3.586   3.760  11.794  0.8515  0.4272  0.3997
  356TMC3    C1 5381   3.890   4.369  12.162  0.7607  0.6731  0.2987
  356TMC3    C2 5382   3.886   4.484  12.089  0.3491  0.7060 -0.2536
  356TMC3    C3 5383   3.966   4.594  12.122  0.0295  0.0615 -0.3262
  356TMC3    C4 5384   3.982   4.351  12.263  0.0576 -0.8343 -0.2583
  356TMC3    C5 5385   4.066   4.461  12.282 -0.8756 -0.4853  0.0463
  356TMC3    C6 5386   4.057   4.588  12.222 -0.3658 -0.2110 -0.0080
  356TMC3     C 5387   3.811   4.262  12.102 -0.1554  0.2467 -0.2768
  356TMC3     O 5388   3.712   4.290  12.039 -0.1422 -0.5338 -0.2101
  356TMC3     H 5389   3.808   4.487  12.014 -0.5508 -1.5676  0.5635
  356TMC3    H1 5390   3.993   4.256  12.314 -1.2613 -0.4114  0.8081
  356TMC3    H2 5391   4.147   4.648  12.225 -0.5804  0.0656  1.2057
  356TMC3    C7 5392   4.143   4.449  12.404  0.3338 -0.5210  0.0448
  356TMC3    C8 5393   3.966   4.694  12.016 -0.5811  0.0029 -0.5754
  356TMC3    O1 5394   4.181   4.339  12.439  0.5263  0.1016 -0.2691
  356TMC3    O2 5395   3.901   4.676  11.916  0.1806  0.1046 -0.9256
  357MPD2     C 5396   3.835   4.250   1.667 -0.2875  0.2479 -0.5104
  357MPD2    C1 5397   3.813   4.209   1.540  0.1278 -0.1864 -0.0328
  357MPD2    C2 5398   3.681   4.195   1.491  0.0689  0.2404  0.0199
  357MPD2    C3 5399   3.572   4.224   1.569 -0.6853  0.7825 -0.0428
  357MPD2    C4 5400   3.594   4.259   1.697 -0.6197 -0.0080  0.0359
  357MPD2    C5 5401   3.722   4.270   1.746 -0.3056 -0.0678  0.3701
  357MPD2     H 5402   3.656   4.155   1.393  0.9653 -3.2845  1.2109
  357MPD2    H1 5403   3.515   4.292   1.764  1.0892 -0.8324  2.4239
  357MPD2    H2 5404   3.933   4.252   1.713 -1.9221  1.5649  2.9160
  357MPD2    H3 5405   3.734   4.295   1.851 -1.4138  1.8171  0.0434
  357MPD2     N 5406   3.434   4.217   1.528 -0.0054 -0.5455  0.0688
  357MPD2    H5 5407   3.369   4.238   1.602  1.4226 -0.6524  1.3474
  357MPD2    N1 5408   3.924   4.168   1.465 -0.1242  0.2044 -0.5817
  357MPD2    H7 5409   4.015   4.154   1.508  0.0184 -0.9643 -1.2431
  358TMC3    C1 5410   4.046   4.105   1.264 -0.0277  0.5435  0.1851
  358TMC3    C2 5411   4.029   4.074   1.134  0.5826 -0.1418 -0.4586
  358TMC3    C3 5412   4.100   3.974   1.078 -0.3006  0.2517  0.4184
  358TMC3    C4 5413   4.153   4.054   1.333 -0.3312 -0.6640 -0.9508
  358TMC3    C5 5414   4.219   3.950   1.278  0.0129 -0.3946  0.1748
  358TMC3    C6 5415   4.185   3.904   1.149  0.5743 -0.2198 -0.2040
  358TMC3     C 5416   3.919   4.140   1.328  0.1339 -0.3078  0.0143
  358TMC3     O 5417   3.824   4.156   1.248 -0.0458 -0.7306 -0.5842
  358TMC3     H 5418   3.965   4.136   1.072  0.0360 -0.7760 -0.5251
  358TMC3    H1 5419   4.161   4.080   1.438 -0.7073  2.4103 -1.6781
  358TMC3    H2 5420   4.248   3.831   1.101 -0.4744 -1.1269 -0.1911
  358TMC3    C7 5421   4.327   3.886   1.350 -0.5557 -0.0020  0.4644
  358TMC3    C8 5422   4.095   3.956   0.932  0.0387 -0.2102  0.1571
  358TMC3    O1 5423   4.385   3.944   1.437  0.1657  0.2708 -0.0143
  358TMC3    O2 5424   4.196   3.902   0.883  0.6392  0.5589  0.7169
  359MPD2     C 5425   3.597   2.107  11.946  0.2097  0.1696 -0.1956
  359MPD2    C1 5426   3.610   2.240  11.967 -0.4736  0.4470  0.3306
  359MPD2    C2 5427   3.558   2.294  12.088 -0.2868 -0.0750  0.6466
  359MPD2    C3 5428   3.503   2.214  12.189  0.2019  0.4045  0.4831
  359MPD2    C4 5429   3.487   2.081  12.163  0.4146  0.2347  0.0474
  359MPD2    C5 5430   3.533   2.032  12.038 -0.0508 -0.2919 -0.7336
  359MPD2     H 5431   3.553   2.401  12.105  1.1167  0.0659  0.1399
  359MPD2    H1 5432   3.433   2.018  12.233 -0.5320  2.1696  1.0670
  359MPD2    H2 5433   3.639   2.057  11.859 -1.3895  2.0369 -2.0593
  359MPD2    H3 5434   3.514   1.926  12.023 -1.5806 -0.2493  0.8934
  359MPD2     N 5435   3.438   2.271  12.304 -0.0253  0.5759  0.7466
  359MPD2    H5 5436   3.393   2.207  12.368 -0.4177 -0.5113 -0.6129
  359MPD2    N1 5437   3.677   2.332  11.894  0.1687  0.1343 -0.1969
  359MPD2    H7 5438   3.694   2.423  11.937 -1.0262  0.7009 -0.9198
  360TMC3    C1 5439   3.814   2.409  11.723 -0.0827  1.0918  0.2891
  360TMC3    C2 5440   3.888   2.476  11.816  0.2503 -0.4304  0.1194
  360TMC3    C3 5441   3.963   2.579  11.769 -0.0909  0.4381 -0.0834
  360TMC3    C4 5442   3.784   2.458  11.597  0.0746  0.5970  0.5524
  360TMC3    C5 5443   3.862   2.562  11.553 -0.7573  0.1155 -0.9859
  360TMC3    C6 5444   3.953   2.620  11.638  0.3851  0.0223  0.0426
  360TMC3     C 5445   3.725   2.308  11.767  0.0693 -0.5672  0.2435
  360TMC3     O 5446   3.682   2.226  11.687 -0.1491 -0.1665  0.0549
  360TMC3     H 5447   3.912   2.430  11.911 -1.4172 -0.7156  0.4168
  360TMC3    H1 5448   3.724   2.402  11.526  0.1620  1.7141 -0.3969
  360TMC3    H2 5449   4.014   2.701  11.599  1.8680 -0.5396  1.2040
  360TMC3    C7 5450   3.875   2.588  11.408  0.0497  0.0160 -0.3795
  360TMC3    C8 5451   4.070   2.623  11.865  0.6045 -0.0465 -0.1991
  360TMC3    O1 5452   3.950   2.681  11.378  0.2206  0.6376 -0.1532
  360TMC3    O2 5453   4.057   2.600  11.986  0.7361  0.2817  0.2323
  361MPD2     C 5454   0.803   1.517  16.884 -0.2856  0.3824  0.5911
  361MPD2    C1 5455   0.765   1.572  17.003  0.0482  0.0908  1.0076
  361MPD2    C2 5456   0.839   1.547  17.114 -0.4041  0.0260 -0.4179
  361MPD2    C3 5457   0.943   1.461  17.117  0.0686  0.5185  0.3562
  361MPD2    C4 5458   0.984   1.407  16.996 -1.3432  0.6302 -0.4686
  361MPD2    C5 5459   0.914   1.437  16.884 -0.2198  0.6216 -0.3394
  361MPD2     H 5460   0.812   1.609  17.198 -1.9669  0.6368 -1.3688
  361MPD2    H1 5461   1.059   1.329  16.994  0.8959  2.7309  2.4664
  361MPD2    H2 5462   0.753   1.543  16.791  1.3701  1.8638  0.1146
  361MPD2    H3 5463   0.939   1.380  16.795  2.5115  0.2200  0.6785
  361MPD2     N 5464   1.006   1.416  17.235 -0.6801  0.1531 -0.4306
  361MPD2    H5 5465   1.094   1.368  17.221 -0.9143 -0.1400 -0.8849
  361MPD2    N1 5466   0.645   1.641  17.026 -0.7038 -0.6555  0.3260
  361MPD2    H7 5467   0.619   1.672  17.119 -0.3338 -0.7467  0.4569
  362TMC3    C1 5468   0.441   1.753  16.972  0.0725 -0.2459  0.3723
  362TMC3    C2 5469   0.447   1.816  17.091  0.4600 -0.0139 -0.3042
  362TMC3    C3 5470   0.343   1.909  17.119  0.5219 -0.1078  0.4729
  362TMC3    C4 5471   0.339   1.769  16.881  0.2862  0.3144  0.3483
  362TMC3    C5 5472   0.234   1.848  16.911 -0.5650  0.3703  0.3395
  362TMC3    C6 5473   0.238   1.925  17.027  0.4268 -0.2273 -0.0368
  362TMC3     C 5474   0.551   1.667  16.929 -0.2223 -0.5102  0.2534
  362TMC3     O 5475   0.548   1.627  16.810  0.5223  0.0863 -0.1761
  362TMC3     H 5476   0.535   1.817  17.153  0.0662  3.0880  0.2105
  362TMC3    H1 5477   0.349   1.732  16.779 -1.5141 -0.4322  0.4391
  362TMC3    H2 5478   0.163   2.002  17.033 -1.0669 -1.4935 -2.4410
  362TMC3    C7 5479   0.142   1.903  16.806 -0.3441 -0.6252  0.5211
  362TMC3    C8 5480   0.370   2.021  17.210  0.3782 -0.3341 -0.3670
  362TMC3    O1 5481   0.098   2.012  16.829  0.3267 -0.4324  0.6791
  362TMC3    O2 5482   0.489   2.033  17.238 -0.0127 -0.4866 -0.3529
  363TMC3    C1 5483   0.059   4.709  10.192 -0.3942 -0.1539 -0.3411
  363TMC3    C2 5484   0.057   4.582  10.228 -0.5864  0.4825  0.4030
  363TMC3    C3 5485   4.672   4.530  10.276  0.2912  0.3610  0.2381
  363TMC3    C4 5486   4.686   0.047  10.207  0.4352 -0.3902 -0.2283
  363TMC3    C5 5487   4.571   4.732  10.256  0.4194  0.4141  0.2579
  363TMC3    C6 5488   4.566   4.603  10.285  0.5246  0.6420  0.6959
  363TMC3     C 5489   0.178   0.033  10.143  0.5235  0.2367  0.4820
  363TMC3     O 5490   0.170   0.156  10.125  0.2345 -0.1768  0.1646
  363TMC3     H 5491   0.150   4.528  10.243 -1.1676 -0.3252  1.1377
  363TMC3    H1 5492   4.689   0.146  10.165  2.0881 -0.2512  0.2013
  363TMC3    H2 5493   4.474   4.556  10.317  1.2616 -1.0847  0.2964
  363TMC3    C7 5494   4.446   0.071  10.249  0.1378 -1.1441 -0.8724
  363TMC3    C8 5495   4.661   4.388  10.321  0.0753 -0.5629  0.1187
  363TMC3    O1 5496   4.336   0.017  10.239  0.1363  0.2683 -0.1331
  363TMC3    O2 5497   4.571   4.364  10.407 -0.3560 -0.7744  0.3073
  364MPD2     C 5498   2.913   3.697  10.687 -0.6506 -0.5894  0.2443
  364MPD2    C1 5499   2.920   3.695  10.547 -0.5523 -0.2861 -0.1436
  364MPD2    C2 5500   2.965   3.577  10.481 -0.3354 -0.3922  0.9118
  364MPD2    C3 5501   2.988   3.462  10.557 -0.6726  0.2636  0.1878
  364MPD2    C4 5502   2.955   3.470  10.691 -0.5331 -0.4531 -0.3113
  364MPD2    C5 5503   2.924   3.587  10.759 -0.0592  0.3715  0.1431
  364MPD2     H 5504   2.988   3.574  10.375 -0.9311 -2.1548  0.8400
  364MPD2    H1 5505   2.979   3.386  10.755  2.4820  0.5512 -0.0839
  364MPD2    H2 5506   2.878   3.790  10.731  0.0509 -1.5001  2.6860
  364MPD2    H3 5507   2.905   3.594  10.865 -3.7084 -1.0588 -0.4390
  364MPD2     N 5508   3.041   3.337  10.509  0.3462 -0.2940  0.4513
  364MPD2    H5 5509   3.050   3.263  10.578 -1.2951  0.0273  1.0250
  364MPD2    N1 5510   2.881   3.810  10.483  0.6000  0.6302 -0.3344
  364MPD2    H7 5511   2.843   3.884  10.542 -1.9694 -1.1662  0.2860
  365TMC3    C1 5512   2.803   3.940  10.301  0.4109  0.3203  0.2081
  365TMC3    C2 5513   2.767   3.939  10.171  0.5456 -0.6973 -0.7182
  365TMC3    C3 5514   2.779   4.048  10.093 -0.3037 -0.1854 -0.0041
  365TMC3    C4 5515   2.834   4.055  10.363  0.4401  0.2199  0.3263
  365TMC3    C5 5516   2.818   4.168  10.289 -0.5430  0.1406 -0.4295
  365TMC3    C6 5517   2.797   4.173  10.153 -0.4492  0.6491 -0.2445
  365TMC3     C 5518   2.863   3.816  10.346  0.0652 -0.4217  0.9250
  365TMC3     O 5519   2.875   3.731  10.258 -0.1709 -0.1972 -0.3104
  365TMC3     H 5520   2.730   3.846  10.128  0.8775 -1.5072  0.7774
  365TMC3    H1 5521   2.867   4.058  10.466  0.9080  3.9316  0.0911
  365TMC3    H2 5522   2.820   4.263  10.097  1.0268 -1.6479 -3.3459
  365TMC3    C7 5523   2.795   4.294  10.354  0.5381 -0.2566  0.1141
  365TMC3    C8 5524   2.851   4.019   9.968  0.3960 -0.0259 -0.5174
  365TMC3    O1 5525   2.809   4.399  10.290 -0.1366 -0.6151 -0.2937
  365TMC3    O2 5526   2.870   4.110   9.885  0.1778 -0.5257 -0.0212
  366MPD2     C 5527   1.053   4.014  15.323  0.2100 -0.7307 -0.1031
  366MPD2    C1 5528   1.071   4.118  15.408 -0.1132 -0.1225 -0.8795
  366MPD2    C2 5529   1.193   4.127  15.473  0.0615  0.5097 -0.1910
  366MPD2    C3 5530   1.305   4.051  15.438 -0.1072  0.2203 -0.0250
  366MPD2    C4 5531   1.288   3.950  15.347 -0.2294 -0.1937 -0.4557
  366MPD2    C5 5532   1.158   3.929  15.295  0.3706 -0.1532 -0.1884
  366MPD2     H 5533   1.190   4.209  15.544 -2.7760 -1.4927  2.0032
  366MPD2    H1 5534   1.367   3.878  15.327  1.6287  0.9884  2.5438
  366MPD2    H2 5535   0.960   3.995  15.272  0.2181 -0.4304 -0.2301
  366MPD2    H3 5536   1.141   3.851  15.222  1.5677 -1.2291  0.6967
  366MPD2     N 5537   1.432   4.079  15.491  0.0509 -0.0378 -0.4439
  366MPD2    H5 5538   1.502   4.007  15.476  0.3138  0.7994 -3.1170
  366MPD2    N1 5539   0.969   4.206  15.440 -0.1425  0.0079  0.1783
  366MPD2    H7 5540   0.990   4.267  15.518  1.6353 -1.0918  0.5518
  367TMC3    C1 5541   0.808   4.363  15.404  0.3442 -0.3818 -0.1123
  367TMC3    C2 5542   0.900   4.448  15.462 -0.3123  0.1184 -0.0038
  367TMC3    C3 5543   0.865   4.576  15.477 -0.5206 -0.2129 -0.1884
  367TMC3    C4 5544   0.691   4.408  15.351 -0.1314 -0.1785 -0.1371
  367TMC3    C5 5545   0.656   4.537  15.387 -0.0807 -0.0680 -0.2408
  367TMC3    C6 5546   0.743   4.629  15.443  0.0399 -0.3161 -0.2533
  367TMC3     C 5547   0.860   4.236  15.361  0.5666  0.6146 -0.9850
  367TMC3     O 5548   0.802   4.182  15.267 -0.5708  0.1040  0.4349
  367TMC3     H 5549   1.000   4.429  15.499  0.0014  0.7961 -0.5065
  367TMC3    H1 5550   0.629   4.332  15.305 -0.9032 -0.0906  0.7728
  367TMC3    H2 5551   0.717   4.732  15.460  2.8489  0.6120 -1.5012
  367TMC3    C7 5552   0.518   4.572  15.365 -0.7428  0.5458  0.7057
  367TMC3    C8 5553   0.960   4.666  15.547  1.0935  0.3052  0.2074
  367TMC3    O1 5554   0.478   4.665  15.432  0.4367  0.1973 -0.2820
  367TMC3    O2 5555   1.033   4.607  15.625 -0.6205  0.2983  0.2164
  368MPD2     C 5556   2.070   1.545  13.356 -0.1837 -0.3617 -0.0035
  368MPD2    C1 5557   2.043   1.674  13.313 -0.0393  0.0133  0.2481
  368MPD2    C2 5558   2.145   1.742  13.239 -0.7081 -0.1390  0.6737
  368MPD2    C3 5559   2.274   1.695  13.231  0.0963  0.5085 -0.2569
  368MPD2    C4 5560   2.307   1.575  13.292  0.4486 -0.4384  0.7319
  368MPD2    C5 5561   2.200   1.502  13.345 -0.0031 -0.6366  0.0433
  368MPD2     H 5562   2.120   1.831  13.182  0.6350  1.8375  3.1948
  368MPD2    H1 5563   2.407   1.532  13.296  0.8416  0.3506 -0.7011
  368MPD2    H2 5564   1.995   1.485  13.406 -0.7186 -0.0512 -0.4439
  368MPD2    H3 5565   2.230   1.408  13.390 -0.8699  0.4053  2.7844
  368MPD2     N 5566   2.373   1.752  13.150  1.2992 -0.2252  0.0734
  368MPD2    H5 5567   2.459   1.697  13.145  1.0686 -0.8763  3.4406
  368MPD2    N1 5568   1.908   1.718  13.311 -1.3262 -0.1765  0.2540
  368MPD2    H7 5569   1.843   1.643  13.329 -2.1380  0.2774 -0.7970
  369TMC3    C1 5570   1.715   1.839  13.241 -0.5509 -0.2323 -0.1364
  369TMC3    C2 5571   1.674   1.964  13.191 -0.4361 -0.3311  0.2843
  369TMC3    C3 5572   1.591   1.976  13.081  0.5733 -0.1300  0.2086
  369TMC3    C4 5573   1.671   1.719  13.189  0.0021 -0.2491  0.4115
  369TMC3    C5 5574   1.587   1.732  13.081  0.2115  0.4500  0.3346
  369TMC3    C6 5575   1.555   1.854  13.025  0.5068 -0.3250 -0.0091
  369TMC3     C 5576   1.862   1.835  13.263 -0.3516  0.1952 -0.2003
  369TMC3     O 5577   1.922   1.936  13.255 -0.6335 -0.0259 -0.2261
  369TMC3     H 5578   1.711   2.050  13.246  0.4329 -1.2046  1.0758
  369TMC3    H1 5579   1.706   1.618  13.203 -1.1035 -0.8561 -1.1942
  369TMC3    H2 5580   1.495   1.856  12.934  1.0776 -0.6246 -0.3951
  369TMC3    C7 5581   1.490   1.627  13.088 -0.5561 -0.9424  0.4657
  369TMC3    C8 5582   1.616   2.089  12.993 -0.1131  0.3868 -0.4709
  369TMC3    O1 5583   1.465   1.591  13.201 -0.6074  0.0384  0.3269
  369TMC3    O2 5584   1.537   2.113  12.903  0.5426  0.2317  0.2532
  370TMC3    C1 5585   1.434   2.359  15.913 -0.6993 -0.0421  0.1441
  370TMC3    C2 5586   1.342   2.263  15.947 -0.6699 -0.0929  0.1731
  370TMC3    C3 5587   1.356   2.134  15.905  0.2153 -0.1088  1.0963
  370TMC3    C4 5588   1.549   2.320  15.840 -0.5686 -0.2488  0.2655
  370TMC3    C5 5589   1.562   2.185  15.805  0.0094  0.2638  0.1967
  370TMC3    C6 5590   1.469   2.092  15.838  0.0065 -0.1501 -0.5401
  370TMC3     C 5591   1.453   2.466  16.011  0.7056 -0.0441 -0.3328
  370TMC3     O 5592   1.411   2.437  16.124 -0.2492  0.3343 -0.5965
  370TMC3     H 5593   1.250   2.298  15.993 -0.3253  0.2595  0.5914
  370TMC3    H1 5594   1.621   2.396  15.812  0.6266 -1.2164  0.7271
  370TMC3    H2 5595   1.494   1.987  15.830 -0.1717 -0.1035 -1.7905
  370TMC3    C7 5596   1.680   2.152  15.724  0.1536  0.1680  0.2771
  370TMC3    C8 5597   1.316   2.044  16.009  0.6182 -0.1684 -0.4202
  370TMC3    O1 5598   1.714   2.241  15.651  0.3138 -0.4027 -0.4140
  370TMC3    O2 5599   1.300   1.927  15.982  0.0714 -0.3390 -0.0982
  371TMC3    C1 5600   2.979   0.778  15.320 -0.6191 -0.0784 -0.6198
  371TMC3    C2 5601   2.859   0.762  15.385 -0.0243 -0.7574  1.0481
  371TMC3    C3 5602   2.781   0.868  15.410 -0.0968 -0.6811  0.0879
  371TMC3    C4 5603   3.025   0.902  15.270  0.3829  0.1528  0.8229
  371TMC3    C5 5604   2.932   1.002  15.284 -0.3609  0.3043  0.0088
  371TMC3    C6 5605   2.815   0.993  15.357 -0.2127  0.2134  0.0036
  371TMC3     C 5606   3.086   0.682  15.332  0.1662 -0.5672  0.1644
  371TMC3     O 5607   3.189   0.707  15.269  0.5676  0.0098 -0.0066
  371TMC3     H 5608   2.827   0.663  15.415  2.0032 -1.6284  0.3614
  371TMC3    H1 5609   3.126   0.921  15.235  0.1780 -0.0882  0.1067
  371TMC3    H2 5610   2.752   1.081  15.368  1.2631  0.9793  2.4274
  371TMC3    C7 5611   2.968   1.141  15.253 -0.4380  0.4794 -0.5057
  371TMC3    C8 5612   2.735   0.870  15.547 -0.0265  0.5041 -0.3378
  371TMC3    O1 5613   2.907   1.227  15.321 -0.3163 -0.0051 -0.2860
  371TMC3    O2 5614   2.772   0.774  15.612  0.0743  0.0075  0.1691
  372MPD2     C 5615   2.557   1.891  13.449 -0.8887  0.5841  0.4764
  372MPD2    C1 5616   2.676   1.923  13.509 -0.5629  0.2192  0.7955
  372MPD2    C2 5617   2.702   1.844  13.622  0.3205 -0.4474 -0.9424
  372MPD2    C3 5618   2.624   1.736  13.669  0.0599  0.5730  0.1142
  372MPD2    C4 5619   2.506   1.712  13.612  0.2030 -0.0592  1.1039
  372MPD2    C5 5620   2.469   1.799  13.517  0.8607 -0.1533 -0.0250
  372MPD2     H 5621   2.792   1.875  13.673 -0.8662  3.0659 -0.9670
  372MPD2    H1 5622   2.435   1.637  13.647 -0.1128  0.7761  2.2535
  372MPD2    H2 5623   2.528   1.954  13.366 -1.0977  0.1554  0.2292
  372MPD2    H3 5624   2.374   1.795  13.466  1.3721  0.0779 -1.0086
  372MPD2     N 5625   2.670   1.669  13.788 -0.3565 -0.2673  0.7644
  372MPD2    H5 5626   2.757   1.700  13.829 -0.2936 -1.5651  1.6137
  372MPD2    N1 5627   2.769   2.021  13.464 -0.5466  0.0397  0.2143
  372MPD2    H7 5628   2.860   2.021  13.510 -0.4680 -1.3393  0.0728
  373TMC3    C1 5629   2.679   1.515  13.960 -0.6711 -0.0890 -0.0578
  373TMC3    C2 5630   2.740   1.614  14.036 -0.3685  0.2689  0.1259
  373TMC3    C3 5631   2.812   1.579  14.144 -0.6983  0.2111  0.3418
  373TMC3    C4 5632   2.694   1.383  13.980  0.2345 -0.5188 -0.4590
  373TMC3    C5 5633   2.783   1.344  14.077 -0.3076 -1.0916 -0.2369
  373TMC3    C6 5634   2.847   1.443  14.148  1.1884  0.0753 -0.2767
  373TMC3     C 5635   2.613   1.557  13.841  0.4112 -0.3152  0.3390
  373TMC3     O 5636   2.520   1.481  13.803  0.3464 -0.2919  0.2427
  373TMC3     H 5637   2.711   1.716  14.015 -1.2981 -0.3133 -1.4145
  373TMC3    H1 5638   2.638   1.315  13.916  1.1351 -1.2421 -0.4834
  373TMC3    H2 5639   2.937   1.413  14.202  1.1347 -0.1586 -0.3175
  373TMC3    C7 5640   2.849   1.214  14.081  0.0900  0.1262  0.0780
  373TMC3    C8 5641   2.878   1.681  14.229 -0.6223 -0.3806  0.5125
  373TMC3    O1 5642   2.970   1.214  14.095 -0.1641  0.2272  0.1737
  373TMC3    O2 5643   2.986   1.649  14.268 -0.0200  0.1244 -0.0345
  374TMC3    C1 5644   3.310   2.674   9.698  0.2469  0.1488  0.0601
  374TMC3    C2 5645   3.439   2.728   9.687  0.3945  0.2188  0.2188
  374TMC3    C3 5646   3.488   2.772   9.565  0.5379  0.6979 -0.1404
  374TMC3    C4 5647   3.232   2.668   9.585 -0.4942  0.1273 -0.0613
  374TMC3    C5 5648   3.280   2.716   9.466  0.7009  0.1225  0.3464
  374TMC3    C6 5649   3.404   2.763   9.455 -0.3902 -0.0819  0.5993
  374TMC3     C 5650   3.259   2.602   9.814  0.0125 -0.0479 -0.6628
  374TMC3     O 5651   3.189   2.503   9.797 -0.5081  0.1315  0.1457
  374TMC3     H 5652   3.496   2.726   9.779  0.7417  0.8584  0.0234
  374TMC3    H1 5653   3.132   2.635   9.609  0.6527 -2.6275  0.9126
  374TMC3    H2 5654   3.444   2.782   9.356  2.3692  1.1103  1.9536
  374TMC3    C7 5655   3.224   2.655   9.345  0.0781  0.1443  0.1254
  374TMC3    C8 5656   3.625   2.745   9.520 -0.0366 -0.3173 -0.5663
  374TMC3    O1 5657   3.271   2.686   9.236  0.0856  1.0062  0.2161
  374TMC3    O2 5658   3.672   2.794   9.417 -0.2372  0.3284  0.0153
  375MPD2     C 5659   2.839   3.551  16.833  0.2671 -0.1244 -0.1487
  375MPD2    C1 5660   2.756   3.445  16.846 -0.0272  0.4778 -0.1235
  375MPD2    C2 5661   2.806   3.319  16.876  0.0078  0.0566  0.7996
  375MPD2    C3 5662   2.937   3.298  16.903 -0.1800 -0.5843 -0.3664
  375MPD2    C4 5663   3.020   3.402  16.894  0.2486  0.4202  0.4443
  375MPD2    C5 5664   2.971   3.538  16.870 -0.6617 -0.2303  0.7768
  375MPD2     H 5665   2.740   3.232  16.875  1.0295 -0.7286  1.2814
  375MPD2    H1 5666   3.128   3.392  16.898  0.1642 -0.3901  0.6362
  375MPD2    H2 5667   2.800   3.648  16.808 -0.6994  0.4792  3.6175
  375MPD2    H3 5668   3.041   3.621  16.864  0.2430 -1.0235  0.2944
  375MPD2     N 5669   2.987   3.173  16.957  0.2458 -0.1890  0.2868
  375MPD2    H5 5670   3.086   3.155  16.947  0.0383 -1.5081  0.5905
  375MPD2    N1 5671   2.619   3.450  16.826  0.1276  0.4017 -0.0742
  375MPD2    H7 5672   2.571   3.363  16.846 -0.8619  1.2143  1.1124
  376TMC3    C1 5673   2.989   2.932  16.965  0.4919 -0.5656 -0.4084
  376TMC3    C2 5674   3.125   2.938  16.965 -0.2182  0.1342  0.4209
  376TMC3    C3 5675   3.195   2.823  16.966 -0.2044 -0.2176  0.4223
  376TMC3    C4 5676   2.925   2.815  16.943 -0.2139 -0.5281  0.0371
  376TMC3    C5 5677   2.994   2.702  16.919  0.1046  0.1074  0.5291
  376TMC3    C6 5678   3.134   2.701  16.929 -0.2804 -0.0761  0.0702
  376TMC3     C 5679   2.909   3.058  16.957  0.4174  0.0132  0.6217
  376TMC3     O 5680   2.789   3.037  16.963  0.0422  0.4595  0.2858
  376TMC3     H 5681   3.183   3.028  16.951  0.1324 -0.4198 -1.7007
  376TMC3    H1 5682   2.816   2.813  16.945 -0.2050 -1.4692 -0.4731
  376TMC3    H2 5683   3.191   2.611  16.908  1.6892  1.0406  0.6094
  376TMC3    C7 5684   2.939   2.643  16.792 -0.2176 -0.3536 -0.0988
  376TMC3    C8 5685   3.339   2.825  16.968 -0.2775  0.1718 -0.3863
  376TMC3    O1 5686   2.839   2.692  16.745 -0.1835 -0.2127 -0.9895
  376TMC3    O2 5687   3.394   2.934  16.960  0.2804  0.1795  0.1285
  377MPD2     C 5688   1.130   1.798  13.080  0.7783 -0.4151  0.6472
  377MPD2    C1 5689   1.117   1.758  12.948  0.7306  0.3973  0.0367
  377MPD2    C2 5690   1.062   1.642  12.920  0.7612  0.2139  0.2619
  377MPD2    C3 5691   1.003   1.563  13.017  0.1830 -0.4732 -0.8293
  377MPD2    C4 5692   0.996   1.612  13.148  0.2076  0.0614  0.4739
  377MPD2    C5 5693   1.063   1.725  13.176 -1.1623  0.0333  0.2249
  377MPD2     H 5694   1.081   1.604  12.820 -1.4008 -0.0576 -0.0525
  377MPD2    H1 5695   0.946   1.562  13.230  0.6464  0.2778  0.8725
  377MPD2    H2 5696   1.195   1.880  13.107  0.9355 -0.5603  0.7034
  377MPD2    H3 5697   1.058   1.753  13.281  1.8330 -0.8428  0.5957
  377MPD2     N 5698   0.970   1.424  12.998 -0.2171  0.2219  0.2809
  377MPD2    H5 5699   0.955   1.364  13.079  1.9909 -1.5228 -0.6001
  377MPD2    N1 5700   1.179   1.835  12.846  0.5854 -0.4371  1.0954
  377MPD2    H7 5701   1.231   1.918  12.874  0.5691 -0.4122  1.0516
  378TMC3    C1 5702   1.213   2.012  12.413 -1.1058 -0.6652  0.5390
  378TMC3    C2 5703   1.135   1.955  12.514  0.0509  0.0272 -0.2274
  378TMC3    C3 5704   1.200   1.923  12.634  0.4727  0.4307  0.1236
  378TMC3    C4 5705   1.345   2.029  12.437 -0.1590  0.4770  0.0891
  378TMC3    C5 5706   1.401   2.004  12.561  0.2780  0.3816 -0.2565
  378TMC3    C6 5707   1.326   1.941  12.659  0.2491  0.3388 -0.0492
  378TMC3     C 5708   1.153   2.013  12.281  1.0656  0.6069 -0.0049
  378TMC3     O 5709   1.035   2.035  12.290  0.3375 -0.8973 -0.1690
  378TMC3     H 5710   1.028   1.940  12.505 -0.2831  2.0584  0.4760
  378TMC3    H1 5711   1.396   2.086  12.360 -1.3921  0.1748 -0.9514
  378TMC3    H2 5712   1.376   1.910  12.750 -0.4370  2.1592  0.9612
  378TMC3    C7 5713   1.549   1.998  12.577 -1.1108  0.3196 -0.2063
  378TMC3    C8 5714   1.128   1.833  12.719  0.7529  0.0225 -0.1568
  378TMC3    O1 5715   1.596   1.959  12.682  0.0849 -0.2630  0.1028
  378TMC3    O2 5716   1.023   1.781  12.677  0.0190 -0.0841 -0.2944
  379MPD2     C 5717   1.764   0.628  16.300  0.6772  0.4943 -0.0575
  379MPD2    C1 5718   1.828   0.535  16.220  0.9399 -0.0085 -0.1115
  379MPD2    C2 5719   1.938   0.474  16.278  0.1166  0.0564 -0.5456
  379MPD2    C3 5720   1.979   0.483  16.408  0.5796  0.5231 -0.1679
  379MPD2    C4 5721   1.906   0.573  16.492 -0.4404  0.0141  0.0198
  379MPD2    C5 5722   1.797   0.638  16.437  0.7245 -0.2081 -0.0795
  379MPD2     H 5723   1.985   0.397  16.218 -2.4883 -1.6583 -0.3737
  379MPD2    H1 5724   1.933   0.603  16.593 -0.5466 -2.5270  0.7999
  379MPD2    H2 5725   1.675   0.681  16.269 -0.5360  0.0538  2.6753
  379MPD2    H3 5726   1.717   0.688  16.490  1.8797  1.3067  0.2344
  379MPD2     N 5727   2.090   0.408  16.460  0.0304  0.0076 -0.7999
  379MPD2    H5 5728   2.093   0.406  16.562  2.7797  2.2325 -0.8374
  379MPD2    N1 5729   1.779   0.508  16.091 -0.2978  0.5788 -0.4723
  379MPD2    H7 5730   1.683   0.526  16.065  0.1729  2.3989 -0.9869
  380TMC3    C1 5731   1.730   0.346  15.920  0.4564 -0.1631  0.1056
  380TMC3    C2 5732   1.785   0.294  15.802  1.2345 -0.5174 -0.5178
  380TMC3    C3 5733   1.710   0.235  15.710 -0.2029 -0.1430 -0.1498
  380TMC3    C4 5734   1.597   0.342  15.949 -0.2086 -1.1272 -0.3482
  380TMC3    C5 5735   1.527   0.268  15.863  0.3011 -0.4217 -0.1027
  380TMC3    C6 5736   1.576   0.230  15.741  0.5605  0.1378 -0.0976
  380TMC3     C 5737   1.832   0.407  16.008  0.0555  0.2455  0.0922
  380TMC3     O 5738   1.949   0.376  15.998 -0.4038 -0.4088 -0.1955
  380TMC3     H 5739   1.887   0.328  15.787  1.2543  0.0451  0.8863
  380TMC3    H1 5740   1.556   0.383  16.040 -2.4944 -5.0115  0.3698
  380TMC3    H2 5741   1.514   0.173  15.672 -0.5617  1.7060 -0.3695
  380TMC3    C7 5742   1.389   0.311  15.859 -0.1490 -0.0753  0.1616
  380TMC3    C8 5743   1.761   0.218  15.575 -0.3173  0.0299 -1.0812
  380TMC3    O1 5744   1.365   0.425  15.889  0.1433 -0.2323  0.4594
  380TMC3    O2 5745   1.672   0.235  15.494 -0.6295  0.1424 -0.3031
  381TMC3    C1 5746   1.468   1.532  15.976  0.8476 -0.6592 -0.4670
  381TMC3    C2 5747   1.513   1.663  15.968  0.8554  0.3176 -0.1424
  381TMC3    C3 5748   1.562   1.723  16.084 -0.4916  0.3005  0.0343
  381TMC3    C4 5749   1.484   1.464  16.092 -0.3051 -0.6318  0.1107
  381TMC3    C5 5750   1.527   1.527  16.209  0.0670 -0.0517 -0.5928
  381TMC3    C6 5751   1.568   1.658  16.209 -0.1736  0.3853  0.4470
  381TMC3     C 5752   1.406   1.467  15.865  0.4333 -0.1394 -0.1148
  381TMC3     O 5753   1.350   1.361  15.881 -0.3358  0.1276 -0.1437
  381TMC3     H 5754   1.497   1.722  15.878 -0.6016 -2.1148 -1.5117
  381TMC3    H1 5755   1.450   1.362  16.095 -2.7795  0.2114  0.5856
  381TMC3    H2 5756   1.616   1.702  16.296  2.6828 -0.1457 -0.8387
  381TMC3    C7 5757   1.531   1.455  16.333  0.8515  0.3535  0.3125
  381TMC3    C8 5758   1.640   1.844  16.068 -0.7543  0.5956  0.0495
  381TMC3    O1 5759   1.530   1.332  16.323  0.1963  0.2612  0.2942
  381TMC3    O2 5760   1.695   1.862  15.961  0.0218  0.3840 -0.7071
  382MPD2     C 5761   1.167   4.230  16.801 -0.2128  0.1933 -0.7895
  382MPD2    C1 5762   1.233   4.248  16.920  0.5149 -0.4132 -0.3053
  382MPD2    C2 5763   1.232   4.143  17.004  0.2327  0.6233 -0.1447
  382MPD2    C3 5764   1.181   4.020  16.976  0.3862  0.7518  0.3627
  382MPD2    C4 5765   1.132   4.005  16.852 -0.0686 -0.0958  1.0828
  382MPD2    C5 5766   1.123   4.110  16.758  0.6079  0.5135 -0.4586
  382MPD2     H 5767   1.267   4.161  17.104  1.3768  1.6762 -0.7344
  382MPD2    H1 5768   1.117   3.906  16.809 -0.1027  0.8102 -1.0070
  382MPD2    H2 5769   1.170   4.313  16.731  2.5687  1.2403  0.5609
  382MPD2    H3 5770   1.091   4.094  16.656  0.7985 -0.1531 -0.4151
  382MPD2     N 5771   1.187   3.903  17.056  0.6741  0.7069  0.4449
  382MPD2    H5 5772   1.135   3.822  17.024  0.9414  0.5921  0.3074
  382MPD2    N1 5773   1.297   4.364  16.962 -0.0265 -0.2173  0.2817
  382MPD2    H7 5774   1.346   4.362  17.051 -0.7071  1.3223  0.6746
  383TMC3    C1 5775   1.228   3.776  17.261  0.2565 -0.0936 -0.5792
  383TMC3    C2 5776   1.126   3.690  17.214 -0.3114  0.2031  0.3872
  383TMC3    C3 5777   1.129   3.559  17.251  0.0906 -0.7958  0.4233
  383TMC3    C4 5778   1.327   3.730  17.346  0.0485  0.0144  0.4779
  383TMC3    C5 5779   1.328   3.595  17.380 -0.2127 -0.1266 -0.6055
  383TMC3    C6 5780   1.231   3.503  17.335 -0.0323  0.2219  0.2752
  383TMC3     C 5781   1.257   3.893  17.178  0.1984  0.0100 -0.2211
  383TMC3     O 5782   1.332   3.966  17.238 -0.2282  0.4867  0.8848
  383TMC3     H 5783   1.040   3.728  17.160  0.8892  0.7894 -1.1170
  383TMC3    H1 5784   1.400   3.804  17.377  0.4107  0.2873 -0.9937
  383TMC3    H2 5785   1.234   3.399  17.362  1.4338 -0.0636 -0.9334
  383TMC3    C7 5786   1.427   3.561  17.475 -0.8097  0.1874  0.0344
  383TMC3    C8 5787   1.003   3.495  17.223  0.4264  0.3481  0.3453
  383TMC3    O1 5788   1.445   3.441  17.474  0.2591 -0.0706  0.2159
  383TMC3    O2 5789   0.939   3.541  17.130  0.6622 -0.3150  0.5191
  384MPD2     C 5790   1.589   0.366  11.737 -0.3859  0.3306 -0.1141
  384MPD2    C1 5791   1.595   0.292  11.857  0.1338  1.2143  0.5237
  384MPD2    C2 5792   1.714   0.223  11.882  0.2737 -0.3312  0.3985
  384MPD2    C3 5793   1.831   0.250  11.808  0.8006  0.5321  0.6806
  384MPD2    C4 5794   1.818   0.322  11.689 -0.0616  0.7062 -0.5828
  384MPD2    C5 5795   1.700   0.380  11.654 -0.3856 -0.5951 -0.1189
  384MPD2     H 5796   1.709   0.167  11.974 -1.0815 -0.8710  0.0053
  384MPD2    H1 5797   1.898   0.333  11.615 -2.1123  0.7073 -2.7996
  384MPD2    H2 5798   1.497   0.413  11.704 -0.0818  1.1085  0.1452
  384MPD2    H3 5799   1.687   0.424  11.556 -1.8269 -1.7777 -0.4537
  384MPD2     N 5800   1.962   0.211  11.852  0.6251 -0.8601  0.3560
  384MPD2    H5 5801   1.971   0.184  11.949  1.1945 -1.2430  0.1931
  384MPD2    N1 5802   1.478   0.270  11.937  0.2952  0.5833 -0.6926
  384MPD2    H7 5803   1.397   0.331  11.926 -0.0267  0.6401  1.9814
  385TMC3    C1 5804   2.190   0.208  11.865 -0.8101  0.1757 -0.2354
  385TMC3    C2 5805   2.269   0.096  11.843 -1.1056  0.6759 -0.3507
  385TMC3    C3 5806   2.331   0.049  11.956  0.1940 -0.1202 -0.0225
  385TMC3    C4 5807   2.163   0.261  11.994  0.1664  0.8141 -0.3308
  385TMC3    C5 5808   2.221   0.199  12.101  0.6508 -0.2556 -0.4871
  385TMC3    C6 5809   2.306   0.095  12.084 -0.2179 -0.4547 -0.1964
  385TMC3     C 5810   2.077   0.222  11.777 -0.9310  0.0219  0.1062
  385TMC3     O 5811   2.079   0.202  11.653 -0.1654  0.3842 -0.8397
  385TMC3     H 5812   2.277   0.056  11.743 -1.2990  1.7518 -0.8023
  385TMC3    H1 5813   2.105   0.352  12.001 -0.6108  0.3354 -0.5060
  385TMC3    H2 5814   2.361   0.070  12.174 -0.2633 -0.4203 -0.1593
  385TMC3    C7 5815   2.148   0.213  12.222 -0.2792  0.2680  0.3723
  385TMC3    C8 5816   2.403   4.663  11.946  0.0524 -0.4265 -0.7584
  385TMC3    O1 5817   2.078   0.310  12.236  0.1328 -0.0763  0.0182
  385TMC3    O2 5818   2.434   4.624  12.058 -0.2457 -0.2022 -0.0777
  386TMC3    C1 5819   2.746   2.045  11.880 -0.3297 -0.3154  0.3639
  386TMC3    C2 5820   2.786   2.122  11.776 -0.2875 -0.3891  0.3041
  386TMC3    C3 5821   2.700   2.228  11.748  0.1090  0.2286  0.3540
  386TMC3    C4 5822   2.654   2.076  11.975  0.2188 -0.1659 -0.2654
  386TMC3    C5 5823   2.572   2.180  11.937 -0.9648  0.0234  0.0351
  386TMC3    C6 5824   2.594   2.257  11.827  0.4149 -0.0723 -0.3394
  386TMC3     C 5825   2.833   1.925  11.900 -0.5959 -0.2300 -0.7475
  386TMC3     O 5826   2.924   1.905  11.826  0.0804 -0.2583  0.3862
  386TMC3     H 5827   2.873   2.095  11.717 -1.4771 -0.7117 -1.3129
  386TMC3    H1 5828   2.629   2.014  12.061  0.9947 -1.6489 -1.1088
  386TMC3    H2 5829   2.516   2.329  11.805 -0.9098 -0.9064  1.5776
  386TMC3    C7 5830   2.430   2.176  11.974  0.1352 -0.1012  0.5580
  386TMC3    C8 5831   2.739   2.327  11.655  0.7345 -0.4446  0.8019
  386TMC3    O1 5832   2.399   2.198  12.090 -0.0606  0.2341  0.1952
  386TMC3    O2 5833   2.654   2.418  11.637  0.2415 -0.6004 -0.4406
  387MPD2     C 5834   0.859   2.548   9.803  0.2560 -0.2860  0.5414
  387MPD2    C1 5835   0.932   2.483   9.901 -0.0683 -0.7424 -0.2111
  387MPD2    C2 5836   0.910   2.346   9.920 -0.1802 -0.1833 -0.0240
  387MPD2    C3 5837   0.814   2.279   9.848  0.2059  0.0248 -0.4933
  387MPD2    C4 5838   0.749   2.341   9.745  0.3263  0.2236 -0.1008
  387MPD2    C5 5839   0.771   2.474   9.721  0.4547  0.3510  0.7492
  387MPD2     H 5840   0.983   2.290   9.978  0.7019 -0.9998 -1.9101
  387MPD2    H1 5841   0.703   2.274   9.673  1.5895 -0.5454 -0.2023
  387MPD2    H2 5842   0.877   2.654   9.788 -2.9791  0.3256  0.8504
  387MPD2    H3 5843   0.725   2.524   9.636  1.0986 -0.2908  0.0172
  387MPD2     N 5844   0.810   2.139   9.869 -0.5170  0.2633  0.1752
  387MPD2    H5 5845   0.890   2.104   9.921  0.3010 -1.8347 -2.4448
  387MPD2    N1 5846   1.039   2.536   9.969  0.1427  0.4694  0.4316
  387MPD2    H7 5847   1.099   2.468  10.014  0.2711  0.2214 -0.1171
  388TMC3    C1 5848   1.154   2.679  10.104 -0.0164 -0.4798  0.0404
  388TMC3    C2 5849   1.126   2.787  10.179  0.1123  0.3361  0.5771
  388TMC3    C3 5850   1.147   2.783  10.314 -0.9064  0.2454 -0.2487
  388TMC3    C4 5851   1.204   2.566  10.162  0.4159 -0.6763 -0.3260
  388TMC3    C5 5852   1.211   2.562  10.298  0.0785 -0.0952  0.0192
  388TMC3    C6 5853   1.170   2.669  10.381  0.5522  0.0844  0.0456
  388TMC3     C 5854   1.060   2.664   9.993  0.7613  0.1982  0.0998
  388TMC3     O 5855   0.999   2.763   9.953 -0.5951  0.4761  0.1542
  388TMC3     H 5856   1.083   2.876  10.134 -2.6962 -1.1122  0.4019
  388TMC3    H1 5857   1.234   2.476  10.109  2.5292  0.3631 -0.8982
  388TMC3    H2 5858   1.197   2.666  10.485  1.2201 -0.9097 -0.1633
  388TMC3    C7 5859   1.217   2.433  10.357 -0.4400  0.2379 -0.0830
  388TMC3    C8 5860   1.160   2.913  10.385  0.2249  0.7260  0.1718
  388TMC3    O1 5861   1.311   2.411  10.434  0.5758  0.2367  0.4338
  388TMC3    O2 5862   1.141   2.912  10.506  0.5786  0.4258  0.5384
  389MPD2     C 5863   4.161   0.642  11.018  0.1189 -1.1426 -0.1042
  389MPD2    C1 5864   4.072   0.602  10.922  0.5712 -0.0932 -0.8737
  389MPD2    C2 5865   3.983   0.499  10.943  0.0544  0.0693  0.2384
  389MPD2    C3 5866   3.985   0.429  11.066 -0.1852 -0.1719  0.1260
  389MPD2    C4 5867   4.067   0.479  11.164 -0.5489 -0.3956  0.2480
  389MPD2    C5 5868   4.155   0.582  11.147  0.1028  0.6851 -0.1375
  389MPD2     H 5869   3.924   0.457  10.862 -0.1749  0.4070  0.2334
  389MPD2    H1 5870   4.072   0.429  11.259 -3.9432  0.2900  0.7704
  389MPD2    H2 5871   4.244   0.709  11.000 -1.0469 -0.0909 -1.5775
  389MPD2    H3 5872   4.233   0.605  11.218  0.2769  1.3979 -0.5609
  389MPD2     N 5873   3.896   0.320  11.087 -0.1962  0.7509 -0.6977
  389MPD2    H5 5874   3.889   0.280  11.180  0.4700  0.5036 -0.7533
  389MPD2    N1 5875   4.074   0.674  10.794 -0.3923 -0.1141 -0.2092
  389MPD2    H7 5876   4.151   0.740  10.784  0.5238 -1.0550  0.7043
  390TMC3    C1 5877   3.714   0.172  11.051 -0.0352  0.2043  0.1854
  390TMC3    C2 5878   3.691   0.190  11.189 -0.5168 -0.2263  0.1576
  390TMC3    C3 5879   3.575   0.166  11.245  0.0093  0.3097 -0.0796
  390TMC3    C4 5880   3.618   0.115  10.970 -0.5355 -0.1939  0.0573
  390TMC3    C5 5881   3.496   0.098  11.030 -1.1530  0.1456  0.0571
  390TMC3    C6 5882   3.475   0.136  11.161  0.7468 -0.0260 -0.6203
  390TMC3     C 5883   3.803   0.268  10.996 -0.5719  0.5441 -0.3106
  390TMC3     O 5884   3.772   0.303  10.886 -0.5831 -0.1842  0.5382
  390TMC3     H 5885   3.776   0.200  11.256 -1.7203  0.8272  1.5105
  390TMC3    H1 5886   3.636   0.095  10.865 -0.3200  0.6177 -0.0546
  390TMC3    H2 5887   3.375   0.141  11.201  0.9103  0.9729 -0.3249
  390TMC3    C7 5888   3.432   4.711  10.988  0.1563  0.0878  0.6378
  390TMC3    C8 5889   3.575   0.061  11.342 -0.4653 -0.2661 -0.4512
  390TMC3    O1 5890   3.484   4.647  10.898  0.0300 -0.0717  0.0413
  390TMC3    O2 5891   3.677   4.732  11.342  0.4590 -0.0054  0.0847
  391MPD2     C 5892   3.942   2.042  10.835 -0.2129  0.0228 -0.0418
  391MPD2    C1 5893   4.059   2.101  10.806  0.4227  0.3624 -0.0143
  391MPD2    C2 5894   4.085   2.120  10.669 -0.0783  0.7121 -0.7593
  391MPD2    C3 5895   3.995   2.095  10.575  0.2668 -0.1237  0.4917
  391MPD2    C4 5896   3.876   2.035  10.612  0.1839 -0.4752 -0.2872
  391MPD2    C5 5897   3.854   1.998  10.741 -0.1200  0.0833  0.4416
  391MPD2     H 5898   4.176   2.169  10.639  1.3672 -3.8234 -3.7502
  391MPD2    H1 5899   3.790   2.006  10.553 -1.3791  0.0548  1.7552
  391MPD2    H2 5900   3.920   2.031  10.941 -0.1344 -1.2415 -0.1562
  391MPD2    H3 5901   3.766   1.940  10.768 -1.3999  2.6848  1.9712
  391MPD2     N 5902   4.023   2.147  10.450  0.2851 -0.8909  0.3726
  391MPD2    H5 5903   4.108   2.202  10.449 -0.7848  0.7465  0.7157
  391MPD2    N1 5904   4.136   2.154  10.910  0.0462  0.2900 -0.3363
  391MPD2    H7 5905   4.096   2.151  11.003 -1.4455  0.0802 -0.9810
  392TMC3    C1 5906   4.004   2.184  10.216  0.5018 -0.0029  0.1222
  392TMC3    C2 5907   3.929   2.182  10.101 -0.6268  0.5299 -0.4364
  392TMC3    C3 5908   3.993   2.201   9.984 -0.0492 -0.1297  0.2767
  392TMC3    C4 5909   4.143   2.188  10.213 -0.3349 -0.0616  0.5846
  392TMC3    C5 5910   4.204   2.189  10.086  0.5221  0.7322  0.1937
  392TMC3    C6 5911   4.132   2.203   9.977  0.2011  0.5838  0.4213
  392TMC3     C 5912   3.933   2.147  10.339  0.6263  0.6124  0.4956
  392TMC3     O 5913   3.830   2.089  10.313 -0.7510  0.4513 -0.0833
  392TMC3     H 5914   3.821   2.179  10.114 -0.2336 -2.6559  2.0016
  392TMC3    H1 5915   4.202   2.176  10.303  0.7851 -0.4785 -0.2151
  392TMC3    H2 5916   4.187   2.209   9.884 -1.2325  0.7826 -0.4119
  392TMC3    C7 5917   4.328   2.255  10.090 -0.4137 -0.4682 -0.3574
  392TMC3    C8 5918   3.915   2.288   9.893 -0.0102 -0.2094  0.2194
  392TMC3    O1 5919   4.329   2.355  10.162 -0.2609 -0.2648  0.1032
  392TMC3    O2 5920   3.798   2.310   9.922  0.4805 -0.5355  0.3490
  393TMC3    C1 5921   2.673   0.772  10.931 -0.9020 -0.0933  0.4585
  393TMC3    C2 5922   2.564   0.732  11.004 -0.6394 -0.3928  0.5122
  393TMC3    C3 5923   2.517   0.605  10.988  0.1024 -0.0867  0.1760
  393TMC3    C4 5924   2.733   0.687  10.844 -0.1903 -0.8822 -0.2454
  393TMC3    C5 5925   2.690   0.559  10.834  0.4042 -0.5097  0.9268
  393TMC3    C6 5926   2.578   0.521  10.899  0.5063  0.7519 -0.1477
  393TMC3     C 5927   2.727   0.908  10.947  0.0339 -0.3684 -0.1153
  393TMC3     O 5928   2.708   0.963  11.053  0.8434  0.0126 -0.4936
  393TMC3     H 5929   2.510   0.794  11.075 -0.6557 -0.2864  0.4068
  393TMC3    H1 5930   2.819   0.721  10.789 -0.5503 -1.2021 -0.9993
  393TMC3    H2 5931   2.537   0.423  10.876 -1.0317  1.0816  1.1917
  393TMC3    C7 5932   2.746   0.479  10.721  0.1778  0.3942  0.0914
  393TMC3    C8 5933   2.370   0.592  10.982  0.8886 -0.8025  0.3138
  393TMC3    O1 5934   2.674   0.391  10.672  0.1847  0.6264  0.0511
  393TMC3    O2 5935   2.316   0.489  11.019 -0.2149 -0.0598 -0.1587
  394TMC3    C1 5936   3.981   0.764  10.600  0.7872 -0.3727  0.4404
  394TMC3    C2 5937   3.862   0.797  10.550  0.4309 -0.1488  0.5962
  394TMC3    C3 5938   3.852   0.917  10.486  0.2888 -0.3568 -0.2261
  394TMC3    C4 5939   4.094   0.844  10.583 -0.4016  0.0968 -0.1309
  394TMC3    C5 5940   4.079   0.964  10.514  0.4447  0.0302  0.2074
  394TMC3    C6 5941   3.958   0.996  10.460  0.3804  0.0243  0.5617
  394TMC3     C 5942   3.972   0.666  10.703  0.3774 -0.5170  0.4081
  394TMC3     O 5943   3.869   0.601  10.710 -0.3847  0.4813 -0.3481
  394TMC3     H 5944   3.770   0.747  10.578 -1.4389  1.3600 -2.7679
  394TMC3    H1 5945   4.192   0.809  10.613 -0.9772 -0.6462  0.8630
  394TMC3    H2 5946   3.944   1.085  10.401  0.7657 -0.5692 -0.4255
  394TMC3    C7 5947   4.194   1.051  10.477 -0.4446 -0.1813  0.5629
  394TMC3    C8 5948   3.726   0.961  10.435  0.7613 -0.0510 -0.6572
  394TMC3    O1 5949   4.167   1.148  10.404 -0.0751 -0.1525  0.5247
  394TMC3    O2 5950   3.634   0.953  10.513  0.1285  0.1164 -0.3192
  395TMC3    C1 5951   4.324   2.235  15.341  0.0988 -0.0383 -0.2057
  395TMC3    C2 5952   4.225   2.185  15.257  0.5463 -0.1876  0.5647
  395TMC3    C3 5953   4.228   2.223  15.123 -0.2352 -0.4502  0.2398
  395TMC3    C4 5954   4.415   2.338  15.299 -0.5796 -0.3904 -0.5208
  395TMC3    C5 5955   4.410   2.377  15.169 -0.3859  0.3016 -0.3737
  395TMC3    C6 5956   4.310   2.333  15.082 -0.5863  0.6871  0.6603
  395TMC3     C 5957   4.292   2.221  15.484  0.6825 -0.1597 -0.5512
  395TMC3     O 5958   4.351   2.302  15.553 -0.0143  0.2257  0.2631
  395TMC3     H 5959   4.153   2.115  15.298  0.3320  1.9047  3.7060
  395TMC3    H1 5960   4.482   2.370  15.378  0.5825 -0.4573 -1.4824
  395TMC3    H2 5961   4.280   2.375  14.987  1.9605  1.1924  0.0934
  395TMC3    C7 5962   4.492   2.492  15.120 -0.1698 -0.1329 -1.0192
  395TMC3    C8 5963   4.103   2.209  15.051 -0.0767  0.1685 -0.1518
  395TMC3    O1 5964   4.527   2.575  15.203  0.4701 -0.0487 -0.1736
  395TMC3    O2 5965   4.064   2.305  14.982  0.6295 -0.4703  0.8298
  396MPD2     C 5966   0.389   4.110  17.080 -0.5619 -0.2592 -0.0041
  396MPD2    C1 5967   0.277   4.150  17.149 -0.2112  0.4126 -0.2997
  396MPD2    C2 5968   0.196   4.242  17.090  0.5239 -0.6752  0.2437
  396MPD2    C3 5969   0.218   4.290  16.966  0.2326  0.7412 -0.9388
  396MPD2    C4 5970   0.328   4.238  16.898 -0.5151  0.5113 -0.3593
  396MPD2    C5 5971   0.409   4.147  16.955 -0.3176  0.4195  0.0389
  396MPD2     H 5972   0.095   4.262  17.124  0.1293  0.0677 -1.3663
  396MPD2    H1 5973   0.361   4.278  16.803 -2.0040  2.2961 -0.0975
  396MPD2    H2 5974   0.459   4.037  17.119  0.0050 -0.2658 -1.0231
  396MPD2    H3 5975   0.493   4.113  16.896 -0.8102 -0.3548 -0.2118
  396MPD2     N 5976   0.138   4.394  16.915 -0.0783  0.1843  0.1521
  396MPD2    H5 5977   0.076   4.431  16.986 -0.5218  1.7172 -1.0426
  396MPD2    N1 5978   0.258   4.078  17.268  0.0345  0.3984  0.3732
  396MPD2    H7 5979   0.345   4.035  17.297  0.3185  0.0816 -0.9168
  397TMC3    C1 5980   0.152   3.999  17.455 -0.4345 -0.2237  0.0453
  397TMC3    C2 5981   0.237   3.889  17.449  0.3743 -0.1483  0.3826
  397TMC3    C3 5982   0.191   3.761  17.481  0.2997 -0.3121 -0.1146
  397TMC3    C4 5983   0.025   3.978  17.504 -0.2742 -0.6420 -0.4763
  397TMC3    C5 5984   4.729   3.858  17.562  0.5375 -0.0442 -0.1032
  397TMC3    C6 5985   0.067   3.750  17.535 -0.0243 -0.2025 -0.1135
  397TMC3     C 5986   0.147   4.085  17.340 -0.0139 -0.1969  0.1812
  397TMC3     O 5987   0.036   4.136  17.310 -0.0039  0.2856 -0.0613
  397TMC3     H 5988   0.344   3.907  17.455  0.3701  0.3960 -0.9984
  397TMC3    H1 5989   4.700   4.063  17.526 -0.5997 -1.3298  1.2299
  397TMC3    H2 5990   0.027   3.653  17.562 -0.0300 -0.0300  0.5021
  397TMC3    C7 5991   4.585   3.839  17.559 -0.2411  0.0256  0.4894
  397TMC3    C8 5992   0.200   3.673  17.375 -0.2112  0.0116  0.3835
  397TMC3    O1 5993   4.520   3.910  17.482 -0.0614 -0.5708 -0.6594
  397TMC3    O2 5994   0.116   3.584  17.370 -0.3428  0.0094  0.3906
  398MPD2     C 5995   2.384   4.586   0.149  0.2715  0.3423 -0.1294
  398MPD2    C1 5996   2.519   4.589   0.180 -0.6167  0.6585  0.6977
  398MPD2    C2 5997   2.582   4.711   0.171  0.1671  0.3928 -0.0308
  398MPD2    C3 5998   2.515   0.093   0.145  0.2764 -0.0264 -0.6003
  398MPD2    C4 5999   2.383   0.079   0.130 -0.2859  0.1148  0.6605
  398MPD2    C5 6000   2.320   4.702   0.130 -0.8264 -0.1976  0.5990
  398MPD2     H 6001   2.690   4.718   0.176  0.2875 -1.5422 -0.1175
  398MPD2    H1 6002   2.327   0.168   0.103 -3.7136 -1.7436  1.6628
  398MPD2    H2 6003   2.324   4.497   0.136 -1.0279  1.4358 -1.5682
  398MPD2    H3 6004   2.213   4.696   0.115 -0.3276 -1.7007 -2.3210
  398MPD2     N 6005   2.578   0.218   0.142 -0.0495 -0.3840  0.4916
  398MPD2    H5 6006   2.679   0.217   0.153  0.2102 -1.3491 -1.8441
  398MPD2    N1 6007   2.602   4.469   0.190 -0.0352  0.1392  0.3031
  398MPD2    H7 6008   2.701   4.493   0.181 -0.2989  1.1892  0.1860
  399TMC3    C1 6009   2.661   4.230   0.161  0.3030 -0.4963 -0.3642
  399TMC3    C2 6010   2.792   4.274   0.160  0.6413 -0.4476 -0.3789
  399TMC3    C3 6011   2.878   4.196   0.238  0.4361  0.3201 -0.6665
  399TMC3    C4 6012   2.613   4.108   0.209 -0.2188  0.5003 -0.6449
  399TMC3    C5 6013   2.707   4.030   0.268  0.4602  0.0477  0.4136
  399TMC3    C6 6014   2.836   4.073   0.281  0.2409 -0.7171 -0.7509
  399TMC3     C 6015   2.561   4.338   0.167 -0.0146 -0.1862  0.3735
  399TMC3     O 6016   2.449   4.295   0.152 -0.8158 -0.1935  0.0298
  399TMC3     H 6017   2.833   4.362   0.112  0.7241 -1.5304 -2.2618
  399TMC3    H1 6018   2.508   4.078   0.213 -0.4276  1.4649  0.9782
  399TMC3    H2 6019   2.902   4.010   0.340 -0.6974 -1.0099 -0.0065
  399TMC3    C7 6020   2.668   3.900   0.325 -1.0466 -0.1146  0.6656
  399TMC3    C8 6021   3.017   4.221   0.215 -0.0728  0.2860 -0.6135
  399TMC3    O1 6022   2.728   3.860   0.425 -0.1084  0.3075  0.0433
  399TMC3    O2 6023   3.036   4.301   0.123  0.3597  0.8065  0.0175
  400TMC3    C1 6024   0.805   3.148  16.963 -1.4951 -0.5078 -0.5286
  400TMC3    C2 6025   0.700   3.056  16.932 -0.2640 -0.6491  0.2687
  400TMC3    C3 6026   0.610   3.094  16.830  0.2997 -0.1086  0.1462
  400TMC3    C4 6027   0.818   3.271  16.899  0.6352  0.0533  0.3640
  400TMC3    C5 6028   0.722   3.294  16.805 -0.1112  0.2947 -0.2744
  400TMC3    C6 6029   0.614   3.216  16.772 -0.2907 -0.4425  0.9068
  400TMC3     C 6030   0.908   3.091  17.046  0.5790  0.0988  0.1094
  400TMC3     O 6031   0.884   2.988  17.106 -0.0234  0.1967 -0.2151
  400TMC3     H 6032   0.688   2.954  16.967 -0.3099  0.0143  2.1754
  400TMC3    H1 6033   0.886   3.351  16.926 -0.3466  0.8587  0.4266
  400TMC3    H2 6034   0.552   3.240  16.687  0.8729 -0.2800  0.1082
  400TMC3    C7 6035   0.727   3.417  16.736  0.4673  0.3734  0.3034
  400TMC3    C8 6036   0.483   3.049  16.878  0.5144  0.7267  0.3659
  400TMC3    O1 6037   0.714   3.420  16.613  0.1682 -0.3151 -0.2036
  400TMC3    O2 6038   0.473   3.048  16.998 -0.1964 -0.4923  0.2709
  401MPD2     C 6039   3.982   2.185   0.913  0.6742 -0.0502 -0.5047
  401MPD2    C1 6040   4.049   2.099   0.999 -0.2291 -0.3050 -0.0124
  401MPD2    C2 6041   4.003   1.963   1.001 -0.2137  0.9768  0.3711
  401MPD2    C3 6042   3.915   1.912   0.912  0.1586  0.0236  0.2954
  401MPD2    C4 6043   3.848   2.004   0.825 -0.7047  0.0103  0.6284
  401MPD2    C5 6044   3.883   2.138   0.827  0.4041 -0.0231  0.6643
  401MPD2     H 6045   4.038   1.888   1.071 -0.2479  0.9654  0.3758
  401MPD2    H1 6046   3.764   1.983   0.760 -0.4349  1.5478 -0.2137
  401MPD2    H2 6047   3.993   2.293   0.925  0.0502 -0.1558  1.1576
  401MPD2    H3 6048   3.809   2.197   0.773  1.9784 -0.0573 -1.5348
  401MPD2     N 6049   3.897   1.771   0.895  0.2515  0.7471  0.1705
  401MPD2    H5 6050   3.940   1.708   0.962  0.2881  0.8414  0.2352
  401MPD2    N1 6051   4.159   2.135   1.086 -0.4433  0.0954  0.0213
  401MPD2    H7 6052   4.211   2.065   1.137 -0.7479 -0.6792 -0.7467
  402TMC3    C1 6053   3.846   1.571   0.797  0.6508  0.4084  0.5733
  402TMC3    C2 6054   3.813   1.497   0.906 -0.0917 -0.5168 -0.6714
  402TMC3    C3 6055   3.796   1.362   0.897 -0.5866 -0.0920 -0.5012
  402TMC3    C4 6056   3.847   1.509   0.676 -0.4977  0.3919 -1.1962
  402TMC3    C5 6057   3.843   1.371   0.668  0.1171  0.2762  0.1645
  402TMC3    C6 6058   3.800   1.298   0.777 -0.3076  0.5273 -0.5470
  402TMC3     C 6059   3.840   1.712   0.783 -0.2494  0.3943  0.5769
  402TMC3     O 6060   3.822   1.762   0.669 -0.4480  0.1161  0.1625
  402TMC3     H 6061   3.802   1.546   1.002 -0.2500 -0.1991 -0.8524
  402TMC3    H1 6062   3.872   1.561   0.584  1.8438 -1.6010 -1.6866
  402TMC3    H2 6063   3.802   1.190   0.781 -1.1949  0.5500  0.5264
  402TMC3    C7 6064   3.932   1.297   0.579  0.8258 -0.1505 -0.8717
  402TMC3    C8 6065   3.828   1.277   1.013 -0.1193 -0.4462  0.3008
  402TMC3    O1 6066   3.949   1.337   0.465 -0.7450 -0.1600  0.2976
  402TMC3    O2 6067   3.911   1.192   0.993 -0.4232 -0.0474 -0.5041
  403MPD2     C 6068   1.644   4.369  12.855  0.1981 -0.5409 -0.2544
  403MPD2    C1 6069   1.667   4.402  12.992  0.5617 -0.4149 -0.3667
  403MPD2    C2 6070   1.780   4.476  13.037 -0.1406  0.3440  0.5589
  403MPD2    C3 6071   1.863   4.528  12.937 -0.4089 -0.5148  0.4685
  403MPD2    C4 6072   1.853   4.484  12.804 -0.1563 -0.1614  0.3505
  403MPD2    C5 6073   1.746   4.402  12.770  0.6794 -0.8455  0.2998
  403MPD2     H 6074   1.809   4.493  13.140 -1.6540 -1.4167  1.2892
  403MPD2    H1 6075   1.923   4.505  12.724 -1.9188  1.3639 -0.7841
  403MPD2    H2 6076   1.558   4.317  12.815 -1.0093  2.1940 -1.2384
  403MPD2    H3 6077   1.736   4.368  12.667  2.2869  1.5818 -0.6352
  403MPD2     N 6078   1.985   4.590  12.989  0.0435 -0.2635 -0.2721
  403MPD2    H5 6079   2.000   4.615  13.086 -0.1169 -3.1926  0.5015
  403MPD2    N1 6080   1.572   4.352  13.091 -0.1265 -1.0715 -0.3249
  403MPD2    H7 6081   1.496   4.296  13.053 -1.2775  0.1273  0.2023
  404TMC3    C1 6082   1.489   4.278  13.307  0.2532  0.4430 -0.5874
  404TMC3    C2 6083   1.526   4.282  13.437  0.4571 -0.0223  0.6565
  404TMC3    C3 6084   1.533   4.166  13.514 -0.3513 -0.6090  0.9774
  404TMC3    C4 6085   1.436   4.171  13.252  0.3879 -0.1219 -0.1839
  404TMC3    C5 6086   1.427   4.061  13.329 -0.3488  0.2693 -0.4310
  404TMC3    C6 6087   1.482   4.052  13.456  0.3743  0.0299 -0.1715
  404TMC3     C 6088   1.573   4.369  13.225 -1.0485 -0.2269 -0.3519
  404TMC3     O 6089   1.646   4.440  13.287  0.0610 -0.0718  0.1670
  404TMC3     H 6090   1.566   4.373  13.479 -1.0756  1.3807 -0.9336
  404TMC3    H1 6091   1.417   4.167  13.145  0.6145 -2.4441 -0.1245
  404TMC3    H2 6092   1.493   3.961  13.514 -0.4679 -0.7641 -1.2758
  404TMC3    C7 6093   1.387   3.945  13.256 -0.5759  0.9349 -0.1358
  404TMC3    C8 6094   1.638   4.161  13.609  0.2667 -0.1272 -0.1134
  404TMC3    O1 6095   1.419   3.839  13.304 -0.4005 -0.2546  0.2852
  404TMC3    O2 6096   1.728   4.237  13.582  0.0113 -0.3505  0.0870
  405MPD2     C 6097   2.413   0.711  14.311 -0.7908 -0.7328  0.1407
  405MPD2    C1 6098   2.395   0.607  14.405 -0.3323 -0.1473  0.8203
  405MPD2    C2 6099   2.271   0.545  14.410  0.5968 -0.7048 -0.4617
  405MPD2    C3 6100   2.175   0.580  14.320  0.0402  0.0288  0.5879
  405MPD2    C4 6101   2.192   0.681  14.221 -0.3298 -0.0106  0.2051
  405MPD2    C5 6102   2.319   0.738  14.220  0.7104 -0.2062 -0.2110
  405MPD2     H 6103   2.238   0.477  14.489 -1.1728 -0.9355 -1.3838
  405MPD2    H1 6104   2.129   0.708  14.137 -0.4799 -1.4362 -0.1315
  405MPD2    H2 6105   2.511   0.755  14.294 -0.5226 -0.8383  1.4112
  405MPD2    H3 6106   2.332   0.820  14.150 -3.4169 -0.0841 -0.8517
  405MPD2     N 6107   2.054   0.505  14.321 -0.4893  0.2815  0.0900
  405MPD2    H5 6108   2.030   0.451  14.404  0.1163 -1.4284 -0.8276
  405MPD2    N1 6109   2.498   0.581  14.497  0.3558 -0.5855 -0.8374
  405MPD2    H7 6110   2.579   0.642  14.493 -1.5575  2.0530  0.8152
  406TMC3    C1 6111   1.637   0.457  14.394  0.9338  0.4683  0.5091
  406TMC3    C2 6112   1.662   0.357  14.481  0.0841 -0.3327 -0.1243
  406TMC3    C3 6113   1.782   0.303  14.473  0.3128  0.0832  0.0150
  406TMC3    C4 6114   1.717   0.492  14.288 -0.0261 -0.1401 -0.8796
  406TMC3    C5 6115   1.839   0.435  14.287  0.0626  0.3897 -0.6095
  406TMC3    C6 6116   1.876   0.338  14.380 -0.0601 -0.3303 -0.6966
  406TMC3     C 6117   1.540   0.555  14.427 -0.7507 -0.0136 -0.4157
  406TMC3     O 6118   1.559   0.670  14.393 -0.5959  0.2090 -0.4440
  406TMC3     H 6119   1.598   0.338  14.567 -1.0473 -2.8309 -1.5270
  406TMC3    H1 6120   1.692   0.576  14.224  2.4073  1.3423  0.1151
  406TMC3    H2 6121   1.967   0.282  14.359  1.6557  1.8933  0.7549
  406TMC3    C7 6122   1.943   0.521  14.243  0.9101  0.1642 -0.1880
  406TMC3    C8 6123   1.827   0.232  14.594 -0.1874  0.9511 -0.2052
  406TMC3    O1 6124   1.918   0.596  14.153 -0.1754  0.3546  0.4594
  406TMC3    O2 6125   1.738   0.211  14.675 -0.2081 -0.2300  0.2610
  407MPD2     C 6126   0.233   2.320   9.537 -0.1262 -0.1325  0.2096
  407MPD2    C1 6127   0.317   2.261   9.625  0.5047 -0.4145  0.3776
  407MPD2    C2 6128   0.381   2.336   9.721 -0.5068 -0.1523 -0.2272
  407MPD2    C3 6129   0.343   2.463   9.740 -0.5036  0.0836 -0.2757
  407MPD2    C4 6130   0.247   2.522   9.657 -0.2850 -0.0010  0.4711
  407MPD2    C5 6131   0.200   2.451   9.555 -0.4962 -0.3741 -0.2374
  407MPD2     H 6132   0.464   2.298   9.779  1.2913  0.1437 -2.6131
  407MPD2    H1 6133   0.211   2.624   9.664 -0.8748 -0.1041 -1.1106
  407MPD2    H2 6134   0.193   2.263   9.455  0.0036 -1.6969  1.2364
  407MPD2    H3 6135   0.139   2.508   9.486 -0.7168  2.5749  2.4287
  407MPD2     N 6136   0.402   2.548   9.835 -0.9205  0.1476  0.0733
  407MPD2    H5 6137   0.375   2.646   9.833 -3.2184 -0.5072 -0.2690
  407MPD2    N1 6138   0.372   2.133   9.606 -0.0780  0.4257  0.4934
  407MPD2    H7 6139   0.458   2.110   9.656  1.7287  0.7985 -2.4162
  408TMC3    C1 6140   0.408   1.919   9.510  0.2004  0.1970 -0.9722
  408TMC3    C2 6141   0.546   1.925   9.515 -0.5800 -0.0118  0.3906
  408TMC3    C3 6142   0.621   1.806   9.504 -0.7572  0.4796  0.5122
  408TMC3    C4 6143   0.341   1.800   9.489 -0.4339  0.6924  0.8508
  408TMC3    C5 6144   0.424   1.685   9.499  0.4644  0.6757  0.1774
  408TMC3    C6 6145   0.564   1.681   9.517 -0.3613 -0.3480 -0.1476
  408TMC3     C 6146   0.326   2.041   9.508 -0.7384 -0.2712 -0.7717
  408TMC3     O 6147   0.219   2.029   9.452 -0.2593 -0.6694  0.1510
  408TMC3     H 6148   0.591   2.023   9.521  1.6263 -1.0640  0.8616
  408TMC3    H1 6149   0.234   1.805   9.479 -0.3487  1.1975  0.1930
  408TMC3    H2 6150   0.615   1.589   9.490  1.6542  0.9101 -0.6672
  408TMC3    C7 6151   0.351   1.578   9.556 -0.1524 -0.1994  0.0132
  408TMC3    C8 6152   0.762   1.818   9.527 -0.2770  0.4341  0.0528
  408TMC3    O1 6153   0.229   1.577   9.534  0.0751 -0.0960  0.7910
  408TMC3    O2 6154   0.829   1.719   9.565 -0.5143  0.2412 -0.1193
  409MPD2     C 6155   4.353   2.986  17.025 -0.5141  0.6899 -0.1014
  409MPD2    C1 6156   4.457   2.977  17.115 -0.1838  0.2488  0.2627
  409MPD2    C2 6157   4.569   3.051  17.090 -0.2822  0.1099 -0.6504
  409MPD2    C3 6158   4.583   3.138  16.983 -0.2642 -0.0960 -0.3622
  409MPD2    C4 6159   4.473   3.149  16.899 -0.1897 -0.1871  0.1182
  409MPD2    C5 6160   4.364   3.078  16.923  0.3077 -0.4067  0.1304
  409MPD2     H 6161   4.657   3.025  17.148 -0.1200  0.7465 -0.6063
  409MPD2    H1 6162   4.481   3.213  16.811 -0.0369  0.2222  0.4313
  409MPD2    H2 6163   4.262   2.930  17.042 -0.3645  0.4402 -0.1335
  409MPD2    H3 6164   4.284   3.071  16.851  0.4392  0.2777 -0.0852
  409MPD2     N 6165   4.708   3.202  16.952 -0.4398  0.0200 -0.1439
  409MPD2    H5 6166   4.723   3.250  16.864 -0.5394  1.9021  0.8702
  409MPD2    N1 6167   4.456   2.896  17.229 -0.2701 -0.1158  0.3961
  409MPD2    H7 6168   4.541   2.879  17.281  0.7834  0.1847 -1.1989
  410TMC3    C1 6169   0.185   3.288  16.966 -0.0140  0.0292  0.1638
  410TMC3    C2 6170   0.281   3.321  17.052 -0.6926 -0.3102  0.0163
  410TMC3    C3 6171   0.380   3.406  17.006  0.0524 -0.0426 -0.6463
  410TMC3    C4 6172   0.185   3.321  16.835  0.2129  0.2971 -0.8729
  410TMC3    C5 6173   0.288   3.403  16.795  0.8179  0.2461 -0.6671
  410TMC3    C6 6174   0.383   3.454  16.878  0.5161  0.5984  0.9952
  410TMC3     C 6175   0.086   3.197  17.024 -0.2027 -1.1920 -0.5133
  410TMC3     O 6176   0.116   3.141  17.130 -0.5331 -0.3118  0.3680
  410TMC3     H 6177   0.272   3.299  17.158  3.1094  1.1450  0.6290
  410TMC3    H1 6178   0.122   3.268  16.764  0.0859 -0.0167 -0.5246
  410TMC3    H2 6179   0.470   3.504  16.838  0.8445  1.0229  2.2357
  410TMC3    C7 6180   0.315   3.414  16.655  0.1350 -0.1001  0.8003
  410TMC3    C8 6181   0.504   3.412  17.077 -0.5183 -0.2070 -0.0037
  410TMC3    O1 6182   0.274   3.331  16.580  0.1207  0.4149 -0.3942
  410TMC3    O2 6183   0.577   3.506  17.048  0.5046 -0.0019  0.6489
  411MPD2     C 6184   4.258   3.087  14.812 -0.1179  0.1596  0.2730
  411MPD2    C1 6185   4.267   3.211  14.757  0.3988  0.6368  0.3030
  411MPD2    C2 6186   4.219   3.244  14.634 -0.1220 -0.7371  0.1126
  411MPD2    C3 6187   4.150   3.151  14.572  0.5637 -0.3947  0.1930
  411MPD2    C4 6188   4.145   3.022  14.615 -0.2160 -0.0234 -0.1850
  411MPD2    C5 6189   4.201   2.988  14.737 -0.4145  0.0725  0.8358
  411MPD2     H 6190   4.221   3.344  14.594 -1.9731 -0.4447  0.7518
  411MPD2    H1 6191   4.090   2.942  14.568  1.9901 -2.1515  0.8383
  411MPD2    H2 6192   4.321   3.053  14.894  1.1334  0.4952 -0.5395
  411MPD2    H3 6193   4.214   2.886  14.772 -1.7025 -0.1155  0.7656
  411MPD2     N 6194   4.081   3.181  14.452 -0.0156 -0.6059  0.8025
  411MPD2    H5 6195   4.010   3.113  14.426  0.6193 -0.9352 -0.0786
  411MPD2    N1 6196   4.332   3.319  14.827 -0.4986 -0.5820 -0.8853
  411MPD2    H7 6197   4.356   3.404  14.778 -1.1157 -0.5285 -1.0845
  412TMC3    C1 6198   3.994   3.279  14.265 -0.0212 -0.3206 -0.7338
  412TMC3    C2 6199   3.991   3.380  14.172  0.2004 -0.2446 -0.0890
  412TMC3    C3 6200   3.901   3.374  14.072  0.1538  0.8608  0.1761
  412TMC3    C4 6201   3.926   3.163  14.239  0.5957  0.5157 -0.0013
  412TMC3    C5 6202   3.844   3.163  14.130 -0.4010 -0.3138 -0.1807
  412TMC3    C6 6203   3.819   3.271  14.047 -1.0087 -0.4630  0.1330
  412TMC3     C 6204   4.086   3.296  14.384  0.2824 -0.6896  0.1498
  412TMC3     O 6205   4.145   3.401  14.396 -0.1633  0.2697  0.0065
  412TMC3     H 6206   4.058   3.464  14.186 -0.7008  0.5473 -0.5677
  412TMC3    H1 6207   3.944   3.066  14.283 -0.6598  0.7446  1.0094
  412TMC3    H2 6208   3.755   3.266  13.959 -0.2272  0.3058 -0.4793
  412TMC3    C7 6209   3.833   3.039  14.057 -0.2164  0.3004 -0.9079
  412TMC3    C8 6210   3.955   3.435  13.951 -0.0189 -0.0295 -0.7336
  412TMC3    O1 6211   3.723   2.993  14.033 -0.7962 -0.4227 -0.4848
  412TMC3    O2 6212   4.067   3.478  13.969  1.1209  0.1655 -0.3236
  413MPD2     C 6213   1.538   1.830  15.321  0.1678  0.0310  0.0414
  413MPD2    C1 6214   1.427   1.773  15.248 -0.2098  0.1055 -0.4168
  413MPD2    C2 6215   1.450   1.740  15.115  0.3114 -0.4016 -0.8332
  413MPD2    C3 6216   1.576   1.747  15.065 -0.0990 -0.3306  0.3253
  413MPD2    C4 6217   1.677   1.799  15.136 -0.0326  0.0270 -0.0154
  413MPD2    C5 6218   1.656   1.847  15.261  0.2908 -0.5464  0.2516
  413MPD2     H 6219   1.369   1.682  15.071 -0.7926  1.3855 -1.1332
  413MPD2    H1 6220   1.782   1.784  15.113  0.0150  1.9927 -1.0932
  413MPD2    H2 6221   1.526   1.858  15.425  2.5373 -0.0444  0.3501
  413MPD2    H3 6222   1.748   1.869  15.314  0.4368  0.7523 -0.5486
  413MPD2     N 6223   1.599   1.693  14.933  0.1129 -0.0602 -0.5215
  413MPD2    H5 6224   1.521   1.637  14.898 -0.9478  1.9545 -1.3538
  413MPD2    N1 6225   1.301   1.772  15.309 -0.0742 -0.1754  0.9606
  413MPD2    H7 6226   1.301   1.800  15.407 -0.1384  1.1379  0.5889
  414TMC3    C1 6227   1.708   1.617  14.747  0.3476 -0.3552  0.9613
  414TMC3    C2 6228   1.681   1.484  14.751  0.2853  0.1085  0.4976
  414TMC3    C3 6229   1.672   1.423  14.631 -0.1233 -0.1928 -0.6790
  414TMC3    C4 6230   1.751   1.679  14.634  0.2982 -0.1790  0.4593
  414TMC3    C5 6231   1.747   1.606  14.521  0.0334  0.5837  0.2106
  414TMC3    C6 6232   1.695   1.483  14.513 -0.5997  0.1308  0.3105
  414TMC3     C 6233   1.712   1.702  14.859 -0.4085 -0.4876 -0.0009
  414TMC3     O 6234   1.801   1.781  14.887 -0.0240 -0.0549  0.0592
  414TMC3     H 6235   1.668   1.442  14.849 -2.5399  0.3783  0.2391
  414TMC3    H1 6236   1.768   1.786  14.633 -1.2281  0.0419 -0.6318
  414TMC3    H2 6237   1.686   1.424  14.423  0.0101  1.2980 -0.5135
  414TMC3    C7 6238   1.892   1.592  14.498  0.1868 -0.5380 -0.4347
  414TMC3    C8 6239   1.685   1.277  14.630 -0.2704  0.9305  0.2299
  414TMC3    O1 6240   1.958   1.678  14.555  0.0781  0.2397  0.4215
  414TMC3    O2 6241   1.654   1.220  14.737 -0.0446 -0.1557 -0.4781
  415TMC3    C1 6242   2.103   0.223   9.750  0.2958  0.0606 -0.3407
  415TMC3    C2 6243   2.201   0.258   9.660 -0.4804  0.9771  0.2125
  415TMC3    C3 6244   2.154   0.271   9.530 -0.5033  0.3975  0.3022
  415TMC3    C4 6245   1.978   0.184   9.720 -0.2390  0.6070 -0.5825
  415TMC3    C5 6246   1.940   0.175   9.585  0.6461 -0.2687  0.2758
  415TMC3    C6 6247   2.029   0.218   9.490  0.3450  0.4671 -0.0481
  415TMC3     C 6248   2.137   0.206   9.891  0.0310  0.0480 -0.1518
  415TMC3     O 6249   2.076   0.116   9.949 -0.1327 -0.2159 -0.3564
  415TMC3     H 6250   2.304   0.273   9.689 -0.3062  0.8309 -0.3206
  415TMC3    H1 6251   1.906   0.154   9.795  0.6320  1.4074  0.5760
  415TMC3    H2 6252   1.998   0.217   9.386 -0.0481  1.3362  0.0662
  415TMC3    C7 6253   1.861   0.065   9.537 -0.0082 -0.3388  0.2116
  415TMC3    C8 6254   2.247   0.300   9.430  0.6191 -0.5144  0.0805
  415TMC3    O1 6255   1.817   0.066   9.426  0.3560 -0.2562  0.2750
  415TMC3    O2 6256   2.241   0.257   9.316 -0.2306  0.0417  0.4465
  416MPD2     C 6257   4.281   3.294  11.309  0.0060  0.3051  0.2088
  416MPD2    C1 6258   4.158   3.291  11.245  0.6655  0.4656 -0.1307
  416MPD2    C2 6259   4.160   3.227  11.122  0.3769  0.2918 -0.5256
  416MPD2    C3 6260   4.281   3.167  11.072  0.5337 -0.0191  0.1595
  416MPD2    C4 6261   4.393   3.177  11.139 -0.7326  1.4846 -0.4000
  416MPD2    C5 6262   4.397   3.237  11.260  0.0633  0.3808  0.0681
  416MPD2     H 6263   4.065   3.214  11.071 -0.0733  0.5109  0.2616
  416MPD2    H1 6264   4.486   3.129  11.110 -0.4250  1.4062  0.7420
  416MPD2    H2 6265   4.294   3.354  11.399 -0.5633 -0.9692  1.1465
  416MPD2    H3 6266   4.489   3.255  11.313  0.2631  2.6989 -1.0444
  416MPD2     N 6267   4.278   3.085  10.951 -0.2899  0.1392  0.4653
  416MPD2    H5 6268   4.370   3.052  10.926 -0.1867  1.8605 -1.3990
  416MPD2    N1 6269   4.044   3.345  11.312 -0.4091  0.2136 -0.5451
  416MPD2    H7 6270   4.069   3.400  11.393  1.1452 -1.5493  0.1861
  417TMC3    C1 6271   3.824   3.412  11.354 -0.6068 -0.3882  0.2805
  417TMC3    C2 6272   3.832   3.404  11.488 -0.1274  0.4521 -0.2461
  417TMC3    C3 6273   3.732   3.470  11.557  0.3452  0.3183 -0.9737
  417TMC3    C4 6274   3.743   3.499  11.286 -0.2479 -0.5250 -0.3713
  417TMC3    C5 6275   3.649   3.564  11.358  0.3749  0.5863 -0.0293
  417TMC3    C6 6276   3.637   3.545  11.491  0.1828 -0.4868  0.1513
  417TMC3     C 6277   3.917   3.330  11.279 -0.5284  0.1754 -0.2559
  417TMC3     O 6278   3.866   3.273  11.182 -0.0751  0.4729 -0.2297
  417TMC3     H 6279   3.909   3.348  11.540 -2.4080 -2.6045 -0.1330
  417TMC3    H1 6280   3.756   3.506  11.178 -0.6354  2.9429 -0.2219
  417TMC3    H2 6281   3.550   3.588  11.540 -0.6396 -0.7644 -1.0482
  417TMC3    C7 6282   3.574   3.667  11.289  0.6311  0.1119  0.3286
  417TMC3    C8 6283   3.695   3.458  11.695 -0.2145  0.0107  0.3179
  417TMC3    O1 6284   3.634   3.723  11.198  0.0587 -0.4448  0.1294
  417TMC3    O2 6285   3.610   3.536  11.739 -0.3168  0.3847  0.0582
  418TMC3    C1 6286   2.804   0.538   0.055 -0.5006 -0.3608 -0.5544
  418TMC3    C2 6287   2.674   0.496   0.044  0.2477  0.6207 -0.3182
  418TMC3    C3 6288   2.611   0.441   0.145  0.2246  0.5072 -0.1236
  418TMC3    C4 6289   2.879   0.506   0.166  0.1899  0.0654  0.1452
  418TMC3    C5 6290   2.803   0.457   0.271  0.1400  0.7343  0.2402
  418TMC3    C6 6291   2.674   0.418   0.261  0.2180 -0.3715 -0.0042
  418TMC3     C 6292   2.871   0.549  17.677 -0.2892 -0.0898 -0.8145
  418TMC3     O 6293   2.811   0.621  17.599  0.3546  0.0940  0.2781
  418TMC3     H 6294   2.621   0.538  17.712 -2.2240 -1.3396  0.2569
  418TMC3    H1 6295   2.978   0.546   0.184 -0.0893  2.1826 -2.8984
  418TMC3    H2 6296   2.624   0.366   0.341 -0.6355  1.7760  0.8613
  418TMC3    C7 6297   2.865   0.367   0.366  0.0187 -0.5029 -0.2032
  418TMC3    C8 6298   2.517   0.337   0.116 -0.2248 -0.6096  0.4410
  418TMC3    O1 6299   2.807   0.260   0.385  0.1612 -0.6696 -0.1772
  418TMC3    O2 6300   2.421   0.352   0.042 -0.1987  0.2549 -0.4689
  419MPD2     C 6301   1.471   3.199  12.317  0.0522  0.4184 -0.0045
  419MPD2    C1 6302   1.353   3.264  12.284  0.4636  0.4537 -0.4051
  419MPD2    C2 6303   1.271   3.309  12.389  0.2630 -0.1840  1.2984
  419MPD2    C3 6304   1.290   3.266  12.517 -0.8361  0.5568 -0.5266
  419MPD2    C4 6305   1.402   3.194  12.547  0.4029  0.3332  0.1697
  419MPD2    C5 6306   1.485   3.159  12.442  0.2730  0.2190 -0.0976
  419MPD2     H 6307   1.187   3.372  12.362  0.8383  0.8645  1.9818
  419MPD2    H1 6308   1.423   3.163  12.648  1.5249  0.7824  0.0754
  419MPD2    H2 6309   1.546   3.164  12.247  0.3265  1.0530 -0.0202
  419MPD2    H3 6310   1.570   3.096  12.464  1.2360  2.3034  2.1981
  419MPD2     N 6311   1.194   3.310  12.615 -0.5176 -0.4823  0.6861
  419MPD2    H5 6312   1.110   3.352  12.576  0.2419  0.3545 -0.0492
  419MPD2    N1 6313   1.316   3.312  12.157  0.7619 -0.1244 -0.1513
  419MPD2    H7 6314   1.238   3.377  12.158  0.0023 -1.0024 -1.5495
  420TMC3    C1 6315   1.087   3.349  12.814 -0.6435  0.3819  0.9371
  420TMC3    C2 6316   0.993   3.422  12.741 -0.3348 -0.0437 -0.5177
  420TMC3    C3 6317   0.878   3.465  12.806  0.2301  0.4167  0.8735
  420TMC3    C4 6318   1.054   3.296  12.939 -0.3456  0.2215  0.8870
  420TMC3    C5 6319   0.939   3.346  12.997  0.2422  0.1829 -0.1484
  420TMC3    C6 6320   0.850   3.425  12.933 -0.1007  0.2031 -0.3296
  420TMC3     C 6321   1.211   3.298  12.752 -0.1171 -0.2759 -0.1015
  420TMC3     O 6322   1.308   3.266  12.816 -0.7553 -0.1721 -0.3215
  420TMC3     H 6323   1.005   3.454  12.638 -1.9739 -0.1430 -0.7388
  420TMC3    H1 6324   1.119   3.219  12.977 -0.1065 -0.0864 -0.1399
  420TMC3    H2 6325   0.751   3.454  12.966 -0.1205 -0.5133  0.2466
  420TMC3    C7 6326   0.917   3.310  13.138 -0.3614 -0.2529  0.6551
  420TMC3    C8 6327   0.807   3.575  12.745 -1.0859  0.7835 -0.4863
  420TMC3    O1 6328   0.992   3.224  13.178 -0.4364 -0.0751 -0.4403
  420TMC3    O2 6329   0.798   3.559  12.621  0.4656 -0.0878 -0.1511
  421TMC3    C1 6330   2.211   4.644  12.992 -0.2076  1.2048 -0.0190
  421TMC3    C2 6331   2.189   4.724  13.104  0.3569  0.6845  0.6151
  421TMC3    C3 6332   2.285   0.018  13.192  1.0130  0.0215 -0.3479
  421TMC3    C4 6333   2.330   4.579  12.975  0.3364 -0.0200 -0.0456
  421TMC3    C5 6334   2.425   4.608  13.074  0.8217 -0.5519  0.4269
  421TMC3    C6 6335   2.405   4.696  13.173 -0.5747 -0.4562  0.7579
  421TMC3     C 6336   2.100   4.595  12.913  0.6606  0.7947  0.0864
  421TMC3     O 6337   2.128   4.535  12.807 -0.1734  0.2350  0.3187
  421TMC3     H 6338   2.096   0.040  13.112 -1.1039 -1.6277 -0.5810
  421TMC3    H1 6339   2.347   4.512  12.892 -0.9574  0.8798 -1.0453
  421TMC3    H2 6340   2.489   4.721  13.237 -0.6949 -0.0804  0.7702
  421TMC3    C7 6341   2.561   4.554  13.074  0.6646  0.3640 -0.2326
  421TMC3    C8 6342   2.267   0.090  13.316  0.9769 -0.2987 -0.4244
  421TMC3    O1 6343   2.647   4.620  13.130  0.7058  0.1534  0.2292
  421TMC3    O2 6344   2.363   0.127  13.381  0.2643  0.2788 -0.0050
  422TMC3    C1 6345   4.294   1.774  12.191  0.1101 -0.1731 -0.3567
  422TMC3    C2 6346   4.354   1.893  12.178 -0.7760 -0.2668  0.7977
  422TMC3    C3 6347   4.305   2.009  12.234  0.3822 -0.1909  0.1035
  422TMC3    C4 6348   4.188   1.762  12.275  0.5150 -0.5572 -0.4903
  422TMC3    C5 6349   4.137   1.886  12.328  0.6922  0.7598 -0.2935
  422TMC3    C6 6350   4.196   2.007  12.315 -0.1404  0.2274 -0.3510
  422TMC3     C 6351   4.349   1.656  12.136  0.4045  0.5883  0.3000
  422TMC3     O 6352   4.472   1.660  12.118  0.0458  0.5206 -0.0523
  422TMC3     H 6353   4.435   1.895  12.106 -0.2632 -1.0205  1.3564
  422TMC3    H1 6354   4.132   1.669  12.282  0.1214 -0.1971  1.2249
  422TMC3    H2 6355   4.154   2.102  12.347  0.2158  1.1783 -2.7018
  422TMC3    C7 6356   3.997   1.892  12.355  0.2230 -0.7950  0.7265
  422TMC3    C8 6357   4.391   2.121  12.238  0.3362 -0.1810  0.1170
  422TMC3    O1 6358   3.941   1.984  12.308 -0.2702  0.6071 -0.0209
  422TMC3    O2 6359   4.403   2.183  12.343 -0.1981 -0.3374 -0.0002
  423MPD2     C 6360   2.122   2.904   0.152  0.0322  0.4459  0.3621
  423MPD2    C1 6361   1.997   2.880   0.190 -0.3885  0.2103  0.7633
  423MPD2    C2 6362   1.923   2.781   0.130 -0.1091 -0.1479  0.0900
  423MPD2    C3 6363   1.971   2.713   0.023 -0.1162  0.8247 -0.0283
  423MPD2    C4 6364   2.093   2.735  17.732  0.2111 -0.3402  0.6219
  423MPD2    C5 6365   2.174   2.827   0.048  0.3322  0.4802 -0.3323
  423MPD2     H 6366   1.829   2.756   0.178 -0.0294 -1.1354 -0.2822
  423MPD2    H1 6367   2.144   2.677  17.655  2.2031  2.8414 -0.4752
  423MPD2    H2 6368   2.193   2.976   0.190  0.7919 -0.6023  0.9284
  423MPD2    H3 6369   2.278   2.832   0.020 -0.0546  1.8559 -1.5713
  423MPD2     N 6370   1.897   2.603  17.709  0.2693 -0.2660 -0.0416
  423MPD2    H5 6371   1.942   2.556  17.631 -2.0491 -0.7643 -1.0678
  423MPD2    N1 6372   1.961   2.940   0.318 -0.3747  0.3578  0.1277
  423MPD2    H7 6373   1.874   2.904   0.354 -0.5933 -0.7139 -1.4290
  424TMC3    C1 6374   1.957   3.045   0.525  0.4568 -0.8285  0.1923
  424TMC3    C2 6375   1.943   2.931   0.598  0.1765 -0.8408  0.2461
  424TMC3    C3 6376   1.834   2.914   0.680  0.3932 -0.7030  0.4028
  424TMC3    C4 6377   1.859   3.140   0.531  0.1731  0.7047  0.2736
  424TMC3    C5 6378   1.752   3.117   0.609  0.3319 -0.2949  0.1502
  424TMC3    C6 6379   1.733   3.008   0.686  0.2648  0.3396 -0.0905
  424TMC3     C 6380   2.026   3.028   0.397 -0.4664  0.4204 -0.9998
  424TMC3     O 6381   2.118   3.107   0.381  0.0006  0.0044  0.3008
  424TMC3     H 6382   2.025   2.860   0.591  1.0225  0.2685 -1.1025
  424TMC3    H1 6383   1.865   3.219   0.457 -0.0431 -0.2941 -0.7996
  424TMC3    H2 6384   1.641   2.986   0.739  0.8013  1.1465  1.1682
  424TMC3    C7 6385   1.643   3.215   0.608 -0.2311 -0.1365  0.0385
  424TMC3    C8 6386   1.825   2.787   0.747 -0.9570 -0.4079  0.3360
  424TMC3    O1 6387   1.647   3.295   0.513 -0.3277  0.1894  0.6962
  424TMC3    O2 6388   1.873   2.687   0.696  0.3950  0.0587 -0.4187
  425MPD2     C 6389   0.658   1.736  17.528 -0.2190  0.9218 -0.7278
  425MPD2    C1 6390   0.554   1.676  17.455 -0.1026 -0.2871  0.2669
  425MPD2    C2 6391   0.427   1.731  17.451  0.5621 -0.1898 -0.4644
  425MPD2    C3 6392   0.403   1.842  17.527  0.1965 -0.1351  0.5266
  425MPD2    C4 6393   0.503   1.900  17.603 -0.6464  0.0298  0.6668
  425MPD2    C5 6394   0.632   1.852  17.596  0.2154  0.1368  0.2959
  425MPD2     H 6395   0.346   1.699  17.387  0.6936  0.9710 -1.2135
  425MPD2    H1 6396   0.477   1.980  17.671 -0.5279 -1.3913  2.3742
  425MPD2    H2 6397   0.760   1.700  17.523  0.0870  1.6710 -0.0560
  425MPD2    H3 6398   0.708   1.877  17.669 -0.3941 -0.2969  1.0712
  425MPD2     N 6399   0.269   1.902  17.520 -0.0821 -0.3098  0.2922
  425MPD2    H5 6400   0.208   1.872  17.445 -1.8235  1.2468  1.0942
  425MPD2    N1 6401   0.585   1.567  17.382  0.0732  0.3865  0.1990
  425MPD2    H7 6402   0.675   1.532  17.414  0.4906 -0.0428 -1.4449
  426TMC3    C1 6403   0.567   1.384  17.221  0.7698 -0.2433 -0.7435
  426TMC3    C2 6404   0.546   1.352  17.088  0.5654  0.5449  0.1102
  426TMC3    C3 6405   0.626   1.251  17.043  0.7827  0.0189 -0.7030
  426TMC3    C4 6406   0.633   1.306  17.313 -0.3995 -0.4151  0.4580
  426TMC3    C5 6407   0.706   1.201  17.258 -0.3875 -0.4064 -0.0278
  426TMC3    C6 6408   0.711   1.176  17.122 -0.0054 -0.0305  0.2760
  426TMC3     C 6409   0.504   1.505  17.283  0.8193 -0.9048 -0.5202
  426TMC3     O 6410   0.402   1.545  17.230 -0.1559 -0.2384  0.3735
  426TMC3     H 6411   0.482   1.412  17.024  2.1768  0.7290 -1.3243
  426TMC3    H1 6412   0.638   1.325  17.420  0.5337 -0.2986  0.3903
  426TMC3    H2 6413   0.764   1.092  17.078  0.8136  1.2946 -1.2521
  426TMC3    C7 6414   0.767   1.107  17.346  0.8075  0.0949  0.5934
  426TMC3    C8 6415   0.609   1.189  16.905 -0.6119 -0.7931 -0.2716
  426TMC3    O1 6416   0.865   1.050  17.294 -0.3405  0.2901 -0.4978
  426TMC3    O2 6417   0.707   1.138  16.854 -0.1068 -0.1259 -0.4881
  427MPD2     C 6418   3.906   3.561  15.151  0.0770  0.0310 -0.4611
  427MPD2    C1 6419   3.869   3.578  15.282  0.7548 -0.0978  0.1671
  427MPD2    C2 6420   3.742   3.636  15.308  0.0686 -0.1386 -0.1016
  427MPD2    C3 6421   3.652   3.665  15.204  0.6105 -0.2851  0.4295
  427MPD2    C4 6422   3.695   3.660  15.074  0.1072  0.5137 -0.8850
  427MPD2    C5 6423   3.822   3.602  15.052  1.2938 -0.0996  0.6022
  427MPD2     H 6424   3.703   3.645  15.409 -2.4130 -3.9441 -0.7195
  427MPD2    H1 6425   3.634   3.682  14.987  0.2622  1.3517 -0.7757
  427MPD2    H2 6426   4.007   3.530  15.128  0.1693  1.5087 -2.0710
  427MPD2    H3 6427   3.862   3.595  14.951 -2.3446 -0.4821 -0.8365
  427MPD2     N 6428   3.518   3.705  15.232  0.5508 -0.0886 -0.7775
  427MPD2    H5 6429   3.466   3.747  15.156  0.5872 -1.3500 -1.4954
  427MPD2    N1 6430   3.941   3.544  15.394 -0.2011 -0.1425  0.3526
  427MPD2    H7 6431   3.912   3.581  15.483 -0.5154 -0.2317  0.2856
  428TMC3    C1 6432   4.100   3.433  15.525  0.2975  0.6705 -0.2126
  428TMC3    C2 6433   4.017   3.352  15.606 -0.8455  0.1319  0.3698
  428TMC3    C3 6434   4.061   3.316  15.730 -1.2115 -0.1126 -0.4124
  428TMC3    C4 6435   4.229   3.450  15.561 -0.0097  0.4914 -0.1039
  428TMC3    C5 6436   4.274   3.414  15.687  0.0996  0.6226 -0.2155
  428TMC3    C6 6437   4.183   3.356  15.773 -0.4666 -0.4582  0.7204
  428TMC3     C 6438   4.058   3.467  15.390 -0.0107  0.2903 -0.1107
  428TMC3     O 6439   4.125   3.439  15.294 -0.8625 -0.0527  0.1197
  428TMC3     H 6440   3.922   3.322  15.564 -0.9587  1.6504 -0.4400
  428TMC3    H1 6441   4.291   3.504  15.490 -0.5829  1.1821 -0.0742
  428TMC3    H2 6442   4.208   3.330  15.875  0.1453 -0.8735  0.4661
  428TMC3    C7 6443   4.406   3.460  15.742  0.9473 -0.0972 -0.1994
  428TMC3    C8 6444   3.997   3.201  15.796  0.2160  0.0004  0.0977
  428TMC3    O1 6445   4.421   3.451  15.862 -0.1604 -0.0883 -0.6081
  428TMC3    O2 6446   4.057   3.155  15.892 -0.1236 -0.1874 -0.4282
  429MPD2     C 6447   0.364   4.016   0.045 -0.1898  0.4318 -0.2614
  429MPD2    C1 6448   0.437   3.919  17.733 -0.4987 -1.3179 -0.0657
  429MPD2    C2 6449   0.509   3.954  17.620 -0.5257 -0.1802  0.2646
  429MPD2    C3 6450   0.504   4.086  17.556 -0.1109  0.2505  0.0549
  429MPD2    C4 6451   0.420   4.178  17.617 -0.1436  0.5887 -0.9300
  429MPD2    C5 6452   0.358   4.145  17.742 -0.3304 -0.7676  0.3470
  429MPD2     H 6453   0.581   3.889  17.572 -0.9217  0.2896 -0.9500
  429MPD2    H1 6454   0.412   4.281  17.584  1.3826  1.4063  1.2536
  429MPD2    H2 6455   0.311   4.001   0.139 -2.3152 -0.8149 -1.6505
  429MPD2    H3 6456   0.299   4.220   0.041 -0.1880 -1.7407  1.9399
  429MPD2     N 6457   0.578   4.105  17.434  0.8977  0.5186 -0.1773
  429MPD2    H5 6458   0.620   4.021  17.395  0.0415 -0.6088  1.3108
  429MPD2    N1 6459   0.436   3.778   0.015  0.2229  0.4235  0.3194
  429MPD2    H7 6460   0.495   3.712  17.718  0.2398 -0.5117  1.5862
  430TMC3    C1 6461   0.684   4.214  17.258 -0.1013  0.2015  0.4073
  430TMC3    C2 6462   0.695   4.318  17.172  0.1264 -0.2019  0.2369
  430TMC3    C3 6463   0.773   4.306  17.059 -0.1269  0.3608 -0.2017
  430TMC3    C4 6464   0.765   4.102  17.252  0.1759  0.3644  0.2745
  430TMC3    C5 6465   0.849   4.090  17.143  0.1926 -0.1862  0.8104
  430TMC3    C6 6466   0.856   4.197  17.054 -0.4340 -0.0636 -0.5406
  430TMC3     C 6467   0.581   4.216  17.361  0.1334  0.4513 -0.8842
  430TMC3     O 6468   0.545   4.331  17.385  0.2327  0.2436  0.2894
  430TMC3     H 6469   0.645   4.413  17.187 -0.0081 -0.6044  2.3875
  430TMC3    H1 6470   0.786   4.034  17.334  0.9484 -0.6485 -0.7737
  430TMC3    H2 6471   0.921   4.196  16.968  0.4088  1.4067  0.0886
  430TMC3    C7 6472   0.839   3.966  17.077 -0.0856 -0.2109 -0.1540
  430TMC3    C8 6473   0.722   4.353  16.930  0.1825 -0.5730 -0.1288
  430TMC3    O1 6474   0.824   3.865  17.143 -0.6986 -0.2711  0.1983
  430TMC3    O2 6475   0.744   4.284  16.826  0.1044 -0.3696 -0.1212
  431MPD2     C 6476   0.614   3.556  12.126  0.9817  0.5020 -0.0084
  431MPD2    C1 6477   0.726   3.634  12.131  0.0938  0.2777 -0.5431
  431MPD2    C2 6478   0.837   3.602  12.051 -0.1631  0.1396  0.2338
  431MPD2    C3 6479   0.831   3.498  11.956  0.2991 -0.6645  0.2233
  431MPD2    C4 6480   0.713   3.417  11.954  0.1251 -0.2204  0.0447
  431MPD2    C5 6481   0.608   3.451  12.034  0.3509  0.3343 -0.0849
  431MPD2     H 6482   0.928   3.660  12.054 -0.6518  0.8115  1.8452
  431MPD2    H1 6483   0.709   3.326  11.895  0.7376 -1.1558  1.4499
  431MPD2    H2 6484   0.527   3.565  12.190  1.5972  1.7062  0.6610
  431MPD2    H3 6485   0.520   3.388  12.038  1.1377 -0.5245  3.6469
  431MPD2     N 6486   0.941   3.455  11.879  0.6600 -0.4437  0.1485
  431MPD2    H5 6487   0.970   3.358  11.878 -0.5494 -0.7830 -1.6092
  431MPD2    N1 6488   0.739   3.721  12.246 -0.0582  0.8442 -0.2894
  431MPD2    H7 6489   0.653   3.734  12.298  1.0712  1.0235  1.5529
  432TMC3    C1 6490   1.163   3.486  11.823 -0.1122 -0.3620  0.4563
  432TMC3    C2 6491   1.255   3.560  11.757 -0.3006  0.2504  0.4863
  432TMC3    C3 6492   1.389   3.524  11.763 -0.6712  0.0517 -0.0054
  432TMC3    C4 6493   1.197   3.390  11.910  0.3235 -0.7144 -0.3589
  432TMC3    C5 6494   1.329   3.356  11.915 -0.0109 -0.7111 -0.3583
  432TMC3    C6 6495   1.425   3.416  11.835 -0.0375  0.1354  0.4045
  432TMC3     C 6496   1.032   3.550  11.837  0.3020  0.1648 -0.0778
  432TMC3     O 6497   1.019   3.671  11.832 -0.2233  0.3706  0.2631
  432TMC3     H 6498   1.235   3.652  11.702 -0.2115  0.0327  0.0909
  432TMC3    H1 6499   1.128   3.356  11.986  1.3634  2.2506  1.8969
  432TMC3    H2 6500   1.525   3.376  11.828 -0.8455 -1.6359 -0.7823
  432TMC3    C7 6501   1.382   3.283  12.039 -0.6014 -0.5277  0.5890
  432TMC3    C8 6502   1.484   3.596  11.687 -0.3946 -0.2389 -0.0511
  432TMC3    O1 6503   1.481   3.216  12.018 -0.0013  0.3596  0.1461
  432TMC3    O2 6504   1.460   3.710  11.654 -0.4878 -0.1637  0.0864
  433MPD2     C 6505   0.319   2.747  10.703  0.5260  0.3404 -0.6708
  433MPD2    C1 6506   0.212   2.657  10.708  0.1129  0.6302 -0.0731
  433MPD2    C2 6507   0.137   2.640  10.828  0.3711  0.1559 -0.1303
  433MPD2    C3 6508   0.185   2.701  10.939  0.6636  0.5975  0.9482
  433MPD2    C4 6509   0.287   2.790  10.925 -0.0895 -0.3008  0.3201
  433MPD2    C5 6510   0.352   2.816  10.810  0.2609  0.1097  0.2218
  433MPD2     H 6511   0.062   2.562  10.827 -0.6929  1.1833 -0.7626
  433MPD2    H1 6512   0.320   2.827  11.021  0.9252  0.1193 -0.1956
  433MPD2    H2 6513   0.377   2.767  10.614 -0.4030 -2.7184 -1.9496
  433MPD2    H3 6514   0.443   2.874  10.822  0.8031 -1.5209  3.7867
  433MPD2     N 6515   0.129   2.657  11.068  0.2367 -0.7618 -0.0801
  433MPD2    H5 6516   0.088   2.565  11.068 -2.7731  0.5646 -1.4459
  433MPD2    N1 6517   0.190   2.578  10.591 -0.0004 -0.2699 -0.3938
  433MPD2    H7 6518   0.273   2.566  10.535 -0.0314  0.7172 -0.6453
  434TMC3    C1 6519   0.090   2.394  10.484  0.1822  0.0454 -0.1368
  434TMC3    C2 6520   0.194   2.311  10.520 -0.2712  0.0173  0.0219
  434TMC3    C3 6521   0.190   2.175  10.492  0.1132  0.0970 -0.5099
  434TMC3    C4 6522   4.719   2.338  10.435 -0.4287 -0.2722  0.2762
  434TMC3    C5 6523   4.720   2.209  10.393 -0.1585  0.1070  0.2307
  434TMC3    C6 6524   0.090   2.124  10.414  0.4121  0.3164 -0.5571
  434TMC3     C 6525   0.072   2.504  10.579 -0.1407 -0.1212 -0.3396
  434TMC3     O 6526   4.701   2.529  10.623 -0.0519  0.0737 -0.0445
  434TMC3     H 6527   0.273   2.342  10.587  0.1623 -0.8365 -0.0979
  434TMC3    H1 6528   4.627   2.392  10.418 -0.0368  0.1011 -0.6509
  434TMC3    H2 6529   0.097   2.025  10.370 -1.0375 -0.4991  1.0215
  434TMC3    C7 6530   4.587   2.145  10.390  0.0036  0.1970 -0.8156
  434TMC3    C8 6531   0.254   2.082  10.588  0.3931 -0.2336 -0.5671
  434TMC3    O1 6532   4.484   2.211  10.374  0.2654 -0.2657  0.4951
  434TMC3    O2 6533   0.193   1.980  10.606 -0.6045 -0.2435 -0.8566
  435MPD2     C 6534   1.628   2.500  15.206 -0.4801 -0.1214  0.5825
  435MPD2    C1 6535   1.599   2.492  15.342 -0.0365 -0.2075 -0.2269
  435MPD2    C2 6536   1.695   2.475  15.436  0.0757 -0.1712 -0.1024
  435MPD2    C3 6537   1.823   2.438  15.400 -0.7945 -0.9432  0.5649
  435MPD2    C4 6538   1.857   2.471  15.271 -0.2376  0.3646  0.3422
  435MPD2    C5 6539   1.762   2.497  15.179 -1.2268  0.0635  0.3249
  435MPD2     H 6540   1.669   2.469  15.541  0.4084 -0.8395 -0.0579
  435MPD2    H1 6541   1.959   2.458  15.237 -1.4613 -1.5564 -2.5806
  435MPD2    H2 6542   1.556   2.511  15.126 -2.8328  0.0647  2.7363
  435MPD2    H3 6543   1.793   2.514  15.076  0.4541  1.0448  0.9890
  435MPD2     N 6544   1.911   2.407  15.508  0.2260  0.2073 -0.1163
  435MPD2    H5 6545   1.857   2.364  15.582  2.2074 -3.0894 -0.5876
  435MPD2    N1 6546   1.464   2.500  15.393 -0.0376  0.0153 -0.1108
  435MPD2    H7 6547   1.456   2.502  15.494  1.3446  3.2624 -0.0876
  436TMC3    C1 6548   1.111   2.418  15.565 -0.9564  0.5781  0.3467
  436TMC3    C2 6549   1.232   2.434  15.511 -0.8592  0.2782  0.0879
  436TMC3    C3 6550   1.234   2.505  15.392 -0.2423 -0.6653 -0.2881
  436TMC3    C4 6551   1.000   2.484  15.529  0.6894  0.4332  0.8067
  436TMC3    C5 6552   1.005   2.547  15.404  0.5355  0.5492  0.8190
  436TMC3    C6 6553   1.120   2.552  15.327  0.8778  0.0645  0.6021
  436TMC3     C 6554   1.101   2.303  15.648  0.6801  0.3384 -0.0676
  436TMC3     O 6555   1.182   2.214  15.629  0.4497  0.0781 -0.4111
  436TMC3     H 6556   1.319   2.381  15.548 -1.4362  0.4109  1.6577
  436TMC3    H1 6557   0.906   2.467  15.581 -0.2908 -0.5479 -1.2865
  436TMC3    H2 6558   1.136   2.609  15.236  1.3360  0.2902  0.8211
  436TMC3    C7 6559   0.883   2.594  15.339  0.6982 -0.4777 -0.2646
  436TMC3    C8 6560   1.355   2.511  15.313  0.1177 -0.1379  0.1613
  436TMC3    O1 6561   0.901   2.669  15.243 -0.1487 -0.1530 -0.2190
  436TMC3    O2 6562   1.349   2.547  15.195  0.2113 -0.2762 -0.0722
  437TMC3    C1 6563   4.679   3.872  13.320  0.1779  0.0808 -0.3642
  437TMC3    C2 6564   4.560   3.872  13.393  0.2135 -0.2228 -0.0510
  437TMC3    C3 6565   4.474   3.974  13.365  0.8575 -0.5985  0.5713
  437TMC3    C4 6566   4.720   3.981  13.252  0.0046  0.3098 -0.3313
  437TMC3    C5 6567   4.635   4.088  13.236 -1.2474 -0.0014 -0.0152
  437TMC3    C6 6568   4.511   4.080  13.287  0.0615  0.3232  0.4553
  437TMC3     C 6569   0.031   3.757  13.328  0.1088 -0.1108 -0.0870
  437TMC3     O 6570   0.018   3.689  13.428  0.4379 -0.2914  0.0756
  437TMC3     H 6571   4.542   3.786  13.455 -1.9680  0.6976  0.5766
  437TMC3    H1 6572   0.081   3.977  13.209 -0.1779  1.6790 -0.8635
  437TMC3    H2 6573   4.445   4.163  13.264 -1.2008 -0.7851  0.0841
  437TMC3    C7 6574   4.672   4.185  13.136  0.4242  0.2185  0.2398
  437TMC3    C8 6575   4.337   3.964  13.393 -0.6912  0.3124 -0.4745
  437TMC3    O1 6576   4.588   4.251  13.078 -0.3948  0.4643 -0.7762
  437TMC3    O2 6577   4.272   4.063  13.360 -0.4287 -0.0640  0.3851
  438MPD2     C 6578   2.926   0.593  16.621  0.5294 -0.4806 -0.4886
  438MPD2    C1 6579   2.974   0.481  16.676 -0.1181  0.2137  1.1885
  438MPD2    C2 6580   2.955   0.442  16.808  0.3312  0.0542  0.7485
  438MPD2    C3 6581   2.859   0.510  16.880  0.2926  0.2734 -0.1219
  438MPD2    C4 6582   2.803   0.623  16.824  0.6936 -0.4743 -0.2213
  438MPD2    C5 6583   2.830   0.659  16.692  0.1255 -0.3787  0.1578
  438MPD2     H 6584   3.007   0.354  16.843 -0.3559 -0.0006  1.6497
  438MPD2    H1 6585   2.725   0.675  16.878  0.3389 -1.7776  0.5246
  438MPD2    H2 6586   2.953   0.630  16.523  0.4071  0.0546 -0.3191
  438MPD2    H3 6587   2.785   0.743  16.641  0.4144 -0.1648  0.2535
  438MPD2     N 6588   2.823   0.476  17.010 -0.1503  0.2020 -0.1018
  438MPD2    H5 6589   2.761   0.546  17.051  0.6515  1.6818 -1.4001
  438MPD2    N1 6590   3.075   0.410  16.607 -0.6044 -0.5901  0.0276
  438MPD2    H7 6591   3.131   0.345  16.661 -1.6476 -0.1120  1.6710
  439TMC3    C1 6592   3.221   0.341  16.454 -0.2145  0.8992  0.1581
  439TMC3    C2 6593   3.208   0.248  16.355 -0.3575  0.5208  0.3770
  439TMC3    C3 6594   3.275   0.133  16.373  0.4447  0.3165 -0.1561
  439TMC3    C4 6595   3.300   0.317  16.560 -0.3136  0.0223  0.1388
  439TMC3    C5 6596   3.341   0.190  16.582 -0.3917  0.5607  0.0018
  439TMC3    C6 6597   3.317   0.094  16.493 -0.0264  0.0802  0.3352
  439TMC3     C 6598   3.105   0.418  16.472 -0.3776  0.2707  0.2757
  439TMC3     O 6599   3.049   0.485  16.384  0.1537 -0.1686 -0.2445
  439TMC3     H 6600   3.145   0.268  16.269  1.4745 -2.8117 -1.7069
  439TMC3    H1 6601   3.329   0.397  16.627  1.6745 -0.4044 -0.1946
  439TMC3    H2 6602   3.351   4.731  16.509 -1.0484 -0.0489  1.7622
  439TMC3    C7 6603   3.480   0.188  16.627  0.3353 -0.2194  0.3667
  439TMC3    C8 6604   3.367   0.088  16.270 -0.5783  0.4766  0.1186
  439TMC3    O1 6605   3.515   0.268  16.710  0.1469 -0.0373 -0.3263
  439TMC3    O2 6606   3.448   0.004  16.302  0.5152  0.7057  0.4911
  440MPD2     C 6607   1.019   0.725  15.194 -0.1444  0.2425 -0.1998
  440MPD2    C1 6608   1.068   0.783  15.077 -0.4201  0.2204 -0.1441
  440MPD2    C2 6609   1.183   0.724  15.019  0.0467 -0.3503 -0.5578
  440MPD2    C3 6610   1.235   0.605  15.068  0.4038 -0.9942  0.5161
  440MPD2    C4 6611   1.173   0.555  15.179  0.3212 -0.4915  0.3315
  440MPD2    C5 6612   1.061   0.611  15.239 -0.6382 -0.7392 -0.3179
  440MPD2     H 6613   1.224   0.765  14.927 -0.8961  1.5692 -0.1101
  440MPD2    H1 6614   1.203   0.462  15.226 -0.1787 -0.3865  0.8613
  440MPD2    H2 6615   0.943   0.774  15.254  1.8907  2.5362  0.4836
  440MPD2    H3 6616   1.024   0.574  15.334 -1.7746  1.0965 -0.0475
  440MPD2     N 6617   1.349   0.542  15.010 -0.4556  0.6576  0.0876
  440MPD2    H5 6618   1.379   0.452  15.047 -0.9211  0.3565 -0.2661
  440MPD2    N1 6619   1.014   0.901  15.013  0.0221  0.1947  0.1515
  440MPD2    H7 6620   1.060   0.941  14.931 -0.4840  1.1866  0.3454
  441TMC3    C1 6621   1.521   0.508  14.858  0.9542  0.0339  0.3770
  441TMC3    C2 6622   1.589   0.581  14.767  0.0370 -0.0442  0.1803
  441TMC3    C3 6623   1.724   0.556  14.769 -0.2527 -0.2288  0.4029
  441TMC3    C4 6624   1.580   0.426  14.954 -0.6074  0.3275 -0.0521
  441TMC3    C5 6625   1.718   0.410  14.950  0.5134  0.4896  0.4446
  441TMC3    C6 6626   1.793   0.471  14.852 -0.2906 -0.6108 -0.1067
  441TMC3     C 6627   1.411   0.587  14.896  0.5032 -0.3238 -0.2927
  441TMC3     O 6628   1.398   0.687  14.832 -0.2760  0.1901  0.0341
  441TMC3     H 6629   1.540   0.642  14.692 -0.7637 -0.3128  0.4923
  441TMC3    H1 6630   1.525   0.369  15.027  0.0267  0.1345  0.2688
  441TMC3    H2 6631   1.896   0.449  14.829 -0.1255 -0.0132  0.0853
  441TMC3    C7 6632   1.765   0.323  15.057  0.1921  0.6175  0.8964
  441TMC3    C8 6633   1.800   0.636  14.675 -0.8439 -0.2279  0.2526
  441TMC3    O1 6634   1.685   0.249  15.110  0.6791 -0.2415  0.0004
  441TMC3    O2 6635   1.885   0.575  14.616 -0.0902 -0.5231  0.2663
  442MPD2     C 6636   4.692   0.859  16.683  0.4884 -0.2024  0.4398
  442MPD2    C1 6637   4.604   0.907  16.593  0.3027 -0.3557  0.3053
  442MPD2    C2 6638   4.589   0.836  16.471  0.1898 -0.3480 -0.1204
  442MPD2    C3 6639   4.660   0.722  16.443  0.3296 -0.6216 -0.1976
  442MPD2    C4 6640   0.015   0.682  16.530 -0.4445  0.2192 -0.2369
  442MPD2    C5 6641   0.030   0.744  16.654  0.0827  0.6750 -0.1835
  442MPD2     H 6642   4.524   0.894  16.407  2.3850  0.5497 -1.5172
  442MPD2    H1 6643   0.082   0.603  16.501 -0.0939  0.7501 -0.8681
  442MPD2    H2 6644   4.720   0.906  16.776 -0.5463  1.0013  0.1418
  442MPD2    H3 6645   0.099   0.708  16.730  0.6229  0.5145 -0.7476
  442MPD2     N 6646   4.640   0.638  16.325 -0.1770  0.0779 -0.1284
  442MPD2    H5 6647   4.707   0.563  16.313  1.1381  1.3730 -0.8981
  442MPD2    N1 6648   4.511   1.014  16.613 -0.5632 -0.0706  0.2813
  442MPD2    H7 6649   4.431   1.035  16.554  0.8894 -0.0646 -1.6745
  443TMC3    C1 6650   4.437   1.210  16.731  0.0116 -0.2115 -0.2801
  443TMC3    C2 6651   4.388   1.260  16.609  0.4804 -0.1720 -0.8655
  443TMC3    C3 6652   4.323   1.380  16.613  0.1407  0.2262  0.4535
  443TMC3    C4 6653   4.410   1.266  16.848  0.3402 -0.2827  1.0853
  443TMC3    C5 6654   4.337   1.374  16.849 -0.3023 -0.5555 -0.0129
  443TMC3    C6 6655   4.307   1.447  16.735  0.7041  0.9520  0.5777
  443TMC3     C 6656   4.524   1.095  16.726 -0.7276 -0.3709 -0.0773
  443TMC3     O 6657   4.599   1.089  16.819  0.3528 -0.0445  0.3767
  443TMC3     H 6658   4.421   1.213  16.517  1.2548 -1.2366 -0.0385
  443TMC3    H1 6659   4.426   1.206  16.936 -0.7591  1.0611  2.2038
  443TMC3    H2 6660   4.233   1.526  16.740  0.8862  1.1575 -0.0282
  443TMC3    C7 6661   4.266   1.397  16.965  0.2574 -0.4537 -0.2570
  443TMC3    C8 6662   4.257   1.427  16.491  0.4779  0.4713 -0.0434
  443TMC3    O1 6663   4.224   1.296  17.026 -0.3016  0.5986 -0.5432
  443TMC3    O2 6664   4.264   1.343  16.402 -0.0875  0.0585  0.1185
  444MPD2     C 6665   0.184   1.109  17.200 -0.1832 -0.1752  0.2132
  444MPD2    C1 6666   0.109   1.005  17.152  0.5076 -0.2905  0.7722
  444MPD2    C2 6667   0.151   0.882  17.100  0.0543 -0.5459 -0.7415
  444MPD2    C3 6668   0.287   0.864  17.098 -0.4418 -0.1972  0.5287
  444MPD2    C4 6669   0.367   0.972  17.139  0.4029  0.1599  0.6625
  444MPD2    C5 6670   0.314   1.091  17.182 -0.1590 -0.2785  0.1126
  444MPD2     H 6671   0.086   0.796  17.094  1.5358 -1.8073  1.3705
  444MPD2    H1 6672   0.475   0.969  17.134  0.3630  0.6517 -0.5089
  444MPD2    H2 6673   0.136   1.191  17.252  0.4435  1.0465 -1.1200
  444MPD2    H3 6674   0.383   1.166  17.218  1.2433 -0.0973 -2.9417
  444MPD2     N 6675   0.338   0.748  17.041 -0.2193  0.6433  0.1029
  444MPD2    H5 6676   0.274   0.677  17.008  1.1137 -0.0221 -1.0672
  444MPD2    N1 6677   4.703   1.008  17.173  0.0128 -0.1733  0.5362
  444MPD2    H7 6678   4.653   0.921  17.159 -0.4704  0.3552 -1.0715
  445TMC3    C1 6679   0.489   0.618  16.935  0.2099 -0.0407  0.2028
  445TMC3    C2 6680   0.379   0.558  16.883  0.4717 -0.2656  0.0375
  445TMC3    C3 6681   0.381   0.426  16.848 -0.5225  0.5735 -0.0241
  445TMC3    C4 6682   0.608   0.547  16.956 -0.4231 -0.6539 -0.9170
  445TMC3    C5 6683   0.615   0.424  16.902  0.5310  0.0334 -0.7588
  445TMC3    C6 6684   0.504   0.357  16.854 -0.1005  0.5213  0.0877
  445TMC3     C 6685   0.473   0.728  17.017  0.0269  0.4413 -0.0171
  445TMC3     O 6686   0.565   0.776  17.074  0.5499  0.4577  0.8799
  445TMC3     H 6687   0.290   0.611  16.851 -0.6206 -1.1858  1.5880
  445TMC3    H1 6688   0.691   0.593  17.009 -1.3705  1.5399 -1.3689
  445TMC3    H2 6689   0.521   0.255  16.821 -1.2342  0.7547 -1.2326
  445TMC3    C7 6690   0.751   0.371  16.896 -0.5621  0.8774 -0.3729
  445TMC3    C8 6691   0.284   0.361  16.765  0.5978  0.4933 -0.4756
  445TMC3    O1 6692   0.824   0.460  16.859 -0.0634  0.2275  0.1664
  445TMC3    O2 6693   0.325   0.272  16.693 -0.1189  0.0506  0.6879
  446MPD2     C 6694   4.433   2.086  11.303 -0.3366  0.0089  0.4463
  446MPD2    C1 6695   4.465   1.988  11.207  0.0022  0.4118  0.7834
  446MPD2    C2 6696   4.567   2.010  11.118  0.2586 -0.4205  0.6578
  446MPD2    C3 6697   4.631   2.135  11.117 -1.2190 -0.2971  0.2175
  446MPD2    C4 6698   4.592   2.235  11.204 -0.2737 -0.8438 -1.4741
  446MPD2    C5 6699   4.502   2.202  11.303  1.0910 -0.0821  0.2201
  446MPD2     H 6700   4.609   1.932  11.057 -1.5781  0.2216 -1.3918
  446MPD2    H1 6701   4.633   2.334  11.219  1.1198 -1.7781  0.8251
  446MPD2    H2 6702   4.364   2.061  11.383 -0.7030  1.3746  0.5445
  446MPD2    H3 6703   4.489   2.269  11.387 -1.5395 -0.6692  0.2906
  446MPD2     N 6704   0.007   2.153  11.035  0.0349 -0.2101 -0.4684
  446MPD2    H5 6705   0.049   2.072  10.990 -0.7658  0.3596 -2.2507
  446MPD2    N1 6706   4.395   1.867  11.185  0.5877  0.3594 -0.2919
  446MPD2    H7 6707   4.422   1.814  11.103  1.0485 -0.0392  0.1169
  447TMC3    C1 6708   0.219   2.244  11.013  0.3747 -0.2052  0.1615
  447TMC3    C2 6709   0.282   2.322  10.921  0.0180  1.1036  0.7883
  447TMC3    C3 6710   0.413   2.355  10.944 -0.7203  0.2134 -0.7061
  447TMC3    C4 6711   0.288   2.195  11.122  0.2597 -0.1839  0.6438
  447TMC3    C5 6712   0.425   2.227  11.139  0.3858 -0.2166  0.0375
  447TMC3    C6 6713   0.484   2.308  11.050  0.2992 -0.7529 -0.5266
  447TMC3     C 6714   0.077   2.267  11.032  0.0781  0.1020  0.5079
  447TMC3     O 6715   0.053   2.382  11.076 -0.2119 -0.1548 -0.2433
  447TMC3     H 6716   0.226   2.368  10.841  1.7956 -0.1806 -1.1962
  447TMC3    H1 6717   0.231   2.134  11.191 -2.4050 -0.6014 -1.9065
  447TMC3    H2 6718   0.587   2.331  11.076 -0.4207 -0.0574  1.7145
  447TMC3    C7 6719   0.507   2.155  11.230  0.5615 -0.0463 -0.1807
  447TMC3    C8 6720   0.483   2.418  10.831  0.6772 -0.7406 -0.0694
  447TMC3    O1 6721   0.630   2.148  11.221 -0.9098 -0.6297 -0.0004
  447TMC3    O2 6722   0.416   2.451  10.733  0.4515 -0.0561 -0.0924
  448TMC3    C1 6723   2.848   2.247  17.559  0.5060  0.4565 -0.0453
  448TMC3    C2 6724   2.774   2.154  17.501  0.2817  0.2742 -0.6513
  448TMC3    C3 6725   2.797   2.025  17.542 -0.3548 -0.4270  0.2395
  448TMC3    C4 6726   2.930   2.220  17.666 -0.6833  0.4443 -0.5636
  448TMC3    C5 6727   2.936   2.092  17.711  0.2285  1.4874 -0.4756
  448TMC3    C6 6728   2.869   1.995  17.651  0.7888  0.0335 -0.1251
  448TMC3     C 6729   2.849   2.389  17.511  0.1281  0.5923 -0.2221
  448TMC3     O 6730   2.934   2.462  17.560  0.1975 -0.0095 -0.1974
  448TMC3     H 6731   2.716   2.171  17.411  0.1487 -0.5645 -0.7215
  448TMC3    H1 6732   3.001   2.292  17.703 -0.3553  0.1057 -0.5396
  448TMC3    H2 6733   2.876   1.892  17.684  0.8682  0.6131  1.6851
  448TMC3    C7 6734   3.053   2.054   0.039  0.2736 -0.0843 -0.0005
  448TMC3    C8 6735   2.758   1.913  17.461  0.0336 -0.3762  0.6757
  448TMC3    O1 6736   3.155   2.115   0.008  0.0525  0.3700 -0.5581
  448TMC3    O2 6737   2.833   1.816  17.480 -0.0285  0.0797 -0.5413
  449MPD2     C 6738   4.241   4.389  14.071 -0.2050 -0.1087  0.4672
  449MPD2    C1 6739   4.204   4.495  13.992  0.3773  0.5940 -0.5084
  449MPD2    C2 6740   4.063   4.512  13.970  0.2260  0.1780 -0.2070
  449MPD2    C3 6741   3.974   4.419  14.018  0.0380 -0.1020  0.2744
  449MPD2    C4 6742   4.014   4.316  14.097 -0.4349  0.1452  0.3246
  449MPD2    C5 6743   4.148   4.306  14.125 -0.1905 -0.3920  0.4511
  449MPD2     H 6744   4.028   4.596  13.912 -1.8103 -2.1220 -2.2912
  449MPD2    H1 6745   3.951   4.241  14.144 -0.3925 -0.6785 -0.9374
  449MPD2    H2 6746   4.346   4.368  14.086  0.0331 -0.6522 -2.1031
  449MPD2    H3 6747   4.184   4.229  14.193  1.5211  0.0899  0.0986
  449MPD2     N 6748   3.840   4.438  13.976  0.9655  0.1414  0.5247
  449MPD2    H5 6749   3.817   4.520  13.921  1.7371 -2.0629 -3.0804
  449MPD2    N1 6750   4.282   4.600  13.938 -0.0423  0.1293 -0.2097
  449MPD2    H7 6751   4.223   4.675  13.906  1.7466  2.3802  1.8038
  450TMC3    C1 6752   4.441   4.716  13.831 -1.0473 -0.5266 -0.1557
  450TMC3    C2 6753   4.487   4.705  13.699  0.7033 -0.3375 -0.0440
  450TMC3    C3 6754   4.434   0.065  13.618  0.4428  0.3466 -0.0094
  450TMC3    C4 6755   4.384   0.092  13.883 -0.8694 -0.1775  0.2122
  450TMC3    C5 6756   4.326   0.179  13.791 -0.0833  0.2535 -0.6919
  450TMC3    C6 6757   4.360   0.175  13.659 -0.0463  1.0659  0.3591
  450TMC3     C 6758   4.418   4.599  13.912  0.4681 -0.2093  0.9219
  450TMC3     O 6759   4.502   4.504  13.920  0.2655 -0.2667 -0.1223
  450TMC3     H 6760   4.520   4.610  13.660 -1.6591 -1.4595  0.6659
  450TMC3    H1 6761   4.366   0.097  13.990 -0.9762 -1.2349  0.2502
  450TMC3    H2 6762   4.342   0.255  13.588 -0.8549 -0.0874 -0.7246
  450TMC3    C7 6763   4.187   0.183  13.816 -0.3308  0.1768 -0.1812
  450TMC3    C8 6764   4.441   0.045  13.474  0.7982 -0.0026  0.1361
  450TMC3    O1 6765   4.141   0.094  13.886  0.6677  0.4811 -0.1237
  450TMC3    O2 6766   4.354   0.096  13.404  0.3162 -0.1158  0.4273
  451MPD2     C 6767   1.360   3.947   1.438  0.3266  0.5380 -0.0559
  451MPD2    C1 6768   1.351   4.011   1.320 -0.7393  0.2025 -1.2728
  451MPD2    C2 6769   1.341   3.937   1.200 -0.1825  0.0208 -0.7468
  451MPD2    C3 6770   1.350   3.802   1.207 -0.2406 -0.7690  0.7364
  451MPD2    C4 6771   1.359   3.739   1.330  0.1965  0.3070  0.4047
  451MPD2    C5 6772   1.374   3.814   1.443 -0.8155  0.0532  0.2634
  451MPD2     H 6773   1.327   3.984   1.103  0.2379  0.5774 -0.5399
  451MPD2    H1 6774   1.377   3.632   1.328  2.3326  0.6680  0.0434
  451MPD2    H2 6775   1.355   3.993   1.536  3.1697  1.6459 -0.4355
  451MPD2    H3 6776   1.382   3.769   1.541 -0.1333  0.9227  0.6197
  451MPD2     N 6777   1.370   3.717   1.098 -0.3797  0.1994  0.0760
  451MPD2    H5 6778   1.404   3.623   1.116  2.2559  0.9229 -1.1036
  451MPD2    N1 6779   1.351   4.151   1.323 -0.6288  0.2685 -0.9484
  451MPD2    H7 6780   1.324   4.195   1.410  0.0258 -0.1688 -0.5234
  452TMC3    C1 6781   1.398   3.676   0.864 -0.5430  0.2341  0.2580
  452TMC3    C2 6782   1.368   3.715   0.736 -0.7264 -0.7426 -0.3156
  452TMC3    C3 6783   1.455   3.718   0.630  0.1602  0.0616 -0.2459
  452TMC3    C4 6784   1.523   3.623   0.885  0.7387 -0.5744  0.1810
  452TMC3    C5 6785   1.606   3.607   0.772  0.1106  0.4338  0.2507
  452TMC3    C6 6786   1.581   3.666   0.648  0.1376 -0.6125 -0.2257
  452TMC3     C 6787   1.342   3.756   0.967 -0.3865  0.1999 -0.1017
  452TMC3     O 6788   1.277   3.854   0.927  0.2816 -0.1988  0.3048
  452TMC3     H 6789   1.270   3.759   0.719 -1.9425 -3.0243  0.7244
  452TMC3    H1 6790   1.567   3.635   0.983 -3.3953 -0.1473  2.0125
  452TMC3    H2 6791   1.661   3.665   0.575 -0.8934  1.1520 -1.3795
  452TMC3    C7 6792   1.728   3.529   0.787  0.3551 -0.2825 -0.6127
  452TMC3    C8 6793   1.447   3.846   0.559  0.1876  0.1827  0.1268
  452TMC3    O1 6794   1.819   3.547   0.705 -0.2711  0.2871  0.4102
  452TMC3    O2 6795   1.340   3.890   0.515  0.1618  0.3739  0.4823
  453TMC3    C1 6796   1.464   0.755  11.466 -0.4343  0.2493 -0.1620
  453TMC3    C2 6797   1.442   0.616  11.464  0.2265 -0.0122  0.5274
  453TMC3    C3 6798   1.444   0.545  11.350  0.6039 -0.1007 -0.4697
  453TMC3    C4 6799   1.502   0.813  11.353  0.0143 -0.0786  1.1916
  453TMC3    C5 6800   1.518   0.732  11.243 -0.4858 -0.0012  0.2051
  453TMC3    C6 6801   1.494   0.599  11.242 -0.0071  0.7010 -0.1484
  453TMC3     C 6802   1.529   0.815  11.580  0.2729 -0.7157 -0.4638
  453TMC3     O 6803   1.609   0.904  11.561  0.0036  1.1300 -0.3167
  453TMC3     H 6804   1.427   0.563  11.557 -2.2500 -1.2076 -0.5392
  453TMC3    H1 6805   1.521   0.920  11.352 -0.4233  0.0105  2.4095
  453TMC3    H2 6806   1.489   0.541  11.151 -0.7787 -0.0876  0.3935
  453TMC3    C7 6807   1.543   0.791  11.110  0.3971  0.0692  0.4436
  453TMC3    C8 6808   1.434   0.405  11.361 -0.6721 -0.5741 -0.0633
  453TMC3    O1 6809   1.501   0.732  11.014 -0.0309  0.0536 -0.0847
  453TMC3    O2 6810   1.356   0.355  11.443  0.2592  0.0499 -0.1877
  454MPD2     C 6811   1.076   0.246  16.102 -0.1312 -1.1075  0.2233
  454MPD2    C1 6812   0.939   0.251  16.107  0.6969  0.4852  0.0627
  454MPD2    C2 6813   0.887   0.355  16.179  0.4007  0.4579 -0.4249
  454MPD2    C3 6814   0.963   0.427  16.268 -0.2618 -0.1063 -0.4664
  454MPD2    C4 6815   1.098   0.413  16.264  0.4515 -0.0811  1.0477
  454MPD2    C5 6816   1.157   0.319  16.178  0.2328 -0.1265 -0.0636
  454MPD2     H 6817   0.779   0.362  16.179  0.2340 -2.0662  2.4117
  454MPD2    H1 6818   1.162   0.472  16.328  0.4182 -0.0509  1.0524
  454MPD2    H2 6819   1.130   0.174  16.041 -0.1218  0.0914 -1.1799
  454MPD2    H3 6820   1.264   0.305  16.166  0.0277 -1.4291 -0.4096
  454MPD2     N 6821   0.893   0.517  16.354  0.6135  0.1962  0.4444
  454MPD2    H5 6822   0.803   0.534  16.310 -0.3338  1.6870  2.9304
  454MPD2    N1 6823   0.851   0.165  16.036  0.5284  0.4481 -0.3727
  454MPD2    H7 6824   0.750   0.180  16.041  0.5344  0.0173  1.2528
  455TMC3    C1 6825   0.785   0.514  16.547 -0.3351  0.3555  0.4133
  455TMC3    C2 6826   0.701   0.613  16.506  0.2460  1.2341  0.3968
  455TMC3    C3 6827   0.571   0.577  16.487  0.3466 -0.0629  0.8137
  455TMC3    C4 6828   0.754   0.380  16.553 -0.2956 -0.0277  0.7742
  455TMC3    C5 6829   0.626   0.344  16.526 -0.7792  0.2570 -0.1811
  455TMC3    C6 6830   0.539   0.443  16.484  0.6175 -0.6055 -0.3743
  455TMC3     C 6831   0.917   0.519  16.488 -0.9545 -0.1251 -0.4392
  455TMC3     O 6832   1.009   0.468  16.551 -0.8323 -0.6163 -0.2411
  455TMC3     H 6833   0.744   0.709  16.528  2.2484  0.7365 -1.4180
  455TMC3    H1 6834   0.819   0.309  16.603 -0.1805 -0.8319 -0.5085
  455TMC3    H2 6835   0.433   0.421  16.479  0.2092  1.4326 -0.5065
  455TMC3    C7 6836   0.609   0.215  16.461  0.4888  0.3663 -0.0618
  455TMC3    C8 6837   0.464   0.673  16.527  0.1155  0.1446 -0.1244
  455TMC3    O1 6838   0.515   0.209  16.382 -0.3999 -0.2349 -0.3319
  455TMC3    O2 6839   0.350   0.637  16.486 -0.3075  0.8104  0.5354
  456MPD2     C 6840   2.873   0.898  16.333 -0.8312 -0.1355 -0.1256
  456MPD2    C1 6841   2.987   0.881  16.395 -0.1931 -0.9232  0.7361
  456MPD2    C2 6842   3.007   0.926  16.524  0.1787  0.7847  0.0435
  456MPD2    C3 6843   2.909   0.994  16.597  0.0930 -0.3645  0.1255
  456MPD2    C4 6844   2.784   0.994  16.539  0.4537  0.6685 -0.2886
  456MPD2    C5 6845   2.771   0.940  16.411 -0.1824  0.0682 -0.0754
  456MPD2     H 6846   3.105   0.918  16.569 -0.6115  0.0981  1.6629
  456MPD2    H1 6847   2.693   1.033  16.583 -0.7916 -0.5314 -1.8170
  456MPD2    H2 6848   2.858   0.880  16.227 -1.7818  2.3773 -0.4052
  456MPD2    H3 6849   2.675   0.944  16.360  0.3155 -0.4178 -1.0414
  456MPD2     N 6850   2.927   1.056  16.722  0.6701  0.4600  0.1793
  456MPD2    H5 6851   3.020   1.051  16.761  0.7394  1.3794  0.1207
  456MPD2    N1 6852   3.091   0.820  16.324 -0.2543  0.2547  0.1039
  456MPD2    H7 6853   3.076   0.784  16.230  0.2176  0.2448  0.0347
  457TMC3    C1 6854   2.902   1.194  16.908 -0.8611 -0.1039  0.0406
  457TMC3    C2 6855   2.860   1.320  16.945  1.1542  1.1589  0.3128
  457TMC3    C3 6856   2.908   1.364  17.065  0.7306  0.2120  0.1728
  457TMC3    C4 6857   2.980   1.113  16.981  0.1314 -0.0915 -0.1531
  457TMC3    C5 6858   3.036   1.161  17.094  0.1128  0.2239  0.1256
  457TMC3    C6 6859   2.999   1.289  17.142 -0.3320  0.1150 -0.6094
  457TMC3     C 6860   2.843   1.143  16.787 -0.2500 -0.8109  0.5957
  457TMC3     O 6861   2.731   1.186  16.754  0.2530  0.3152  1.0354
  457TMC3     H 6862   2.790   1.377  16.886  0.4558  1.1730  1.1610
  457TMC3    H1 6863   2.998   1.009  16.955 -2.6400 -0.9152  1.2471
  457TMC3    H2 6864   3.052   1.329  17.227 -2.7573  0.9118  0.5071
  457TMC3    C7 6865   3.105   1.060  17.184  0.1483 -0.5737  0.2765
  457TMC3    C8 6866   2.869   1.492  17.126  0.0514 -0.2663  0.1358
  457TMC3    O1 6867   3.165   0.967  17.125  0.5459  0.6503  0.4022
  457TMC3    O2 6868   2.921   1.519  17.231  0.1601  0.0753 -0.0867
  458MPD2     C 6869   0.285   4.429  12.847 -0.6403 -0.9199 -0.1081
  458MPD2    C1 6870   0.353   4.351  12.940 -0.3514 -0.0853  0.1748
  458MPD2    C2 6871   0.276   4.282  13.034 -0.8053 -0.4796 -0.2924
  458MPD2    C3 6872   0.140   4.287  13.035 -0.5275  0.2863 -0.8039
  458MPD2    C4 6873   0.075   4.366  12.941 -0.4993 -0.6882  0.3153
  458MPD2    C5 6874   0.148   4.431  12.849  0.2043 -0.1720  0.2662
  458MPD2     H 6875   0.323   4.231  13.117  0.6343 -0.4666 -1.1125
  458MPD2    H1 6876   4.706   4.373  12.935 -0.3770  1.2085  0.5288
  458MPD2    H2 6877   0.338   4.492  12.776 -0.4434 -1.3964 -0.3823
  458MPD2    H3 6878   0.088   4.490  12.781  1.5999  0.5705 -0.3209
  458MPD2     N 6879   0.071   4.206  13.130  0.2356  0.1736 -0.1515
  458MPD2    H5 6880   0.130   4.178  13.207  1.0123  1.4778 -0.2810
  458MPD2    N1 6881   0.493   4.343  12.936  0.4143 -0.5780  0.0847
  458MPD2    H7 6882   0.533   4.393  12.858 -0.5862 -0.4108 -0.3244
  459TMC3    C1 6883   0.723   4.290  12.983 -0.2178 -0.5553 -0.1331
  459TMC3    C2 6884   0.753   4.345  12.861  0.0199 -0.1334  0.3255
  459TMC3    C3 6885   0.887   4.355  12.826 -0.0950  0.8693  0.0991
  459TMC3    C4 6886   0.821   4.254  13.072  0.8475 -0.9713  0.0242
  459TMC3    C5 6887   0.951   4.280  13.036  0.2908  0.0135  0.3347
  459TMC3    C6 6888   0.983   4.331  12.913 -0.4298  0.1405 -0.4678
  459TMC3     C 6889   0.583   4.279  13.024 -0.4174 -0.9545  0.4079
  459TMC3     O 6890   0.559   4.213  13.123  0.3063 -1.0007 -0.0938
  459TMC3     H 6891   0.678   4.380  12.792  0.9675  2.0468  0.4099
  459TMC3    H1 6892   0.796   4.227  13.174  0.9736  1.2199  0.6428
  459TMC3    H2 6893   1.086   4.363  12.902 -0.0216 -0.6318  1.0801
  459TMC3    C7 6894   1.052   4.293  13.148 -0.0698 -0.2399  0.0179
  459TMC3    C8 6895   0.934   4.405  12.695 -0.0824  0.2750 -0.3601
  459TMC3    O1 6896   1.146   4.371  13.129 -0.1960  0.0946  0.1319
  459TMC3    O2 6897   1.050   4.396  12.671  0.8315  0.1494  0.1715
  460MPD2     C 6898   0.834   2.386  10.742  0.1208  0.5067  0.7008
  460MPD2    C1 6899   0.708   2.440  10.725  0.3225 -0.4546 -0.0653
  460MPD2    C2 6900   0.679   2.503  10.608  0.0312 -0.1237 -0.4028
  460MPD2    C3 6901   0.771   2.505  10.510 -0.4456 -0.3506  0.0820
  460MPD2    C4 6902   0.896   2.467  10.529  0.6079  0.3479  0.1071
  460MPD2    C5 6903   0.924   2.401  10.641 -0.1331 -0.5742 -0.6880
  460MPD2     H 6904   0.581   2.550  10.599 -0.6892 -1.0892  2.4699
  460MPD2    H1 6905   0.970   2.482  10.451 -0.5096 -1.5002 -1.3019
  460MPD2    H2 6906   0.857   2.351  10.842  2.8327  0.6172  0.1089
  460MPD2    H3 6907   1.027   2.374  10.658 -0.8214 -2.3216  0.6755
  460MPD2     N 6908   0.725   2.563  10.387 -0.5085  0.2630 -0.2137
  460MPD2    H5 6909   0.636   2.610  10.372 -2.1491 -2.4612  0.8377
  460MPD2    N1 6910   0.621   2.411  10.837 -0.1590  0.1856 -0.3561
  460MPD2    H7 6911   0.664   2.368  10.918  0.4017  1.3559 -0.0311
  461TMC3    C1 6912   0.712   2.628  10.175 -0.1057  0.1875  0.1087
  461TMC3    C2 6913   0.612   2.550  10.129 -0.2744  0.4815  0.3287
  461TMC3    C3 6914   0.539   2.596  10.024 -0.8022 -0.0873  0.0577
  461TMC3    C4 6915   0.751   2.748  10.115  0.8639  0.5124  0.1237
  461TMC3    C5 6916   0.671   2.789  10.009  0.6896 -0.1975 -0.2881
  461TMC3    C6 6917   0.570   2.709   9.958 -0.1750 -0.0205 -0.0409
  461TMC3     C 6918   0.797   2.572  10.278 -0.4962  0.4501 -0.6434
  461TMC3     O 6919   0.905   2.529  10.241  0.1524  0.0259  0.3064
  461TMC3     H 6920   0.585   2.459  10.182  0.8392 -0.7819 -1.2912
  461TMC3    H1 6921   0.816   2.817  10.167  1.0032  0.5279 -0.0683
  461TMC3    H2 6922   0.500   2.746   9.883 -0.5729  0.3394  0.5068
  461TMC3    C7 6923   0.690   2.920   9.946  0.2382  0.0306  0.0371
  461TMC3    C8 6924   0.467   2.496   9.950  0.3431 -0.7248  0.1599
  461TMC3    O1 6925   0.593   2.969   9.890  0.5523  0.2842 -0.5148
  461TMC3    O2 6926   0.452   2.387   9.999  0.3396 -0.5426 -0.1419
  462TMC3    C1 6927   0.691   3.935   0.265 -0.0487 -0.5223 -0.1308
  462TMC3    C2 6928   0.824   3.905   0.224 -0.5081  0.0595  0.3060
  462TMC3    C3 6929   0.873   3.791   0.285 -0.8177 -0.2116  0.6492
  462TMC3    C4 6930   0.617   3.865   0.353  0.0649 -0.1283  0.1844
  462TMC3    C5 6931   0.671   3.752   0.409  0.9884 -0.0709 -0.4799
  462TMC3    C6 6932   0.798   3.713   0.363 -0.2013  0.2467  0.1006
  462TMC3     C 6933   0.647   4.077   0.254  0.0542 -0.4644 -0.0870
  462TMC3     O 6934   0.605   4.120   0.358  0.4467 -0.2246 -0.4514
  462TMC3     H 6935   0.891   3.963   0.162  0.6413 -2.2052 -0.5667
  462TMC3    H1 6936   0.520   3.905   0.379  0.2250  0.9138 -0.8388
  462TMC3    H2 6937   0.838   3.628   0.418 -0.6068  0.7258  1.1429
  462TMC3    C7 6938   0.582   3.648   0.445 -0.1807 -0.1180  0.7015
  462TMC3    C8 6939   1.012   3.756   0.278  0.3136  0.1771 -0.3086
  462TMC3    O1 6940   0.628   3.533   0.438  0.2946 -0.4954 -0.6924
  462TMC3    O2 6941   1.088   3.831   0.215 -0.0833 -0.0980  0.0952
  463MPD2     C 6942   1.983   1.221   2.106 -0.4609  0.7319 -0.3027
  463MPD2    C1 6943   1.964   1.286   1.987 -0.0446 -0.5466 -0.5305
  463MPD2    C2 6944   2.069   1.365   1.940 -0.0006  0.0705  0.0870
  463MPD2    C3 6945   2.179   1.396   2.020 -0.2088 -0.5093  0.0348
  463MPD2    C4 6946   2.178   1.350   2.154  0.8309 -0.3507 -0.1336
  463MPD2    C5 6947   2.088   1.259   2.186 -0.1379 -0.3506  0.0804
  463MPD2     H 6948   2.058   1.402   1.839  1.2403 -1.0732 -0.4621
  463MPD2    H1 6949   2.251   1.385   2.225  2.4165 -2.2237 -0.8476
  463MPD2    H2 6950   1.915   1.143   2.137 -1.4917  1.1106 -1.6547
  463MPD2    H3 6951   2.089   1.214   2.285 -1.8561  0.1609  0.3252
  463MPD2     N 6952   2.282   1.480   1.977  0.2630  0.7561  0.1582
  463MPD2    H5 6953   2.357   1.501   2.043 -0.0732  1.6129  0.2664
  463MPD2    N1 6954   1.852   1.266   1.903 -0.1100  0.4314 -0.0167
  463MPD2    H7 6955   1.857   1.319   1.817  2.3445 -0.7209 -0.5653
  464TMC3    C1 6956   1.631   1.175   1.850  0.0997  0.2035  0.3214
  464TMC3    C2 6957   1.674   1.153   1.717  0.3135  0.0487  0.0880
  464TMC3    C3 6958   1.597   1.084   1.633  1.1064 -0.2248  0.6365
  464TMC3    C4 6959   1.510   1.132   1.890 -0.6068  0.0808  0.2753
  464TMC3    C5 6960   1.429   1.087   1.787  0.5418 -0.2939 -0.5633
  464TMC3    C6 6961   1.471   1.053   1.657 -1.0803  0.1013  0.9878
  464TMC3     C 6962   1.735   1.208   1.951 -0.2826 -0.0111  0.0716
  464TMC3     O 6963   1.700   1.195   2.066 -0.3575 -0.2289 -0.5075
  464TMC3     H 6964   1.773   1.181   1.683  0.6631 -0.9573  0.2914
  464TMC3    H1 6965   1.478   1.130   1.994 -0.1859  0.4832  0.4136
  464TMC3    H2 6966   1.408   1.007   1.582 -0.5465  3.6955 -1.6661
  464TMC3    C7 6967   1.289   1.074   1.825 -0.0043 -0.7890 -0.1138
  464TMC3    C8 6968   1.629   1.104   1.492 -0.0319  0.2085 -0.4534
  464TMC3    O1 6969   1.280   1.020   1.935 -0.1727 -0.0196  0.0767
  464TMC3    O2 6970   1.700   1.199   1.459  0.4084 -0.5924 -0.2892
  465MPD2     C 6971   2.382   0.823  16.261  0.9978 -0.4084 -0.6434
  465MPD2    C1 6972   2.442   0.836  16.383  0.6238  0.3406 -0.3703
  465MPD2    C2 6973   2.428   0.958  16.444  0.4348  0.1247  0.0779
  465MPD2    C3 6974   2.370   1.069  16.382 -0.7001 -0.5924  0.2377
  465MPD2    C4 6975   2.310   1.056  16.258  0.5588 -0.6069  0.3299
  465MPD2    C5 6976   2.316   0.931  16.197 -0.8948 -0.7452  0.3217
  465MPD2     H 6977   2.468   0.977  16.543  0.0507  0.7603  0.1155
  465MPD2    H1 6978   2.275   1.140  16.200 -1.2901  0.3660  2.8881
  465MPD2    H2 6979   2.371   0.731  16.206 -1.6913 -0.5560  0.1111
  465MPD2    H3 6980   2.264   0.918  16.103  2.6590 -1.6394 -1.5108
  465MPD2     N 6981   2.371   1.195  16.445  0.7993  0.3400  0.3184
  465MPD2    H5 6982   2.434   1.200  16.525  1.4559  0.0023 -0.1751
  465MPD2    N1 6983   2.507   0.727  16.453  0.0001 -0.4186  0.1694
  465MPD2    H7 6984   2.522   0.742  16.553  0.0667  1.2177 -0.0954
  466TMC3    C1 6985   2.314   1.531  16.682  0.2685 -0.2770  0.3579
  466TMC3    C2 6986   2.280   1.644  16.626 -0.2872  0.2710  0.4734
  466TMC3    C3 6987   2.272   1.655  16.492 -0.3554 -0.2438 -0.2559
  466TMC3    C4 6988   2.343   1.417  16.614 -0.4769  0.0860  0.1695
  466TMC3    C5 6989   2.336   1.434  16.477 -0.0300  0.8584  0.4210
  466TMC3    C6 6990   2.296   1.549  16.415 -0.4427 -0.3079 -0.6943
  466TMC3     C 6991   2.321   1.528  16.827  0.0249 -0.0611 -0.2563
  466TMC3     O 6992   2.266   1.610  16.895 -0.4211  0.9082  0.2877
  466TMC3     H 6993   2.268   1.725  16.697  1.7695  0.4381  0.6314
  466TMC3    H1 6994   2.342   1.322  16.667  1.4762 -0.5551 -0.9524
  466TMC3    H2 6995   2.290   1.563  16.308 -1.6012  2.1400 -0.3216
  466TMC3    C7 6996   2.312   1.310  16.404  0.1749 -0.6437 -0.1473
  466TMC3    C8 6997   2.204   1.764  16.419  0.5178 -0.1112  0.0064
  466TMC3    O1 6998   2.219   1.315  16.326 -0.4386  0.3443  0.1910
  466TMC3    O2 6999   2.179   1.762  16.297 -0.9566  0.3142 -0.1610
  467TMC3    C1 7000   3.092   3.744  13.730  0.3481 -0.4701 -0.0710
  467TMC3    C2 7001   3.172   3.703  13.624  0.0478  0.2172  0.6858
  467TMC3    C3 7002   3.140   3.751  13.501  0.0532 -0.2324  0.2001
  467TMC3    C4 7003   2.980   3.818  13.714  0.2845 -0.3731  0.1461
  467TMC3    C5 7004   2.947   3.863  13.588  0.4814  0.4090 -0.2429
  467TMC3    C6 7005   3.029   3.834  13.478 -0.7457 -0.3493  0.5451
  467TMC3     C 7006   3.172   3.771  13.851 -0.1641  0.0205 -0.3118
  467TMC3     O 7007   3.110   3.762  13.957  0.3621 -0.1089 -0.0410
  467TMC3     H 7008   3.260   3.640  13.633  1.0065  1.5169  0.5052
  467TMC3    H1 7009   2.929   3.855  13.802  0.3583  1.4294 -0.5625
  467TMC3    H2 7010   3.022   3.887  13.383 -0.8559  0.8246  1.2085
  467TMC3    C7 7011   2.824   3.938  13.569  0.1653  0.7076 -0.3843
  467TMC3    C8 7012   3.257   3.813  13.453 -0.4187  0.5456 -0.2255
  467TMC3    O1 7013   2.821   4.014  13.472  0.4632  0.0221 -0.0588
  467TMC3    O2 7014   3.332   3.852  13.539  0.3467  0.1564  0.6867
  468MPD2     C 7015   2.130   2.632  10.978  0.4846 -0.2880  0.1068
  468MPD2    C1 7016   2.261   2.583  10.987 -0.8335  0.0980 -0.4569
  468MPD2    C2 7017   2.279   2.459  10.928 -0.1133  0.1547 -0.6956
  468MPD2    C3 7018   2.177   2.393  10.867  1.5852 -0.5442  0.0766
  468MPD2    C4 7019   2.052   2.450  10.850  0.2384  0.3801 -0.0287
  468MPD2    C5 7020   2.025   2.563  10.913 -0.5912 -0.4193  0.5241
  468MPD2     H 7021   2.378   2.416  10.930 -0.2245 -0.1225 -1.2238
  468MPD2    H1 7022   1.967   2.404  10.800  1.7753 -1.5342 -0.8989
  468MPD2    H2 7023   2.103   2.725  11.027  0.0309 -0.5289  0.3204
  468MPD2    H3 7024   1.926   2.606  10.902  0.3182  1.5122 -0.0451
  468MPD2     N 7025   2.188   2.264  10.809 -0.0530  0.4447 -0.2702
  468MPD2    H5 7026   2.108   2.213  10.773 -0.1102  2.0817 -2.4767
  468MPD2    N1 7027   2.362   2.645  11.064 -0.0529 -0.3230  0.4501
  468MPD2    H7 7028   2.444   2.586  11.069 -0.5709 -1.1291 -0.5007
  469TMC3    C1 7029   2.480   2.815  11.183 -0.0674 -0.2128 -0.1560
  469TMC3    C2 7030   2.601   2.778  11.125 -0.4265 -0.1014  0.6867
  469TMC3    C3 7031   2.711   2.851  11.169 -0.5325 -0.4276 -0.7629
  469TMC3    C4 7032   2.468   2.923  11.265  0.2078 -0.9407  0.2755
  469TMC3    C5 7033   2.583   2.997  11.299  0.3717  0.1400 -0.7269
  469TMC3    C6 7034   2.704   2.959  11.249  0.0776  0.1895  0.4384
  469TMC3     C 7035   2.354   2.771  11.120  0.1948 -0.4113 -0.3873
  469TMC3     O 7036   2.268   2.856  11.109  0.1817 -0.7689  0.3947
  469TMC3     H 7037   2.606   2.690  11.061  1.1218  0.9159 -0.5796
  469TMC3    H1 7038   2.367   2.953  11.290  0.9734  2.5499 -0.7956
  469TMC3    H2 7039   2.796   3.000  11.290 -0.7629  1.8324  0.6540
  469TMC3    C7 7040   2.590   3.051  11.435 -0.2592  0.0736 -0.9290
  469TMC3    C8 7041   2.840   2.782  11.195  0.3024 -0.5321  0.0047
  469TMC3    O1 7042   2.693   3.104  11.469 -0.1135 -0.0995 -0.3156
  469TMC3    O2 7043   2.940   2.847  11.194 -0.3851  0.0766  0.8700
  470TMC3    C1 7044   0.584   3.419   1.248  0.8148  0.0122 -0.4780
  470TMC3    C2 7045   0.520   3.519   1.170  0.4013 -0.3352 -0.3582
  470TMC3    C3 7046   0.425   3.594   1.234  0.4197 -0.5176 -0.0207
  470TMC3    C4 7047   0.566   3.410   1.384  0.0375 -0.2645  0.2614
  470TMC3    C5 7048   0.477   3.488   1.447 -0.3538 -0.1104 -0.3091
  470TMC3    C6 7049   0.402   3.577   1.372  0.5882 -0.4100  0.1399
  470TMC3     C 7050   0.645   3.309   1.185 -0.2906  1.0692 -0.1800
  470TMC3     O 7051   0.635   3.202   1.249  0.3244  0.1727  0.0585
  470TMC3     H 7052   0.530   3.520   1.062 -0.9214  0.0290 -0.4781
  470TMC3    H1 7053   0.613   3.332   1.442  2.8220  0.5613 -0.8647
  470TMC3    H2 7054   0.313   3.631   1.402  0.4348  0.6503 -2.2268
  470TMC3    C7 7055   0.530   3.540   1.566 -0.4801 -0.2406 -0.4952
  470TMC3    C8 7056   0.408   3.731   1.183 -0.8091 -0.4126 -0.0509
  470TMC3    O1 7057   0.651   3.533   1.585 -0.2352  0.2168  0.5474
  470TMC3    O2 7058   0.315   3.791   1.229  0.2023  0.1646  0.2066
  471MPD2     C 7059   0.414   4.678  16.679 -0.3193 -0.4220 -0.0357
  471MPD2    C1 7060   0.470   4.562  16.635  0.5143 -0.1692 -0.6407
  471MPD2    C2 7061   0.560   4.503  16.726  0.2745  0.1195  0.2760
  471MPD2    C3 7062   0.566   4.531  16.854 -0.2211  0.7270  0.2420
  471MPD2    C4 7063   0.501   4.643  16.900 -0.6011  0.1201 -0.4438
  471MPD2    C5 7064   0.425   4.712  16.809 -0.2198  0.2507 -0.5037
  471MPD2     H 7065   0.616   4.417  16.690 -0.3853  0.0913 -0.6768
  471MPD2    H1 7066   0.507   4.676  17.003  1.6711 -0.2116 -0.4733
  471MPD2    H2 7067   0.347   4.735  16.616  0.4168 -0.9887 -1.3398
  471MPD2    H3 7068   0.367   0.057  16.846  0.2130  0.7931 -1.0455
  471MPD2     N 7069   0.648   4.467  16.945  0.0888 -0.9523 -0.4819
  471MPD2    H5 7070   0.651   4.501  17.041 -0.6676  0.7922 -1.0721
  471MPD2    N1 7071   0.436   4.494  16.518 -0.5845  0.9130 -0.3471
  471MPD2    H7 7072   0.485   4.406  16.504  2.8916  2.5865  1.4871
  472TMC3    C1 7073   0.303   4.383  16.379  0.2283  0.3262 -0.5665
  472TMC3    C2 7074   0.211   4.388  16.281 -0.3989 -0.0132 -0.2835
  472TMC3    C3 7075   0.178   4.265  16.221 -0.0138 -0.4634  0.3365
  472TMC3    C4 7076   0.351   4.263  16.428 -0.7327  0.5630  0.3519
  472TMC3    C5 7077   0.308   4.148  16.368 -0.1309 -0.4138  0.1896
  472TMC3    C6 7078   0.227   4.141  16.257  0.1186 -0.3308 -0.5920
  472TMC3     C 7079   0.325   4.511  16.440  0.4242 -0.4512 -0.0143
  472TMC3     O 7080   0.270   4.615  16.412  0.4156  0.1839 -0.2579
  472TMC3     H 7081   0.156   4.479  16.259  0.7541  1.1242  1.5617
  472TMC3    H1 7082   0.410   4.257  16.518  2.0533 -0.2221 -1.5399
  472TMC3    H2 7083   0.179   4.051  16.221  1.9919 -2.2454  1.7765
  472TMC3    C7 7084   0.377   4.028  16.415 -0.4401  0.1517 -0.6608
  472TMC3    C8 7085   0.037   4.262  16.196 -0.6759  0.2551 -0.0623
  472TMC3    O1 7086   0.429   4.025  16.526  0.2618  0.0173  0.0672
  472TMC3    O2 7087   4.723   4.354  16.131 -0.0245 -0.0335 -0.0567
  473MPD2     C 7088   4.476   1.308  13.817  0.5308 -0.2037 -0.1674
  473MPD2    C1 7089   4.425   1.434  13.819 -0.3020  0.6334  0.4002
  473MPD2    C2 7090   4.433   1.502  13.939  0.0531 -0.3409  0.3221
  473MPD2    C3 7091   4.485   1.446  14.064 -0.3013  0.5139 -0.0610
  473MPD2    C4 7092   4.547   1.324  14.046  0.5896  0.5070 -1.1748
  473MPD2    C5 7093   4.542   1.254  13.926  0.2260  0.0328 -0.2943
  473MPD2     H 7094   4.393   1.603  13.936 -0.7283 -0.6964 -1.0113
  473MPD2    H1 7095   4.594   1.276  14.131  0.5254 -0.8992 -1.9145
  473MPD2    H2 7096   4.476   1.249  13.726 -0.8428  0.8403 -0.8388
  473MPD2    H3 7097   4.580   1.152  13.927 -0.2417 -0.1133  2.1524
  473MPD2     N 7098   4.479   1.509  14.188  0.9578 -0.0210 -0.7702
  473MPD2    H5 7099   4.535   1.464  14.259 -1.7055  0.6739  1.7782
  473MPD2    N1 7100   4.351   1.496  13.713  0.1395  0.0758 -0.9103
  473MPD2    H7 7101   4.320   1.591  13.727  2.2787  0.7896 -0.9636
  474TMC3    C1 7102   4.444   1.691  14.335 -0.4341 -0.0973 -0.5449
  474TMC3    C2 7103   4.379   1.807  14.363  0.0053 -0.0017 -0.0042
  474TMC3    C3 7104   4.447   1.893  14.438 -0.0180  0.1527  0.8838
  474TMC3    C4 7105   4.559   1.654  14.407  0.2653  0.1037 -0.6485
  474TMC3    C5 7106   4.611   1.746  14.493  0.0319  0.0152  0.0346
  474TMC3    C6 7107   4.558   1.867  14.511  0.4225  0.2748 -0.4674
  474TMC3     C 7108   4.396   1.617  14.216 -0.3465 -0.1577 -0.4208
  474TMC3     O 7109   4.302   1.659  14.153 -0.7738 -0.2340  0.6165
  474TMC3     H 7110   4.297   1.845  14.303 -0.0710  1.0514  0.7677
  474TMC3    H1 7111   4.612   1.563  14.382 -1.1461 -0.4532 -1.5765
  474TMC3    H2 7112   4.605   1.950  14.563 -0.8948  0.3326  0.6452
  474TMC3    C7 7113   0.014   1.730  14.527  0.4425  0.0812  0.0228
  474TMC3    C8 7114   4.410   2.033  14.426  0.0213 -0.1866  0.4546
  474TMC3    O1 7115   0.072   1.628  14.490  1.2512  0.2596 -0.6382
  474TMC3    O2 7116   4.287   2.060  14.433 -0.3711  0.5400 -0.6914
  475MPD2     C 7117   3.063   0.404  10.343 -0.5824  0.1355  0.2416
  475MPD2    C1 7118   3.139   0.460  10.437  0.3871 -0.0592  0.7628
  475MPD2    C2 7119   3.069   0.495  10.555  0.4286  0.4614 -0.1607
  475MPD2    C3 7120   2.938   0.481  10.568  0.3870 -0.4108 -0.2568
  475MPD2    C4 7121   2.864   0.416  10.465 -0.0345 -0.0251  0.0100
  475MPD2    C5 7122   2.924   0.380  10.346 -0.2575  0.3406 -0.5740
  475MPD2     H 7123   3.114   0.541  10.642  0.7716  1.3021 -0.7912
  475MPD2    H1 7124   2.759   0.390  10.464 -0.2592  0.8315  1.1673
  475MPD2    H2 7125   3.115   0.381  10.251 -1.0880 -0.9044  0.2082
  475MPD2    H3 7126   2.872   0.322  10.270  0.3026  0.3979 -0.9980
  475MPD2     N 7127   2.871   0.525  10.688 -0.0989  0.1613 -0.4472
  475MPD2    H5 7128   2.923   0.583  10.753 -0.0201  0.1290 -0.4818
  475MPD2    N1 7129   3.282   0.476  10.408  0.8953  0.2724  0.0972
  475MPD2    H7 7130   3.319   0.435  10.323 -0.4350  0.0969 -0.4094
  476TMC3    C1 7131   3.322   0.691  10.503  0.4564  0.0788 -0.3146
  476TMC3    C2 7132   3.232   0.740  10.415 -0.2709  0.6019  0.0461
  476TMC3    C3 7133   3.136   0.824  10.452 -0.1774  0.7861  0.6729
  476TMC3    C4 7134   3.327   0.733  10.635 -0.2715  0.0515  0.2194
  476TMC3    C5 7135   3.221   0.810  10.676  0.6549  0.0172  0.1920
  476TMC3    C6 7136   3.134   0.861  10.585 -0.5640  0.5967 -0.5798
  476TMC3     C 7137   3.368   0.557  10.482 -0.7956  0.3594  1.0973
  476TMC3     O 7138   3.488   0.534  10.504 -0.4589 -0.0371  0.4901
  476TMC3     H 7139   3.258   0.711  10.314 -0.1239 -0.8061  0.4872
  476TMC3    H1 7140   3.385   0.678  10.708 -2.7426 -2.3127  0.4089
  476TMC3    H2 7141   3.050   0.917  10.624 -0.1582 -0.2490  1.4970
  476TMC3    C7 7142   3.153   0.783  10.800 -0.1573 -0.7759  0.7155
  476TMC3    C8 7143   3.008   0.819  10.387 -0.6025  0.1183  0.1316
  476TMC3    O1 7144   3.092   0.678  10.817 -0.1689 -0.1784  0.1489
  476TMC3    O2 7145   2.910   0.856  10.452  0.3433 -0.1366  0.1978
  477MPD2     C 7146   0.354   1.438  11.831 -0.2571 -0.0030  0.5706
  477MPD2    C1 7147   0.430   1.415  11.718 -0.0623 -0.6275  0.4001
  477MPD2    C2 7148   0.547   1.338  11.739  0.0261 -0.2839  0.2008
  477MPD2    C3 7149   0.587   1.298  11.864  0.4545  0.2295  0.3303
  477MPD2    C4 7150   0.510   1.340  11.971  0.2760  0.4542 -0.1919
  477MPD2    C5 7151   0.396   1.411  11.955 -0.6098 -0.3203 -0.0332
  477MPD2     H 7152   0.611   1.312  11.656  0.9532 -2.8231  1.7281
  477MPD2    H1 7153   0.534   1.326  12.075  0.5681  1.8713 -0.0730
  477MPD2    H2 7154   0.262   1.496  11.834  1.0468  2.0362  1.0291
  477MPD2    H3 7155   0.339   1.448  12.039 -2.1260 -0.4552 -0.9996
  477MPD2     N 7156   0.712   1.227  11.878 -0.6319  0.2129  0.0211
  477MPD2    H5 7157   0.752   1.181  11.797  0.0790  1.2958 -0.2448
  477MPD2    N1 7158   0.378   1.458  11.595  0.6015 -0.0555 -0.2510
  477MPD2    H7 7159   0.284   1.494  11.589  1.1577  1.6135  0.8678
  478TMC3    C1 7160   0.371   1.510  11.372  0.1414  0.2923  0.6846
  478TMC3    C2 7161   0.239   1.539  11.387 -0.7547  1.5439 -0.1605
  478TMC3    C3 7162   0.182   1.638  11.306 -0.8102  0.6740 -0.1701
  478TMC3    C4 7163   0.437   1.580  11.279  0.0061 -0.2906 -0.1108
  478TMC3    C5 7164   0.373   1.662  11.191  0.0951  0.3922 -0.5996
  478TMC3    C6 7165   0.245   1.704  11.209  0.2615 -0.3976  0.2891
  478TMC3     C 7166   0.446   1.456  11.480  0.3527  0.7646 -0.1824
  478TMC3     O 7167   0.560   1.428  11.448  0.4883 -0.0822  0.3772
  478TMC3     H 7168   0.187   1.483  11.463 -0.4954  0.9390 -0.4241
  478TMC3    H1 7169   0.542   1.554  11.275  0.2673  0.4921  1.5603
  478TMC3    H2 7170   0.199   1.785  11.152 -1.6755 -1.8928 -0.2689
  478TMC3    C7 7171   0.464   1.730  11.097  0.5676 -0.0120  0.1586
  478TMC3    C8 7172   0.062   1.700  11.355 -0.6262  0.1296  0.4139
  478TMC3    O1 7173   0.586   1.712  11.115  0.1561  0.6091 -0.3363
  478TMC3    O2 7174   4.715   1.631  11.408 -0.5865 -0.5951  0.5557
  479MPD2     C 7175   4.697   3.635  15.588  0.3625 -0.0106 -0.4731
  479MPD2    C1 7176   4.608   3.595  15.692 -0.0303  0.7239  0.0411
  479MPD2    C2 7177   4.626   3.656  15.815 -0.0885 -0.2101 -0.1014
  479MPD2    C3 7178   4.732   3.745  15.840 -0.2648 -0.0648  0.2873
  479MPD2    C4 7179   0.075   3.776  15.739  0.0993  0.4151  0.6078
  479MPD2    C5 7180   0.057   3.726  15.617 -0.5086 -0.3628  0.0193
  479MPD2     H 7181   4.562   3.627  15.898 -0.1631  0.3169  0.0284
  479MPD2    H1 7182   0.149   3.854  15.754 -1.3655  1.9952 -0.3589
  479MPD2    H2 7183   4.679   3.602  15.486 -1.7438 -0.1322 -0.0765
  479MPD2    H3 7184   0.120   3.764  15.537 -0.5632  0.1893  0.2357
  479MPD2     N 7185   0.024   3.811  15.962  0.1539 -0.2136  0.5944
  479MPD2    H5 7186   0.106   3.870  15.955 -0.0283 -0.2632 -1.6879
  479MPD2    N1 7187   4.493   3.519  15.656 -0.3663 -0.0957  0.0029
  479MPD2    H7 7188   4.474   3.497  15.558 -0.5646 -0.4826  0.1281
  480TMC3    C1 7189   4.371   3.703  16.221  0.3054 -0.1277 -0.2373
  480TMC3    C2 7190   4.294   3.758  16.118  1.1769  0.6944 -0.1019
  480TMC3    C3 7191   4.348   3.828  16.017  0.3201 -0.7762  0.5049
  480TMC3    C4 7192   4.508   3.718  16.200  0.7298  0.3924  0.4244
  480TMC3    C5 7193   4.557   3.775  16.083 -0.3773  0.7664  0.0233
  480TMC3    C6 7194   4.478   3.840  15.998 -0.1601  0.0470  0.0935
  480TMC3     C 7195   4.316   3.617  16.319 -0.6233  0.1814 -0.1450
  480TMC3     O 7196   4.403   3.540  16.365  0.2833 -0.6304  0.5375
  480TMC3     H 7197   4.188   3.735  16.124  0.6951  2.9443 -0.0091
  480TMC3    H1 7198   4.574   3.691  16.282  0.2237  0.8598  0.9836
  480TMC3    H2 7199   4.523   3.899  15.919 -0.5363  0.4677  0.1923
  480TMC3    C7 7200   4.699   3.811  16.086 -0.5519 -0.0654  0.1064
  480TMC3    C8 7201   4.255   3.847  15.911  0.5069  0.6174  0.6898
  480TMC3    O1 7202   0.002   3.857  16.190  0.8213 -0.1062  0.0368
  480TMC3    O2 7203   4.135   3.840  15.941  0.7605 -0.1323  0.0307
  481MPD2     C 7204   1.248   2.455  13.963 -0.4690 -0.1273 -0.2127
  481MPD2    C1 7205   1.164   2.558  14.020  0.2639 -0.3401 -0.1252
  481MPD2    C2 7206   1.173   2.571  14.163  0.4119  0.1679 -0.2700
  481MPD2    C3 7207   1.264   2.497  14.238 -0.0285  0.0929  0.3702
  481MPD2    C4 7208   1.344   2.405  14.176 -1.2380 -0.1533 -0.9384
  481MPD2    C5 7209   1.330   2.383  14.040 -0.1497 -0.7091 -0.1593
  481MPD2     H 7210   1.114   2.647  14.213  2.4607  0.1563  2.1908
  481MPD2    H1 7211   1.410   2.343  14.236  0.4554 -1.1488 -3.8043
  481MPD2    H2 7212   1.246   2.438  13.856 -0.8111  0.7122 -0.3413
  481MPD2    H3 7213   1.383   2.302  13.990 -1.0306 -1.9637  0.9557
  481MPD2     N 7214   1.290   2.508  14.379 -0.4611  0.7000 -0.1538
  481MPD2    H5 7215   1.364   2.452  14.421 -1.1260 -0.8728 -1.0929
  481MPD2    N1 7216   1.082   2.631  13.930  0.3710 -0.1584 -0.0486
  481MPD2    H7 7217   1.078   2.614  13.830  0.8960  0.1763 -0.1263
  482TMC3    C1 7218   0.908   2.793  13.875 -0.6556 -0.0177 -0.9917
  482TMC3    C2 7219   0.820   2.701  13.820 -0.3674  0.2471 -0.4607
  482TMC3    C3 7220   0.725   2.745  13.729  0.6952 -0.5723 -0.3310
  482TMC3    C4 7221   0.896   2.928  13.861 -0.2290  0.6120 -0.3925
  482TMC3    C5 7222   0.793   2.971  13.773 -0.6885 -0.4146  0.2961
  482TMC3    C6 7223   0.711   2.882  13.710 -0.4041 -0.2424 -0.2795
  482TMC3     C 7224   1.013   2.745  13.963 -0.0014 -0.1708  0.4713
  482TMC3     O 7225   1.031   2.820  14.060 -0.2872 -0.6652  0.7039
  482TMC3     H 7226   0.840   2.596  13.833  1.8666  1.1611  3.4451
  482TMC3    H1 7227   0.981   2.987  13.894  0.4637  0.1216 -1.3116
  482TMC3    H2 7228   0.640   2.922  13.638 -1.7031 -1.6891  0.1905
  482TMC3    C7 7229   0.777   3.112  13.743 -0.1221  0.0772  0.5046
  482TMC3    C8 7230   0.654   2.647  13.650  0.0312  0.5113 -0.0316
  482TMC3    O1 7231   0.812   3.196  13.824  0.0319  0.0178 -0.9373
  482TMC3    O2 7232   0.691   2.533  13.670 -0.4012  0.3248  0.0166
  483TMC3    C1 7233   4.334   2.258   1.167 -0.0903 -0.8820  0.6064
  483TMC3    C2 7234   4.430   2.347   1.126  0.3223  0.8050 -0.6499
  483TMC3    C3 7235   4.554   2.318   1.160  0.3818  0.5279  0.7348
  483TMC3    C4 7236   4.359   2.148   1.246 -0.6701  0.5085 -0.8603
  483TMC3    C5 7237   4.489   2.129   1.283 -0.7692 -1.2274  0.2393
  483TMC3    C6 7238   4.588   2.204   1.230 -0.3300  0.9246  0.0255
  483TMC3     C 7239   4.219   2.259   1.087 -0.3304  0.0987  0.2618
  483TMC3     O 7240   4.200   2.352   1.008 -0.0460 -0.6784 -0.1066
  483TMC3     H 7241   4.406   2.432   1.064 -1.4755 -1.5780 -3.2413
  483TMC3    H1 7242   4.278   2.090   1.288  0.3445  1.0941  1.8523
  483TMC3    H2 7243   4.694   2.197   1.254 -0.6750 -0.9056  0.9826
  483TMC3    C7 7244   4.519   2.022   1.379  0.5234  0.4846  0.6634
  483TMC3    C8 7245   4.658   2.389   1.087 -0.2617 -0.0731 -0.3634
  483TMC3    O1 7246   4.434   1.937   1.406  0.0910  0.5886 -0.5794
  483TMC3    O2 7247   4.631   2.440   0.981  0.1850 -0.0269  0.2952
  484MPD2     C 7248   0.726   4.636  12.492 -0.1692 -0.8342 -0.1506
  484MPD2    C1 7249   0.844   4.574  12.531 -0.0814 -0.7859  0.0406
  484MPD2    C2 7250   0.967   4.612  12.469  0.8795 -0.0742 -0.0513
  484MPD2    C3 7251   0.971   4.712  12.375  0.0925  0.0042  0.5231
  484MPD2    C4 7252   0.857   0.024  12.328 -0.8576 -0.6450 -0.3482
  484MPD2    C5 7253   0.736   4.720  12.384 -0.4299 -0.0849 -0.6014
  484MPD2     H 7254   1.058   4.567  12.508 -0.2752 -0.1038  2.6517
  484MPD2    H1 7255   0.853   0.103  12.254  1.2328  1.6198  1.9481
  484MPD2    H2 7256   0.629   4.611  12.532 -0.9662  0.9661 -0.9645
  484MPD2    H3 7257   0.643   0.024  12.349 -2.0769 -0.2216  3.5872
  484MPD2     N 7258   1.092   0.014  12.319 -0.0195 -0.0927  0.9846
  484MPD2    H5 7259   1.089   0.091  12.253 -3.1677  0.1869  1.4614
  484MPD2    N1 7260   0.835   4.478  12.631  0.0617  0.0294  0.4256
  484MPD2    H7 7261   0.744   4.463  12.674 -0.5174  1.5504 -0.2810
  485TMC3    C1 7262   1.311   0.079  12.320  0.0368  0.8014 -0.5585
  485TMC3    C2 7263   1.410   0.133  12.404  0.3924  0.1045  0.0077
  485TMC3    C3 7264   1.487   0.233  12.349  0.0813  0.4681 -0.3882
  485TMC3    C4 7265   1.302   0.118  12.188 -0.0553 -0.3208 -0.5495
  485TMC3    C5 7266   1.383   0.215  12.140  0.5114 -0.1167 -0.1113
  485TMC3    C6 7267   1.462   0.280  12.223  0.1472  0.7375 -0.3513
  485TMC3     C 7268   1.213   4.727  12.372 -0.0906  0.3650  0.1250
  485TMC3     O 7269   1.250   4.651  12.459 -0.2989 -0.1254  0.2976
  485TMC3     H 7270   1.425   0.089  12.502  0.2059  0.7279  0.3149
  485TMC3    H1 7271   1.260   0.054  12.111 -0.3392 -2.7641  1.6249
  485TMC3    H2 7272   1.545   0.330  12.175  1.4352 -2.3497 -1.3532
  485TMC3    C7 7273   1.464   0.171  12.033 -0.6122  0.2892 -0.3914
  485TMC3    C8 7274   1.634   0.221  12.366  0.3613  0.5192  0.1546
  485TMC3    O1 7275   1.519   0.061  12.042  0.3161 -0.1978 -0.0860
  485TMC3    O2 7276   1.704   0.309  12.313  0.0208  0.2607 -0.9523
  486MPD2     C 7277   4.194   3.868  12.569 -0.0479  0.0049 -0.1712
  486MPD2    C1 7278   4.105   3.770  12.531  0.2545 -0.2668  0.6041
  486MPD2    C2 7279   3.980   3.816  12.491 -0.2999  0.0070  0.2678
  486MPD2    C3 7280   3.947   3.951  12.509 -0.2019 -0.1822 -0.6472
  486MPD2    C4 7281   4.040   4.042  12.551 -0.5358 -0.2687 -0.0745
  486MPD2    C5 7282   4.169   3.998  12.573  0.9607  0.3129 -0.6159
  486MPD2     H 7283   3.906   3.744  12.459  0.4470 -0.5893 -0.1233
  486MPD2    H1 7284   4.019   4.147  12.569 -0.4145 -0.2712  0.0806
  486MPD2    H2 7285   4.293   3.839  12.602  0.3127 -0.2648 -1.5070
  486MPD2    H3 7286   4.250   4.059  12.612  1.3337  0.2208 -1.2525
  486MPD2     N 7287   3.819   3.996  12.477  0.6662 -0.2111 -0.2760
  486MPD2    H5 7288   3.754   3.922  12.451 -0.5877  0.2660  1.5358
  486MPD2    N1 7289   4.149   3.637  12.518  0.4974  0.8002  0.2853
  486MPD2    H7 7290   4.245   3.615  12.540  0.3926 -0.4059 -0.4570
  487TMC3    C1 7291   4.133   3.398  12.510 -0.4572 -0.4740  0.3239
  487TMC3    C2 7292   4.066   3.273  12.512 -0.8802  0.3862  0.5476
  487TMC3    C3 7293   4.125   3.159  12.565  0.5215 -0.4038 -1.3047
  487TMC3    C4 7294   4.262   3.397  12.569  0.1799 -0.2351 -0.3052
  487TMC3    C5 7295   4.318   3.280  12.616  0.1723 -0.3350 -0.3043
  487TMC3    C6 7296   4.255   3.158  12.606 -0.2240  0.2004 -0.5975
  487TMC3     C 7297   4.068   3.526  12.485  0.0777 -0.6263 -1.0146
  487TMC3     O 7298   3.947   3.515  12.460 -0.8057 -0.0936  0.2013
  487TMC3     H 7299   3.968   3.262  12.466  0.4099  2.6613 -2.7638
  487TMC3    H1 7300   4.326   3.483  12.579  0.0694 -0.4048  1.8624
  487TMC3    H2 7301   4.273   3.073  12.671 -2.9277  0.1779  0.1235
  487TMC3    C7 7302   4.419   3.291  12.716 -0.8297 -0.2870 -0.1214
  487TMC3    C8 7303   4.048   3.059  12.633 -0.3880  0.5344  0.1776
  487TMC3    O1 7304   4.426   3.385  12.798  0.9211 -0.6012 -0.1371
  487TMC3    O2 7305   4.101   2.947  12.631 -0.5336 -0.9061  0.4647
  488MPD2     C 7306   3.577   0.937  16.470 -0.1519 -0.0058  0.2047
  488MPD2    C1 7307   3.608   1.066  16.457 -0.9947  0.4410 -0.4458
  488MPD2    C2 7308   3.604   1.146  16.565 -0.6991 -0.7601  0.4385
  488MPD2    C3 7309   3.571   1.102  16.694 -0.1660  0.5139 -0.1624
  488MPD2    C4 7310   3.531   0.976  16.704  0.1261  0.9050 -0.2037
  488MPD2    C5 7311   3.535   0.894  16.595  0.8146  0.1075  0.0068
  488MPD2     H 7312   3.603   1.254  16.555  0.0264 -0.8874 -0.9544
  488MPD2    H1 7313   3.490   0.933  16.795 -1.7084  2.1083 -0.4708
  488MPD2    H2 7314   3.589   0.860  16.395  0.3567  0.2465  0.0238
  488MPD2    H3 7315   3.491   0.796  16.599  1.7692 -0.2506  1.6377
  488MPD2     N 7316   3.560   1.194  16.800 -0.5618 -0.9236  0.1110
  488MPD2    H5 7317   3.591   1.288  16.778 -0.2238 -0.9100  0.6392
  488MPD2    N1 7318   3.644   1.131  16.337 -0.5330  0.4764  0.9178
  488MPD2    H7 7319   3.670   1.228  16.345  0.2241  0.3744 -0.4425
  489TMC3    C1 7320   3.517   1.263  17.024 -0.2712  0.0623 -0.5012
  489TMC3    C2 7321   3.600   1.368  17.007 -0.2808  0.7465  0.1940
  489TMC3    C3 7322   3.578   1.481  17.088  0.2429  0.4894 -0.1749
  489TMC3    C4 7323   3.431   1.255  17.128 -0.1136 -0.4913 -0.4495
  489TMC3    C5 7324   3.427   1.353  17.211 -0.5895 -0.1404 -0.6089
  489TMC3    C6 7325   3.496   1.472  17.194  0.3797  0.2241  0.8193
  489TMC3     C 7326   3.491   1.166  16.919 -0.5707 -0.1253 -0.2514
  489TMC3     O 7327   3.420   1.071  16.943 -1.0500 -0.7952 -0.2628
  489TMC3     H 7328   3.671   1.368  16.924  2.4449  1.5676  2.4998
  489TMC3    H1 7329   3.379   1.164  17.158 -1.0623  0.0647 -0.3887
  489TMC3    H2 7330   3.501   1.550  17.269  1.3106  1.7609 -0.8501
  489TMC3    C7 7331   3.372   1.317  17.340 -0.5869  0.8174 -0.2386
  489TMC3    C8 7332   3.680   1.583  17.104  0.3771 -0.4246  0.4115
  489TMC3    O1 7333   3.388   1.203  17.384 -0.4828  0.1508  0.1228
  489TMC3    O2 7334   3.647   1.672  17.179  0.1925 -0.1032 -0.0833
  490MPD2     C 7335   0.237   0.859  17.531 -0.6275 -0.3095 -0.1976
  490MPD2    C1 7336   0.213   0.785  17.650 -0.7983  0.0328  0.3732
  490MPD2    C2 7337   0.321   0.721  17.709 -0.4944  0.0244 -0.0757
  490MPD2    C3 7338   0.447   0.726  17.656 -0.1161  0.0423 -0.0091
  490MPD2    C4 7339   0.469   0.804  17.550  0.2135  0.7179  0.3019
  490MPD2    C5 7340   0.365   0.877  17.486  0.2074  0.0334 -0.1920
  490MPD2     H 7341   0.311   0.680   0.056 -1.6728 -1.2732 -0.7290
  490MPD2    H1 7342   0.569   0.800  17.508  0.3238 -1.8543  0.8247
  490MPD2    H2 7343   0.156   0.917  17.488 -0.3853 -0.4226 -0.8055
  490MPD2    H3 7344   0.374   0.934  17.395  0.8164  1.7749  0.9502
  490MPD2     N 7345   0.553   0.650  17.700 -0.2013 -0.3148  0.1905
  490MPD2    H5 7346   0.630   0.646  17.634 -1.5653 -0.6069 -1.3794
  490MPD2    N1 7347   0.083   0.744  17.688  0.4534 -0.6698  0.2350
  490MPD2    H7 7348   0.084   0.671   0.006  2.7646  1.2507  2.2042
  491TMC3    C1 7349   4.610   0.657  17.641  1.4003  0.1894  0.4090
  491TMC3    C2 7350   4.654   0.573  17.748 -0.2580 -0.7755 -0.0465
  491TMC3    C3 7351   4.638   0.432  17.734  0.9410  0.1359 -0.4663
  491TMC3    C4 7352   4.559   0.596  17.528 -0.8317 -0.1919  0.3207
  491TMC3    C5 7353   4.550   0.464  17.518 -0.4785 -0.2362  0.5601
  491TMC3    C6 7354   4.588   0.377  17.619  0.6302  1.0441  0.0154
  491TMC3     C 7355   4.703   0.762  17.613  0.0506 -0.2380 -0.3124
  491TMC3     O 7356   4.683   0.833  17.513 -0.1601  0.3245  0.4055
  491TMC3     H 7357   4.691   0.616   0.088 -0.3355 -0.4345 -0.1745
  491TMC3    H1 7358   4.537   0.661  17.444  0.4999 -1.8874 -1.3484
  491TMC3    H2 7359   4.570   0.271  17.606 -0.5990  1.3380 -0.6550
  491TMC3    C7 7360   4.531   0.409  17.382  0.1100 -0.1297 -0.1666
  491TMC3    C8 7361   4.655   0.349   0.097 -0.4171 -0.2599 -0.5178
  491TMC3    O1 7362   4.589   0.304  17.363 -0.5210  0.1325  0.4840
  491TMC3    O2 7363   4.638   0.395   0.208  0.1476  0.5315  0.5502
  492MPD2     C 7364   4.684   0.437  11.818  0.3580  0.2859  0.0499
  492MPD2    C1 7365   4.625   0.367  11.716 -0.8642  0.3431 -0.2159
  492MPD2    C2 7366   4.571   0.245  11.739  0.3185  0.2367  0.7105
  492MPD2    C3 7367   4.568   0.194  11.872 -0.2632  0.2204 -0.1982
  492MPD2    C4 7368   4.628   0.266  11.974 -0.1680 -0.2087  0.3534
  492MPD2    C5 7369   4.674   0.387  11.946 -0.7045 -0.4250  0.2636
  492MPD2     H 7370   4.536   0.180  11.660  1.2648  0.9209 -0.2723
  492MPD2    H1 7371   4.644   0.228  12.074  2.0702 -0.3064 -0.0256
  492MPD2    H2 7372   4.715   0.541  11.807 -1.8333  1.1209  1.6550
  492MPD2    H3 7373   4.716   0.447  12.025  2.1374 -2.0049 -0.0488
  492MPD2     N 7374   4.502   0.073  11.912 -0.0878  0.0733  0.0679
  492MPD2    H5 7375   4.490   0.065  12.013 -0.8619 -0.5509 -0.0750
  492MPD2    N1 7376   4.628   0.432  11.591 -0.3216 -0.0733 -0.1943
  492MPD2    H7 7377   4.673   0.521  11.574  0.7665 -0.2651  1.6830
  493TMC3    C1 7378   4.582   0.476  11.369  0.5901  0.7053 -0.0201
  493TMC3    C2 7379   4.711   0.495  11.340  0.3434 -0.4091 -0.2672
  493TMC3    C3 7380   0.007   0.537  11.216 -0.0969 -0.9838 -0.0939
  493TMC3    C4 7381   4.486   0.475  11.267 -0.4124 -0.4660 -0.4015
  493TMC3    C5 7382   4.528   0.511  11.140 -0.1503  0.0967  0.0280
  493TMC3    C6 7383   4.656   0.550  11.114 -0.4845 -0.2251 -0.3675
  493TMC3     C 7384   4.554   0.391  11.482  0.0876 -0.8875 -0.6054
  493TMC3     O 7385   4.467   0.313  11.459 -0.0537 -0.3547 -0.7880
  493TMC3     H 7386   0.057   0.476  11.405  0.6511 -0.7358 -0.7714
  493TMC3    H1 7387   4.380   0.454  11.270 -0.0724 -2.3083 -1.0968
  493TMC3    H2 7388   4.687   0.566  11.012 -0.2181  0.3615 -0.1938
  493TMC3    C7 7389   4.452   0.464  11.026 -0.3265  0.2752 -0.2594
  493TMC3    C8 7390   0.143   0.504  11.180 -0.2736 -0.4745  0.1358
  493TMC3    O1 7391   4.476   0.530  10.926  0.3608 -0.3274  0.0139
  493TMC3    O2 7392   0.206   0.415  11.236  0.3181 -0.0651 -0.1530
  494TMC3    C1 7393   0.847   1.713   0.445 -0.0640 -0.3430  0.1779
  494TMC3    C2 7394   0.883   1.577   0.451  0.1547  0.0895  0.0428
  494TMC3    C3 7395   0.898   1.507   0.334 -0.4448  0.1833 -0.0523
  494TMC3    C4 7396   0.799   1.755   0.325 -0.1562 -0.2761 -0.2858
  494TMC3    C5 7397   0.808   1.681   0.207  0.0137 -0.0185 -0.3825
  494TMC3    C6 7398   0.863   1.553   0.212  0.5258 -0.1477  0.0299
  494TMC3     C 7399   0.948   1.808   0.501 -0.1541  0.5247  0.0795
  494TMC3     O 7400   0.935   1.918   0.453  0.5523 -0.4493  0.2250
  494TMC3     H 7401   0.923   1.534   0.542 -0.0677 -0.3943 -0.0888
  494TMC3    H1 7402   0.752   1.853   0.324  1.5188  0.5258  0.3370
  494TMC3    H2 7403   0.904   1.502   0.126  0.6318  0.8257 -0.4950
  494TMC3    C7 7404   0.861   1.747   0.091 -0.2560  0.2630 -0.3995
  494TMC3    C8 7405   1.011   1.419   0.323 -0.9214  0.2011  1.0060
  494TMC3    O1 7406   0.869   1.688  17.739 -0.0835  0.6407 -0.1704
  494TMC3    O2 7407   1.053   1.379   0.214 -0.4059 -0.4708  0.7109
  495TMC3    C1 7408   4.417   3.455  15.001  0.1009 -0.2943 -0.3014
  495TMC3    C2 7409   4.479   3.539  14.915 -0.3623 -0.0823  0.1778
  495TMC3    C3 7410   4.512   3.666  14.955  0.3784  0.6986 -0.0643
  495TMC3    C4 7411   4.397   3.496  15.130 -0.4045  0.2676  0.0781
  495TMC3    C5 7412   4.433   3.619  15.171 -0.4035  0.0497  0.2962
  495TMC3    C6 7413   4.494   3.701  15.086  0.2629  0.0306  0.1845
  495TMC3     C 7414   4.359   3.327  14.958  0.4593  0.0960  0.2703
  495TMC3     O 7415   4.336   3.244  15.045  0.3810 -0.1940 -0.1913
  495TMC3     H 7416   4.487   3.512  14.811  4.0471  1.5510  0.1020
  495TMC3    H1 7417   4.354   3.435  15.209  0.8439  0.4407  0.8902
  495TMC3    H2 7418   4.514   3.804  15.114  1.0200 -0.0599 -0.0345
  495TMC3    C7 7419   4.411   3.672  15.300  0.3858  0.0251 -0.2328
  495TMC3    C8 7420   4.490   3.775  14.866 -0.2831  0.1282 -0.2910
  495TMC3    O1 7421   4.453   3.602  15.389 -0.2900 -0.5946  0.4081
  495TMC3    O2 7422   4.415   3.868  14.899  0.4971 -0.0878  0.0037
  496MPD2     C 7423   1.604   3.783  15.536  0.1591 -1.1718 -0.7301
  496MPD2    C1 7424   1.551   3.687  15.453 -0.2720  0.6111  0.0075
  496MPD2    C2 7425   1.419   3.650  15.469 -0.0932  0.5625 -0.5532
  496MPD2    C3 7426   1.349   3.684  15.583  0.8980  0.2951 -0.3406
  496MPD2    C4 7427   1.400   3.778  15.672 -0.0467 -0.1102 -0.3401
  496MPD2    C5 7428   1.523   3.822  15.641  0.2310  0.6919  0.1285
  496MPD2     H 7429   1.381   3.579  15.397  0.9569 -0.0054 -0.5391
  496MPD2    H1 7430   1.343   3.820  15.755 -1.0213 -0.2609 -0.9263
  496MPD2    H2 7431   1.704   3.824  15.525 -0.0427 -0.4223  0.1939
  496MPD2    H3 7432   1.570   3.892  15.710  1.1094  0.9874 -0.7754
  496MPD2     N 7433   1.217   3.636  15.612 -0.4576  0.1608 -0.2404
  496MPD2    H5 7434   1.169   3.668  15.695 -0.5980 -0.5845 -0.0355
  496MPD2    N1 7435   1.636   3.638  15.350  0.1548  0.3311  0.3345
  496MPD2    H7 7436   1.732   3.670  15.358  1.2558 -2.4548 -1.7514
  497TMC3    C1 7437   1.033   3.503  15.588 -0.0921  0.0316 -0.2252
  497TMC3    C2 7438   0.968   3.423  15.494 -0.3812  0.6918 -0.3969
  497TMC3    C3 7439   0.887   3.323  15.535 -0.0063  0.2448  0.8523
  497TMC3    C4 7440   1.030   3.471  15.724 -0.0406 -0.0948  0.8293
  497TMC3    C5 7441   0.944   3.369  15.759 -0.2887  0.1671 -0.3310
  497TMC3    C6 7442   0.874   3.290  15.666 -0.1528 -0.1614 -0.3308
  497TMC3     C 7443   1.153   3.551  15.533  0.3767 -0.8378  0.1540
  497TMC3     O 7444   1.169   3.529  15.414 -0.5364 -0.3723  0.1662
  497TMC3     H 7445   0.963   3.451  15.389 -0.8087  2.1893  0.0240
  497TMC3    H1 7446   1.076   3.531  15.802  2.4827  2.3898 -2.5990
  497TMC3    H2 7447   0.800   3.214  15.689  0.4192 -0.7026 -0.2673
  497TMC3    C7 7448   0.937   3.336  15.902  0.4206 -0.3055  0.3307
  497TMC3    C8 7449   0.845   3.221  15.443  0.5453  0.1484  0.6361
  497TMC3    O1 7450   0.841   3.261  15.924  0.3904  0.1916 -0.1261
  497TMC3    O2 7451   0.748   3.150  15.474  0.0701  0.1060 -0.8653
  498MPD2     C 7452   2.745   0.450   9.367  0.1654  0.3653  0.0880
  498MPD2    C1 7453   2.681   0.536   9.456 -0.0959 -0.4077 -0.1343
  498MPD2    C2 7454   2.554   0.511   9.491  0.1340 -0.0639 -0.3387
  498MPD2    C3 7455   2.469   0.417   9.424 -0.5883 -0.3222 -0.0223
  498MPD2    C4 7456   2.533   0.338   9.327 -0.1330  0.2660 -0.1125
  498MPD2    C5 7457   2.667   0.349   9.307  0.1661 -0.3174 -0.1587
  498MPD2     H 7458   2.510   0.574   9.568  2.3593 -2.1546  2.6661
  498MPD2    H1 7459   2.487   0.254   9.276 -0.0325  0.9927 -1.3900
  498MPD2    H2 7460   2.852   0.448   9.350 -0.3170 -2.1594 -2.7042
  498MPD2    H3 7461   2.713   0.280   9.237 -1.8142 -1.1776 -0.6048
  498MPD2     N 7462   2.349   0.378   9.484  0.3133  0.5210  0.1712
  498MPD2    H5 7463   2.319   0.424   9.570  0.0722  2.0562 -0.7474
  498MPD2    N1 7464   2.767   0.631   9.518 -0.4249 -0.1139  0.0487
  498MPD2    H7 7465   2.866   0.630   9.494 -0.7192  2.3534 -1.2356
  499TMC3    C1 7466   2.838   0.776   9.690  0.4260  0.3056  0.1865
  499TMC3    C2 7467   2.967   0.722   9.696 -0.7034  0.2181 -0.8346
  499TMC3    C3 7468   3.065   0.797   9.772 -0.0516  0.6051  0.3115
  499TMC3    C4 7469   2.805   0.893   9.745  0.3750  0.2209 -0.5210
  499TMC3    C5 7470   2.904   0.960   9.806 -0.7066  0.4535 -0.4089
  499TMC3    C6 7471   3.032   0.921   9.825 -0.3910 -0.3233 -0.0705
  499TMC3     C 7472   2.732   0.725   9.610 -0.1120 -0.2247 -0.3820
  499TMC3     O 7473   2.620   0.765   9.636  0.7603 -0.2934  0.3924
  499TMC3     H 7474   2.991   0.623   9.658  0.0625 -0.7206  2.0357
  499TMC3    H1 7475   2.704   0.933   9.734  0.0718 -0.4339 -0.0674
  499TMC3    H2 7476   3.102   0.980   9.883  0.1004 -2.9846  2.0447
  499TMC3    C7 7477   2.892   1.104   9.805 -0.0371  0.6340  0.3116
  499TMC3    C8 7478   3.155   0.712   9.848 -0.3989 -0.0375 -0.0624
  499TMC3    O1 7479   2.995   1.171   9.800  0.0470 -0.5318  0.4677
  499TMC3    O2 7480   3.133   0.589   9.829  0.4597  0.3214 -0.2703
  500MPD2     C 7481   3.997   1.207  10.900 -1.0215 -0.3599 -0.1169
  500MPD2    C1 7482   4.041   1.247  10.776 -0.2137 -0.3025  0.5077
  500MPD2    C2 7483   3.951   1.278  10.680 -0.1257 -0.9250  0.3684
  500MPD2    C3 7484   3.815   1.286  10.711 -0.0328 -0.7893  0.0789
  500MPD2    C4 7485   3.775   1.260  10.839  0.1430 -0.3997 -0.1504
  500MPD2    C5 7486   3.868   1.220  10.937 -0.4768 -0.4725 -0.4511
  500MPD2     H 7487   3.987   1.304  10.581  0.4060  1.3212  1.1531
  500MPD2    H1 7488   3.674   1.277  10.875 -0.4095 -1.7037 -1.0670
  500MPD2    H2 7489   4.065   1.183  10.981 -0.6648  1.7815  0.2202
  500MPD2    H3 7490   3.834   1.200  11.038  0.1632  0.3898 -0.0628
  500MPD2     N 7491   3.722   1.338  10.624  0.2851  0.0496 -0.0408
  500MPD2    H5 7492   3.631   1.372  10.656  1.0076  2.1351 -0.2051
  500MPD2    N1 7493   4.179   1.248  10.755  0.0403 -0.1515 -0.0821
  500MPD2    H7 7494   4.204   1.282  10.663 -0.2593  0.5888  0.1070
  501TMC3    C1 7495   4.412   1.245  10.776  0.3636  0.2325 -0.1328
  501TMC3    C2 7496   4.421   1.353  10.703 -0.8684  0.0505  0.2020
  501TMC3    C3 7497   4.544   1.388  10.649  0.1831 -0.4931  0.1979
  501TMC3    C4 7498   4.525   1.179  10.803 -1.0285  0.1524  1.0012
  501TMC3    C5 7499   4.651   1.214  10.756  0.1290 -0.8078 -0.1435
  501TMC3    C6 7500   4.661   1.320  10.672 -0.3519 -0.6119 -0.5874
  501TMC3     C 7501   4.285   1.211  10.842 -0.3905 -0.6811 -0.1508
  501TMC3     O 7502   4.290   1.157  10.952  0.1692  0.3066 -0.0999
  501TMC3     H 7503   4.343   1.427  10.711 -1.4178 -0.2106 -2.5938
  501TMC3    H1 7504   4.527   1.100  10.877  2.9032  0.5321  1.2950
  501TMC3    H2 7505   0.013   1.360  10.628  0.3814 -1.5676  0.0626
  501TMC3    C7 7506   0.033   1.152  10.809  0.7098 -0.0568 -0.2446
  501TMC3    C8 7507   4.560   1.517  10.577 -0.2735 -0.2843 -0.0948
  501TMC3    O1 7508   0.021   1.100  10.918  0.3265  0.2491  0.2039
  501TMC3    O2 7509   4.674   1.555  10.553  0.2227 -0.4627 -1.0674
  502TMC3    C1 7510   3.847   4.696  14.955 -0.0019 -0.1260  0.9820
  502TMC3    C2 7511   3.857   0.075  14.895 -0.3464  0.1877 -0.4944
  502TMC3    C3 7512   3.783   0.181  14.940 -0.2774  0.2831  0.5049
  502TMC3    C4 7513   3.753   4.675  15.047  0.3108  0.1166  0.3078
  502TMC3    C5 7514   3.679   0.040  15.093  0.2193  0.3086 -0.0878
  502TMC3    C6 7515   3.694   0.165  15.043  0.2839  0.1734  0.5937
  502TMC3     C 7516   3.982   4.649  14.993 -0.3501  0.8280 -0.1242
  502TMC3     O 7517   4.082   4.693  14.936 -0.5608 -0.0602  0.3463
  502TMC3     H 7518   3.937   0.090  14.823  0.6238 -0.7648  0.3726
  502TMC3    H1 7519   3.732   4.575  15.083  0.1135  0.4902  1.2414
  502TMC3    H2 7520   3.664   0.251  15.103  2.0931 -0.2489  2.1240
  502TMC3    C7 7521   3.638   0.026  15.229 -0.1852  0.2463  0.3825
  502TMC3    C8 7522   3.760   0.299  14.860 -0.3612 -0.0466  1.0659
  502TMC3    O1 7523   3.713   4.703  15.307  0.1255 -0.4046  0.5592
  502TMC3    O2 7524   3.856   0.333  14.788  0.2815 -0.0200  1.2241
  503MPD2     C 7525   1.111   0.885  17.154 -0.1034 -1.1411 -0.9109
  503MPD2    C1 7526   1.200   0.917  17.253 -0.1403  0.4307 -0.2290
  503MPD2    C2 7527   1.320   0.846  17.263 -0.2049  0.9077 -0.2329
  503MPD2    C3 7528   1.334   0.735  17.175 -1.1757 -0.0914  0.1817
  503MPD2    C4 7529   1.241   0.718  17.071  0.8753  0.2324 -0.2835
  503MPD2    C5 7530   1.128   0.794  17.062  0.1588 -0.0321 -0.3753
  503MPD2     H 7531   1.393   0.861  17.342 -0.7570  2.7141 -0.0582
  503MPD2    H1 7532   1.254   0.642  16.994 -2.6099 -0.7206  0.0927
  503MPD2    H2 7533   1.026   0.953  17.147  0.5753 -0.3761 -1.7750
  503MPD2    H3 7534   1.051   0.778  16.987  1.0007  0.6418 -1.3772
  503MPD2     N 7535   1.439   0.643  17.190  0.0630  0.0846  0.3299
  503MPD2    H5 7536   1.494   0.660  17.274 -0.8837  0.9002  0.7757
  503MPD2    N1 7537   1.183   1.029  17.334 -0.2498 -0.0264  0.0138
  503MPD2    H7 7538   1.087   1.061  17.340  0.1942  1.3993 -0.4344
  504TMC3    C1 7539   1.524   0.430  17.197  0.1420 -0.7093  0.7375
  504TMC3    C2 7540   1.524   0.422  17.331  0.1263  0.2796 -0.2542
  504TMC3    C3 7541   1.621   0.344  17.390  0.4387  0.1015 -0.1491
  504TMC3    C4 7542   1.622   0.375  17.129 -0.9695  0.3654  0.4800
  504TMC3    C5 7543   1.716   0.296  17.191  0.7799  0.4608  0.6080
  504TMC3    C6 7544   1.721   0.283  17.323  0.0445  0.2488 -0.6522
  504TMC3     C 7545   1.462   0.529  17.119 -0.3163  0.3545 -0.0222
  504TMC3     O 7546   1.439   0.504  17.003  0.1132  0.3007 -0.5146
  504TMC3     H 7547   1.453   0.473  17.396 -0.6783  0.0656 -0.9736
  504TMC3    H1 7548   1.624   0.386  17.021 -2.9956 -0.7031  0.3490
  504TMC3    H2 7549   1.815   0.256  17.370 -0.4499  3.4741  2.1879
  504TMC3    C7 7550   1.811   0.229  17.104 -0.3542  0.1133 -0.8380
  504TMC3    C8 7551   1.584   0.288  17.523  0.0175 -0.2133  0.1188
  504TMC3    O1 7552   1.819   0.267  16.988  0.1098 -0.0270  0.9588
  504TMC3    O2 7553   1.471   0.303  17.571  0.0501 -0.2739  0.0808
  505MPD2     C 7554   1.761   4.067  10.607  0.2192  0.5522 -0.4382
  505MPD2    C1 7555   1.793   4.147  10.505  0.1559  0.8777 -0.7331
  505MPD2    C2 7556   1.846   4.268  10.541  0.3812  0.8267 -0.6176
  505MPD2    C3 7557   1.881   4.292  10.672  0.4328  0.1633  0.1248
  505MPD2    C4 7558   1.844   4.208  10.775 -0.3554 -0.6700 -0.0569
  505MPD2    C5 7559   1.785   4.091  10.735 -0.1046 -0.6128  0.4502
  505MPD2     H 7560   1.887   4.335  10.466  1.9713 -0.2484 -0.6995
  505MPD2    H1 7561   1.884   4.218  10.875  2.1353 -2.5674 -0.8484
  505MPD2    H2 7562   1.704   3.977  10.588  1.3084 -0.2540  0.0991
  505MPD2    H3 7563   1.756   4.024  10.815 -1.5367  1.6098  1.7879
  505MPD2     N 7564   1.955   4.406  10.713  0.4857  0.0589  0.8602
  505MPD2    H5 7565   1.987   4.422  10.808 -0.5924  1.6136  0.9759
  505MPD2    N1 7566   1.767   4.089  10.379  0.5755  0.1593 -0.1771
  505MPD2    H7 7567   1.756   3.988  10.374 -0.1916  0.1847  0.9874
  506TMC3    C1 7568   1.808   4.087  10.150 -0.1729  0.6012 -0.0276
  506TMC3    C2 7569   1.763   4.125  10.027 -0.1999  0.9705  0.0401
  506TMC3    C3 7570   1.814   4.057   9.915 -0.2211 -0.2591 -0.9768
  506TMC3    C4 7571   1.915   4.005  10.162  0.1903  0.3921 -0.3825
  506TMC3    C5 7572   1.976   3.951  10.054 -0.2881  0.1400  0.6796
  506TMC3    C6 7573   1.916   3.969   9.934 -0.2668 -0.1008 -0.4405
  506TMC3     C 7574   1.783   4.163  10.268  0.5662 -0.5219 -0.6259
  506TMC3     O 7575   1.793   4.288  10.261  0.6422  0.0166 -0.1692
  506TMC3     H 7576   1.683   4.197  10.021 -1.8879 -0.8000  1.2311
  506TMC3    H1 7577   1.955   3.974  10.258 -0.4965  0.0873 -0.1990
  506TMC3    H2 7578   1.957   3.917   9.849  0.9500  0.5820 -0.2756
  506TMC3    C7 7579   2.120   3.979  10.050 -0.5995 -0.3609  0.4798
  506TMC3    C8 7580   1.782   4.110   9.784  0.1881 -0.4034 -0.3842
  506TMC3    O1 7581   2.171   3.957   9.940  0.0103  0.4895  0.4018
  506TMC3    O2 7582   1.772   4.026   9.694 -0.4120  0.1374 -0.1730
  507TMC3    C1 7583   2.596   0.619  14.854 -0.2816  0.0959 -0.1309
  507TMC3    C2 7584   2.558   0.521  14.942  0.3826 -0.0863 -0.6033
  507TMC3    C3 7585   2.555   0.395  14.894 -0.2956 -0.4545 -0.5261
  507TMC3    C4 7586   2.626   0.589  14.722  0.0019  0.7942 -0.5266
  507TMC3    C5 7587   2.603   0.460  14.678 -0.0094  0.0315 -0.0544
  507TMC3    C6 7588   2.575   0.365  14.765 -0.5256 -1.2423  0.0648
  507TMC3     C 7589   2.617   0.759  14.893  0.2621 -0.8398  0.2236
  507TMC3     O 7590   2.669   0.835  14.810 -0.2435  0.4810  0.1599
  507TMC3     H 7591   2.515   0.532  15.041  1.1621  1.2311 -0.4226
  507TMC3    H1 7592   2.672   0.663  14.657  1.3477  0.8356  0.4727
  507TMC3    H2 7593   2.560   0.267  14.722 -1.2151 -1.7881  1.5404
  507TMC3    C7 7594   2.501   0.463  14.582  0.5621 -0.3817  0.0704
  507TMC3    C8 7595   2.442   0.316  14.955 -0.9545  0.0794  0.2125
  507TMC3    O1 7596   2.424   0.366  14.592  0.1422  0.3478  0.0423
  507TMC3    O2 7597   2.422   0.319  15.075 -0.4498  0.4011 -0.7118
  508MPD2     C 7598   3.066   2.386  16.568  0.3235  0.3792 -0.6223
  508MPD2    C1 7599   3.014   2.509  16.604 -0.0065 -0.5181  0.3119
  508MPD2    C2 7600   2.978   2.603  16.513 -0.6282  0.1905  0.0477
  508MPD2    C3 7601   2.992   2.571  16.376 -0.6090  0.0015 -0.8352
  508MPD2    C4 7602   3.025   2.444  16.344 -0.1111 -0.0227  0.2369
  508MPD2    C5 7603   3.072   2.352  16.434 -0.5179  0.5695  0.6602
  508MPD2     H 7604   2.945   2.703  16.540  0.5993  0.6745 -0.2404
  508MPD2    H1 7605   3.015   2.415  16.240  0.2612  0.8296 -0.0358
  508MPD2    H2 7606   3.108   2.318  16.641 -1.4726  0.3774  0.4152
  508MPD2    H3 7607   3.114   2.257  16.403 -1.6098  1.3804 -3.3972
  508MPD2     N 7608   2.962   2.677  16.287 -0.2296  0.2012 -0.1281
  508MPD2    H5 7609   2.940   2.762  16.337 -4.3914 -0.6973 -0.4177
  508MPD2    N1 7610   3.025   2.551  16.737 -0.3762  0.5053 -0.2944
  508MPD2    H7 7611   3.092   2.508  16.801 -2.3851 -0.9568  0.8235
  509TMC3    C1 7612   3.017   2.969  15.935 -0.3424  0.5553 -0.2206
  509TMC3    C2 7613   3.079   3.057  16.018 -0.5483 -0.5895 -0.8795
  509TMC3    C3 7614   3.093   3.024  16.153 -0.9744 -0.2760 -0.6022
  509TMC3    C4 7615   2.966   2.855  15.987 -0.4875 -0.5489  0.3001
  509TMC3    C5 7616   2.981   2.823  16.119  0.1774 -0.2517 -0.4043
  509TMC3    C6 7617   3.045   2.908  16.206  0.4462 -0.3827 -0.2894
  509TMC3     C 7618   2.924   3.031  15.841  0.4593 -0.1374  0.2803
  509TMC3     O 7619   2.820   2.966  15.820  0.2882 -0.4473 -0.2574
  509TMC3     H 7620   3.134   3.141  15.976 -0.3103 -0.7399 -0.8620
  509TMC3    H1 7621   2.904   2.782  15.936 -1.3084 -0.5345  1.2587
  509TMC3    H2 7622   3.072   2.885  16.308 -1.7967 -0.5049  0.2801
  509TMC3    C7 7623   2.980   2.683  16.152  0.3896  0.4440  0.3889
  509TMC3    C8 7624   3.211   3.074  16.217 -0.4292 -0.9762 -0.1396
  509TMC3    O1 7625   2.964   2.586  16.077 -0.2441 -0.1890  0.1152
  509TMC3    O2 7626   3.265   2.994  16.292 -0.0152 -0.6718  0.2243
  510MPD2     C 7627   0.916   3.984  14.750 -0.4904  0.0108 -0.1844
  510MPD2    C1 7628   0.969   3.864  14.802  0.4117 -0.5305 -0.0414
  510MPD2    C2 7629   1.086   3.815  14.745 -0.4751 -0.3307 -0.1744
  510MPD2    C3 7630   1.142   3.879  14.634  0.4823 -0.1541 -0.0335
  510MPD2    C4 7631   1.074   3.990  14.579 -0.0311  0.6196 -0.0747
  510MPD2    C5 7632   0.973   4.048  14.650  0.1288  0.0778  1.0662
  510MPD2     H 7633   1.142   3.741  14.800 -0.2798 -0.6404 -0.7867
  510MPD2    H1 7634   1.107   4.040  14.489 -2.5220  0.4721 -1.0794
  510MPD2    H2 7635   0.830   4.038  14.788 -1.1869  0.8003 -2.8704
  510MPD2    H3 7636   0.933   4.144  14.621 -1.0518 -1.1050 -1.2090
  510MPD2     N 7637   1.260   3.824  14.587  0.2257 -0.5520 -0.2241
  510MPD2    H5 7638   1.295   3.737  14.628  1.3713 -1.7982 -3.8088
  510MPD2    N1 7639   0.905   3.804  14.913  0.1930  0.2186  0.1662
  510MPD2    H7 7640   0.828   3.853  14.956  1.1901  3.1615 -1.4512
  511TMC3    C1 7641   0.822   3.625  15.045  0.5384 -0.8463 -0.3041
  511TMC3    C2 7642   0.771   3.708  15.144 -0.4999 -1.0218  0.4991
  511TMC3    C3 7643   0.657   3.651  15.207  0.1851  0.7101  1.1720
  511TMC3    C4 7644   0.780   3.499  15.020  0.6644 -0.2823 -0.3428
  511TMC3    C5 7645   0.675   3.448  15.086  0.7667  0.2167 -0.6728
  511TMC3    C6 7646   0.604   3.534  15.171 -0.1248  0.1553 -0.1001
  511TMC3     C 7647   0.934   3.673  14.948  0.3285  0.2992 -0.7670
  511TMC3     O 7648   1.001   3.586  14.896 -0.5444 -0.5519  0.5025
  511TMC3     H 7649   0.808   3.807  15.168 -1.6211 -0.5225  0.1852
  511TMC3    H1 7650   0.828   3.442  14.941 -2.0368 -3.0524 -0.0018
  511TMC3    H2 7651   0.508   3.501  15.209 -0.5235  1.4877  0.0277
  511TMC3    C7 7652   0.618   3.332  15.019  0.3017  0.1317  0.0229
  511TMC3    C8 7653   0.607   3.722  15.320  0.9695  0.1528  1.3537
  511TMC3    O1 7654   0.622   3.315  14.900 -0.7290 -0.1607  0.4046
  511TMC3    O2 7655   0.644   3.837  15.329  0.8733  0.9465 -0.0207
  512TMC3    C1 7656   4.699   3.373  13.245 -0.0532 -0.0931  0.3751
  512TMC3    C2 7657   0.019   3.344  13.363  0.4482  0.5287 -0.3085
  512TMC3    C3 7658   0.134   3.270  13.345  0.1592  0.2779  0.2477
  512TMC3    C4 7659   0.019   3.364  13.120 -0.4295  0.2306  1.1178
  512TMC3    C5 7660   0.129   3.283  13.107  0.0578 -0.3660 -0.2366
  512TMC3    C6 7661   0.191   3.235  13.220  0.1971 -0.2526  0.1231
  512TMC3     C 7662   4.567   3.440  13.262  0.6492 -0.3068 -1.2085
  512TMC3     O 7663   4.505   3.422  13.367  0.9083  0.2736 -0.3494
  512TMC3     H 7664   4.710   3.365  13.458 -1.4605  0.1052 -1.1781
  512TMC3    H1 7665   4.703   3.402  13.034 -0.3734 -1.9101  0.1294
  512TMC3    H2 7666   0.290   3.191  13.217  0.2248 -0.2665  1.1913
  512TMC3    C7 7667   0.198   3.292  12.979  0.0011  0.3709 -0.0236
  512TMC3    C8 7668   0.213   3.234  13.458  0.0958  0.3304  0.6622
  512TMC3    O1 7669   0.189   3.397  12.917 -0.0020 -0.0501 -0.0999
  512TMC3    O2 7670   0.290   3.142  13.451  0.5636 -0.0064 -0.3973
  513MPD2     C 7671   1.841   3.009  13.296 -0.0686  0.3151  0.5622
  513MPD2    C1 7672   1.950   2.998  13.212 -0.3896 -0.9205 -0.2947
  513MPD2    C2 7673   2.064   3.083  13.249  0.2179 -0.0589  0.2356
  513MPD2    C3 7674   2.060   3.159  13.364 -0.0662 -0.7397 -0.0603
  513MPD2    C4 7675   1.946   3.162  13.444  0.0460 -0.5126  0.8185
  513MPD2    C5 7676   1.838   3.085  13.408  0.1307  0.3234  0.3507
  513MPD2     H 7677   2.152   3.090  13.187 -0.3701  3.4277 -0.1725
  513MPD2    H1 7678   1.947   3.216  13.538 -0.4058  1.3671 -0.2579
  513MPD2    H2 7679   1.749   2.959  13.267  0.1692 -0.4872  1.2098
  513MPD2    H3 7680   1.751   3.081  13.473  0.9898  1.0639  1.5417
  513MPD2     N 7681   2.174   3.241  13.382 -0.7373  0.2129 -0.1632
  513MPD2    H5 7682   2.245   3.222  13.311  0.6048 -0.7275  1.4245
  513MPD2    N1 7683   1.939   2.925  13.090  0.0478  0.1451  0.4026
  513MPD2    H7 7684   1.851   2.883  13.061  1.4238 -0.5234 -2.8540
  514TMC3    C1 7685   2.024   2.836  12.884 -0.2424  0.3387  0.6355
  514TMC3    C2 7686   1.939   2.911  12.803  0.3652 -0.5292 -0.1380
  514TMC3    C3 7687   1.971   2.906  12.671  0.2254 -0.0687 -0.3457
  514TMC3    C4 7688   2.136   2.775  12.841  0.4787 -0.3491  0.0417
  514TMC3    C5 7689   2.176   2.796  12.709 -0.3252  0.4136  0.1114
  514TMC3    C6 7690   2.092   2.859  12.628 -0.7434 -0.8062 -0.4049
  514TMC3     C 7691   2.052   2.904  13.013 -0.1112 -0.4210 -0.6432
  514TMC3     O 7692   2.172   2.928  13.039  0.0016 -0.0130 -0.3189
  514TMC3     H 7693   1.848   2.946  12.849  0.0150  0.2288 -1.4082
  514TMC3    H1 7694   2.208   2.735  12.912  0.8833 -0.8886 -0.6659
  514TMC3    H2 7695   2.123   2.862  12.524 -0.2074  1.0230 -0.1954
  514TMC3    C7 7696   2.315   2.837  12.700 -1.0478 -0.8759  0.9482
  514TMC3    C8 7697   1.912   3.022  12.601 -0.6047 -0.1723  0.1116
  514TMC3    O1 7698   2.371   2.843  12.594 -0.0413  0.2373  0.1602
  514TMC3    O2 7699   1.830   3.084  12.669 -0.1553  0.3326  0.0570
  515MPD2     C 7700   4.351   0.382  14.480  0.2548 -0.5164  0.1227
  515MPD2    C1 7701   4.376   0.255  14.522  0.5644  0.1488 -0.0877
  515MPD2    C2 7702   4.428   0.238  14.652  0.7062  0.5025  0.1144
  515MPD2    C3 7703   4.460   0.353  14.733 -0.1271  0.4259  0.1564
  515MPD2    C4 7704   4.446   0.481  14.680  0.0163 -0.3785  0.3264
  515MPD2    C5 7705   4.389   0.489  14.556 -0.0421  0.2396  0.3977
  515MPD2     H 7706   4.437   0.138  14.693  1.9008  0.1458 -1.0369
  515MPD2    H1 7707   4.473   0.575  14.726 -0.9981  0.3030 -0.4902
  515MPD2    H2 7708   4.316   0.401  14.379 -0.4021 -0.8293  0.2894
  515MPD2    H3 7709   4.378   0.586  14.509  1.9233  0.1565 -0.2380
  515MPD2     N 7710   4.520   0.337  14.865  0.1238 -0.4114 -0.2124
  515MPD2    H5 7711   4.530   0.243  14.901 -0.9638 -0.9170 -1.2158
  515MPD2    N1 7712   4.343   0.139  14.456  0.0971 -0.0885  0.0191
  515MPD2    H7 7713   4.342   0.050  14.507  0.1063 -0.6359 -0.9405
  516TMC3    C1 7714   4.230   0.007  14.295  0.4648 -0.3820  0.3404
  516TMC3    C2 7715   4.123   0.032  14.215 -0.1790 -0.4222 -0.2564
  516TMC3    C3 7716   4.006   4.697  14.228  0.0651 -0.0988 -0.4486
  516TMC3    C4 7717   4.226   4.654  14.397  0.2567 -0.2234 -0.5556
  516TMC3    C5 7718   4.107   4.584  14.405  0.0753  0.2432  0.7369
  516TMC3    C6 7719   3.998   4.604  14.325 -0.7682 -0.4131 -0.2787
  516TMC3     C 7720   4.308   0.128  14.324 -0.8885  0.3070 -0.2068
  516TMC3     O 7721   4.320   0.217  14.240 -0.6347 -0.2078  0.1071
  516TMC3     H 7722   4.143   0.101  14.133  0.2219 -0.4350 -0.1724
  516TMC3    H1 7723   4.313   4.637  14.459 -1.6722 -0.4774  2.0543
  516TMC3    H2 7724   3.905   4.551  14.342 -1.2168  0.1839 -0.8887
  516TMC3    C7 7725   4.083   4.525  14.530 -0.4508  1.0760  0.6638
  516TMC3    C8 7726   3.875   0.010  14.194 -0.3219  0.1242  0.2961
  516TMC3    O1 7727   4.184   4.488  14.584 -0.0421  0.0469  0.8928
  516TMC3    O2 7728   3.782   4.670  14.222 -0.1538  0.2032 -0.1542
  517MPD2     C 7729   4.471   2.515   0.086 -0.0992 -0.4433 -0.9047
  517MPD2    C1 7730   4.599   2.462   0.094 -0.6631  0.0673  0.0556
  517MPD2    C2 7731   4.694   2.525   0.177 -0.0635 -0.3562 -0.3396
  517MPD2    C3 7732   4.669   2.651   0.225 -0.2004 -0.4470  0.2603
  517MPD2    C4 7733   4.544   2.706   0.202 -0.0504 -0.2230  0.4275
  517MPD2    C5 7734   4.445   2.639   0.138 -0.3161  0.3547  0.0352
  517MPD2     H 7735   0.058   2.489   0.186  0.2017  0.6836  0.7718
  517MPD2    H1 7736   4.516   2.802   0.244 -1.3276 -2.2305  4.1624
  517MPD2    H2 7737   4.391   2.477   0.023 -1.9323 -0.3629  1.4042
  517MPD2    H3 7738   4.349   2.684   0.114 -0.6305 -1.7014 -2.4756
  517MPD2     N 7739   0.020   2.724   0.301  0.1234 -0.3892  0.3374
  517MPD2    H5 7740   4.717   2.810   0.334  1.8595  0.6877 -0.3404
  517MPD2    N1 7741   4.641   2.346   0.029 -0.1921  0.3005  0.1253
  517MPD2    H7 7742   4.730   2.309   0.062  0.0599 -1.1439 -2.1662
  518TMC3    C1 7743   4.629   2.155  17.631  0.6046 -0.2844 -0.0626
  518TMC3    C2 7744   4.543   2.058  17.589 -0.0743 -0.9461  0.6919
  518TMC3    C3 7745   4.603   1.949  17.529  0.2478 -0.0421 -0.5364
  518TMC3    C4 7746   0.028   2.144  17.627 -0.1036 -0.9030  0.1236
  518TMC3    C5 7747   0.079   2.033  17.573 -0.0181 -0.4361  0.1931
  518TMC3    C6 7748   0.000   1.934  17.520  0.4839 -1.0338 -0.1528
  518TMC3     C 7749   4.558   2.271  17.699  0.0646 -0.3622 -0.9054
  518TMC3     O 7750   4.443   2.291  17.661  0.3092 -0.5728  0.6931
  518TMC3     H 7751   4.436   2.074  17.591 -0.0751 -1.0175  1.1517
  518TMC3    H1 7752   0.084   2.206  17.696 -0.6101 -0.9858  0.6197
  518TMC3    H2 7753   0.038   1.837  17.490  1.2514 -0.0393 -2.4338
  518TMC3    C7 7754   0.214   1.988  17.605 -0.2389  0.9708  0.4844
  518TMC3    C8 7755   4.521   1.829  17.489 -0.3801  0.2821 -0.1778
  518TMC3    O1 7756   0.268   2.047  17.697 -0.6852  0.1600 -0.1704
  518TMC3    O2 7757   4.584   1.734  17.439 -0.7916  0.2177  0.2345
  519MPD2     C 7758   1.389   0.023  14.589  0.3348 -0.0570  0.6522
  519MPD2    C1 7759   1.353   0.116  14.496 -0.6184  0.1676 -0.4902
  519MPD2    C2 7760   1.432   0.140  14.383 -0.1944 -0.0859  1.0542
  519MPD2    C3 7761   1.557   0.073  14.373  0.3405  0.0806 -0.3008
  519MPD2    C4 7762   1.591   4.721  14.471 -0.3938  0.4958  0.6536
  519MPD2    C5 7763   1.509   4.709  14.583 -0.2309  0.6053 -0.2282
  519MPD2     H 7764   1.403   0.211  14.307  0.2189 -0.9267  0.0933
  519MPD2    H1 7765   1.686   4.670  14.468 -2.7442 -3.7732 -1.0995
  519MPD2    H2 7766   1.327   4.722  14.668 -0.8627  3.8170  1.6481
  519MPD2    H3 7767   1.539   4.632  14.653 -2.1350  0.5211  0.4953
  519MPD2     N 7768   1.647   0.085  14.269  0.2471 -0.5446 -0.4950
  519MPD2    H5 7769   1.723   0.018  14.270  1.3633  0.7351  0.2925
  519MPD2    N1 7770   1.216   0.161  14.508 -0.1872  0.6690  0.3233
  519MPD2    H7 7771   1.157   0.136  14.586  2.4031 -1.4055  1.6333
  520TMC3    C1 7772   1.712   0.105  14.047  0.4790  0.8793  0.6166
  520TMC3    C2 7773   1.640   0.091  13.924 -0.3946 -0.2968 -0.2433
  520TMC3    C3 7774   1.690   4.729  13.839  0.1563  0.7488  0.3746
  520TMC3    C4 7775   1.827   0.042  14.083 -0.2655  0.4162  0.0419
  520TMC3    C5 7776   1.871   4.683  13.992 -0.3574  1.0376  0.2992
  520TMC3    C6 7777   1.808   4.662  13.869  0.2501 -0.7786 -0.0839
  520TMC3     C 7778   1.616   0.137  14.150 -0.0712 -0.8435 -0.5089
  520TMC3     O 7779   1.504   0.173  14.108  0.3518 -0.0143 -0.0988
  520TMC3     H 7780   1.554   0.150  13.897 -0.7529 -1.7583 -2.3276
  520TMC3    H1 7781   1.886   0.074  14.168 -1.7053 -0.0351  1.2242
  520TMC3    H2 7782   1.838   4.574  13.812 -1.2020 -1.5170  0.2788
  520TMC3    C7 7783   1.998   4.620  14.034 -0.2191 -0.2172  0.0636
  520TMC3    C8 7784   1.614   4.686  13.721  0.5497  0.2118  0.2017
  520TMC3    O1 7785   2.039   4.638  14.144 -0.0200 -0.2051 -0.0136
  520TMC3    O2 7786   1.677   4.630  13.631  0.0573 -0.1717 -0.1234
  521MPD2     C 7787   2.019   2.797  17.115 -0.1833 -0.5892 -0.8333
  521MPD2    C1 7788   1.927   2.882  17.074  1.0740 -0.1273 -0.1632
  521MPD2    C2 7789   1.959   3.006  17.011  0.0143 -0.0977  0.2591
  521MPD2    C3 7790   2.097   3.037  16.992  0.2468 -0.4144 -0.2596
  521MPD2    C4 7791   2.191   2.954  17.043 -0.2625 -0.6689 -0.1748
  521MPD2    C5 7792   2.150   2.836  17.107 -0.1981 -0.4792 -0.3812
  521MPD2     H 7793   1.878   3.069  16.978  1.4869  1.2715 -0.7292
  521MPD2    H1 7794   2.298   2.968  17.037 -0.6128  1.4962 -1.4973
  521MPD2    H2 7795   1.995   2.706  17.168 -1.4136  0.0233 -0.3278
  521MPD2    H3 7796   2.226   2.775  17.154  0.0301 -0.7223 -1.0739
  521MPD2     N 7797   2.124   3.155  16.919  0.6382  0.5677  0.4317
  521MPD2    H5 7798   2.049   3.211  16.881 -0.8682 -0.4281  1.9222
  521MPD2    N1 7799   1.795   2.838  17.103 -0.1999  0.4440 -0.2011
  521MPD2    H7 7800   1.791   2.750  17.153 -1.9788  0.4831 -0.2838
  522TMC3    C1 7801   2.264   3.325  16.821 -0.7054 -0.1927 -0.0215
  522TMC3    C2 7802   2.369   3.400  16.863 -0.2013  0.6041  0.3231
  522TMC3    C3 7803   2.403   3.510  16.790  0.3536  0.5467  0.3146
  522TMC3    C4 7804   2.183   3.363  16.718 -0.2410 -0.4226  0.1665
  522TMC3    C5 7805   2.216   3.488  16.655 -0.0585  0.3239  0.3821
  522TMC3    C6 7806   2.325   3.560  16.691 -0.6585  0.4939 -0.1437
  522TMC3     C 7807   2.252   3.194  16.879 -0.7228  0.3591 -0.0314
  522TMC3     O 7808   2.359   3.149  16.912  0.4055  0.3140 -0.6922
  522TMC3     H 7809   2.426   3.373  16.951 -1.2295 -1.1176  0.4657
  522TMC3    H1 7810   2.101   3.299  16.689 -0.0207  0.5336 -2.5631
  522TMC3    H2 7811   2.362   3.648  16.639  0.4139 -0.3174 -0.7515
  522TMC3    C7 7812   2.130   3.547  16.549  0.7140  0.0990 -0.0211
  522TMC3    C8 7813   2.543   3.554  16.795 -0.3593  0.4552 -0.0029
  522TMC3    O1 7814   2.147   3.665  16.530  0.5236  0.0138  0.3127
  522TMC3    O2 7815   2.570   3.662  16.750  0.3786 -0.2496  0.7447
  523MPD2     C 7816   1.006   3.095   9.937  0.4506 -0.5558  0.5985
  523MPD2    C1 7817   0.869   3.087   9.939  0.0824 -0.1727  0.6154
  523MPD2    C2 7818   0.789   3.199   9.948  0.1607 -0.6094 -0.1438
  523MPD2    C3 7819   0.849   3.323   9.953  0.8232  0.0049 -0.1695
  523MPD2    C4 7820   0.983   3.335   9.936  0.4334 -0.1505  0.2587
  523MPD2    C5 7821   1.059   3.219   9.944  0.3245 -0.0694 -1.0589
  523MPD2     H 7822   0.681   3.193   9.955  0.1508 -0.7613 -0.4700
  523MPD2    H1 7823   1.033   3.431   9.940 -0.1753  0.2020 -0.5364
  523MPD2    H2 7824   1.065   3.005   9.957  0.7504 -0.3898  0.4576
  523MPD2    H3 7825   1.167   3.228   9.950  0.2716 -0.7343  0.8674
  523MPD2     N 7826   0.786   3.447   9.972  0.6543 -0.1337 -0.3383
  523MPD2    H5 7827   0.837   3.525   9.931  1.3365 -0.9660 -1.0632
  523MPD2    N1 7828   0.819   2.957   9.949 -0.3173 -0.4844  0.3653
  523MPD2    H7 7829   0.889   2.884   9.958  2.5689  2.4882  1.9956
  524TMC3    C1 7830   0.619   3.603  10.043  0.0198  0.2557  0.0352
  524TMC3    C2 7831   0.712   3.708  10.022  0.7823 -0.6875  0.3146
  524TMC3    C3 7832   0.661   3.834  10.046  0.8288  0.3249  0.2201
  524TMC3    C4 7833   0.489   3.627  10.085 -0.0539 -0.1971  0.0722
  524TMC3    C5 7834   0.444   3.752  10.106 -0.4472 -0.5745  0.3800
  524TMC3    C6 7835   0.532   3.855  10.086  0.7735 -0.1493 -0.2373
  524TMC3     C 7836   0.658   3.464  10.025 -0.1806 -0.4432  0.1147
  524TMC3     O 7837   0.573   3.380  10.059 -0.1200 -0.0273 -0.5983
  524TMC3     H 7838   0.817   3.683  10.028  0.8740 -0.3039  0.3243
  524TMC3    H1 7839   0.427   3.543  10.116  0.7757 -0.8924 -0.1401
  524TMC3    H2 7840   0.501   3.959  10.081 -0.4754 -0.4884  0.3517
  524TMC3    C7 7841   0.306   3.776  10.153 -0.1418  0.3246  0.4979
  524TMC3    C8 7842   0.760   3.941  10.017  0.6177  0.0127 -0.7200
  524TMC3    O1 7843   0.234   3.680  10.155  0.1243 -0.5941  0.3710
  524TMC3    O2 7844   0.844   3.910   9.933  0.3664 -0.0632 -0.5227
  525MPD2     C 7845   2.793   4.364  14.620 -0.1374 -1.0844  0.1672
  525MPD2    C1 7846   2.911   4.389  14.687  0.4008  0.2912 -0.1744
  525MPD2    C2 7847   3.011   4.468  14.638  0.8052 -0.9903  0.4458
  525MPD2    C3 7848   2.993   4.530  14.513  0.1159  0.2094  0.4774
  525MPD2    C4 7849   2.874   4.514  14.453  0.3787  0.3507 -0.4428
  525MPD2    C5 7850   2.774   4.432  14.507 -0.1502  0.6822  0.3767
  525MPD2     H 7851   3.101   4.482  14.696  0.9192  0.3559 -0.0624
  525MPD2    H1 7852   2.839   4.564  14.363  1.1106 -0.5649 -1.2321
  525MPD2    H2 7853   2.708   4.305  14.654  0.8754 -1.5688  1.8531
  525MPD2    H3 7854   2.674   4.434  14.467 -0.4469 -0.0626  1.0949
  525MPD2     N 7855   3.078   4.629  14.464 -0.5593  1.0213 -0.8734
  525MPD2    H5 7856   3.052   4.673  14.377  3.6132  1.5388 -1.8705
  525MPD2    N1 7857   2.936   4.337  14.816  1.0426 -0.6458 -0.0996
  525MPD2    H7 7858   3.028   4.350  14.857  0.2205  0.3043  1.4464
  526TMC3    C1 7859   2.882   4.217  15.011  0.3328 -0.5102 -0.0597
  526TMC3    C2 7860   2.793   4.218  15.116 -0.0853  0.0193  0.8472
  526TMC3    C3 7861   2.840   4.198  15.241  0.2908 -0.7156  0.2807
  526TMC3    C4 7862   3.002   4.149  15.018  0.5110  0.6028 -0.7979
  526TMC3    C5 7863   3.041   4.116  15.145 -0.2013  0.0465 -0.1050
  526TMC3    C6 7864   2.963   4.140  15.256 -0.4484  0.7443 -0.3104
  526TMC3     C 7865   2.839   4.270  14.884  0.0331 -0.0404 -0.6963
  526TMC3     O 7866   2.716   4.266  14.870  0.5034 -0.2546 -0.0675
  526TMC3     H 7867   2.696   4.262  15.095 -0.2637 -1.6057 -1.7403
  526TMC3    H1 7868   3.059   4.136  14.926  0.3921 -0.9128 -0.6547
  526TMC3    H2 7869   3.010   4.144  15.354  0.6238  0.6906 -0.8311
  526TMC3    C7 7870   3.186   4.093  15.165 -0.1328  0.0653 -0.3194
  526TMC3    C8 7871   2.776   4.249  15.361 -0.3552  0.4410 -0.2359
  526TMC3    O1 7872   3.210   4.050  15.276 -0.5323  0.2266 -0.2152
  526TMC3    O2 7873   2.847   4.255  15.461 -0.0395  0.5578  0.0404
  527MPD2     C 7874   1.189   3.399   0.735 -0.0064  0.3575 -0.2395
  527MPD2    C1 7875   1.250   3.360   0.855  0.0428  0.2876 -0.4492
  527MPD2    C2 7876   1.375   3.292   0.846 -0.3272 -0.6783 -0.2060
  527MPD2    C3 7877   1.438   3.276   0.719 -0.3800  0.5554 -0.0948
  527MPD2    C4 7878   1.380   3.329   0.610 -0.7196 -0.0213  0.0135
  527MPD2    C5 7879   1.254   3.386   0.621 -0.0321 -0.6172 -0.6131
  527MPD2     H 7880   1.416   3.250   0.937  1.0237  0.0553 -0.4760
  527MPD2    H1 7881   1.424   3.325   0.511 -0.2687 -0.7444  0.2469
  527MPD2    H2 7882   1.089   3.442   0.731  0.3686  1.3783  1.4971
  527MPD2    H3 7883   1.207   3.427   0.532 -0.0104  0.9429  0.0917
  527MPD2     N 7884   1.564   3.212   0.720  0.5291  0.0570 -0.4604
  527MPD2    H5 7885   1.592   3.163   0.804  2.6600  0.8728 -0.6938
  527MPD2    N1 7886   1.191   3.397   0.978  0.3627 -0.1847  0.4342
  527MPD2    H7 7887   1.236   3.356   1.059  2.4405 -1.9340 -1.5895
  528TMC3    C1 7888   1.050   3.507   1.131  0.4184 -0.4994  0.4525
  528TMC3    C2 7889   1.013   3.634   1.168  0.0731  0.1352  0.1011
  528TMC3    C3 7890   0.957   3.642   1.289 -0.6740 -0.2355 -0.0498
  528TMC3    C4 7891   1.042   3.395   1.204 -0.3428  0.9657 -0.7456
  528TMC3    C5 7892   0.986   3.412   1.326 -0.6577 -0.1376  1.2951
  528TMC3    C6 7893   0.933   3.535   1.369 -0.0010 -0.6334 -0.9812
  528TMC3     C 7894   1.089   3.494   0.992  0.5562  0.4402  0.4362
  528TMC3     O 7895   1.044   3.573   0.915 -0.3417 -0.0681  0.0450
  528TMC3     H 7896   1.011   3.710   1.091 -0.1383  0.7103  0.6781
  528TMC3    H1 7897   1.079   3.300   1.167  2.3100  1.4014  0.8280
  528TMC3    H2 7898   0.896   3.550   1.470  1.1320 -0.2457 -0.6259
  528TMC3    C7 7899   0.944   3.287   1.383  0.1097 -1.2600  0.4368
  528TMC3    C8 7900   0.939   3.777   1.348  0.1991  0.8898  0.0253
  528TMC3    O1 7901   0.978   3.185   1.324  0.1880  0.1497  0.0561
  528TMC3    O2 7902   0.909   3.788   1.464  0.4716  0.5254 -0.0297
  529MPD2     C 7903   3.593   0.803   0.757  0.7075 -0.1108  0.3756
  529MPD2    C1 7904   3.460   0.775   0.789  0.1212 -0.4288  1.0151
  529MPD2    C2 7905   3.369   0.878   0.800 -0.0303 -0.3171  0.2485
  529MPD2    C3 7906   3.397   1.011   0.775  0.1289  0.3859  0.3230
  529MPD2    C4 7907   3.531   1.046   0.753  0.7062 -0.3901  0.2934
  529MPD2    C5 7908   3.619   0.938   0.746  0.4380  0.1006 -0.0591
  529MPD2     H 7909   3.270   0.850   0.833  0.2018 -0.2429  1.0071
  529MPD2    H1 7910   3.566   1.147   0.735  0.6913 -0.1554  1.5372
  529MPD2    H2 7911   3.674   0.733   0.738  0.8891 -0.0734  1.0145
  529MPD2    H3 7912   3.724   0.957   0.726  0.3263  1.5756  0.8335
  529MPD2     N 7913   3.301   1.114   0.756 -0.6570  0.3328  0.2327
  529MPD2    H5 7914   3.327   1.208   0.728  0.4800 -0.5348 -1.5828
  529MPD2    N1 7915   3.421   0.643   0.825 -0.9655  0.3856 -0.3101
  529MPD2    H7 7916   3.328   0.626   0.862 -0.3180 -2.5749 -0.0473
  530TMC3    C1 7917   3.429   0.409   0.878  0.0177  0.2329  0.1699
  530TMC3    C2 7918   3.508   0.315   0.941 -0.4246  0.5387 -0.1952
  530TMC3    C3 7919   3.438   0.224   1.012 -0.7178 -0.1920 -0.2515
  530TMC3    C4 7920   3.292   0.410   0.872 -0.0165 -0.4120  0.5200
  530TMC3    C5 7921   3.232   0.310   0.949  0.4978  0.0365 -0.4154
  530TMC3    C6 7922   3.297   0.214   1.022 -1.0857 -0.1461  0.0804
  530TMC3     C 7923   3.498   0.536   0.843 -0.2988  0.3278  0.2293
  530TMC3     O 7924   3.621   0.539   0.838 -0.2751 -0.1800 -0.6532
  530TMC3     H 7925   3.617   0.313   0.942 -0.4371 -0.6997 -2.2385
  530TMC3    H1 7926   3.232   0.492   0.832  1.1137  0.5508  0.8097
  530TMC3    H2 7927   3.252   0.131   1.075 -0.1721  0.5741  1.9737
  530TMC3    C7 7928   3.091   0.288   0.916  0.4786 -0.0853 -0.7124
  530TMC3    C8 7929   3.504   0.179   1.130 -0.2433 -0.0549 -0.3576
  530TMC3    O1 7930   3.029   0.383   0.868  0.0267  0.8592 -0.0391
  530TMC3    O2 7931   3.435   0.147   1.223  0.1242 -0.1331  0.0338
  531MPD2     C 7932   2.689   3.104  12.931 -0.2867 -0.9728 -0.0725
  531MPD2    C1 7933   2.570   3.123  12.991 -0.1059  0.4356 -0.0058
  531MPD2    C2 7934   2.458   3.050  12.953 -0.4483  0.8889 -0.2933
  531MPD2    C3 7935   2.459   2.964  12.845 -0.4393 -0.7660 -0.4152
  531MPD2    C4 7936   2.582   2.943  12.793 -0.5294 -0.4646  0.0137
  531MPD2    C5 7937   2.696   3.008  12.834  0.5826  0.1935 -0.3796
  531MPD2     H 7938   2.369   3.059  13.014 -1.4292 -0.1338 -1.5760
  531MPD2    H1 7939   2.588   2.859  12.724  0.1690 -0.2519 -0.1840
  531MPD2    H2 7940   2.780   3.158  12.956 -0.1225 -0.7503 -1.1645
  531MPD2    H3 7941   2.796   2.978  12.804  0.1093  0.6702 -2.4109
  531MPD2     N 7942   2.337   2.901  12.817 -0.4323 -0.4549  0.2530
  531MPD2    H5 7943   2.260   2.918  12.881 -0.1181  1.2319  0.1784
  531MPD2    N1 7944   2.568   3.221  13.094  0.7764 -0.8744  0.2866
  531MPD2    H7 7945   2.654   3.268  13.121  0.4120 -2.5177  4.4329
  532TMC3    C1 7946   2.484   3.358  13.271  0.1688  0.1692  0.5704
  532TMC3    C2 7947   2.362   3.405  13.322 -0.1878  0.0765  0.3863
  532TMC3    C3 7948   2.331   3.401  13.457 -0.3049 -0.0307  0.1644
  532TMC3    C4 7949   2.577   3.313  13.359  0.6141  1.0390 -0.5534
  532TMC3    C5 7950   2.549   3.340  13.491  0.4470  0.3894  0.4706
  532TMC3    C6 7951   2.427   3.373  13.547 -0.6290 -0.7560 -0.2024
  532TMC3     C 7952   2.453   3.260  13.168  0.4000  0.0471 -0.0564
  532TMC3     O 7953   2.331   3.230  13.152  0.5568 -0.3515  0.5042
  532TMC3     H 7954   2.272   3.403  13.262 -0.4256 -0.2429  0.7589
  532TMC3    H1 7955   2.673   3.281  13.320  0.7032  1.2690 -0.5208
  532TMC3    H2 7956   2.413   3.358  13.654  0.4433 -0.7652 -0.0601
  532TMC3    C7 7957   2.650   3.287  13.580 -0.3453  0.1225 -0.1858
  532TMC3    C8 7958   2.209   3.330  13.481  0.5543 -0.3226 -0.0423
  532TMC3    O1 7959   2.721   3.365  13.631 -0.3072  0.0113  0.3828
  532TMC3    O2 7960   2.157   3.339  13.594  0.1201  0.3489 -0.0432
  533TMC3    C1 7961   3.206   0.074  14.481 -0.3342  0.6913  0.2849
  533TMC3    C2 7962   3.332   0.128  14.486 -0.3915  0.7495 -0.5140
  533TMC3    C3 7963   3.346   0.253  14.532  0.0643  0.3893 -0.1409
  533TMC3    C4 7964   3.090   0.143  14.512 -0.3907  0.0699  0.0144
  533TMC3    C5 7965   3.112   0.274  14.552  0.2807  0.7593  0.0875
  533TMC3    C6 7966   3.236   0.330  14.560  0.7018  0.3249  0.2237
  533TMC3     C 7967   3.192   4.674  14.521 -0.2964  0.5945  0.1761
  533TMC3     O 7968   3.236   4.644  14.630 -0.3381  0.2646  0.2816
  533TMC3     H 7969   3.417   0.068  14.457 -0.3135  1.3338 -1.5110
  533TMC3    H1 7970   2.992   0.098  14.515 -0.4669  0.2308 -0.0664
  533TMC3    H2 7971   3.255   0.434  14.585 -0.6350  0.6444 -0.0664
  533TMC3    C7 7972   2.999   0.321  14.638 -0.3463  0.9537  0.4329
  533TMC3    C8 7973   3.462   0.316  14.500 -1.1093  0.4999  1.0266
  533TMC3    O1 7974   2.914   0.238  14.662 -0.0671  0.0869  0.3463
  533TMC3    O2 7975   3.458   0.437  14.464 -0.3495 -0.1117  0.1060
  534MPD2     C 7976   0.999   1.056   1.879  0.0291  0.2152  1.0831
  534MPD2    C1 7977   1.056   1.106   1.764 -0.0387 -0.2348  0.1671
  534MPD2    C2 7978   0.974   1.143   1.660 -0.0652  0.4118  0.3502
  534MPD2    C3 7979   0.836   1.136   1.669  0.1572  0.5880  0.2416
  534MPD2    C4 7980   0.782   1.084   1.789  0.1745  0.5669  0.3240
  534MPD2    C5 7981   0.864   1.055   1.891  0.2035  0.4322  0.8599
  534MPD2     H 7982   1.020   1.187   1.571  0.8821  0.8304  1.0453
  534MPD2    H1 7983   0.674   1.084   1.799  0.0946 -1.7738 -0.6317
  534MPD2    H2 7984   1.058   1.032   1.967 -0.5839  1.3140  1.8013
  534MPD2    H3 7985   0.821   1.015   1.983  1.0715  0.2162  1.1741
  534MPD2     N 7986   0.743   1.173   1.570  0.1234  0.3313 -0.0914
  534MPD2    H5 7987   0.647   1.149   1.590 -0.0315  1.2782  0.2656
  534MPD2    N1 7988   1.196   1.122   1.734 -0.2942 -0.0924 -0.2727
  534MPD2    H7 7989   1.231   1.161   1.647 -2.5913  1.1445 -0.6390
  535TMC3    C1 7990   0.661   1.282   1.383  0.2453 -0.1852  0.0320
  535TMC3    C2 7991   0.537   1.300   1.439  0.9487  0.2172  0.4118
  535TMC3    C3 7992   0.440   1.328   1.353 -0.1237  0.3677 -0.2814
  535TMC3    C4 7993   0.684   1.299   1.252 -0.1856  0.6144  0.0392
  535TMC3    C5 7994   0.583   1.329   1.170  0.2609  0.1732  0.8922
  535TMC3    C6 7995   0.459   1.337   1.216  0.1439  0.6537  0.4660
  535TMC3     C 7996   0.780   1.243   1.464  0.0313  0.5045  0.9986
  535TMC3     O 7997   0.889   1.283   1.426  0.0321 -0.3898 -0.0003
  535TMC3     H 7998   0.523   1.287   1.545 -0.4909  0.6212  0.2653
  535TMC3    H1 7999   0.783   1.278   1.213 -1.2399 -0.8640 -1.8378
  535TMC3    H2 8000   0.367   1.346   1.160  1.0499 -1.1837 -1.3090
  535TMC3    C7 8001   0.621   1.341   1.030  0.4658 -0.4910 -0.2198
  535TMC3    C8 8002   0.295   1.322   1.394 -0.9425 -0.1457  0.1858
  535TMC3    O1 8003   0.746   1.344   1.017  0.1739  0.1027  0.2361
  535TMC3    O2 8004   0.202   1.345   1.318  0.2531  0.0378  0.1133
  536MPD2     C 8005   0.011   4.719  16.142 -0.1069  0.8223  0.3857
  536MPD2    C1 8006   4.657   4.686  16.236 -0.5322 -0.1188  0.0659
  536MPD2    C2 8007   4.525   4.675  16.180 -0.1390 -0.0772  0.0694
  536MPD2    C3 8008   4.496   4.682  16.046 -0.3418 -0.0158 -0.3848
  536MPD2    C4 8009   4.600   4.699  15.956 -0.0340 -0.4525 -0.8352
  536MPD2    C5 8010   4.721   4.729  16.007  0.2147 -0.3067  0.2156
  536MPD2     H 8011   4.443   4.645  16.245  0.9947  0.4242  1.7476
  536MPD2    H1 8012   4.565   4.699  15.853  1.3577 -0.8808 -1.3155
  536MPD2    H2 8013   0.110   0.008  16.177  0.8969 -1.0777 -0.9836
  536MPD2    H3 8014   0.065   0.008  15.939  1.8046  0.0498  2.2314
  536MPD2     N 8015   4.365   4.653  15.994  0.8024 -0.9018 -0.2055
  536MPD2    H5 8016   4.355   4.652  15.893  2.1844  2.9919 -0.3546
  536MPD2    N1 8017   4.691   4.673  16.371  0.0232 -0.4681 -0.1711
  536MPD2    H7 8018   0.052   4.667  16.393 -0.5327 -0.1677  2.3987
  537TMC3    C1 8019   4.665   4.673  16.611  0.3359  0.1951  0.7479
  537TMC3    C2 8020   4.627   0.024  16.702 -0.5934  0.5592 -0.2649
  537TMC3    C3 8021   4.685   0.016  16.821 -0.0212  0.1277 -0.9030
  537TMC3    C4 8022   0.008   4.563  16.628  1.2658  0.1262  0.4658
  537TMC3    C5 8023   0.054   4.545  16.753  0.1794 -0.4833 -0.2241
  537TMC3    C6 8024   0.023   4.641  16.850  0.2877  0.0216  0.3900
  537TMC3     C 8025   4.602   4.692  16.477 -0.0066 -0.8932 -0.7055
  537TMC3     O 8026   4.487   4.730  16.470 -0.2428  0.0450  0.1278
  537TMC3     H 8027   4.571   0.111  16.670 -3.1865 -0.9775  0.0983
  537TMC3    H1 8028   0.030   4.486  16.555 -0.7503  0.6827 -0.7283
  537TMC3    H2 8029   0.053   4.625  16.953  1.6251 -0.3889 -0.0663
  537TMC3    C7 8030   0.130   4.422  16.784  0.0022 -0.0729 -0.3457
  537TMC3    C8 8031   4.640   0.096  16.933 -0.8487 -0.1274  0.4287
  537TMC3    O1 8032   0.165   4.361  16.685  0.1688 -0.1038 -0.7016
  537TMC3    O2 8033   4.716   0.106  17.033 -0.3664 -0.5346  0.4004
  538TMC3    C1 8034   0.851   2.669  10.999 -0.8827  0.6464  0.5672
  538TMC3    C2 8035   0.989   2.683  11.000  0.5518  0.1290 -0.3690
  538TMC3    C3 8036   1.056   2.749  10.901 -1.0759 -0.2221  0.1223
  538TMC3    C4 8037   0.780   2.714  10.889  0.2598  0.0806 -0.9865
  538TMC3    C5 8038   0.855   2.778  10.789  0.6300  0.4761 -1.3433
  538TMC3    C6 8039   0.991   2.798  10.792  1.1016  0.2650  0.9477
  538TMC3     C 8040   0.786   2.618  11.112 -0.1059 -1.0329 -0.6492
  538TMC3     O 8041   0.851   2.529  11.168 -0.3188 -0.5822 -0.0890
  538TMC3     H 8042   1.039   2.633  11.082 -1.7863 -0.6783  0.5819
  538TMC3    H1 8043   0.672   2.701  10.882  0.1758  0.0126  0.3724
  538TMC3    H2 8044   1.041   2.868  10.726  0.0884  1.7639  1.7616
  538TMC3    C7 8045   0.780   2.831  10.684  0.0691  0.1026  0.5998
  538TMC3    C8 8046   1.196   2.764  10.923 -0.0038 -0.0726  0.0279
  538TMC3    O1 8047   0.662   2.838  10.703 -0.5421  0.4707  0.4138
  538TMC3    O2 8048   1.248   2.728  11.028 -0.0259  0.1636 -0.5057
  539MPD2     C 8049   4.639   1.888  11.531 -0.0918  0.4517 -0.5157
  539MPD2    C1 8050   0.011   1.925  11.459 -0.1215 -0.0001 -0.3446
  539MPD2    C2 8051   0.061   2.052  11.478  0.4153 -0.9289  0.0978
  539MPD2    C3 8052   4.731   2.149  11.541 -0.2334 -0.3025  0.2484
  539MPD2    C4 8053   4.619   2.120  11.612 -0.0348 -0.1878 -0.9536
  539MPD2    C5 8054   4.574   1.993  11.604 -0.0248  0.1633  0.4969
  539MPD2     H 8055   0.144   2.076  11.413  0.7876 -2.2782  0.0756
  539MPD2    H1 8056   4.571   2.196  11.673  0.6330 -0.5570  0.0278
  539MPD2    H2 8057   4.609   1.784  11.533  0.4077  0.2855 -1.9717
  539MPD2    H3 8058   4.484   1.979  11.663 -1.8204  2.7471 -1.6257
  539MPD2     N 8059   0.018   2.287  11.533 -0.3393  0.4931 -0.7181
  539MPD2    H5 8060   4.690   2.352  11.574  2.6290  2.5993  0.7439
  539MPD2    N1 8061   0.086   1.839  11.377  0.4748  0.1421  0.8172
  539MPD2    H7 8062   0.164   1.885  11.331 -0.3027  0.9468  0.2783
  540TMC3    C1 8063   0.111   2.488  11.449 -0.3333  0.0683  0.1200
  540TMC3    C2 8064   0.145   2.534  11.326  0.8326 -0.9328  0.6371
  540TMC3    C3 8065   0.082   2.658  11.299 -0.9730 -0.4724  0.4206
  540TMC3    C4 8066   0.051   2.558  11.545 -0.1391  0.0538 -0.3123
  540TMC3    C5 8067   0.019   2.685  11.523 -0.1827  0.2861  0.3850
  540TMC3    C6 8068   0.026   2.735  11.397  0.2947  0.2222  0.4088
  540TMC3     C 8069   0.126   2.345  11.467  0.3803 -0.2788  0.4226
  540TMC3     O 8070   0.225   2.290  11.413 -0.0088  0.5222 -0.3042
  540TMC3     H 8071   0.197   2.472  11.254  0.3352 -1.2255  0.5265
  540TMC3    H1 8072   0.017   2.508  11.635  0.5803  1.7747  0.9073
  540TMC3    H2 8073   4.737   2.839  11.385  2.1006  0.5488 -0.9529
  540TMC3    C7 8074   4.660   2.754  11.605 -0.0348  0.3656  0.0328
  540TMC3    C8 8075   0.142   2.731  11.185  0.0779  0.6358  0.0003
  540TMC3    O1 8076   4.562   2.801  11.545  0.3623 -0.1369 -0.3379
  540TMC3    O2 8077   0.188   2.843  11.205  0.6144 -0.2423  0.4280
  541MPD2     C 8078   3.129   3.573  13.092  0.4729 -0.4950  0.2430
  541MPD2    C1 8079   3.247   3.511  13.051 -0.6095 -0.1535  0.0221
  541MPD2    C2 8080   3.290   3.534  12.920 -0.2027 -0.1285 -0.2189
  541MPD2    C3 8081   3.217   3.613  12.834 -0.3164 -0.2473  0.3761
  541MPD2    C4 8082   3.104   3.674  12.879  0.7006 -0.4120  0.1723
  541MPD2    C5 8083   3.061   3.662  13.004  0.1758  0.2936  0.4740
  541MPD2     H 8084   3.391   3.500  12.896 -0.8181 -1.1541 -1.3985
  541MPD2    H1 8085   3.044   3.738  12.814 -0.4488  0.0489  1.6855
  541MPD2    H2 8086   3.075   3.547  13.182 -2.3817  1.4047 -0.9226
  541MPD2    H3 8087   2.962   3.695  13.035  0.2523 -1.6627  2.7819
  541MPD2     N 8088   3.243   3.631  12.699 -0.1752 -0.1378  0.1569
  541MPD2    H5 8089   3.199   3.707  12.647  0.1067 -0.9133 -1.2067
  541MPD2    N1 8090   3.337   3.432  13.132 -0.1444 -0.4339  0.2282
  541MPD2    H7 8091   3.428   3.413  13.092  1.0634  1.6497  2.0058
  542TMC3    C1 8092   3.294   3.573  12.483  0.6503  0.3828  0.0552
  542TMC3    C2 8093   3.388   3.523  12.397  0.4172  0.5767  0.1277
  542TMC3    C3 8094   3.357   3.538  12.267  0.4936  0.4736 -0.5533
  542TMC3    C4 8095   3.190   3.644  12.440  0.2830 -0.2099  0.3067
  542TMC3    C5 8096   3.162   3.651  12.307 -0.1094  0.8703  0.3281
  542TMC3    C6 8097   3.233   3.585  12.213  0.4689  0.1447 -0.4187
  542TMC3     C 8098   3.313   3.546  12.621  0.2918 -0.0762 -0.2448
  542TMC3     O 8099   3.370   3.439  12.650  0.2299  0.1132  0.3578
  542TMC3     H 8100   3.457   3.455  12.444  0.2936 -0.5800 -1.3786
  542TMC3    H1 8101   3.119   3.688  12.510 -0.8309  1.6138 -1.9877
  542TMC3    H2 8102   3.221   3.596  12.106 -0.8780 -1.1003 -0.4024
  542TMC3    C7 8103   3.049   3.741  12.265  0.4129  0.2106 -0.3494
  542TMC3    C8 8104   3.448   3.486  12.161 -0.1698 -0.5616  0.8284
  542TMC3    O1 8105   3.010   3.819  12.349  0.0384 -0.0475  0.0095
  542TMC3    O2 8106   3.390   3.454  12.057 -0.1066 -0.3976  0.0434
  543TMC3    C1 8107   2.807   0.365  17.225 -0.0874 -0.1433  0.3742
  543TMC3    C2 8108   2.867   0.277  17.309 -0.2329  0.0647  0.8909
  543TMC3    C3 8109   2.797   0.254  17.423 -0.6072 -0.2676 -0.2256
  543TMC3    C4 8110   2.690   0.440  17.253 -0.6293 -0.8485  0.6954
  543TMC3    C5 8111   2.630   0.407  17.369 -0.0295 -0.2804 -0.1405
  543TMC3    C6 8112   2.679   0.315  17.457 -0.0609  0.1394  0.3727
  543TMC3     C 8113   2.862   0.366  17.091 -0.0355  0.3842 -0.3659
  543TMC3     O 8114   2.935   0.275  17.062 -0.1814  0.3511 -0.3232
  543TMC3     H 8115   2.963   0.231  17.288 -1.0031 -0.5886 -1.1155
  543TMC3    H1 8116   2.648   0.514  17.186  0.0731 -1.8380 -0.8666
  543TMC3    H2 8117   2.631   0.296  17.553  0.0711 -3.5049 -0.2750
  543TMC3    C7 8118   2.515   0.482  17.416 -0.2399  0.2743  0.6025
  543TMC3    C8 8119   2.833   0.126  17.477  0.3369 -0.3956  0.0791
  543TMC3    O1 8120   2.426   0.425  17.476 -0.2428 -0.4112  0.0237
  543TMC3    O2 8121   2.950   0.092  17.460 -0.0724  0.5229 -0.1344
  544MPD2     C 8122   2.663   4.395  17.580 -0.2991  0.4814  0.1862
  544MPD2    C1 8123   2.790   4.436  17.558  0.0395  0.6775  0.0208
  544MPD2    C2 8124   2.811   4.573  17.541 -0.6539 -0.0648 -0.0502
  544MPD2    C3 8125   2.714   4.670  17.547  0.0196  0.2943 -0.1212
  544MPD2    C4 8126   2.586   4.618  17.567 -0.6562 -0.5976 -0.2513
  544MPD2    C5 8127   2.561   4.487  17.578  0.1834 -0.2367 -0.1876
  544MPD2     H 8128   2.909   4.610  17.514 -1.7627  2.5563 -0.4148
  544MPD2    H1 8129   2.503   4.688  17.570 -2.0706 -2.2703 -0.3176
  544MPD2    H2 8130   2.636   4.295  17.613 -0.3784  0.8442  1.2205
  544MPD2    H3 8131   2.459   4.453  17.595 -0.8411  3.0914  0.2233
  544MPD2     N 8132   2.723   0.064  17.521 -0.3847 -0.1585  0.4356
  544MPD2    H5 8133   2.634   0.112  17.522 -0.3675 -0.0678 -2.9162
  544MPD2    N1 8134   2.896   4.347  17.548  0.2967  0.1796 -0.6997
  544MPD2    H7 8135   2.875   4.249  17.560 -2.1419  0.5801 -1.8097
  545TMC3    C1 8136   3.114   4.266  17.521  0.4129  0.2457  0.0242
  545TMC3    C2 8137   3.065   4.145  17.495 -0.0453  0.8241  1.2546
  545TMC3    C3 8138   3.154   4.036  17.494 -0.5886 -0.4851 -1.1108
  545TMC3    C4 8139   3.240   4.284  17.563 -0.3468  0.6941 -0.4133
  545TMC3    C5 8140   3.337   4.181  17.558 -0.4742  0.1869  0.8920
  545TMC3    C6 8141   3.291   4.056  17.527  0.1432 -0.3735 -1.0711
  545TMC3     C 8142   3.028   4.383  17.541  0.9625  0.8113 -0.2852
  545TMC3     O 8143   3.082   4.493  17.563  0.2071 -0.3612  0.0713
  545TMC3     H 8144   2.960   4.133  17.471  0.9742 -4.0788 -0.7207
  545TMC3    H1 8145   3.281   4.385  17.561  0.9509  0.2065  2.2145
  545TMC3    H2 8146   3.365   3.977  17.514 -0.1115 -0.7782 -0.1021
  545TMC3    C7 8147   3.472   4.212  17.505 -0.1835  0.5285  0.4967
  545TMC3    C8 8148   3.126   3.917  17.421 -0.3930 -0.4705 -0.1716
  545TMC3    O1 8149   3.469   4.293  17.414  0.2107  0.4607 -0.1999
  545TMC3    O2 8150   3.205   3.821  17.426 -0.2650  0.1310  0.2225
  546MPD2     C 8151   4.208   0.399  17.667  0.0019 -0.4722 -0.6436
  546MPD2    C1 8152   4.171   0.434  17.537  0.2708  0.0610  0.5275
  546MPD2    C2 8153   4.172   0.568  17.500 -0.0773  0.5878 -0.3323
  546MPD2    C3 8154   4.226   0.665  17.584 -0.3283  0.3478 -0.7770
  546MPD2    C4 8155   4.254   0.629  17.714  0.6554  0.4063 -0.2996
  546MPD2    C5 8156   4.237   0.496   0.007 -0.3831 -0.3772 -0.0465
  546MPD2     H 8157   4.149   0.595  17.397  1.6468  0.3805 -0.7775
  546MPD2    H1 8158   4.300   0.699   0.030 -1.4486  0.3618  1.1277
  546MPD2    H2 8159   4.200   0.294  17.693 -0.0140 -0.4551 -0.5776
  546MPD2    H3 8160   4.264   0.476   0.110 -0.8191 -0.2166  0.0955
  546MPD2     N 8161   4.260   0.796  17.544 -0.2033 -0.4566 -0.4522
  546MPD2    H5 8162   4.269   0.872  17.610 -0.7004  1.0590 -2.1399
  546MPD2    N1 8163   4.151   0.341  17.443 -0.1796  0.1099  0.3713
  546MPD2    H7 8164   4.174   0.244  17.464 -0.1726  0.4527  1.9786
  547TMC3    C1 8165   4.094   0.267  17.230  0.3595  0.5101  0.2221
  547TMC3    C2 8166   4.016   0.272  17.116  0.4969  0.5132  0.1611
  547TMC3    C3 8167   4.047   0.179  17.020  0.1371  0.1604  0.1311
  547TMC3    C4 8168   4.200   0.180  17.246  0.2337  0.4977  0.1254
  547TMC3    C5 8169   4.232   0.095  17.142 -0.5255 -0.3728  0.1654
  547TMC3    C6 8170   4.146   0.086  17.030  0.3760  0.1583 -0.5028
  547TMC3     C 8171   4.076   0.372  17.329  0.0793  0.6650 -0.2209
  547TMC3     O 8172   4.000   0.466  17.306 -0.4153 -0.2069  0.2127
  547TMC3     H 8173   3.967   0.366  17.092 -0.9687 -0.2008  0.3170
  547TMC3    H1 8174   4.271   0.185  17.327 -0.4612  1.1154  0.6968
  547TMC3    H2 8175   4.166   0.021  16.945  4.5191 -0.4328  0.9575
  547TMC3    C7 8176   4.338   4.738  17.172 -0.0880  0.0213  0.0597
  547TMC3    C8 8177   3.958   0.193  16.901  0.3826 -0.0576 -0.8781
  547TMC3    O1 8178   4.382   4.729  17.282 -0.7727  0.3396 -0.1233
  547TMC3    O2 8179   3.875   0.283  16.902  0.0509  0.5687 -0.0256
  548MPD2     C 8180   3.411   0.814  12.777 -0.0845 -0.0609 -0.2495
  548MPD2    C1 8181   3.419   0.684  12.723 -0.2294 -0.2779 -0.3806
  548MPD2    C2 8182   3.532   0.612  12.749  0.0298 -0.1357 -0.3995
  548MPD2    C3 8183   3.624   0.656  12.834 -0.1966 -0.4186 -0.0533
  548MPD2    C4 8184   3.623   0.780  12.879 -0.0179  0.0684 -0.0340
  548MPD2    C5 8185   3.511   0.856  12.863  0.0836  0.1875  0.6470
  548MPD2     H 8186   3.550   0.513  12.708 -0.7329 -0.5685  0.2904
  548MPD2    H1 8187   3.694   0.825  12.947 -2.1252  1.9385  0.9392
  548MPD2    H2 8188   3.328   0.883  12.765  1.2861  1.9403  1.9653
  548MPD2    H3 8189   3.513   0.956  12.905 -1.7807  0.2870  0.4826
  548MPD2     N 8190   3.731   0.573  12.871 -0.3163 -0.8142  0.0354
  548MPD2    H5 8191   3.737   0.487  12.817  0.2154 -0.2671 -0.7812
  548MPD2    N1 8192   3.315   0.638  12.642  0.3291 -0.1478  0.0403
  548MPD2    H7 8193   3.230   0.692  12.624  0.7256  0.6512  0.5281
  549TMC3    C1 8194   3.197   0.478  12.521  0.0538 -0.3262 -0.7264
  549TMC3    C2 8195   3.112   0.580  12.486 -0.0628 -0.4617 -0.0568
  549TMC3    C3 8196   3.016   0.558  12.400 -0.2782  0.5701 -0.1483
  549TMC3    C4 8197   3.169   0.349  12.495 -0.0329 -0.1773  0.6896
  549TMC3    C5 8198   3.060   0.327  12.406 -0.7807 -0.1766  0.5280
  549TMC3    C6 8199   2.989   0.433  12.350 -0.3613 -0.4562  0.0680
  549TMC3     C 8200   3.320   0.515  12.583  0.4740 -0.5443 -0.4705
  549TMC3     O 8201   3.409   0.431  12.569  0.2420  0.3383 -0.0068
  549TMC3     H 8202   3.146   0.682  12.496  1.6308 -1.0303 -0.0136
  549TMC3    H1 8203   3.240   0.275  12.530 -0.7691 -1.1500  0.1120
  549TMC3    H2 8204   2.909   0.407  12.281  0.2154 -1.1990 -0.3294
  549TMC3    C7 8205   3.002   0.199  12.381  0.3734  0.5207  0.3532
  549TMC3    C8 8206   2.887   0.630  12.407  0.5142  0.1612 -0.2350
  549TMC3    O1 8207   2.888   0.189  12.346 -0.2122 -0.2090  0.2545
  549TMC3    O2 8208   2.792   0.580  12.353 -0.2831 -0.3696 -0.0388
  550TMC3    C1 8209   2.745   2.814  12.357  0.4755 -0.0300  0.5755
  550TMC3    C2 8210   2.643   2.878  12.418  0.5403 -0.0445  0.6206
  550TMC3    C3 8211   2.674   2.988  12.487 -0.1242 -0.3729  0.0726
  550TMC3    C4 8212   2.876   2.843  12.372 -0.0321 -0.1324 -0.2965
  550TMC3    C5 8213   2.907   2.964  12.436 -0.7491  0.0057  0.3292
  550TMC3    C6 8214   2.803   3.029  12.498 -0.1521 -0.7466  1.0395
  550TMC3     C 8215   2.715   2.769  12.227 -0.0090  0.6212 -0.0246
  550TMC3     O 8216   2.616   2.695  12.209  0.0431 -0.0193  0.3862
  550TMC3     H 8217   2.546   2.862  12.372  0.3588  1.3558  0.5221
  550TMC3    H1 8218   2.957   2.787  12.329  1.5579 -0.5093  3.1478
  550TMC3    H2 8219   2.823   3.118  12.556 -0.0352 -0.6062  0.7836
  550TMC3    C7 8220   2.975   3.046  12.340 -0.1525  0.5116  0.3697
  550TMC3    C8 8221   2.590   3.109  12.478 -0.0830 -0.5275  0.0143
  550TMC3    O1 8222   3.057   2.985  12.273 -0.0055 -0.5148  0.3897
  550TMC3    O2 8223   2.652   3.204  12.436 -0.1015 -0.5269  0.4826
  551TMC3    C1 8224   0.084   1.026  13.573  0.3022  0.7806  0.0016
  551TMC3    C2 8225   0.182   0.930  13.551  0.7993 -0.3376 -0.2645
  551TMC3    C3 8226   0.258   0.896  13.657  0.3441  0.6582 -0.3937
  551TMC3    C4 8227   0.073   1.096  13.681 -0.1267 -0.0558  0.2443
  551TMC3    C5 8228   0.152   1.058  13.790 -0.6602  0.1431 -0.8887
  551TMC3    C6 8229   0.242   0.952  13.782  0.7181  1.0463  0.3498
  551TMC3     C 8230   4.730   1.043  13.461  0.2323  0.2925  0.2428
  551TMC3     O 8231   4.677   1.154  13.446  0.1989 -0.2728 -0.3401
  551TMC3     H 8232   0.184   0.881  13.455  2.9231  0.7810 -0.7902
  551TMC3    H1 8233   0.008   1.182  13.689  0.1209  0.0093  1.5986
  551TMC3    H2 8234   0.329   0.954  13.846  1.9232 -1.1670 -1.2437
  551TMC3    C7 8235   0.164   1.141  13.911 -0.1454 -0.1803 -0.0559
  551TMC3    C8 8236   0.377   0.815  13.637 -0.2362  0.0565 -0.3868
  551TMC3    O1 8237   0.225   1.078  13.996 -0.1187  0.2155  0.6050
  551TMC3    O2 8238   0.431   0.754  13.728  0.5892  0.1764  0.1058
  552MPD2     C 8239   2.690   3.316  13.966 -0.1658  0.2516  0.3260
  552MPD2    C1 8240   2.628   3.235  14.058  0.2602 -0.4934 -0.3306
  552MPD2    C2 8241   2.677   3.234  14.186 -0.4466  0.4624 -0.6156
  552MPD2    C3 8242   2.783   3.308  14.224 -0.2266  0.8290  0.2554
  552MPD2    C4 8243   2.840   3.396  14.130 -0.5130 -0.0462  0.0967
  552MPD2    C5 8244   2.793   3.400  14.002  0.2991  0.6654  0.5892
  552MPD2     H 8245   2.618   3.176  14.256 -1.1801  0.4135 -1.2723
  552MPD2    H1 8246   2.916   3.470  14.153  0.9128 -0.7857 -2.2238
  552MPD2    H2 8247   2.663   3.306  13.862 -1.4710 -0.2680  0.7109
  552MPD2    H3 8248   2.836   3.466  13.928  0.1936 -1.4479 -1.3373
  552MPD2     N 8249   2.848   3.311  14.351 -0.8761 -0.0990 -0.6198
  552MPD2    H5 8250   2.922   3.379  14.361 -0.3928 -0.4960 -1.4905
  552MPD2    N1 8251   2.514   3.151  14.031 -0.3826  0.2974 -0.1553
  552MPD2    H7 8252   2.480   3.081  14.096  0.1998 -1.3811 -1.6607
  553TMC3    C1 8253   2.343   3.068  13.879  0.6388  0.1141  0.2617
  553TMC3    C2 8254   2.283   3.077  13.761 -0.9855 -0.4329  0.5012
  553TMC3    C3 8255   2.224   2.966  13.707 -0.1152 -0.1291  0.1861
  553TMC3    C4 8256   2.336   2.950  13.948  0.3753  0.4317  0.0273
  553TMC3    C5 8257   2.273   2.840  13.895  0.1311  0.2309 -0.1891
  553TMC3    C6 8258   2.199   2.847  13.779 -0.0235  0.2966  0.1534
  553TMC3     C 8259   2.434   3.173  13.920 -0.6336  1.0273  0.1905
  553TMC3     O 8260   2.444   3.266  13.841 -0.0328  0.6279  0.4346
  553TMC3     H 8261   2.311   3.169  13.711 -1.1389 -0.7996 -0.2422
  553TMC3    H1 8262   2.359   2.956  14.054  0.5414  0.0602  0.0121
  553TMC3    H2 8263   2.163   2.760  13.726  0.9090  0.5210 -0.8386
  553TMC3    C7 8264   2.339   2.715  13.918 -0.0971 -0.1832  0.3362
  553TMC3    C8 8265   2.247   2.943  13.561  0.0779  0.0319 -0.1019
  553TMC3    O1 8266   2.318   2.631  13.829 -0.6375 -0.0870 -0.4219
  553TMC3    O2 8267   2.355   2.980  13.515 -0.5734 -0.3470 -0.1584
  554TMC3    C1 8268   4.244   2.425  11.186  1.0220  0.4716 -0.2505
  554TMC3    C2 8269   4.222   2.308  11.117  0.1302  0.4788 -0.6975
  554TMC3    C3 8270   4.306   2.284  11.015 -0.2229  0.1964 -0.5684
  554TMC3    C4 8271   4.332   2.524  11.144  0.2601 -0.8899  0.3394
  554TMC3    C5 8272   4.418   2.493  11.045  0.0406  0.1607 -0.1177
  554TMC3    C6 8273   4.404   2.375  10.982  0.3067 -0.7388 -0.6156
  554TMC3     C 8274   4.231   2.426  11.329 -0.1003  0.1514  0.0422
  554TMC3     O 8275   4.312   2.495  11.390 -0.3538  0.2166 -0.5580
  554TMC3     H 8276   4.144   2.237  11.142  0.3597  0.0225 -1.2733
  554TMC3    H1 8277   4.342   2.616  11.199 -1.4146 -0.2981 -0.3489
  554TMC3    H2 8278   4.476   2.346  10.906 -1.4350 -2.5049 -1.6266
  554TMC3    C7 8279   4.475   2.595  10.962  0.2965  0.2205  0.4402
  554TMC3    C8 8280   4.260   2.211  10.899 -0.0541  0.1907 -0.0607
  554TMC3    O1 8281   4.468   2.561  10.845 -0.0592 -0.2348 -0.0073
  554TMC3    O2 8282   4.337   2.199  10.803 -0.1348  0.4785  0.4384
  555TMC3    C1 8283   2.853   1.999  15.030 -0.2713  0.2681  0.4289
  555TMC3    C2 8284   2.844   2.079  15.140  0.4438  0.1261  0.6884
  555TMC3    C3 8285   2.893   2.033  15.258  0.0004 -0.3730 -0.9047
  555TMC3    C4 8286   2.931   1.883  15.028  0.2717  0.3268  0.0037
  555TMC3    C5 8287   2.992   1.849  15.146  0.3066 -0.5611  0.2127
  555TMC3    C6 8288   2.970   1.919  15.259  0.8442 -0.2673  0.3377
  555TMC3     C 8289   2.828   2.057  14.898  0.0018 -0.5262  0.3448
  555TMC3     O 8290   2.812   1.984  14.800  0.1357 -0.2078 -0.0181
  555TMC3     H 8291   2.775   2.163  15.139  1.6526  1.1217  1.2776
  555TMC3    H1 8292   2.957   1.831  14.936  1.0305 -1.0981  1.0196
  555TMC3    H2 8293   2.990   1.865  15.351  0.6249 -1.0032 -0.0484
  555TMC3    C7 8294   3.018   1.708  15.175  0.0604 -0.1480 -0.6837
  555TMC3    C8 8295   2.871   2.110  15.379 -0.5380 -0.7345  0.7749
  555TMC3    O1 8296   2.992   1.654  15.282  0.0465  0.3424 -0.1307
  555TMC3    O2 8297   2.783   2.195  15.372  0.8559 -0.3607  0.4953
  556MPD2     C 8298   1.856   3.799  10.864 -0.1384 -0.7266  0.5696
  556MPD2    C1 8299   1.749   3.714  10.895 -0.0330 -0.3010 -0.3620
  556MPD2    C2 8300   1.709   3.615  10.809  0.4718  1.3298 -0.0689
  556MPD2    C3 8301   1.772   3.603  10.690 -0.5058 -0.4870  0.0260
  556MPD2    C4 8302   1.877   3.688  10.657 -0.1821  1.2831 -0.4303
  556MPD2    C5 8303   1.916   3.783  10.743 -0.5610 -0.6325 -0.1535
  556MPD2     H 8304   1.631   3.547  10.841 -0.7692  1.2030 -3.3919
  556MPD2    H1 8305   1.930   3.676  10.563  1.4246  2.7815  0.2789
  556MPD2    H2 8306   1.900   3.870  10.934  0.3224 -0.3119 -0.1468
  556MPD2    H3 8307   2.008   3.837  10.724 -0.9066  0.9426  2.6188
  556MPD2     N 8308   1.723   3.495  10.608  0.8212 -0.1510  0.0247
  556MPD2    H5 8309   1.656   3.431  10.650  2.3401 -1.6579  0.1084
  556MPD2    N1 8310   1.678   3.717  11.012 -0.2142 -0.3582 -1.0821
  556MPD2    H7 8311   1.616   3.642  11.042 -1.2961  0.4842 -1.2069
  557TMC3    C1 8312   1.662   3.385  10.409 -0.4108 -0.3590  0.0593
  557TMC3    C2 8313   1.659   3.401  10.276 -0.1238 -0.3069  0.4823
  557TMC3    C3 8314   1.622   3.291  10.200 -0.1292  0.1841 -0.1191
  557TMC3    C4 8315   1.636   3.275  10.480  0.4300  0.0285  0.9490
  557TMC3    C5 8316   1.607   3.171  10.397 -0.4084 -0.6373 -0.2106
  557TMC3    C6 8317   1.583   3.177  10.256  0.1861  0.1420 -0.0982
  557TMC3     C 8318   1.749   3.480  10.476 -0.0039 -0.2976  0.7814
  557TMC3     O 8319   1.831   3.532  10.403 -0.5336  0.3424 -0.6884
  557TMC3     H 8320   1.680   3.495  10.226  1.4686 -1.3004 -0.6935
  557TMC3    H1 8321   1.644   3.272  10.588  1.2226 -1.4370  0.8464
  557TMC3    H2 8322   1.586   3.084  10.201 -1.5782  0.0494 -0.0565
  557TMC3    C7 8323   1.568   3.047  10.463 -0.2038 -0.1085 -0.1125
  557TMC3    C8 8324   1.578   3.320  10.063  0.6173 -0.0866  0.3110
  557TMC3    O1 8325   1.508   2.970  10.396 -0.1079 -0.6602  0.2358
  557TMC3    O2 8326   1.592   3.431  10.017 -0.5460  0.0670  0.4489
  558TMC3    C1 8327   3.627   1.442  10.435  0.1921 -0.9604  0.6533
  558TMC3    C2 8328   3.507   1.446  10.506  0.1637  0.5496  1.0466
  558TMC3    C3 8329   3.398   1.479  10.423  0.1368  0.0793 -0.5006
  558TMC3    C4 8330   3.641   1.474  10.303  0.6255  0.0890  0.3114
  558TMC3    C5 8331   3.529   1.505  10.227 -0.6329 -0.2688  0.2607
  558TMC3    C6 8332   3.407   1.513  10.289 -0.1543  0.2771  0.6174
  558TMC3     C 8333   3.744   1.382  10.498 -0.6089 -0.1751  0.9684
  558TMC3     O 8334   3.839   1.366  10.417 -0.0194  0.6530 -0.0582
  558TMC3     H 8335   3.493   1.414  10.609 -1.9043  2.3297  1.3031
  558TMC3    H1 8336   3.739   1.499  10.266  1.1302  0.5494  1.9347
  558TMC3    H2 8337   3.315   1.551  10.246  0.8613 -0.7940 -2.4778
  558TMC3    C7 8338   3.550   1.595  10.116 -0.0148 -0.5512 -0.0272
  558TMC3    C8 8339   3.271   1.498  10.491  0.3756  0.2526  0.7247
  558TMC3    O1 8340   3.667   1.590  10.080  0.5277  0.3588  0.6981
  558TMC3    O2 8341   3.173   1.480  10.421  0.0695 -0.2883  0.0796
  559MPD2     C 8342   3.841   1.721  10.428  0.3564 -0.1286  0.2594
  559MPD2    C1 8343   3.757   1.717  10.535  0.6840 -0.2604 -0.7253
  559MPD2    C2 8344   3.808   1.676  10.658 -0.0743  0.4466  0.1334
  559MPD2    C3 8345   3.946   1.661  10.673 -0.6340 -0.6288 -0.2032
  559MPD2    C4 8346   4.029   1.676  10.565 -0.1831  0.5809  0.0883
  559MPD2    C5 8347   3.975   1.695  10.441 -0.3257  0.0474 -1.5919
  559MPD2     H 8348   3.755   1.664  10.751 -0.9736  0.9568 -0.3124
  559MPD2    H1 8349   4.136   1.662  10.565 -0.1701  0.6441  1.3845
  559MPD2    H2 8350   3.802   1.767  10.337  3.2271  1.8598  0.0156
  559MPD2    H3 8351   4.036   1.719  10.355  3.2482  0.7410  1.1530
  559MPD2     N 8352   3.997   1.641  10.809  0.8567  0.9802  0.2371
  559MPD2    H5 8353   3.927   1.628  10.881 -0.3002 -1.9776 -1.4235
  559MPD2    N1 8354   3.628   1.758  10.514  0.8234  0.0794 -0.2607
  559MPD2    H7 8355   3.602   1.801  10.425 -1.2400  0.5349  0.5627
  560TMC3    C1 8356   4.146   1.622  10.985  0.2038 -0.2431  0.2011
  560TMC3    C2 8357   4.051   1.544  11.048 -0.3891 -0.5608 -0.6575
  560TMC3    C3 8358   4.049   1.549  11.188  0.2898  0.0104  0.6162
  560TMC3    C4 8359   4.232   1.703  11.050  0.5126  0.5193 -0.0103
  560TMC3    C5 8360   4.217   1.710  11.189 -0.5595 -0.0452 -0.8679
  560TMC3    C6 8361   4.126   1.634  11.259 -0.2291  0.1688  0.2751
  560TMC3     C 8362   4.130   1.643  10.843  0.6980 -0.5549  0.0522
  560TMC3     O 8363   4.232   1.672  10.778 -0.7287 -0.6721  0.4681
  560TMC3     H 8364   3.976   1.483  10.998 -2.2154  1.3342 -0.2556
  560TMC3    H1 8365   4.299   1.767  10.994  0.0440  0.5852 -0.4948
  560TMC3    H2 8366   4.134   1.634  11.367 -0.2412  0.9948  0.2780
  560TMC3    C7 8367   4.289   1.814  11.255  0.1452  0.5895 -0.5483
  560TMC3    C8 8368   3.929   1.499  11.256  1.1091 -0.0095  0.2800
  560TMC3    O1 8369   4.240   1.856  11.362  0.1470  0.0285 -0.0062
  560TMC3    O2 8370   3.826   1.480  11.191 -0.5262 -0.3217 -0.2793
  561TMC3    C1 8371   1.402   1.245  10.775 -0.7798 -0.5650 -0.6124
  561TMC3    C2 8372   1.344   1.147  10.847 -0.8626  0.4015 -0.1582
  561TMC3    C3 8373   1.354   1.152  10.986 -1.1175  0.4309 -0.0416
  561TMC3    C4 8374   1.466   1.352  10.831 -0.1922  0.4133  0.7264
  561TMC3    C5 8375   1.474   1.362  10.971 -0.0818  0.1835  0.3142
  561TMC3    C6 8376   1.415   1.265  11.048 -0.0863 -0.2427  0.4141
  561TMC3     C 8377   1.393   1.232  10.630  0.1494 -0.4918  0.3376
  561TMC3     O 8378   1.312   1.150  10.591  0.8443  0.1388  0.2295
  561TMC3     H 8379   1.296   1.062  10.800  2.4496 -1.0584 -0.9367
  561TMC3    H1 8380   1.496   1.435  10.767  2.7894 -0.2061  1.3445
  561TMC3    H2 8381   1.422   1.266  11.156 -0.2365  1.0301  0.4049
  561TMC3    C7 8382   1.508   1.489  11.025  0.0051 -0.0581 -0.2016
  561TMC3    C8 8383   1.279   1.055  11.059  1.1427 -0.8103  0.1933
  561TMC3    O1 8384   1.456   1.527  11.128  0.0321 -0.0460  0.5081
  561TMC3    O2 8385   1.227   0.966  10.991  0.1729  0.2330  0.2041
  562TMC3    C1 8386   2.822   2.141  16.552 -0.4500  0.1090 -0.1921
  562TMC3    C2 8387   2.748   2.257  16.540  0.1321  0.1020  1.0709
  562TMC3    C3 8388   2.732   2.297  16.408  0.0587 -0.4478  0.1910
  562TMC3    C4 8389   2.870   2.064  16.442  0.5454  0.0483  0.4096
  562TMC3    C5 8390   2.822   2.103  16.319 -0.5777 -0.2600  0.4285
  562TMC3    C6 8391   2.757   2.218  16.302  0.1631  0.1386  0.3175
  562TMC3     C 8392   2.866   2.097  16.677 -0.5820  0.1580 -0.9226
  562TMC3     O 8393   2.945   2.005  16.681  0.1725  0.3086 -0.5952
  562TMC3     H 8394   2.716   2.323  16.619  0.6579  2.4149 -0.6558
  562TMC3    H1 8395   2.907   1.964  16.460  0.9766 -0.0729 -1.1772
  562TMC3    H2 8396   2.698   2.234  16.213  0.8573  0.1292 -0.1479
  562TMC3    C7 8397   2.818   2.016  16.207 -0.3622  0.3152  0.2092
  562TMC3    C8 8398   2.661   2.420  16.391  0.2330  0.3629 -0.0353
  562TMC3    O1 8399   2.755   2.058  16.112 -0.3084  0.2212 -0.2991
  562TMC3    O2 8400   2.619   2.473  16.492 -0.0293  0.7596 -0.4633
  563MPD2     C 8401   0.017   3.300  15.688 -0.1314 -0.2284 -0.0892
  563MPD2    C1 8402   0.101   3.318  15.795 -0.3566  0.2348  0.1018
  563MPD2    C2 8403   0.230   3.280  15.776  0.8496 -0.9110  0.2259
  563MPD2    C3 8404   0.274   3.200  15.677 -0.1955  0.3567  0.2092
  563MPD2    C4 8405   0.186   3.166  15.575 -0.9492 -0.4755  0.3964
  563MPD2    C5 8406   0.060   3.226  15.582 -0.4281 -0.0511  0.0758
  563MPD2     H 8407   0.296   3.300  15.859 -0.5063 -3.8005  1.9802
  563MPD2    H1 8408   0.220   3.110  15.488  1.1682 -0.6498  1.3349
  563MPD2    H2 8409   4.660   3.349  15.678  0.3888 -0.3078 -5.5144
  563MPD2    H3 8410   4.729   3.213  15.500 -0.2422  1.2215 -0.2769
  563MPD2     N 8411   0.401   3.149  15.691 -0.0302 -0.8792 -0.9952
  563MPD2    H5 8412   0.456   3.177  15.771 -0.7952 -0.2118 -0.6937
  563MPD2    N1 8413   0.043   3.374  15.907 -0.2441 -0.5621  0.1576
  563MPD2    H7 8414   4.680   3.373  15.913 -0.3261 -2.0818 -1.6156
  564TMC3    C1 8415   0.047   3.430  16.137  0.4100  0.2266  0.7849
  564TMC3    C2 8416   4.649   3.424  16.141 -0.0888 -0.1437  0.7680
  564TMC3    C3 8417   4.590   3.344  16.239  0.1723 -0.1772  0.5439
  564TMC3    C4 8418   0.116   3.382  16.247 -0.6504  0.0248  0.2465
  564TMC3    C5 8419   0.059   3.299  16.334  0.0502 -0.6893  0.4905
  564TMC3    C6 8420   4.665   3.279  16.330 -0.2970 -0.0311  0.3805
  564TMC3     C 8421   0.121   3.430  16.011  0.2604 -0.2606  0.1198
  564TMC3     O 8422   0.239   3.434  16.023 -0.0314 -0.2734  0.5928
  564TMC3     H 8423   4.595   3.469  16.058  0.2718 -1.9313 -0.4428
  564TMC3    H1 8424   0.224   3.372  16.242 -0.6632 -0.2929  0.6445
  564TMC3    H2 8425   4.618   3.212  16.402  2.1306  0.8312  2.7681
  564TMC3    C7 8426   0.108   3.165  16.320 -0.5417 -0.4810 -0.3786
  564TMC3    C8 8427   4.471   3.271  16.199  0.1913  0.2342  0.6795
  564TMC3    O1 8428   0.128   3.098  16.421  0.2530 -0.0062 -0.1272
  564TMC3    O2 8429   4.430   3.198  16.290 -0.5812  0.7169  0.4187
  565TMC3    C1 8430   0.554   4.616  10.412  0.3662 -0.3589 -0.3830
  565TMC3    C2 8431   0.523   4.486  10.433  0.4934  0.3460 -0.1510
  565TMC3    C3 8432   0.400   4.461  10.485 -0.2415  0.1367 -0.2560
  565TMC3    C4 8433   0.473   4.720  10.447  0.3081 -0.5026  0.1122
  565TMC3    C5 8434   0.343   4.686  10.475 -0.6820 -0.1350 -0.0523
  565TMC3    C6 8435   0.304   4.556  10.502  0.4515 -0.7010  0.6543
  565TMC3     C 8436   0.700   4.645  10.430 -0.2690  1.6400  0.0437
  565TMC3     O 8437   0.729   0.024  10.401  0.2339 -0.1485 -0.3040
  565TMC3     H 8438   0.586   4.401  10.406 -0.9660 -0.6318 -0.4931
  565TMC3    H1 8439   0.496   0.086  10.431 -2.5703  0.1283  0.0377
  565TMC3    H2 8440   0.199   4.530  10.497 -0.8388  4.6557 -0.5207
  565TMC3    C7 8441   0.248   0.055  10.502  0.5190 -0.0027  0.1251
  565TMC3    C8 8442   0.367   4.323  10.508  0.0648 -0.3175  0.1257
  565TMC3    O1 8443   0.264   0.168  10.458 -0.4101 -0.5693 -0.6759
  565TMC3    O2 8444   0.424   4.238  10.444  0.1502 -0.0585 -0.2816
  566MPD2     C 8445   2.947   2.177  14.345  0.6352  0.3948  0.8761
  566MPD2    C1 8446   3.024   2.067  14.380  1.0543  0.6780  0.7604
  566MPD2    C2 8447   2.984   1.935  14.354 -0.1064 -0.0268 -0.0567
  566MPD2    C3 8448   2.878   1.926  14.269  0.4516 -0.3009  0.3297
  566MPD2    C4 8449   2.807   2.036  14.229 -0.3957  0.1232 -0.1143
  566MPD2    C5 8450   2.833   2.161  14.273  0.0265 -0.2813 -0.0240
  566MPD2     H 8451   3.050   1.853  14.378  0.9577  0.4721 -1.2212
  566MPD2    H1 8452   2.719   2.021  14.168 -0.6939  1.2758  0.0361
  566MPD2    H2 8453   2.975   2.278  14.373 -0.1793  0.9054 -0.1318
  566MPD2    H3 8454   2.764   2.235  14.235 -0.4023  0.3823  2.0345
  566MPD2     N 8455   2.828   1.808  14.209 -0.0171 -0.5573  0.4646
  566MPD2    H5 8456   2.736   1.810  14.167 -0.0288 -2.1681  0.4255
  566MPD2    N1 8457   3.149   2.100  14.436  0.0660 -0.1196 -0.2752
  566MPD2    H7 8458   3.150   2.193  14.478  0.4714 -1.7177  3.2926
  567TMC3    C1 8459   3.294   1.912  14.378 -0.1448  0.4846 -0.0839
  567TMC3    C2 8460   3.284   1.952  14.243 -0.0087  0.4378  0.4194
  567TMC3    C3 8461   3.276   1.845  14.155  0.0830  0.1026 -0.6414
  567TMC3    C4 8462   3.300   1.785  14.418 -0.6937 -0.1957 -0.6539
  567TMC3    C5 8463   3.299   1.687  14.325  0.1792  0.0686 -0.3908
  567TMC3    C6 8464   3.295   1.714  14.188 -0.1891 -0.8735 -0.4600
  567TMC3     C 8465   3.257   2.016  14.471  0.3487 -0.2221  0.0946
  567TMC3     O 8466   3.346   2.041  14.551 -0.3334  0.1727 -0.4774
  567TMC3     H 8467   3.277   2.056  14.215  1.5463  0.0494 -1.4315
  567TMC3    H1 8468   3.309   1.753  14.522  0.4412  2.0846 -0.0336
  567TMC3    H2 8469   3.289   1.638  14.112  1.0486 -2.3627  0.9278
  567TMC3    C7 8470   3.266   1.545  14.362 -0.8028 -0.3923 -0.5545
  567TMC3    C8 8471   3.290   1.883  14.020 -0.1890 -0.0362  0.2022
  567TMC3    O1 8472   3.303   1.449  14.295  0.3264 -0.2019 -0.3768
  567TMC3    O2 8473   3.228   1.815  13.940 -0.1617  0.3168  0.5434
  568MPD2     C 8474   0.099   1.784  16.466 -0.3901 -0.1297  0.6067
  568MPD2    C1 8475   0.114   1.884  16.561 -0.1405  0.6011 -0.7018
  568MPD2    C2 8476   0.091   2.015  16.534  0.4661 -0.7849 -0.3616
  568MPD2    C3 8477   0.059   2.049  16.407 -0.1813  0.3913  0.0597
  568MPD2    C4 8478   0.055   1.955  16.309 -0.2119  0.5604 -0.4491
  568MPD2    C5 8479   0.069   1.825  16.343 -0.3923 -0.2294 -1.2103
  568MPD2     H 8480   0.106   2.090  16.611  0.9684 -2.8318  1.5556
  568MPD2    H1 8481   0.019   1.978  16.209 -0.1363  0.0605 -0.5931
  568MPD2    H2 8482   0.115   1.680  16.492 -0.8839  0.2413  2.4186
  568MPD2    H3 8483   0.068   1.752  16.263 -0.9239 -1.0399 -0.4645
  568MPD2     N 8484   0.049   2.188  16.380 -0.3358 -0.5526  0.0958
  568MPD2    H5 8485   0.073   2.247  16.459  1.6779  1.2159 -1.8301
  568MPD2    N1 8486   0.152   1.835  16.690  0.5758 -0.3471 -0.3096
  568MPD2    H7 8487   0.180   1.738  16.698  0.4671 -0.2386  1.3910
  569TMC3    C1 8488   4.716   2.386  16.267 -0.1010 -0.5590 -0.4085
  569TMC3    C2 8489   4.697   2.434  16.395 -0.3726 -0.0366 -0.6039
  569TMC3    C3 8490   4.720   2.569  16.403  0.3215 -0.0464  0.5339
  569TMC3    C4 8491   0.003   2.467  16.157 -0.6952  1.0604 -0.7673
  569TMC3    C5 8492   0.002   2.606  16.169  0.3361  0.3198 -0.1138
  569TMC3    C6 8493   0.006   2.653  16.299 -0.0172 -0.0260  0.5789
  569TMC3     C 8494   0.015   2.242  16.259 -0.4453 -0.8439 -0.0663
  569TMC3     O 8495   0.012   2.194  16.147 -0.1459 -0.3040  0.1919
  569TMC3     H 8496   4.660   2.376  16.479  1.7342 -1.9221 -0.9749
  569TMC3    H1 8497   0.027   2.425  16.060 -0.5973  0.9011 -0.6742
  569TMC3    H2 8498   0.015   2.759  16.321  2.9843 -0.5642  1.9344
  569TMC3    C7 8499   4.706   2.687  16.055 -0.5508 -0.4477 -0.3539
  569TMC3    C8 8500   4.719   2.617  16.534  0.1883  0.0174  0.7943
  569TMC3    O1 8501   4.722   2.641  15.941  0.1126  0.1343  0.5624
  569TMC3    O2 8502   4.641   2.569  16.613  0.1075 -0.3279  0.1777
  570TMC3    C1 8503   3.687   1.161  16.107 -0.3012  0.6156 -0.6782
  570TMC3    C2 8504   3.760   1.112  16.001  0.3842  0.0684 -0.4769
  570TMC3    C3 8505   3.823   1.208  15.924 -0.1042 -0.3190 -0.2106
  570TMC3    C4 8506   3.679   1.295  16.134  0.0332 -0.0016 -0.6288
  570TMC3    C5 8507   3.761   1.379  16.073 -0.4582  0.0382  0.4878
  570TMC3    C6 8508   3.834   1.336  15.968 -0.4274  0.2960  0.4669
  570TMC3     C 8509   3.654   1.070  16.214 -0.1849 -0.5674  0.0080
  570TMC3     O 8510   3.647   0.949  16.195  0.3344 -0.0416 -0.5006
  570TMC3     H 8511   3.778   1.007  15.982  0.9890  0.0237  0.3738
  570TMC3    H1 8512   3.624   1.333  16.219  0.6828  0.8549 -0.5907
  570TMC3    H2 8513   3.908   1.393  15.914 -0.6510 -0.6030 -0.8137
  570TMC3    C7 8514   3.836   1.452  16.175 -0.6224 -0.0045 -0.1973
  570TMC3    C8 8515   3.936   1.163  15.856 -0.5616 -0.6409  0.2399
  570TMC3    O1 8516   3.825   1.405  16.287 -0.0435  0.0874 -0.5946
  570TMC3    O2 8517   4.037   1.236  15.860 -0.2141 -0.7707 -0.5836
  571MPD2     C 8518   2.246   2.800   0.730 -1.0920 -0.2001 -0.2261
  571MPD2    C1 8519   2.284   2.780   0.600  0.0072  0.3408  0.3929
  571MPD2    C2 8520   2.374   2.866   0.542 -0.8780 -0.1168  1.0640
  571MPD2    C3 8521   2.429   2.974   0.613  0.1559  0.1802  0.6923
  571MPD2    C4 8522   2.382   2.992   0.741  0.6361 -0.0950  0.4508
  571MPD2    C5 8523   2.296   2.900   0.800  0.4957  0.1067 -0.0243
  571MPD2     H 8524   2.411   2.838   0.444  0.3788  1.1872  1.1714
  571MPD2    H1 8525   2.421   3.067   0.810 -0.3063  1.5421 -0.7951
  571MPD2    H2 8526   2.168   2.737   0.771 -0.1514  0.0021  1.8946
  571MPD2    H3 8527   2.265   2.918   0.902  0.4494 -0.6866  0.0943
  571MPD2     N 8528   2.530   3.066   0.562 -0.1678 -0.2732 -0.3552
  571MPD2    H5 8529   2.565   3.137   0.626  0.3355 -1.2618  0.4723
  571MPD2    N1 8530   2.229   2.662   0.535  0.0930  0.2837  0.0879
  571MPD2    H7 8531   2.168   2.604   0.591  3.0800 -2.4993  0.4570
  572TMC3    C1 8532   2.666   3.163   0.431 -0.1782  0.0373  0.2360
  572TMC3    C2 8533   2.769   3.129   0.513 -0.2496  0.4839  0.2206
  572TMC3    C3 8534   2.885   3.202   0.499 -0.1978  0.4259  0.3766
  572TMC3    C4 8535   2.662   3.269   0.343  0.3872 -0.0446 -0.1543
  572TMC3    C5 8536   2.777   3.339   0.340  0.1828  0.5228 -0.8280
  572TMC3    C6 8537   2.888   3.312   0.415  0.0479  0.0359  0.4446
  572TMC3     C 8538   2.572   3.071   0.436  0.4044 -0.0562  0.0460
  572TMC3     O 8539   2.520   3.027   0.335 -0.2238 -0.0181 -0.2901
  572TMC3     H 8540   2.765   3.025   0.542  0.9664  0.5602  0.6173
  572TMC3    H1 8541   2.582   3.298   0.275 -0.8323  1.8056  2.0550
  572TMC3    H2 8542   2.974   3.376   0.399 -0.0321  0.3724  1.3523
  572TMC3    C7 8543   2.780   3.449   0.246 -0.8029 -0.1096  0.4690
  572TMC3    C8 8544   2.996   3.151   0.568 -0.2410 -0.0618 -0.3501
  572TMC3    O1 8545   2.699   3.447   0.157  0.9738  0.4761 -0.5288
  572TMC3    O2 8546   3.106   3.181   0.526 -0.4418  0.0101 -0.5180
  573MPD2     C 8547   3.803   3.982   0.716  0.1991  0.5142 -0.0320
  573MPD2    C1 8548   3.933   3.980   0.742 -0.0025 -0.0776  0.3959
  573MPD2    C2 8549   4.029   3.960   0.648  0.4889  0.3338  0.0115
  573MPD2    C3 8550   3.990   3.954   0.514 -0.5003  0.2551  0.4275
  573MPD2    C4 8551   3.859   3.980   0.486 -0.2268  0.5456 -0.2476
  573MPD2    C5 8552   3.764   3.990   0.588  0.8152 -0.2739 -0.4032
  573MPD2     H 8553   4.135   3.962   0.670  0.7891 -1.5252 -1.2975
  573MPD2    H1 8554   3.832   3.983   0.381  0.0636 -1.3025 -0.3684
  573MPD2    H2 8555   3.724   3.988   0.791 -0.5734 -2.7001 -0.5962
  573MPD2    H3 8556   3.657   3.999   0.568  0.9520 -1.0021 -1.4486
  573MPD2     N 8557   4.080   3.954   0.401  0.3381  0.5672  0.4088
  573MPD2    H5 8558   4.035   3.961   0.311 -0.7878  0.3701  0.9467
  573MPD2    N1 8559   3.970   3.984   0.881  0.1392  0.5357 -0.0134
  573MPD2    H7 8560   3.900   4.006   0.951  0.6462 -1.2486  1.0539
  574TMC3    C1 8561   4.273   3.952   0.266  0.2343  0.7893  0.5981
  574TMC3    C2 8562   4.184   3.977   0.163  0.0479 -0.3131  0.3221
  574TMC3    C3 8563   4.235   4.030   0.054 -0.6694  0.5480 -0.2808
  574TMC3    C4 8564   4.405   3.977   0.260  0.6059 -0.1989  0.2023
  574TMC3    C5 8565   4.459   4.019   0.146 -0.8300  0.3126  0.1748
  574TMC3    C6 8566   4.375   4.045   0.042  0.7623 -0.6289 -0.5318
  574TMC3     C 8567   4.221   3.946   0.403 -0.0870 -0.1481  0.1165
  574TMC3     O 8568   4.305   3.925   0.493  0.5930 -0.1030 -0.1609
  574TMC3     H 8569   4.082   3.941   0.153 -0.4958  1.4391 -0.4305
  574TMC3    H1 8570   4.469   3.952   0.344 -0.2059 -1.5300  0.4143
  574TMC3    H2 8571   4.427   4.081  17.707  1.5607  1.9025  0.9835
  574TMC3    C7 8572   4.579   4.096   0.159 -0.8819 -0.6097 -0.6274
  574TMC3    C8 8573   4.169   4.055  17.685  0.2035  0.0480  0.7352
  574TMC3    O1 8574   4.563   4.206   0.118 -0.2461  0.1770  0.3823
  574TMC3    O2 8575   4.244   4.068  17.586 -0.3047 -0.1082  0.6269
  575TMC3    C1 8576   0.347   3.469  10.407  0.3353  0.0084  0.2666
  575TMC3    C2 8577   0.481   3.431  10.398 -0.3306  0.2157  0.2663
  575TMC3    C3 8578   0.579   3.508  10.453 -0.2710  0.1587  0.6368
  575TMC3    C4 8579   0.311   3.587  10.457  0.4748  0.5169 -0.3217
  575TMC3    C5 8580   0.410   3.671  10.502 -0.7951  0.2675  0.2366
  575TMC3    C6 8581   0.544   3.632  10.495 -0.1279 -0.0772 -0.0064
  575TMC3     C 8582   0.250   3.407  10.324  0.2116 -0.2868 -0.5821
  575TMC3     O 8583   0.134   3.445  10.334  0.1643 -0.3387  0.0217
  575TMC3     H 8584   0.509   3.330  10.372 -1.7300 -0.1217  0.0730
  575TMC3    H1 8585   0.209   3.622  10.449  0.6228  1.5868  2.5889
  575TMC3    H2 8586   0.609   3.704  10.542 -0.5349 -0.7993  1.6397
  575TMC3    C7 8587   0.389   3.809  10.522 -0.2716  0.2740 -0.0728
  575TMC3    C8 8588   0.705   3.499  10.382 -0.0412 -0.3714 -0.2876
  575TMC3    O1 8589   0.477   3.889  10.490 -0.0622  0.5099  0.0543
  575TMC3    O2 8590   0.733   3.397  10.319  0.6958  0.3748 -0.1984
  576MPD2     C 8591   1.004   0.724  12.477  0.0564 -0.0578  0.2441
  576MPD2    C1 8592   0.900   0.798  12.425 -0.3612  0.4962 -0.4277
  576MPD2    C2 8593   0.789   0.823  12.500 -0.8424 -0.8692  0.2919
  576MPD2    C3 8594   0.770   0.761  12.624  0.0428 -0.4670 -0.3299
  576MPD2    C4 8595   0.872   0.677  12.667 -0.3969  0.6793  1.0919
  576MPD2    C5 8596   0.989   0.662  12.596  0.3264 -0.4482  0.4203
  576MPD2     H 8597   0.721   0.902  12.471  0.2287 -0.8671 -2.1945
  576MPD2    H1 8598   0.874   0.632  12.765 -0.3774  0.7467  1.1229
  576MPD2    H2 8599   1.092   0.714  12.414  0.4703 -1.0361  0.9824
  576MPD2    H3 8600   1.058   0.582  12.620  1.0996 -0.0507 -0.5146
  576MPD2     N 8601   0.665   0.793  12.698 -0.1438 -0.2786  0.1429
  576MPD2    H5 8602   0.595   0.856  12.661  1.1380  1.7467  1.1654
  576MPD2    N1 8603   0.902   0.861  12.302  0.3616  0.7333  0.0646
  576MPD2    H7 8604   0.820   0.916  12.276  0.9104  1.3007 -0.4811
  577TMC3    C1 8605   0.991   0.931  12.093  0.0860  0.1029 -0.4506
  577TMC3    C2 8606   1.034   0.876  11.976 -0.1027 -0.2453 -0.5594
  577TMC3    C3 8607   1.007   0.943  11.864  0.7989  0.4758 -0.1688
  577TMC3    C4 8608   0.918   1.047  12.103  0.2543  0.1228  0.6582
  577TMC3    C5 8609   0.881   1.102  11.979  0.5397  0.1920 -0.0581
  577TMC3    C6 8610   0.932   1.054  11.861  0.4367 -0.0593  0.1232
  577TMC3     C 8611   1.002   0.848  12.211 -0.4478 -0.1805  0.1457
  577TMC3     O 8612   1.098   0.771  12.213 -0.5285  0.0108 -0.0497
  577TMC3     H 8613   1.076   0.776  11.972  0.4000 -0.0101 -1.2501
  577TMC3    H1 8614   0.898   1.103  12.193  0.4073 -1.6640  1.7990
  577TMC3    H2 8615   0.914   1.106  11.768  2.3357  1.5888  0.6945
  577TMC3    C7 8616   0.773   1.201  11.996 -0.4504 -0.0862 -0.5843
  577TMC3    C8 8617   1.074   0.885  11.741 -0.0006  0.2548  0.4099
  577TMC3    O1 8618   0.742   1.242  12.107  0.2456 -0.1238  0.1265
  577TMC3    O2 8619   1.102   0.767  11.755  0.4680  0.3481 -0.4942
  578MPD2     C 8620   3.691   1.304   1.342  0.3956 -0.3315 -0.2290
  578MPD2    C1 8621   3.771   1.251   1.250  0.6932  0.4211 -0.3723
  578MPD2    C2 8622   3.853   1.145   1.281 -0.8406  0.1250 -0.3032
  578MPD2    C3 8623   3.879   1.118   1.411 -0.2020 -0.1845  0.3701
  578MPD2    C4 8624   3.812   1.188   1.512 -0.4994  0.1893  0.1875
  578MPD2    C5 8625   3.721   1.284   1.474  0.0893  0.3723 -0.2527
  578MPD2     H 8626   3.914   1.095   1.206 -1.1942  0.1537 -0.6099
  578MPD2    H1 8627   3.830   1.166   1.617  0.9333  0.3363 -0.0235
  578MPD2    H2 8628   3.613   1.373   1.311 -0.9204 -1.9592 -0.5498
  578MPD2    H3 8629   3.655   1.334   1.544  0.7095  0.8707 -0.0220
  578MPD2     N 8630   3.980   1.024   1.436  0.2385 -0.3739 -0.3890
  578MPD2    H5 8631   4.023   0.983   1.353  0.2603 -0.7099 -0.2065
  578MPD2    N1 8632   3.758   1.316   1.123 -0.6413 -0.1543 -0.4959
  578MPD2    H7 8633   3.700   1.399   1.115  0.7012  0.7288 -1.0232
  579TMC3    C1 8634   4.156   0.922   1.559 -0.1348 -0.5731  0.1928
  579TMC3    C2 8635   4.251   0.995   1.623 -0.5151  0.0450 -0.1579
  579TMC3    C3 8636   4.385   0.998   1.583 -0.3521  0.0900 -0.1433
  579TMC3    C4 8637   4.202   0.850   1.452 -0.1218  0.3531  0.2773
  579TMC3    C5 8638   4.337   0.856   1.410 -0.0689  0.0781 -0.0564
  579TMC3    C6 8639   4.434   0.910   1.488 -0.1989  0.3257  0.1612
  579TMC3     C 8640   4.024   0.979   1.563  0.2922 -0.5945  0.1174
  579TMC3     O 8641   3.993   1.018   1.674  0.5743  0.0559 -0.2768
  579TMC3     H 8642   4.221   1.055   1.709  2.7529 -0.3042  1.2352
  579TMC3    H1 8643   4.135   0.787   1.395 -0.9998  0.9639  0.6379
  579TMC3    H2 8644   4.539   0.890   1.474 -0.6177 -2.6644  1.2947
  579TMC3    C7 8645   4.377   0.752   1.323 -0.2187  0.6203  0.0511
  579TMC3    C8 8646   4.470   1.100   1.649 -0.0072 -1.0246  0.5879
  579TMC3    O1 8647   4.485   0.697   1.332  0.3292  0.1745 -0.5393
  579TMC3    O2 8648   4.425   1.147   1.749  0.5721 -0.2880  0.6913
  580TMC3    C1 8649   2.824   4.427  11.637  0.8631 -0.0371  0.3722
  580TMC3    C2 8650   2.869   4.406  11.508 -0.2032 -0.4334  0.4381
  580TMC3    C3 8651   2.910   4.285  11.472 -0.2991 -0.3472 -1.0120
  580TMC3    C4 8652   2.841   4.320  11.728 -0.6695  0.0006 -0.3938
  580TMC3    C5 8653   2.885   4.198  11.683  0.3986  0.7637  0.0114
  580TMC3    C6 8654   2.913   4.177  11.547 -0.2276  0.4779 -0.1893
  580TMC3     C 8655   2.828   4.566  11.681  0.0863  0.0513  0.1001
  580TMC3     O 8656   2.854   4.639  11.591  0.2058 -1.0021 -0.2082
  580TMC3     H 8657   2.850   4.479  11.430 -0.5391  1.2004  2.0543
  580TMC3    H1 8658   2.821   4.324  11.835 -1.4036  0.6755 -0.5527
  580TMC3    H2 8659   2.948   4.084  11.503 -1.6595  0.5969 -1.5472
  580TMC3    C7 8660   2.949   4.115  11.782  0.3715  0.0029 -0.7288
  580TMC3    C8 8661   2.979   4.270  11.342  0.5789 -0.1648  0.1484
  580TMC3    O1 8662   2.955   4.158  11.896 -0.6021  0.7286  0.4524
  580TMC3    O2 8663   2.956   4.166  11.287 -0.5286  0.3572 -0.7163
  581MPD2     C 8664   1.151   4.273  15.065  0.2568  0.2086  0.0815
  581MPD2    C1 8665   1.133   4.384  15.144  0.3628 -0.3743 -0.1842
  581MPD2    C2 8666   1.003   4.453  15.138 -0.2069 -0.5022  0.4451
  581MPD2    C3 8667   0.900   4.409  15.054 -0.2569  0.5195 -0.0230
  581MPD2    C4 8668   0.927   4.304  14.974 -0.1914 -0.8273  0.0428
  581MPD2    C5 8669   1.049   4.239  14.981 -0.3572 -0.7492  0.2006
  581MPD2     H 8670   0.986   4.545  15.193 -2.3318  0.0705 -1.1822
  581MPD2    H1 8671   0.856   4.263  14.903 -1.5289 -0.9174  1.4202
  581MPD2    H2 8672   1.246   4.223  15.060  0.3106  0.1085  2.3381
  581MPD2    H3 8673   1.071   4.150  14.924  1.0669  0.0193 -0.4385
  581MPD2     N 8674   0.778   4.474  15.035 -0.0798  0.2309  0.0812
  581MPD2    H5 8675   0.767   4.574  15.046  0.9362  0.3188  0.2492
  581MPD2    N1 8676   1.243   4.420  15.226  0.3851 -0.5669  0.2619
  581MPD2    H7 8677   1.329   4.367  15.222  0.2045 -0.8450 -0.0017
  582TMC3    C1 8678   1.341   4.492  15.423  0.0622  0.1585  0.1864
  582TMC3    C2 8679   1.354   4.577  15.530  0.4253  0.4669  0.9613
  582TMC3    C3 8680   1.398   4.518  15.648  0.2988 -0.3229 -0.4610
  582TMC3    C4 8681   1.375   4.360  15.430 -0.6394  0.4657  0.3319
  582TMC3    C5 8682   1.413   4.319  15.550 -0.5447  0.0153  0.1673
  582TMC3    C6 8683   1.439   4.394  15.656 -0.0772 -0.1367 -0.3675
  582TMC3     C 8684   1.247   4.523  15.317 -0.0866 -0.4690  1.2946
  582TMC3     O 8685   1.175   4.619  15.326 -0.5440  0.0952 -0.0651
  582TMC3     H 8686   1.323   4.680  15.522 -0.6577  0.1153  0.5604
  582TMC3    H1 8687   1.391   4.294  15.347 -2.4202 -0.8587  1.0381
  582TMC3    H2 8688   1.490   4.354  15.743  1.3115  0.4665 -0.9047
  582TMC3    C7 8689   1.465   4.183  15.570 -0.3413 -0.1985  0.5951
  582TMC3    C8 8690   1.455   4.609  15.741  0.2320  0.5436  0.1606
  582TMC3    O1 8691   1.569   4.183  15.635 -0.0665  0.4909  0.3381
  582TMC3    O2 8692   1.392   4.708  15.776 -0.5098  0.2728  0.0130
  583MPD2     C 8693   1.515   1.352  16.610  0.1810  0.2488 -0.1817
  583MPD2    C1 8694   1.486   1.479  16.570  0.3664 -0.2171  0.0424
  583MPD2    C2 8695   1.438   1.566  16.664  0.0547 -0.1643 -0.3048
  583MPD2    C3 8696   1.395   1.527  16.790 -0.4291 -0.0749 -1.5244
  583MPD2    C4 8697   1.423   1.401  16.833  0.2342 -0.1828  0.3131
  583MPD2    C5 8698   1.494   1.324  16.743 -0.5901  0.8925  0.7119
  583MPD2     H 8699   1.424   1.670  16.638  1.7201  0.0740 -0.2050
  583MPD2    H1 8700   1.404   1.359  16.932 -0.4137 -3.3679 -1.1753
  583MPD2    H2 8701   1.569   1.277  16.552  0.3826 -0.8619  1.4348
  583MPD2    H3 8702   1.518   1.221  16.765 -0.1125  0.7971 -0.2610
  583MPD2     N 8703   1.326   1.619  16.871  0.6662 -0.2476  0.6288
  583MPD2    H5 8704   1.315   1.713  16.835  0.5854 -0.5574 -0.1607
  583MPD2    N1 8705   1.508   1.530  16.441  0.8367 -0.0328  0.2104
  583MPD2    H7 8706   1.489   1.628  16.422  0.9188 -0.1667 -0.5756
  584TMC3    C1 8707   1.235   1.723  17.055  0.4173  0.4094  0.6150
  584TMC3    C2 8708   1.186   1.817  16.977 -0.2341 -0.1339 -0.3487
  584TMC3    C3 8709   1.124   1.933  17.027  0.5357 -0.0740  0.2121
  584TMC3    C4 8710   1.220   1.730  17.190 -0.2846  0.3430  0.7343
  584TMC3    C5 8711   1.156   1.843  17.240  0.5691 -0.4747 -0.6181
  584TMC3    C6 8712   1.111   1.951  17.161  0.1477 -0.1127  0.2405
  584TMC3     C 8713   1.291   1.604  17.001  0.4458  0.4843  0.3395
  584TMC3     O 8714   1.314   1.511  17.074 -0.4587  0.1457 -0.2297
  584TMC3     H 8715   1.196   1.813  16.869  0.4098  0.4112 -0.3084
  584TMC3    H1 8716   1.237   1.643  17.253 -0.9621  0.0381  0.4992
  584TMC3    H2 8717   1.048   2.027  17.206 -0.3347 -0.6188  0.4200
  584TMC3    C7 8718   1.139   1.850  17.390 -0.4461  0.4122  0.1394
  584TMC3    C8 8719   1.085   2.031  16.933 -0.1362 -1.0335  0.5827
  584TMC3    O1 8720   1.155   1.740  17.453  0.4867  0.5723 -0.3184
  584TMC3    O2 8721   1.079   2.007  16.815 -0.2174 -0.5765 -0.0469
  585MPD2     C 8722   0.825   0.650   0.779  0.2619  0.0019  0.1739
  585MPD2    C1 8723   0.914   0.667   0.678 -1.0343  0.2469 -0.2573
  585MPD2    C2 8724   0.912   0.572   0.570  0.1784 -0.3392  0.0664
  585MPD2    C3 8725   0.826   0.470   0.570 -0.4347  0.1024  0.2143
  585MPD2    C4 8726   0.724   0.464   0.669 -0.0128  0.2873 -0.0096
  585MPD2    C5 8727   0.727   0.558   0.774  0.9420  0.4614 -0.2795
  585MPD2     H 8728   0.973   0.588   0.482  0.8504  0.9661  0.7726
  585MPD2    H1 8729   0.653   0.383   0.683  0.4998 -0.0381  0.7226
  585MPD2    H2 8730   0.818   0.715   0.866  2.5386 -2.1329  1.9356
  585MPD2    H3 8731   0.649   0.556   0.848  3.2909  0.3046  2.2011
  585MPD2     N 8732   0.810   0.386   0.456 -0.8090  0.0210  0.3045
  585MPD2    H5 8733   0.715   0.363   0.426 -0.9387 -0.9212  1.4367
  585MPD2    N1 8734   0.996   0.777   0.682  0.2653 -0.0249  0.5217
  585MPD2    H7 8735   0.971   0.853   0.745 -0.6880 -0.6264  0.8739
  586TMC3    C1 8736   0.857   0.400   0.224  0.2032  0.2504  0.2420
  586TMC3    C2 8737   0.939   0.374   0.112  0.3127 -0.0743 -0.0423
  586TMC3    C3 8738   0.894   0.414  17.743  0.5221  0.3064  0.6519
  586TMC3    C4 8739   0.732   0.463   0.208  0.2723  0.1084  0.2233
  586TMC3    C5 8740   0.693   0.506   0.083  0.0795  0.0856  0.8196
  586TMC3    C6 8741   0.767   0.469  17.726 -0.3761 -0.4957 -0.2588
  586TMC3     C 8742   0.910   0.382   0.360 -0.0145 -0.0492 -0.4377
  586TMC3     O 8743   1.025   0.340   0.381  0.6322 -0.3726  0.4992
  586TMC3     H 8744   1.038   0.332   0.127 -0.5168 -2.1188 -0.3365
  586TMC3    H1 8745   0.669   0.501   0.287 -0.8116  1.0316 -1.0804
  586TMC3    H2 8746   0.717   0.466  17.630  0.3338  1.7385 -0.7066
  586TMC3    C7 8747   0.560   0.568   0.058 -0.8606  0.0805  0.7449
  586TMC3    C8 8748   0.975   0.376  17.631 -0.7337 -1.0072  0.6045
  586TMC3    O1 8749   0.474   0.551   0.144  0.1984  0.1489  0.2252
  586TMC3    O2 8750   1.062   0.292  17.652 -0.1800 -0.4268  0.0799
  587TMC3    C1 8751   2.147   4.301  15.783 -0.1713 -0.7348 -0.3534
  587TMC3    C2 8752   2.253   4.293  15.869  0.0312 -0.5333  0.1340
  587TMC3    C3 8753   2.376   4.262  15.823 -0.1534  0.1339 -0.6370
  587TMC3    C4 8754   2.160   4.286  15.647 -0.2651 -0.1096 -0.0888
  587TMC3    C5 8755   2.284   4.248  15.607 -0.1380  0.0786 -0.2308
  587TMC3    C6 8756   2.388   4.231  15.692 -0.2905  0.0449  0.6858
  587TMC3     C 8757   2.014   4.286  15.829 -0.1205  0.5303 -0.1438
  587TMC3     O 8758   1.922   4.315  15.753 -0.5548 -0.2644  0.3504
  587TMC3     H 8759   2.239   4.306  15.975  0.4222  3.4669 -0.3217
  587TMC3    H1 8760   2.082   4.280  15.572 -0.7317 -0.8329  0.4468
  587TMC3    H2 8761   2.489   4.206  15.662 -1.2745  0.1708 -2.7015
  587TMC3    C7 8762   2.294   4.203  15.472 -0.2403  0.0111  0.2744
  587TMC3    C8 8763   2.485   4.250  15.913  0.0309  0.4388 -0.0855
  587TMC3    O1 8764   2.213   4.240  15.393 -0.3658  0.6397 -0.1113
  587TMC3    O2 8765   2.574   4.168  15.907  0.1052 -0.2110 -0.0511
  588TMC3    C1 8766   0.737   1.916   9.883 -0.4198  0.0965 -0.5927
  588TMC3    C2 8767   0.622   1.835   9.888  0.4358 -0.1709  0.1511
  588TMC3    C3 8768   0.619   1.728   9.975 -0.2476  0.1678 -0.1197
  588TMC3    C4 8769   0.845   1.880   9.952 -0.3185  0.0567  0.1836
  588TMC3    C5 8770   0.842   1.772  10.043  0.1063  0.0176  0.3611
  588TMC3    C6 8771   0.725   1.700  10.057 -0.3081 -0.0831 -0.2147
  588TMC3     C 8772   0.718   2.050   9.821 -0.6132  0.0257 -0.6971
  588TMC3     O 8773   0.616   2.080   9.769  0.1668  0.1481 -0.0358
  588TMC3     H 8774   0.542   1.862   9.820 -0.3634 -0.8864  0.8253
  588TMC3    H1 8775   0.940   1.927   9.933 -0.9381  1.8380  1.5689
  588TMC3    H2 8776   0.723   1.629  10.139  1.6165 -2.5780 -2.3277
  588TMC3    C7 8777   0.925   1.791  10.160 -0.2155 -0.2322  0.5070
  588TMC3    C8 8778   0.497   1.655   9.975 -0.5112 -0.6954  0.8933
  588TMC3    O1 8779   0.944   1.692  10.231 -0.0274  0.2781  0.4341
  588TMC3    O2 8780   0.404   1.693   9.906 -0.1458 -0.2350  0.1728
  589TMC3    C1 8781   0.102   4.520   1.320  0.3137 -0.0162  0.2894
  589TMC3    C2 8782   0.191   4.589   1.389 -0.1413  0.1162 -0.0895
  589TMC3    C3 8783   0.322   4.545   1.374  0.5492  0.1847  0.1107
  589TMC3    C4 8784   0.129   4.419   1.230  0.1028  0.3235 -0.4030
  589TMC3    C5 8785   0.263   4.384   1.213 -0.8543  0.0340  0.3696
  589TMC3    C6 8786   0.365   4.441   1.292 -0.0724  0.4710  0.2702
  589TMC3     C 8787   4.700   4.547   1.347 -0.4728  0.6358 -0.5955
  589TMC3     O 8788   4.611   4.512   1.271  0.0014 -0.4702 -0.6956
  589TMC3     H 8789   0.175   4.682   1.443 -2.0240 -0.5620  0.5412
  589TMC3    H1 8790   0.049   4.363   1.183 -1.6635 -0.1665  3.1824
  589TMC3    H2 8791   0.456   4.382   1.296 -0.5956 -0.3629  0.0072
  589TMC3    C7 8792   0.296   4.259   1.146  0.2271 -0.0738  0.4829
  589TMC3    C8 8793   0.418   4.632   1.438  0.2072 -0.2618  0.2839
  589TMC3    O1 8794   0.209   4.184   1.106  0.4084 -0.7237  0.3732
  589TMC3    O2 8795   0.373   4.704   1.522 -0.0102  0.3180 -1.1217
  590MPD2     C 8796   3.547   2.522  17.036 -0.0475 -0.3379  0.4453
  590MPD2    C1 8797   3.530   2.657  17.007  0.2169 -0.2062 -0.1232
  590MPD2    C2 8798   3.638   2.734  16.971  0.0706  0.0739 -0.6107
  590MPD2    C3 8799   3.765   2.685  16.965  0.5640  0.6307 -0.8697
  590MPD2    C4 8800   3.781   2.552  17.015 -0.7628  0.4754  0.1469
  590MPD2    C5 8801   3.676   2.479  17.058 -0.3967 -0.0479  0.2542
  590MPD2     H 8802   3.621   2.833  16.931  0.2580  0.2906 -0.1567
  590MPD2    H1 8803   3.880   2.509  17.014 -0.2005  1.7276  1.8019
  590MPD2    H2 8804   3.464   2.453  17.050 -0.6993 -0.0682 -2.1236
  590MPD2    H3 8805   3.691   2.378  17.095  0.2336  0.3092  0.9689
  590MPD2     N 8806   3.854   2.747  16.879  0.1980 -0.3533 -0.7761
  590MPD2    H5 8807   3.825   2.835  16.838  0.8023  0.4717  0.5582
  590MPD2    N1 8808   3.397   2.698  16.993  0.1721 -0.0789  0.2064
  590MPD2    H7 8809   3.322   2.632  17.013  0.0798  0.8450  2.8252
  591TMC3    C1 8810   4.051   2.787  16.762  0.5875 -0.2858 -0.1993
  591TMC3    C2 8811   4.122   2.730  16.665 -0.7313 -0.3555  1.0129
  591TMC3    C3 8812   4.160   2.807  16.558 -0.9568 -0.5099 -0.1471
  591TMC3    C4 8813   4.034   2.917  16.775 -0.3959 -0.2858  0.4499
  591TMC3    C5 8814   4.085   2.997  16.674  0.6551  0.4191 -0.4043
  591TMC3    C6 8815   4.136   2.938  16.563 -0.0116 -0.6266 -0.0700
  591TMC3     C 8816   3.979   2.704  16.856  0.4515  0.2671 -0.6957
  591TMC3     O 8817   4.037   2.598  16.874  0.1048  0.3447 -0.5135
  591TMC3     H 8818   4.148   2.625  16.655  1.5108  0.3884 -0.8407
  591TMC3    H1 8819   3.969   2.961  16.850 -1.1215  1.9231 -1.4696
  591TMC3    H2 8820   4.157   3.002  16.477  1.0973 -0.8543  0.0298
  591TMC3    C7 8821   4.029   3.129  16.658 -0.5999 -0.1557  0.5967
  591TMC3    C8 8822   4.208   2.744  16.441 -0.2785 -0.8623 -0.3269
  591TMC3    O1 8823   3.915   3.134  16.694 -0.3589 -0.2947  0.2766
  591TMC3    O2 8824   4.242   2.627  16.448 -0.1915  0.2855  0.2026
  592MPD2     C 8825   4.241   0.298  11.779  0.6374 -0.5262  1.0028
  592MPD2    C1 8826   4.242   0.329  11.911 -0.1415 -0.2322  0.5590
  592MPD2    C2 8827   4.184   0.245  11.997  0.4353  0.1324 -0.4031
  592MPD2    C3 8828   4.119   0.136  11.944 -0.0387  0.0805  0.6728
  592MPD2    C4 8829   4.116   0.104  11.809 -0.4027  0.0606 -0.6443
  592MPD2    C5 8830   4.170   0.197  11.728 -0.9308 -0.5127 -0.4569
  592MPD2     H 8831   4.183   0.259  12.104 -3.0870  0.5813 -0.4841
  592MPD2    H1 8832   4.057   0.027  11.761 -0.9606 -0.0521  0.2317
  592MPD2    H2 8833   4.283   0.365  11.704 -3.1634 -0.5820 -1.2191
  592MPD2    H3 8834   4.159   0.177  11.622 -1.1301  0.6409 -0.6525
  592MPD2     N 8835   4.063   0.051  12.046 -0.4413  0.5236  0.1094
  592MPD2    H5 8836   4.076   0.071  12.145 -2.4096  2.0588  0.0555
  592MPD2    N1 8837   4.308   0.454  11.951  0.6103 -0.2357 -0.4107
  592MPD2    H7 8838   4.345   0.516  11.879  0.9406  0.4563  0.3602
  593TMC3    C1 8839   4.382   0.624  12.084 -0.5558 -0.4894 -0.1094
  593TMC3    C2 8840   4.432   0.654  12.204 -0.1001  0.0405  0.1244
  593TMC3    C3 8841   4.549   0.726  12.217 -0.5921 -0.2554 -0.4127
  593TMC3    C4 8842   4.457   0.667  11.974  0.1919 -0.3579 -0.1877
  593TMC3    C5 8843   4.565   0.746  11.985  0.2841  0.1135  0.3348
  593TMC3    C6 8844   4.618   0.772  12.110 -0.0441 -0.5172  0.4244
  593TMC3     C 8845   4.317   0.498  12.082 -0.5492  0.7557  0.1704
  593TMC3     O 8846   4.278   0.446  12.184 -0.1872 -0.2060 -0.1307
  593TMC3     H 8847   4.393   0.601  12.290 -0.4027 -2.9550 -1.8889
  593TMC3    H1 8848   4.413   0.666  11.875 -1.9008  0.8865  0.7208
  593TMC3    H2 8849   4.701   0.841  12.123 -1.5789  1.4917 -0.4927
  593TMC3    C7 8850   4.638   0.790  11.869  0.0056 -0.0643  0.2446
  593TMC3    C8 8851   4.621   0.720  12.343  0.4708  0.4640  0.3697
  593TMC3    O1 8852   0.011   0.818  11.889 -0.2678 -0.1125  0.1009
  593TMC3    O2 8853   4.557   0.728  12.442 -0.0539 -0.0130  0.8870
  594MPD2     C 8854   3.433   3.356  14.292 -0.6698  0.4643 -1.2446
  594MPD2    C1 8855   3.404   3.420  14.406 -0.7319  0.0472 -0.0395
  594MPD2    C2 8856   3.464   3.534  14.446  0.0956 -0.1761  0.3781
  594MPD2    C3 8857   3.575   3.580  14.378  0.1659  0.3318  0.1838
  594MPD2    C4 8858   3.614   3.514  14.266 -0.2090 -0.1410 -0.5007
  594MPD2    C5 8859   3.541   3.407  14.222 -0.0776  0.2370  0.3858
  594MPD2     H 8860   3.442   3.582  14.540 -1.2803 -0.5931  0.2582
  594MPD2    H1 8861   3.694   3.547  14.201  2.5657  0.7313  3.3634
  594MPD2    H2 8862   3.392   3.259  14.268 -1.2103  0.6033 -0.8858
  594MPD2    H3 8863   3.564   3.346  14.136 -0.0375 -2.4824  2.3350
  594MPD2     N 8864   3.647   3.695  14.417  0.7570  0.2386  0.3434
  594MPD2    H5 8865   3.611   3.743  14.499  1.7181  2.4773 -0.5347
  594MPD2    N1 8866   3.299   3.357  14.478 -0.3991  0.3690 -0.1504
  594MPD2    H7 8867   3.241   3.291  14.428 -1.2851  1.6189 -0.7866
  595TMC3    C1 8868   3.952   3.999  14.511 -0.4127 -0.7311 -0.1408
  595TMC3    C2 8869   3.921   3.910  14.415 -0.2597 -0.3074  0.1489
  595TMC3    C3 8870   3.785   3.885  14.401 -0.2367  0.4120 -0.3562
  595TMC3    C4 8871   3.862   4.070  14.582 -0.2656 -0.2614 -1.0203
  595TMC3    C5 8872   3.735   4.038  14.561  0.6304 -0.4739  0.0186
  595TMC3    C6 8873   3.688   3.941  14.477 -0.1541  0.6842  0.1447
  595TMC3     C 8874   4.086   4.000  14.560  0.4143 -0.7285 -0.6685
  595TMC3     O 8875   4.106   4.027  14.678 -0.2820 -0.6296 -0.0320
  595TMC3     H 8876   3.993   3.844  14.368 -0.7518 -0.4380 -0.4271
  595TMC3    H1 8877   3.884   4.150  14.651 -1.1900 -2.8172  2.2144
  595TMC3    H2 8878   3.583   3.944  14.453  0.1782  2.5530 -1.0260
  595TMC3    C7 8879   3.634   4.067  14.667  0.5248 -0.5435  0.2395
  595TMC3    C8 8880   3.755   3.750  14.349  0.6640 -0.1904  0.2667
  595TMC3    O1 8881   3.521   4.072  14.625 -0.0492 -0.0143 -0.1716
  595TMC3    O2 8882   3.830   3.701  14.267 -0.2019 -0.3527  0.0691
  596MPD2     C 8883   2.552   1.987  16.649  0.1005 -0.7229  0.2766
  596MPD2    C1 8884   2.478   2.047  16.549  0.1331  0.4708  0.6729
  596MPD2    C2 8885   2.481   2.001  16.420 -0.2126  0.1730  0.0107
  596MPD2    C3 8886   2.546   1.884  16.385 -0.0670 -0.3404 -0.4290
  596MPD2    C4 8887   2.609   1.820  16.492  0.1959 -0.2407  0.6646
  596MPD2    C5 8888   2.617   1.871  16.620  0.1367 -0.5939 -0.5800
  596MPD2     H 8889   2.414   2.055  16.354 -1.9938 -0.8833  0.9437
  596MPD2    H1 8890   2.646   1.719  16.477 -1.8210 -0.8283 -0.3851
  596MPD2    H2 8891   2.558   2.024  16.750 -0.4034 -1.2089  0.4813
  596MPD2    H3 8892   2.676   1.827  16.701 -0.8300 -0.8617 -0.0228
  596MPD2     N 8893   2.539   1.819  16.259 -0.4073  0.6547 -0.4966
  596MPD2    H5 8894   2.588   1.730  16.257 -0.8078  0.4439 -0.9933
  596MPD2    N1 8895   2.408   2.173  16.564  0.3083 -0.2983  0.3253
  596MPD2    H7 8896   2.349   2.207  16.488  0.4487 -0.5314  0.1097
  597TMC3    C1 8897   2.320   2.359  16.658 -0.6792  0.3132  0.0722
  597TMC3    C2 8898   2.289   2.396  16.532 -0.0600 -0.2299  0.3676
  597TMC3    C3 8899   2.190   2.484  16.527 -0.8689 -0.3335  1.6034
  597TMC3    C4 8900   2.248   2.388  16.770  0.2737  0.0218 -0.6201
  597TMC3    C5 8901   2.136   2.461  16.752 -0.2315  1.0448  0.3737
  597TMC3    C6 8902   2.118   2.523  16.630 -0.6787  0.2839 -0.4298
  597TMC3     C 8903   2.407   2.252  16.674  1.0080 -0.1104 -0.1268
  597TMC3     O 8904   2.449   2.228  16.790  0.2668 -0.3602 -0.0449
  597TMC3     H 8905   2.356   2.375  16.449 -0.8956  1.8331 -0.8392
  597TMC3    H1 8906   2.263   2.338  16.865 -0.3630 -0.7848 -0.9448
  597TMC3    H2 8907   2.034   2.592  16.622 -2.2533 -1.5612  0.1777
  597TMC3    C7 8908   2.056   2.486  16.862  0.6520  0.2643 -0.6146
  597TMC3    C8 8909   2.134   2.531  16.401  0.6435 -1.0392  0.8930
  597TMC3    O1 8910   2.094   2.448  16.972  0.2241  0.1133 -0.1185
  597TMC3    O2 8911   2.035   2.604  16.405 -0.7180 -0.4568  0.1900
  598TMC3    C1 8912   0.120   2.732  15.603  0.5050  0.7393 -0.2858
  598TMC3    C2 8913   0.000   2.684  15.634  0.0953 -0.6350 -0.1247
  598TMC3    C3 8914   4.645   2.702  15.536  0.4288  0.5070  1.1004
  598TMC3    C4 8915   0.160   2.798  15.493  0.3341  0.0097  0.6019
  598TMC3    C5 8916   0.060   2.824  15.407 -0.5560 -0.5826  0.1330
  598TMC3    C6 8917   4.669   2.781  15.426 -0.2646  0.8431  0.3718
  598TMC3     C 8918   0.234   2.674  15.667 -0.4523 -0.2220 -0.8125
  598TMC3     O 8919   0.343   2.736  15.662 -0.5423 -0.2343 -0.2991
  598TMC3     H 8920   4.720   2.618  15.717  0.6228  1.3036  1.5323
  598TMC3    H1 8921   0.260   2.827  15.465 -0.0399  0.2744 -0.4705
  598TMC3    H2 8922   4.588   2.816  15.363 -1.0120 -0.0566  0.8356
  598TMC3    C7 8923   0.085   2.895  15.284 -0.1713  0.3579  0.9899
  598TMC3    C8 8924   4.508   2.665  15.568  0.5916  0.2687  0.1441
  598TMC3    O1 8925   0.000   2.881  15.202 -0.3732 -0.3613 -0.0346
  598TMC3    O2 8926   4.487   2.647  15.686 -0.4725 -0.5249 -0.0559
  599MPD2     C 8927   0.200   0.142  15.519 -0.4309  0.4877  0.1158
  599MPD2    C1 8928   0.247   0.132  15.649 -0.4465  0.0482  0.1195
  599MPD2    C2 8929   0.165   0.184  15.747  0.0352  0.3075  0.6749
  599MPD2    C3 8930   0.036   0.224  15.724  0.1940 -0.1346 -0.6746
  599MPD2    C4 8931   4.722   0.221  15.595 -0.7884  0.1067  0.3593
  599MPD2    C5 8932   0.068   0.181  15.495  0.1758 -0.5470 -0.4444
  599MPD2     H 8933   0.202   0.182  15.849  2.5158 -0.3608 -0.2165
  599MPD2    H1 8934   4.621   0.248  15.569 -1.3848  0.3891  2.9116
  599MPD2    H2 8935   0.257   0.100  15.438 -0.7849 -1.5980  0.9474
  599MPD2    H3 8936   0.033   0.193  15.393 -2.1851 -1.3605  0.2896
  599MPD2     N 8937   4.690   0.276  15.826 -0.0455 -0.2363 -0.1406
  599MPD2    H5 8938   4.595   0.296  15.798 -0.1933  0.3876  0.8146
  599MPD2    N1 8939   0.374   0.075  15.661  0.2192 -0.0356 -0.0065
  599MPD2    H7 8940   0.417   0.036  15.578 -1.4983  0.4651 -1.1081
  600TMC3    C1 8941   4.620   0.363  16.019  0.0226  0.0180 -0.9446
  600TMC3    C2 8942   4.494   0.313  15.993 -0.4826 -0.2703  0.0947
  600TMC3    C3 8943   4.382   0.376  16.050  0.0796 -0.2219  0.4853
  600TMC3    C4 8944   4.631   0.466  16.116 -0.6585  0.4506 -0.1283
  600TMC3    C5 8945   4.517   0.527  16.160 -0.3755  0.2778  0.1116
  600TMC3    C6 8946   4.397   0.487  16.126 -0.2963 -0.5292  0.3655
  600TMC3     C 8947   4.738   0.316  15.951  0.5677 -0.1052  0.3433
  600TMC3     O 8948   0.107   0.339  15.995 -0.3201 -0.3616 -0.5063
  600TMC3     H 8949   4.479   0.233  15.921  1.5287  2.1606 -3.0764
  600TMC3    H1 8950   4.731   0.491  16.149 -0.3880  0.3888 -0.8878
  600TMC3    H2 8951   4.312   0.540  16.168  0.4194 -0.0875  1.2493
  600TMC3    C7 8952   4.530   0.642  16.249 -0.6439 -0.7202 -0.0312
  600TMC3    C8 8953   4.251   0.329  16.012  0.0252  0.5730  0.3164
  600TMC3    O1 8954   4.438   0.722  16.263  0.0999  0.0098  0.2380
  600TMC3    O2 8955   4.249   0.220  15.957  0.2285 -0.0121 -0.5174
  601MPD2     C 8956   2.955   3.859   0.006  0.4636 -0.1039 -0.4114
  601MPD2    C1 8957   2.829   3.797  17.752  0.6558 -0.9170  0.3554
  601MPD2    C2 8958   2.805   3.693   0.081 -0.1814 -0.2792  0.5783
  601MPD2    C3 8959   2.902   3.644   0.166  0.6716  1.2413  0.2345
  601MPD2    C4 8960   3.025   3.709   0.178  0.5449  0.5478  0.8692
  601MPD2    C5 8961   3.049   3.818   0.096 -0.7810  0.0101 -0.3933
  601MPD2     H 8962   2.710   3.642   0.072  0.5792 -1.6760  0.5312
  601MPD2    H1 8963   3.107   3.679   0.242  1.5235 -1.4483 -1.3265
  601MPD2    H2 8964   2.973   3.948  17.699 -2.1426  1.2975  0.8633
  601MPD2    H3 8965   3.147   3.864   0.086 -0.9018  0.1849 -0.7983
  601MPD2     N 8966   2.877   3.541   0.263 -0.1511  0.1635  0.3806
  601MPD2    H5 8967   2.939   3.528   0.343  2.6001  0.4720 -1.7264
  601MPD2    N1 8968   2.742   3.815  17.645 -0.7386 -0.0844  0.0481
  601MPD2    H7 8969   2.676   3.739  17.630  0.0754 -1.3703  3.0039
  602TMC3    C1 8970   2.644   3.923  17.453 -0.1996 -0.6815 -0.2719
  602TMC3    C2 8971   2.596   4.043  17.403  0.7425 -0.0191  0.1463
  602TMC3    C3 8972   2.508   4.034  17.302 -0.0930 -0.2749 -0.2695
  602TMC3    C4 8973   2.610   3.801  17.394 -0.6655  0.0988 -0.8273
  602TMC3    C5 8974   2.517   3.800  17.292  0.2862  0.5810  0.3192
  602TMC3    C6 8975   2.472   3.916  17.244  0.3529 -0.3883  0.4580
  602TMC3     C 8976   2.730   3.932  17.574 -0.3724  0.0977 -0.1019
  602TMC3     O 8977   2.786   4.040  17.590  0.2427 -0.2800  0.0258
  602TMC3     H 8978   2.627   4.138  17.446  1.7263 -0.4804  0.4492
  602TMC3    H1 8979   2.641   3.706  17.434 -0.9252  0.8979  1.2877
  602TMC3    H2 8980   2.417   3.916  17.151  0.6536  1.0643  0.2751
  602TMC3    C7 8981   2.459   3.669  17.262 -0.0817  0.5845  0.2156
  602TMC3    C8 8982   2.407   4.138  17.310 -0.3280  0.2139  0.5348
  602TMC3    O1 8983   2.510   3.567  17.309  0.4010  0.3956  0.4405
  602TMC3    O2 8984   2.437   4.257  17.325 -0.3659 -0.0679 -0.7256
  603TMC3    C1 8985   1.088   4.218  11.127 -0.5728  0.2393  0.7615
  603TMC3    C2 8986   1.054   4.181  11.253  1.1883  0.4659  0.0777
  603TMC3    C3 8987   0.972   4.263  11.322 -0.2338  0.4676  0.0797
  603TMC3    C4 8988   1.043   4.331  11.063  0.0125 -0.6495 -0.5092
  603TMC3    C5 8989   0.965   4.412  11.142  0.3487  0.5226 -0.7695
  603TMC3    C6 8990   0.926   4.376  11.266  0.4988 -0.4380 -0.4702
  603TMC3     C 8991   1.191   4.138  11.054  0.8397  0.5281  0.2176
  603TMC3     O 8992   1.234   4.178  10.946  0.0272  0.7828  0.2741
  603TMC3     H 8993   1.100   4.099  11.306  0.8797  0.2322 -0.0181
  603TMC3    H1 8994   1.069   4.355  10.961 -0.0375 -1.0016 -0.6054
  603TMC3    H2 8995   0.834   4.417  11.305  0.5106  0.7817 -1.7320
  603TMC3    C7 8996   0.915   4.535  11.080 -0.1983 -0.3027  0.2853
  603TMC3    C8 8997   0.898   4.193  11.426  0.0765 -0.2395 -0.1938
  603TMC3    O1 8998   0.812   4.583  11.126 -0.0948 -0.2112 -0.5308
  603TMC3    O2 8999   0.908   4.071  11.427  0.0258 -0.4825  0.4487
  604MPD2     C 9000   0.923   2.078  16.093  0.0369  0.1738  0.2528
  604MPD2    C1 9001   0.886   2.212  16.087 -0.2075 -0.4116  0.0793
  604MPD2    C2 9002   0.916   2.287  15.971  0.3858 -0.4844 -0.3929
  604MPD2    C3 9003   0.978   2.232  15.858 -0.3992 -0.7595 -0.2792
  604MPD2    C4 9004   1.018   2.105  15.869 -0.0769 -0.4576 -0.6938
  604MPD2    C5 9005   0.980   2.028  15.977 -0.2107  0.1252 -0.4485
  604MPD2     H 9006   0.892   2.392  15.961  0.3733 -0.3651  0.8495
  604MPD2    H1 9007   1.088   2.068  15.795 -0.3782  0.2884 -1.3402
  604MPD2    H2 9008   0.909   2.004  16.172  1.6897 -0.3343  0.0774
  604MPD2    H3 9009   1.014   1.926  15.989 -0.0307  0.2342 -0.0627
  604MPD2     N 9010   1.012   2.330  15.751 -0.7831  0.4307 -0.7132
  604MPD2    H5 9011   0.973   2.424  15.752 -1.4772  0.1255  0.2168
  604MPD2    N1 9012   0.811   2.265  16.192  0.1508  0.6544  0.5967
  604MPD2    H7 9013   0.795   2.203  16.271  3.0789 -0.2726  0.4738
  605TMC3    C1 9014   0.653   2.418  16.313 -0.7602  0.7389 -0.6856
  605TMC3    C2 9015   0.718   2.458  16.426  0.0678 -0.3447 -0.9898
  605TMC3    C3 9016   0.651   2.536  16.518 -0.0123  0.5483  0.4492
  605TMC3    C4 9017   0.536   2.473  16.276  0.1375 -0.2015 -0.2706
  605TMC3    C5 9018   0.471   2.555  16.366  0.3244 -0.3414 -0.0308
  605TMC3    C6 9019   0.524   2.579  16.493 -0.9584 -0.2793 -0.1184
  605TMC3     C 9020   0.745   2.389  16.202  0.0861  0.0897  0.1018
  605TMC3     O 9021   0.740   2.477  16.121 -0.3961 -0.4717  0.2264
  605TMC3     H 9022   0.808   2.410  16.461  0.2756  0.3060 -0.6235
  605TMC3    H1 9023   0.506   2.463  16.172 -1.0913  0.9017 -0.0158
  605TMC3    H2 9024   0.471   2.653  16.552 -1.2943  1.2634 -2.3225
  605TMC3    C7 9025   0.371   2.655  16.326  0.1315  0.5448 -0.0900
  605TMC3    C8 9026   0.730   2.631  16.597  0.1025  0.3867 -0.7115
  605TMC3    O1 9027   0.296   2.694  16.415 -0.1055 -0.2163 -0.2315
  605TMC3    O2 9028   0.668   2.696  16.682  0.1576  0.0905  0.1731
  606TMC3    C1 9029   2.551   2.243   0.945 -0.2197  0.6719 -0.3666
  606TMC3    C2 9030   2.549   2.114   0.971  0.6635  0.1779 -0.7007
  606TMC3    C3 9031   2.544   2.027   0.871  0.1265 -0.4533 -0.2446
  606TMC3    C4 9032   2.515   2.291   0.828 -0.5117  0.1761 -0.2502
  606TMC3    C5 9033   2.507   2.206   0.720 -0.7326 -0.1778 -0.1572
  606TMC3    C6 9034   2.538   2.070   0.740 -0.3624 -0.2205 -0.1838
  606TMC3     C 9035   2.510   2.317   1.063 -0.0821 -0.8039  0.6442
  606TMC3     O 9036   2.463   2.262   1.163  0.4406  0.4349  0.6069
  606TMC3     H 9037   2.572   2.093   1.075  1.7639 -0.1486 -1.0166
  606TMC3    H1 9038   2.493   2.395   0.810 -2.4438 -0.3426 -0.8993
  606TMC3    H2 9039   2.536   1.998   0.660  1.3331  0.2982 -0.6870
  606TMC3    C7 9040   2.514   2.265   0.585  0.2143  0.4801 -0.0663
  606TMC3    C8 9041   2.598   1.891   0.882 -0.1628 -0.0694 -0.2869
  606TMC3    O1 9042   2.545   2.381   0.575 -0.4772  0.1311  0.0923
  606TMC3    O2 9043   2.641   1.842   0.781  0.4648 -0.2670  0.2218
  607MPD2     C 9044   4.052   4.107  11.704  0.0792  0.2676 -0.3238
  607MPD2    C1 9045   4.085   4.113  11.842 -0.2894  0.1923 -0.2935
  607MPD2    C2 9046   4.095   3.994  11.908 -0.6368 -0.0050 -0.3907
  607MPD2    C3 9047   4.071   3.871  11.854 -0.4885 -1.0706 -1.3017
  607MPD2    C4 9048   4.032   3.863  11.717 -0.2284  0.1311  0.9526
  607MPD2    C5 9049   4.024   3.984  11.645 -0.9030 -0.0456 -0.1637
  607MPD2     H 9050   4.116   3.998  12.015 -1.2007  3.0667 -0.3770
  607MPD2    H1 9051   4.004   3.769  11.669  0.1442 -0.2222  1.4290
  607MPD2    H2 9052   4.050   4.197  11.644  2.5003 -0.7854 -1.9895
  607MPD2    H3 9053   3.985   3.987  11.544 -0.8723  1.4598 -0.1311
  607MPD2     N 9054   4.103   3.764  11.943 -0.2591  0.2572 -0.3798
  607MPD2    H5 9055   4.143   3.794  12.031  0.1154  2.2675 -1.2481
  607MPD2    N1 9056   4.121   4.234  11.906  0.3590 -0.0767  0.1823
  607MPD2    H7 9057   4.136   4.234  12.006  2.9160  0.0185 -0.1986
  608TMC3    C1 9058   4.229   4.439  11.920 -0.2192  0.2159 -0.4043
  608TMC3    C2 9059   4.288   4.389  12.038  0.5445  0.5718  0.2019
  608TMC3    C3 9060   4.402   4.453  12.076  0.2818  1.1738 -0.4772
  608TMC3    C4 9061   4.286   4.546  11.856  0.6628  0.1991 -0.4256
  608TMC3    C5 9062   4.393   4.608  11.906 -0.0752  0.5185 -0.1233
  608TMC3    C6 9063   4.459   4.556  12.012 -0.6129 -0.2781  0.5121
  608TMC3     C 9064   4.151   4.350  11.843  0.0328 -0.0839  0.0757
  608TMC3     O 9065   4.165   4.372  11.725 -0.1461  0.5114 -0.7089
  608TMC3     H 9066   4.241   4.317  12.104  0.3156  0.6946  0.1760
  608TMC3    H1 9067   4.249   4.587  11.762  2.8922  0.9202 -0.9822
  608TMC3    H2 9068   4.549   4.605  12.047  0.4351 -0.8176 -1.4441
  608TMC3    C7 9069   4.444   4.721  11.830  0.4885 -0.6989  0.4821
  608TMC3    C8 9070   4.473   4.397  12.188 -0.2831  0.6642 -0.2759
  608TMC3    O1 9071   4.419   4.730  11.712  0.5210 -0.2329 -0.7299
  608TMC3    O2 9072   4.563   4.462  12.241 -0.6417  0.7195 -0.5978
  609TMC3    C1 9073   3.092   3.489   9.235  0.0563  0.4076  0.5600
  609TMC3    C2 9074   3.114   3.411   9.122  0.1878 -0.1108 -0.7462
  609TMC3    C3 9075   3.250   3.392   9.085  0.3732 -0.1116  0.2220
  609TMC3    C4 9076   3.191   3.557   9.300  0.3390 -0.3906 -0.5348
  609TMC3    C5 9077   3.323   3.535   9.255 -0.3492  0.4986  0.1916
  609TMC3    C6 9078   3.352   3.446   9.153 -0.3421 -0.3405 -0.2537
  609TMC3     C 9079   2.970   3.505   9.297 -0.2410 -0.0823 -0.2865
  609TMC3     O 9080   2.970   3.548   9.414 -0.0497  0.6154  0.5184
  609TMC3     H 9081   3.035   3.354   9.076  0.6407 -3.2453  2.3608
  609TMC3    H1 9082   3.164   3.615   9.387 -0.9885 -0.1663 -1.0894
  609TMC3    H2 9083   3.455   3.421   9.128  0.7272  1.2901  2.5221
  609TMC3    C7 9084   3.435   3.561   9.346 -0.2910 -0.5646  0.3543
  609TMC3    C8 9085   3.283   3.293   8.984 -0.0433  0.4707 -0.4267
  609TMC3    O1 9086   3.395   3.594   9.457  0.1948 -0.5006  0.2066
  609TMC3    O2 9087   3.193   3.227   8.938 -0.5512  0.3196 -0.2954
  610TMC3    C1 9088   0.227   3.507  12.234 -0.7747  0.2153  0.5342
  610TMC3    C2 9089   0.137   3.585  12.167 -0.1245  0.3090 -0.3302
  610TMC3    C3 9090   0.141   3.712  12.202  0.3214  0.0168 -0.5692
  610TMC3    C4 9091   0.311   3.547  12.330  0.0221 -0.4416 -0.0611
  610TMC3    C5 9092   0.304   3.674  12.362  0.8217  0.8926  0.2233
  610TMC3    C6 9093   0.210   3.761  12.311  0.0830  0.5699  0.2811
  610TMC3     C 9094   0.233   3.369  12.201  0.2392  0.8262 -0.2299
  610TMC3     O 9095   0.343   3.315  12.220  0.4841  0.2275 -0.0968
  610TMC3     H 9096   0.079   3.548  12.084 -0.9975  1.2784 -0.1481
  610TMC3    H1 9097   0.378   3.477  12.377  0.2215  0.0489  0.3931
  610TMC3    H2 9098   0.199   3.866  12.335 -1.4384  0.3441  0.5557
  610TMC3    C7 9099   0.414   3.729  12.434  0.4407 -0.1658 -0.1427
  610TMC3    C8 9100   0.057   3.812  12.141 -0.6905 -0.3669 -0.0700
  610TMC3    O1 9101   0.512   3.666  12.399 -0.1539 -0.5055  0.6892
  610TMC3    O2 9102   0.108   3.922  12.141 -0.2344 -0.1870 -0.2609
  611MPD2     C 9103   4.508   0.003  11.178  0.2287  0.1392 -0.5835
  611MPD2    C1 9104   4.551   4.696  11.052 -0.2085  0.3917  0.8940
  611MPD2    C2 9105   4.664   0.025  11.001  0.4377 -0.6964 -0.6593
  611MPD2    C3 9106   4.736   0.113  11.075 -0.3759 -0.2462 -0.2083
  611MPD2    C4 9107   4.678   0.161  11.191 -0.0529  0.6416 -0.0155
  611MPD2    C5 9108   4.574   0.099  11.248  0.1432 -0.2180 -0.1494
  611MPD2     H 9109   4.700   4.734  10.904  3.0703 -2.1836  0.7957
  611MPD2    H1 9110   4.733   0.235  11.249  2.0951  0.3555 -1.6982
  611MPD2    H2 9111   4.412   4.719  11.223  1.4450  1.2133  2.5291
  611MPD2    H3 9112   4.542   0.121  11.349 -2.3366  2.5482 -1.5621
  611MPD2     N 9113   0.113   0.177  11.032 -0.4634 -0.4125  0.2522
  611MPD2    H5 9114   0.138   0.265  11.075  1.2939 -0.7682 -0.0247
  611MPD2    N1 9115   4.477   4.601  10.989 -0.4353  0.1902  0.0964
  611MPD2    H7 9116   4.388   4.580  11.035  0.2743 -0.9804  0.9375
  612TMC3    C1 9117   0.289   0.214  10.889  0.2010 -1.3864 -0.3156
  612TMC3    C2 9118   0.401   0.167  10.835 -1.0238 -0.2716 -0.0996
  612TMC3    C3 9119   0.460   0.227  10.724 -1.1528  0.8066  0.4529
  612TMC3    C4 9120   0.225   0.317  10.838 -0.8563 -0.5657 -0.7354
  612TMC3    C5 9121   0.281   0.387  10.735  0.3629 -0.2722  0.2156
  612TMC3    C6 9122   0.400   0.338  10.670 -0.4399 -0.0829  0.7574
  612TMC3     C 9123   0.197   0.116  10.940  0.0342 -0.6421 -0.3347
  612TMC3     O 9124   0.205   4.736  10.901  0.2481 -0.0792 -0.3605
  612TMC3     H 9125   0.446   0.079  10.880  0.6868  0.3661 -0.5640
  612TMC3    H1 9126   0.122   0.344  10.860 -0.5928  1.6643 -2.1687
  612TMC3    H2 9127   0.433   0.373  10.573  0.9496 -0.5664  1.0643
  612TMC3    C7 9128   0.200   0.470  10.656 -0.0136  0.1852  0.3784
  612TMC3    C8 9129   0.607   0.225  10.707  0.5619  0.3460  0.0898
  612TMC3    O1 9130   0.118   0.538  10.711 -0.2997  0.7762  0.5475
  612TMC3    O2 9131   0.659   0.321  10.654 -0.4072 -0.0293  0.2087
  613MPD2     C 9132   3.278   1.660  16.736  0.2275 -0.2331  0.2615
  613MPD2    C1 9133   3.216   1.669  16.613 -1.0438  0.3571  0.2393
  613MPD2    C2 9134   3.147   1.565  16.558  0.1617 -0.3515  0.3317
  613MPD2    C3 9135   3.148   1.443  16.625  0.4632 -0.3172 -0.3196
  613MPD2    C4 9136   3.207   1.427  16.751 -0.2292 -0.0147  0.5650
  613MPD2    C5 9137   3.265   1.540  16.802  0.2340 -0.4655  0.1514
  613MPD2     H 9138   3.120   1.566  16.453  1.2008  2.0303  0.0920
  613MPD2    H1 9139   3.218   1.333  16.804 -2.9383 -0.9980 -0.6330
  613MPD2    H2 9140   3.328   1.746  16.779 -1.4303  1.3187 -0.9206
  613MPD2    H3 9141   3.322   1.521  16.892  1.8671  0.0330 -0.7728
  613MPD2     N 9142   3.100   1.323  16.574 -0.1460 -0.5655  0.1858
  613MPD2    H5 9143   3.147   1.244  16.617 -1.6569 -2.4879 -1.7194
  613MPD2    N1 9144   3.244   1.789  16.546 -0.3978  0.0219 -0.1579
  613MPD2    H7 9145   3.297   1.862  16.592  0.1045  1.6313 -3.3605
  614TMC3    C1 9146   3.251   1.920  16.357  0.3752 -0.0612  0.4720
  614TMC3    C2 9147   3.372   1.868  16.323  0.1965 -0.4290 -0.0528
  614TMC3    C3 9148   3.413   1.883  16.190 -0.4018 -0.0386 -0.0718
  614TMC3    C4 9149   3.181   1.992  16.268  0.3895 -1.1582  0.0863
  614TMC3    C5 9150   3.224   2.000  16.136 -0.4719 -0.4261  0.4100
  614TMC3    C6 9151   3.337   1.943  16.097 -0.1203  0.9326 -0.1776
  614TMC3     C 9152   3.175   1.831  16.438 -0.2288  0.6356 -0.1465
  614TMC3     O 9153   3.058   1.806  16.406 -0.1058  0.0214 -0.2707
  614TMC3     H 9154   3.437   1.826  16.399 -2.0695 -0.4808  1.8606
  614TMC3    H1 9155   3.085   2.030  16.300 -0.0751 -1.9431 -0.3780
  614TMC3    H2 9156   3.381   1.960  16.000 -0.9318  0.0580 -0.6910
  614TMC3    C7 9157   3.154   2.102  16.055 -0.9294  0.3303 -0.3565
  614TMC3    C8 9158   3.469   1.755  16.146 -0.3392  0.1883  0.0420
  614TMC3    O1 9159   3.105   2.190  16.123  0.7090 -0.5574  0.3912
  614TMC3    O2 9160   3.512   1.681  16.234 -0.4031 -0.0042  0.3837
  615MPD2     C 9161   2.899   3.015  16.550  0.0736  0.5671 -0.0757
  615MPD2    C1 9162   2.933   3.132  16.495  0.1865  0.4466 -0.0379
  615MPD2    C2 9163   2.860   3.167  16.384  0.1869  0.6669 -0.7606
  615MPD2    C3 9164   2.747   3.106  16.340 -0.4250 -0.1425 -0.6266
  615MPD2    C4 9165   2.718   2.987  16.404  0.2717 -0.8009  0.6270
  615MPD2    C5 9166   2.800   2.931  16.506  0.1571  0.1437 -0.1955
  615MPD2     H 9167   2.894   3.251  16.325  0.2134  0.3361 -1.2138
  615MPD2    H1 9168   2.617   2.949  16.394 -0.0882  1.2155 -3.2497
  615MPD2    H2 9169   2.948   2.993  16.644  1.3981  2.4074 -0.3283
  615MPD2    H3 9170   2.764   2.845  16.562  0.2585  1.7866  2.4180
  615MPD2     N 9171   2.671   3.153  16.224  0.1224  0.2231 -0.0415
  615MPD2    H5 9172   2.596   3.092  16.192 -0.3151  0.7477 -0.0169
  615MPD2    N1 9173   3.045   3.216  16.529 -0.0156 -0.0767  0.7111
  615MPD2    H7 9174   3.032   3.311  16.495 -1.0768 -0.8578 -1.0738
  616TMC3    C1 9175   3.263   3.276  16.601  0.5302 -0.3785  0.0998
  616TMC3    C2 9176   3.366   3.248  16.685  0.0335  0.4317  0.7398
  616TMC3    C3 9177   3.472   3.332  16.692  0.2170  0.2722  0.1036
  616TMC3    C4 9178   3.260   3.392  16.523 -0.8720  0.0898 -0.2516
  616TMC3    C5 9179   3.373   3.472  16.526 -0.1236  0.2684 -0.8777
  616TMC3    C6 9180   3.479   3.439  16.604  0.4728  0.1451  0.4586
  616TMC3     C 9181   3.155   3.182  16.601 -0.5441 -0.0919  0.5402
  616TMC3     O 9182   3.162   3.077  16.668  0.1941 -0.5158  0.1237
  616TMC3     H 9183   3.380   3.148  16.724 -0.5116  0.8545  2.0202
  616TMC3    H1 9184   3.187   3.403  16.444 -0.4083 -0.4241 -0.7468
  616TMC3    H2 9185   3.569   3.499  16.599  0.4628  0.1704  0.5932
  616TMC3    C7 9186   3.346   3.604  16.475 -0.4707 -0.1365  0.7100
  616TMC3    C8 9187   3.557   3.304  16.807 -0.0537  0.4119  0.0589
  616TMC3    O1 9188   3.267   3.609  16.383  0.8676 -0.5202 -0.0666
  616TMC3    O2 9189   3.527   3.206  16.874 -0.5460 -0.5612 -0.5181
  617MPD2     C 9190   0.983   0.824  13.820  0.8820 -0.0053  0.3031
  617MPD2    C1 9191   0.989   0.770  13.946 -0.1140  0.6295 -0.5229
  617MPD2    C2 9192   0.862   0.726  13.996 -0.0783 -0.3810  0.5130
  617MPD2    C3 9193   0.746   0.733  13.924  0.1577 -0.1904  0.2364
  617MPD2    C4 9194   0.756   0.765  13.789 -0.2756 -0.6862 -0.6096
  617MPD2    C5 9195   0.876   0.817  13.742 -0.1678  0.0835 -0.4301
  617MPD2     H 9196   0.863   0.690  14.098 -0.8112 -3.3253 -0.5190
  617MPD2    H1 9197   0.672   0.760  13.721  1.6060 -0.0570 -3.0004
  617MPD2    H2 9198   1.070   0.872  13.775  0.2782  2.7664  2.1237
  617MPD2    H3 9199   0.890   0.868  13.647 -0.6774  0.8639 -0.0903
  617MPD2     N 9200   0.617   0.706  13.975 -0.1482 -0.3425 -0.0637
  617MPD2    H5 9201   0.537   0.715  13.913 -0.0215  0.5375 -0.0966
  617MPD2    N1 9202   1.106   0.761  14.019 -1.3548 -0.2811 -0.0581
  617MPD2    H7 9203   1.188   0.805  13.978 -1.8734  0.8937  0.1960
  618TMC3    C1 9204   1.272   0.693  14.160 -0.1069  0.0873 -0.0659
  618TMC3    C2 9205   1.328   0.564  14.151  0.0227 -0.2515 -0.4540
  618TMC3    C3 9206   1.447   0.546  14.083  0.3298  0.2481 -0.0203
  618TMC3    C4 9207   1.338   0.794  14.110  0.2151  0.2085  0.1605
  618TMC3    C5 9208   1.460   0.780  14.043 -0.0206 -0.6813  0.1024
  618TMC3    C6 9209   1.510   0.652  14.028  0.6570  0.0183 -0.6484
  618TMC3     C 9210   1.132   0.697  14.138  0.0693  0.7072 -0.0976
  618TMC3     O 9211   1.058   0.622  14.203  0.2829 -0.1544  0.2524
  618TMC3     H 9212   1.269   0.483  14.192  1.5133 -1.5581 -0.8906
  618TMC3    H1 9213   1.310   0.897  14.127  0.4063  0.0737  1.2848
  618TMC3    H2 9214   1.609   0.645  13.983  1.3234  1.3859  0.5956
  618TMC3    C7 9215   1.453   0.841  13.911  0.6589  0.0913  0.7863
  618TMC3    C8 9216   1.419   0.444  13.984 -0.8366 -0.1140  1.2793
  618TMC3    O1 9217   1.342   0.877  13.876 -0.1702 -0.3525 -0.2964
  618TMC3    O2 9218   1.302   0.408  13.981  0.1436 -0.1953 -0.5608
  619MPD2     C 9219   2.486   1.954  13.891  0.5467 -0.2332 -0.1176
  619MPD2    C1 9220   2.429   2.048  13.806  0.3852 -0.2748 -0.5168
  619MPD2    C2 9221   2.298   2.033  13.772  1.0131  0.3623  0.9576
  619MPD2    C3 9222   2.221   1.924  13.816 -0.4469 -0.4008 -0.4470
  619MPD2    C4 9223   2.287   1.823  13.877  0.0647 -0.4190  0.9269
  619MPD2    C5 9224   2.413   1.840  13.923 -0.0333 -0.4613 -0.5743
  619MPD2     H 9225   2.255   2.108  13.707  1.0712 -0.5407 -0.1407
  619MPD2    H1 9226   2.251   1.724  13.902  1.6466 -1.2559 -0.1693
  619MPD2    H2 9227   2.594   1.953  13.904  0.5791  0.2540 -0.3269
  619MPD2    H3 9228   2.450   1.751  13.973 -0.4808 -0.4709 -0.2656
  619MPD2     N 9229   2.095   1.898  13.768 -0.0649  0.5490 -0.2348
  619MPD2    H5 9230   2.063   1.802  13.775 -0.6134  0.8869  1.9622
  619MPD2    N1 9231   2.497   2.153  13.746 -0.2187  0.0895  0.2600
  619MPD2    H7 9232   2.447   2.223  13.692  2.4218  0.0967 -2.1870
  620TMC3    C1 9233   2.664   2.315  13.703  0.0352 -0.2607 -0.3280
  620TMC3    C2 9234   2.611   2.342  13.578  0.6931  0.2785  0.4338
  620TMC3    C3 9235   2.672   2.431  13.492 -0.1761  0.2730 -0.4331
  620TMC3    C4 9236   2.779   2.372  13.735  0.0695  0.1562  0.2194
  620TMC3    C5 9237   2.826   2.480  13.658  0.7268 -0.1478  0.4780
  620TMC3    C6 9238   2.771   2.510  13.539 -0.6524  0.5585 -0.5933
  620TMC3     C 9239   2.627   2.190  13.771  0.0205  0.0345  0.8009
  620TMC3     O 9240   2.711   2.139  13.843 -0.1802 -0.5429  0.5102
  620TMC3     H 9241   2.536   2.278  13.532 -0.5467  1.3989  0.8910
  620TMC3    H1 9242   2.812   2.378  13.838 -2.0393  2.9623  0.7612
  620TMC3    H2 9243   2.817   2.575  13.466  2.3387  1.4573  2.1077
  620TMC3    C7 9244   2.858   2.601  13.732  0.3090 -0.1790  0.0000
  620TMC3    C8 9245   2.574   2.525  13.446  0.2054 -0.4614  0.7041
  620TMC3    O1 9246   2.931   2.602  13.827 -0.1988  0.1432  0.3685
  620TMC3    O2 9247   2.597   2.640  13.472 -0.3120  0.3758  0.2028
  621MPD2     C 9248   2.791   2.511  10.293  0.1748 -0.2485 -0.6173
  621MPD2    C1 9249   2.823   2.487  10.165  0.5516 -0.5440  0.8351
  621MPD2    C2 9250   2.864   2.596  10.090 -0.2849  0.0015  0.2470
  621MPD2    C3 9251   2.900   2.719  10.150 -0.4298  0.2841 -0.3057
  621MPD2    C4 9252   2.880   2.733  10.283  0.5293 -0.0078 -0.2799
  621MPD2    C5 9253   2.823   2.629  10.350  0.8465 -0.0549  0.3580
  621MPD2     H 9254   2.883   2.585   9.983 -0.5602  0.6865  0.1255
  621MPD2    H1 9255   2.905   2.827  10.332 -0.6826 -0.4852  1.2569
  621MPD2    H2 9256   2.741   2.438  10.356  1.4740 -1.7051 -1.2833
  621MPD2    H3 9257   2.778   2.635  10.449  1.9519 -0.2453  0.8706
  621MPD2     N 9258   2.934   2.823  10.064 -0.1579 -0.2660 -0.0968
  621MPD2    H5 9259   2.949   2.810   9.964  1.7273  0.0102  0.1488
  621MPD2    N1 9260   2.800   2.364  10.106  0.5176  0.1912 -0.2335
  621MPD2    H7 9261   2.792   2.369  10.005  1.5964  0.6345 -0.2927
  622TMC3    C1 9262   2.685   2.144  10.113  0.9625 -0.2827 -0.3577
  622TMC3    C2 9263   2.607   2.060  10.191  0.4103 -0.0359 -0.8317
  622TMC3    C3 9264   2.527   1.967  10.129  0.3631  0.0105 -0.2567
  622TMC3    C4 9265   2.653   2.158   9.976  0.8913 -0.4503  0.6122
  622TMC3    C5 9266   2.568   2.063   9.920  0.0539  0.3994  0.3684
  622TMC3    C6 9267   2.506   1.964   9.996 -1.1240  0.2730 -0.0988
  622TMC3     C 9268   2.759   2.251  10.183  0.1446 -0.3911 -0.3089
  622TMC3     O 9269   2.787   2.228  10.302 -0.5259  0.2066 -0.1583
  622TMC3     H 9270   2.626   2.055  10.297  2.1694  2.1363 -1.0416
  622TMC3    H1 9271   2.714   2.222   9.913 -1.0672 -1.0944 -1.9412
  622TMC3    H2 9272   2.445   1.889   9.948  0.8123 -0.4294 -1.4640
  622TMC3    C7 9273   2.544   2.057   9.777  0.1734  0.6448 -0.2209
  622TMC3    C8 9274   2.410   1.932  10.194 -0.0806 -0.0199 -0.4792
  622TMC3    O1 9275   2.487   1.963   9.732 -0.7262 -0.1378 -0.0630
  622TMC3    O2 9276   2.332   1.849  10.145 -0.0506  0.0076  0.5308
  623MPD2     C 9277   1.079   3.008  15.492 -0.2131  0.6079 -0.6491
  623MPD2    C1 9278   1.017   2.946  15.601 -0.1742 -0.5143 -0.4457
  623MPD2    C2 9279   1.084   2.937  15.725 -0.0920 -0.2239 -0.1054
  623MPD2    C3 9280   1.206   2.998  15.741 -0.0647 -0.2074  0.6977
  623MPD2    C4 9281   1.265   3.052  15.630 -0.1538 -0.2007 -0.0697
  623MPD2    C5 9282   1.205   3.056  15.510  0.2194  0.5548  0.1180
  623MPD2     H 9283   1.037   2.905  15.817 -1.2210 -0.9496 -0.9367
  623MPD2    H1 9284   1.358   3.107  15.637  0.8241 -1.8083 -0.4198
  623MPD2    H2 9285   1.027   3.018  15.398 -0.7435 -0.1948 -0.4404
  623MPD2    H3 9286   1.258   3.092  15.423 -0.0404  0.8626  0.0832
  623MPD2     N 9287   1.265   2.998  15.868  0.1135 -0.6146  0.0062
  623MPD2    H5 9288   1.222   2.935  15.936  0.2245 -1.8676 -1.0878
  623MPD2    N1 9289   0.884   2.896  15.586  0.8796  0.3935  0.0949
  623MPD2    H7 9290   0.823   2.944  15.521  0.4381  0.2208  0.3805
  624TMC3    C1 9291   1.520   3.139  16.247 -1.0725  0.2384 -0.2852
  624TMC3    C2 9292   1.456   3.037  16.315  0.4499 -0.8103 -0.1952
  624TMC3    C3 9293   1.361   2.968  16.255 -0.5918 -0.4177  0.1217
  624TMC3    C4 9294   1.496   3.155  16.112  0.2339  0.1353  0.1027
  624TMC3    C5 9295   1.394   3.073  16.056 -0.4418  0.4846 -0.1573
  624TMC3    C6 9296   1.321   2.990  16.129 -0.5866 -0.0406  0.0353
  624TMC3     C 9297   1.631   3.210  16.309  0.5186 -0.1980  0.1202
  624TMC3     O 9298   1.673   3.181  16.427 -0.0369  0.0041  0.4099
  624TMC3     H 9299   1.484   3.013  16.416  1.3541 -1.0796 -0.5118
  624TMC3    H1 9300   1.561   3.208  16.044 -0.8926 -1.2678 -2.0708
  624TMC3    H2 9301   1.239   2.922  16.111 -0.3024 -0.6067  0.9103
  624TMC3    C7 9302   1.372   3.078  15.912  0.6468  0.3676 -0.5190
  624TMC3    C8 9303   1.275   2.868  16.329 -0.0843 -0.5317 -0.8094
  624TMC3    O1 9304   1.433   3.168  15.857 -0.0526  0.3127  0.1055
  624TMC3    O2 9305   1.228   2.780  16.258 -0.3987 -0.0939 -0.7032
  625MPD2     C 9306   2.443   4.322   0.525 -0.3680  0.6038 -0.4279
  625MPD2    C1 9307   2.495   4.452   0.529  0.5692  0.2322  0.2431
  625MPD2    C2 9308   2.633   4.471   0.535  0.3762 -0.4027 -0.3723
  625MPD2    C3 9309   2.720   4.358   0.548  0.0488 -1.1621 -0.0405
  625MPD2    C4 9310   2.662   4.233   0.546  0.0432  0.4861  0.7143
  625MPD2    C5 9311   2.528   4.214   0.542 -0.4651  0.6028  0.5847
  625MPD2     H 9312   2.678   4.569   0.523 -0.4421  0.0672  0.4632
  625MPD2    H1 9313   2.721   4.144   0.567  0.6715  0.6538 -0.3279
  625MPD2    H2 9314   2.337   4.304   0.530  0.2222 -2.6787  0.4847
  625MPD2    H3 9315   2.480   4.118   0.553 -1.0795  0.6676 -1.4934
  625MPD2     N 9316   2.860   4.390   0.557  0.3397 -0.8812 -0.3040
  625MPD2    H5 9317   2.886   4.488   0.560  0.1818 -0.8663  0.6922
  625MPD2    N1 9318   2.414   4.570   0.510  0.4584 -0.3332  0.2008
  625MPD2    H7 9319   2.472   4.650   0.486 -3.9836  3.3535  1.6878
  626TMC3    C1 9320   2.244   4.702   0.441 -0.5232  0.3246  0.7122
  626TMC3    C2 9321   2.120   4.725   0.390  0.2003 -0.0063  0.2560
  626TMC3    C3 9322   2.090   0.117   0.363  0.3564 -0.2522  0.7881
  626TMC3    C4 9323   2.333   0.064   0.471 -0.0589  1.0945 -0.4446
  626TMC3    C5 9324   2.296   0.195   0.455  0.0826 -0.0927 -0.6566
  626TMC3    C6 9325   2.180   0.227   0.393 -0.4570  0.4487  0.3368
  626TMC3     C 9326   2.279   4.570   0.482 -0.1368 -0.4487  0.0313
  626TMC3     O 9327   2.188   4.495   0.514 -0.3221  0.1440  0.2623
  626TMC3     H 9328   2.067   4.635   0.360  1.5225 -0.5786 -0.3811
  626TMC3    H1 9329   2.412   0.056   0.546  1.0497  0.4089 -1.6770
  626TMC3    H2 9330   2.157   0.329   0.364 -3.5636 -0.3989 -0.2300
  626TMC3    C7 9331   2.385   0.293   0.511 -0.2684 -0.8021  0.1021
  626TMC3    C8 9332   2.009   0.151   0.253  0.2625  0.5017  0.2498
  626TMC3    O1 9333   2.503   0.274   0.525 -0.6519 -0.4021  0.2241
  626TMC3    O2 9334   2.035   0.248   0.183 -0.4864  0.2399  0.3171
  627MPD2     C 9335   0.167   4.350  14.424  0.2215 -0.3379  0.0106
  627MPD2    C1 9336   0.246   4.286  14.520 -0.1635  0.1003  1.1572
  627MPD2    C2 9337   0.259   4.151  14.503  0.3918  0.9262  0.2209
  627MPD2    C3 9338   0.196   4.084  14.397  0.9472 -0.3534  0.3937
  627MPD2    C4 9339   0.117   4.153  14.310  0.3285  1.0079 -0.4078
  627MPD2    C5 9340   0.103   4.286  14.318  0.0298  0.1702 -0.0347
  627MPD2     H 9341   0.315   4.086  14.571  0.0878 -0.0425 -0.4494
  627MPD2    H1 9342   0.060   4.103  14.233  1.5160 -1.2240  0.1490
  627MPD2    H2 9343   0.135   4.453  14.434  0.8135 -0.6525  5.0905
  627MPD2    H3 9344   0.023   4.334  14.261  2.0398  3.5128 -0.0450
  627MPD2     N 9345   0.195   3.941  14.397 -0.9548 -0.3679  0.1062
  627MPD2    H5 9346   0.263   3.898  14.459 -1.7789  0.3153  1.4872
  627MPD2    N1 9347   0.331   4.351  14.621 -0.7414 -0.4791  0.5502
  627MPD2    H7 9348   0.396   4.297  14.676 -3.2713 -1.8837  2.1743
  628TMC3    C1 9349   0.400   4.536  14.764  0.1646  0.7406  0.7570
  628TMC3    C2 9350   0.491   4.448  14.821 -0.3625  0.3656 -0.0250
  628TMC3    C3 9351   0.566   4.498  14.923 -0.3432 -0.4930 -0.1616
  628TMC3    C4 9352   0.391   4.665  14.799  0.2065 -0.1955  0.6398
  628TMC3    C5 9353   0.471   4.707  14.900 -0.4983  0.1548  0.2230
  628TMC3    C6 9354   0.568   4.628  14.951 -0.1346  0.0832  0.1472
  628TMC3     C 9355   0.305   4.482  14.659  0.4245  0.1331 -0.1431
  628TMC3     O 9356   0.233   4.554  14.594 -0.1409 -0.4957  0.1141
  628TMC3     H 9357   0.500   4.348  14.781 -0.4295 -0.0505  0.9967
  628TMC3    H1 9358   0.312   4.727  14.759  1.5616 -0.4714 -2.4700
  628TMC3    H2 9359   0.615   4.664  15.042  0.3872  2.0148 -0.8727
  628TMC3    C7 9360   0.491   0.114  14.918 -0.0853  0.9808 -0.0068
  628TMC3    C8 9361   0.669   4.409  14.978  0.1967 -0.1940  0.3551
  628TMC3    O1 9362   0.528   0.156  15.026 -0.1761 -0.2487  0.7527
  628TMC3    O2 9363   0.652   4.287  14.964  0.3901  0.4394 -0.1891
  629MPD2     C 9364   4.028   3.337  17.017  0.3852 -0.1095 -0.5189
  629MPD2    C1 9365   4.019   3.432  16.919 -0.2826 -0.3095 -0.4842
  629MPD2    C2 9366   3.903   3.447  16.848 -0.4103  0.4289  0.1164
  629MPD2    C3 9367   3.791   3.361  16.878  0.4877 -0.1366  0.9273
  629MPD2    C4 9368   3.809   3.267  16.968 -0.2378  0.0979 -0.1885
  629MPD2    C5 9369   3.928   3.250  17.029  0.0717 -0.4597 -0.0998
  629MPD2     H 9370   3.888   3.518  16.767  1.6026  1.4082  0.6273
  629MPD2    H1 9371   3.736   3.189  16.985  0.7903 -0.5063  1.4329
  629MPD2    H2 9372   4.111   3.315  17.084  0.2673 -1.5863 -0.8514
  629MPD2    H3 9373   3.933   3.172  17.104 -0.3576 -0.6388 -0.2573
  629MPD2     N 9374   3.677   3.377  16.799 -0.1309 -0.4445 -0.0781
  629MPD2    H5 9375   3.688   3.454  16.735  0.2260  0.2402  0.8010
  629MPD2    N1 9376   4.133   3.516  16.912  0.3799  0.6510 -1.3680
  629MPD2    H7 9377   4.222   3.494  16.958  0.1240  2.2394 -0.1368
  630TMC3    C1 9378   4.272   3.669  16.818  0.1967  0.6675 -0.8992
  630TMC3    C2 9379   4.289   3.766  16.723 -0.2864 -0.1865  0.4725
  630TMC3    C3 9380   4.412   3.798  16.682 -0.0724  0.3616  0.7351
  630TMC3    C4 9381   4.379   3.599  16.864 -0.3908  1.0189  0.5852
  630TMC3    C5 9382   4.505   3.636  16.820  0.3948 -0.3406 -0.3337
  630TMC3    C6 9383   4.524   3.741  16.733  0.5227  0.3103 -0.2839
  630TMC3     C 9384   4.134   3.627  16.838  0.3207 -0.8068  0.4673
  630TMC3     O 9385   4.049   3.686  16.775 -1.0167 -0.0599 -0.3802
  630TMC3     H 9386   4.205   3.805  16.666 -0.9060 -3.3807 -0.7890
  630TMC3    H1 9387   4.369   3.526  16.944 -0.5304 -0.5637 -0.8693
  630TMC3    H2 9388   4.615   3.782  16.691 -0.6257  1.4662 -1.6502
  630TMC3    C7 9389   4.612   3.604  16.922  0.1507 -0.5811 -0.1573
  630TMC3    C8 9390   4.428   3.851  16.546 -0.4611 -0.3604 -0.0042
  630TMC3    O1 9391   4.588   3.567  17.037  0.3803  0.3181 -0.0842
  630TMC3    O2 9392   4.527   3.807  16.484 -0.4380  0.1771  0.2850
  631MPD2     C 9393   1.951   3.050  15.589  1.0481  0.2245 -0.0581
  631MPD2    C1 9394   2.021   3.135  15.511 -0.0343 -0.7143  0.4937
  631MPD2    C2 9395   2.154   3.166  15.549  0.3000  0.3475  0.1646
  631MPD2    C3 9396   2.204   3.117  15.664  0.7389  0.5560 -0.0829
  631MPD2    C4 9397   2.139   3.013  15.729  0.5770  0.3386  0.4966
  631MPD2    C5 9398   2.014   2.982  15.687  0.7482 -0.6203 -0.4934
  631MPD2     H 9399   2.207   3.245  15.497 -2.2221 -0.0263 -2.9853
  631MPD2    H1 9400   2.178   2.971  15.822  0.6391 -0.4969  0.0933
  631MPD2    H2 9401   1.847   3.030  15.564  0.2656  1.7682  1.8785
  631MPD2    H3 9402   1.950   2.913  15.741  1.1661 -2.4298 -2.3028
  631MPD2     N 9403   2.324   3.172  15.701 -0.5846 -0.2268 -0.0520
  631MPD2    H5 9404   2.349   3.266  15.674 -3.0768  0.3815 -0.2922
  631MPD2    N1 9405   1.950   3.196  15.406  0.2284 -0.3032  0.5085
  631MPD2    H7 9406   1.855   3.172  15.382  0.7088 -2.7554  1.0602
  632TMC3    C1 9407   1.928   3.347  15.219  0.3825  0.2104 -0.3068
  632TMC3    C2 9408   1.802   3.385  15.260  0.0120 -0.0652 -0.3070
  632TMC3    C3 9409   1.738   3.490  15.200 -0.7413  0.3243  0.0476
  632TMC3    C4 9410   1.994   3.418  15.121  0.1809  0.4188  0.4127
  632TMC3    C5 9411   1.928   3.531  15.069 -0.3808 -0.0387  0.1525
  632TMC3    C6 9412   1.804   3.571  15.115  0.8866 -0.5646  0.5566
  632TMC3     C 9413   2.014   3.277  15.310 -0.1367  1.1580 -0.6184
  632TMC3     O 9414   2.134   3.298  15.296  0.5522  0.1837 -0.0903
  632TMC3     H 9415   1.745   3.323  15.328 -0.1495  1.3136  0.8332
  632TMC3    H1 9416   2.092   3.389  15.088  0.1049  0.9246 -0.2578
  632TMC3    H2 9417   1.750   3.661  15.089  2.3919  0.4594  0.9701
  632TMC3    C7 9418   1.996   3.602  14.957  0.7607  0.4074 -0.2839
  632TMC3    C8 9419   1.610   3.536  15.261  0.2392  0.1876 -0.6785
  632TMC3    O1 9420   2.091   3.551  14.899  0.3040 -0.2047 -0.4626
  632TMC3    O2 9421   1.508   3.470  15.237 -0.1381 -0.2276  0.1322
  633MPD2     C 9422   1.502   1.922  17.296 -0.2481  0.1924 -0.1054
  633MPD2    C1 9423   1.611   1.995  17.258 -0.0493 -0.0629 -0.0586
  633MPD2    C2 9424   1.735   1.966  17.315  0.1590  0.2120  0.2899
  633MPD2    C3 9425   1.742   1.872  17.415  0.4807  0.5344 -0.5116
  633MPD2    C4 9426   1.632   1.804  17.452  0.0571  0.9746  0.4724
  633MPD2    C5 9427   1.511   1.825  17.387  0.1936 -0.0046  0.5131
  633MPD2     H 9428   1.828   2.002  17.273  0.8337  0.2722  1.8332
  633MPD2    H1 9429   1.643   1.727  17.528 -0.3308 -0.2459 -0.7085
  633MPD2    H2 9430   1.408   1.937  17.245 -0.3783  0.5753  0.2438
  633MPD2    H3 9431   1.429   1.764  17.423  1.8798 -1.6868  1.4946
  633MPD2     N 9432   1.861   1.847  17.487 -0.2312  0.6248  0.6163
  633MPD2    H5 9433   1.853   1.763  17.544 -2.6836  0.9681  0.8036
  633MPD2    N1 9434   1.617   2.074  17.139 -0.6470  0.4920 -0.0699
  633MPD2    H7 9435   1.710   2.096  17.105 -0.5128  0.6613  0.4052
  634TMC3    C1 9436   1.548   2.168  16.937  0.2737 -0.0133  0.1243
  634TMC3    C2 9437   1.681   2.184  16.911  0.2866 -0.2995 -0.2270
  634TMC3    C3 9438   1.714   2.237  16.788  1.2216  0.6278  0.3156
  634TMC3    C4 9439   1.447   2.191  16.838  0.0672  0.0227 -0.5949
  634TMC3    C5 9440   1.485   2.244  16.719 -0.2006 -0.4790 -0.2702
  634TMC3    C6 9441   1.622   2.257  16.686  0.1052  0.2342 -0.3399
  634TMC3     C 9442   1.509   2.117  17.067 -0.6125  0.3248 -0.9368
  634TMC3     O 9443   1.388   2.086  17.082  0.1231  0.0252 -0.1051
  634TMC3     H 9444   1.759   2.170  16.985  2.1825 -1.6511 -2.4905
  634TMC3    H1 9445   1.343   2.181  16.866  0.0984  1.3092  0.0301
  634TMC3    H2 9446   1.655   2.296  16.591 -0.6440 -0.4496 -0.8843
  634TMC3    C7 9447   1.399   2.247  16.602  0.3611  0.3895 -0.0424
  634TMC3    C8 9448   1.839   2.183  16.741  0.2470  0.0427  0.9015
  634TMC3    O1 9449   1.447   2.317  16.515 -0.7644  0.4148 -0.8170
  634TMC3    O2 9450   1.867   2.077  16.799 -0.0114 -0.2180 -0.0198
  635TMC3    C1 9451   2.224   2.492   0.379  0.0386  0.1909 -0.1490
  635TMC3    C2 9452   2.207   2.462   0.244  0.2034  0.4871  0.2982
  635TMC3    C3 9453   2.177   2.334   0.203  0.2045 -0.3819 -0.5542
  635TMC3    C4 9454   2.203   2.390   0.469  0.5898  0.4408 -0.3067
  635TMC3    C5 9455   2.161   2.263   0.421  0.3619  0.2680  0.4315
  635TMC3    C6 9456   2.134   2.240   0.293 -1.0452  0.4994 -0.1727
  635TMC3     C 9457   2.262   2.627   0.404  1.3091  0.4562 -0.0474
  635TMC3     O 9458   2.325   2.678   0.312 -0.0459 -0.2945 -0.3767
  635TMC3     H 9459   2.195   2.541   0.172  0.5722  0.3198  0.0524
  635TMC3    H1 9460   2.240   2.395   0.570 -1.1519  1.7504  0.2513
  635TMC3    H2 9461   2.127   2.138   0.259  1.5935 -0.4618  2.1935
  635TMC3    C7 9462   2.132   2.152   0.526 -0.6217 -0.0469  0.4652
  635TMC3    C8 9463   2.124   2.328   0.067 -0.4383 -0.4315  0.0265
  635TMC3    O1 9464   2.121   2.036   0.487 -0.5449 -0.3614 -0.3105
  635TMC3    O2 9465   2.013   2.274   0.060  0.0492 -0.2296 -0.3383
  636MPD2     C 9466   2.824   1.806  15.991 -0.4785  0.6719 -0.3359
  636MPD2    C1 9467   2.855   1.781  16.126 -0.1385  0.0608 -0.5863
  636MPD2    C2 9468   2.885   1.649  16.171  0.0314  0.3048 -0.2663
  636MPD2    C3 9469   2.896   1.546  16.073 -0.6714 -0.2241  0.7729
  636MPD2    C4 9470   2.869   1.574  15.939 -0.3104  0.7303 -0.1238
  636MPD2    C5 9471   2.831   1.699  15.899 -0.3847  0.2376 -0.0562
  636MPD2     H 9472   2.909   1.635  16.276  1.4834  2.5607 -0.2899
  636MPD2    H1 9473   2.875   1.496  15.864 -1.6680  0.2582  0.2444
  636MPD2    H2 9474   2.805   1.905  15.950  0.4189  1.9789  2.3913
  636MPD2    H3 9475   2.821   1.717  15.792  1.5036  2.3383  0.1259
  636MPD2     N 9476   2.935   1.417  16.117  0.1882  0.0672 -0.0619
  636MPD2    H5 9477   2.948   1.403  16.217 -1.2233  2.6164  0.4873
  636MPD2    N1 9478   2.863   1.883  16.228 -0.0283  0.0502 -0.9932
  636MPD2    H7 9479   2.913   1.850  16.310 -3.0909  2.8549  1.9896
  637TMC3    C1 9480   3.009   1.211  16.138  0.5722  0.3137  0.2550
  637TMC3    C2 9481   2.968   1.221  16.268 -0.7494  0.8294 -0.9120
  637TMC3    C3 9482   3.060   1.219  16.375  0.2766  0.0329 -0.1582
  637TMC3    C4 9483   3.140   1.176  16.115 -0.1939  0.1833 -0.0610
  637TMC3    C5 9484   3.233   1.168  16.217  0.4965 -0.2188 -0.9796
  637TMC3    C6 9485   3.191   1.190  16.350 -0.1523  0.5567  0.4722
  637TMC3     C 9486   2.973   1.316  16.044 -0.1889 -0.4008 -0.3996
  637TMC3     O 9487   2.984   1.296  15.925  0.6065  0.3644 -0.3564
  637TMC3     H 9488   2.865   1.244  16.290 -0.6312 -2.5373  3.1059
  637TMC3    H1 9489   3.170   1.172  16.011  1.2485  1.0326  0.3276
  637TMC3    H2 9490   3.258   1.192  16.435  0.2656 -0.6110  0.1784
  637TMC3    C7 9491   3.347   1.249  16.184  0.3803 -0.0741 -0.4074
  637TMC3    C8 9492   3.026   1.327  16.462 -0.3257  0.3494 -0.2288
  637TMC3    O1 9493   3.380   1.332  16.273  0.8691  0.4370 -0.3062
  637TMC3    O2 9494   2.947   1.413  16.422  0.2352  0.2307 -0.8411
  638MPD2     C 9495   3.010   0.606  14.871  0.0192  0.0903  0.0363
  638MPD2    C1 9496   2.969   0.483  14.827 -0.3127 -0.5924  0.6647
  638MPD2    C2 9497   2.911   0.390  14.907 -0.1749  0.2635  0.1662
  638MPD2    C3 9498   2.868   0.431  15.035 -0.0118  0.2607 -0.1148
  638MPD2    C4 9499   2.883   0.563  15.074 -0.0084 -0.8579  0.3086
  638MPD2    C5 9500   2.957   0.650  14.993  0.3126 -0.3979 -0.0583
  638MPD2     H 9501   2.898   0.286  14.881  2.8047 -0.5291  1.9283
  638MPD2    H1 9502   2.854   0.595  15.173 -1.7072  1.0038 -0.7799
  638MPD2    H2 9503   3.069   0.666  14.803  2.4828 -1.0277  1.1818
  638MPD2    H3 9504   2.967   0.754  15.024  3.6851 -1.1938  1.4169
  638MPD2     N 9505   2.810   0.331  15.118  0.6152 -0.6716  0.5736
  638MPD2    H5 9506   2.786   0.243  15.072 -1.5078 -0.9993  2.3071
  638MPD2    N1 9507   3.022   0.441  14.702  0.1485  0.0498 -0.2559
  638MPD2    H7 9508   3.096   0.495  14.659 -1.1335  2.7993  1.0254
  639TMC3    C1 9509   2.746   0.211  15.307  0.1891 -0.3355  0.7327
  639TMC3    C2 9510   2.678   0.129  15.221 -0.6990  0.4920  0.2038
  639TMC3    C3 9511   2.701   4.732  15.235 -0.7620  0.4918  0.0628
  639TMC3    C4 9512   2.827   0.165  15.402 -0.8082 -0.0181 -0.5420
  639TMC3    C5 9513   2.835   0.030  15.417 -0.6859  0.1457 -0.2360
  639TMC3    C6 9514   2.776   4.678  15.329  0.0810  0.1669  0.1704
  639TMC3     C 9515   2.794   0.336  15.255 -0.0392 -0.1796 -0.8806
  639TMC3     O 9516   2.847   0.408  15.333 -0.1711  0.3110 -0.1730
  639TMC3     H 9517   2.627   0.170  15.135 -0.2234  0.1248 -0.2618
  639TMC3    H1 9518   2.892   0.230  15.460 -1.3604 -1.1310  1.3303
  639TMC3    H2 9519   2.792   4.572  15.338  0.2107  0.0943 -0.8963
  639TMC3    C7 9520   2.955   4.720  15.473  0.0077 -0.3219 -0.2527
  639TMC3    C8 9521   2.642   4.632  15.147  0.2771  0.5718 -0.0489
  639TMC3    O1 9522   2.960   4.609  15.529  0.0936 -0.2238  0.2575
  639TMC3    O2 9523   2.716   4.540  15.110  0.6404 -0.0177 -0.4392
  640MPD2     C 9524   3.610   0.312   9.841  0.2259 -0.1916 -0.3545
  640MPD2    C1 9525   3.566   0.190   9.800 -0.4140  0.4706 -0.5029
  640MPD2    C2 9526   3.434   0.177   9.745  0.1465 -0.0274  0.2671
  640MPD2    C3 9527   3.358   0.293   9.739 -0.5051  0.5349 -0.5723
  640MPD2    C4 9528   3.408   0.411   9.774  0.8525 -0.2161  0.6683
  640MPD2    C5 9529   3.530   0.422   9.840  0.1350 -0.1365  0.0110
  640MPD2     H 9530   3.381   0.089   9.710  0.4815  0.3486 -1.1844
  640MPD2    H1 9531   3.352   0.502   9.756 -1.3881 -1.9903 -1.2574
  640MPD2    H2 9532   3.707   0.314   9.889  0.3137 -1.2269 -0.4995
  640MPD2    H3 9533   3.575   0.510   9.884  0.1583 -0.8752  1.4544
  640MPD2     N 9534   3.226   0.300   9.692  0.0107 -0.1766  0.3904
  640MPD2    H5 9535   3.186   0.393   9.691  2.2392  0.7947 -0.0648
  640MPD2    N1 9536   3.656   0.088   9.807  0.4272 -0.7083 -0.0157
  640MPD2    H7 9537   3.749   0.106   9.843  0.8808 -0.3816 -1.3304
  641TMC3    C1 9538   3.742   4.606   9.812 -0.6574  0.8128  0.2718
  641TMC3    C2 9539   3.725   4.493   9.891  0.5887  0.0944 -0.1429
  641TMC3    C3 9540   3.828   4.460   9.971 -0.3250 -0.4414  0.3632
  641TMC3    C4 9541   3.865   4.657   9.805  0.1498  0.3673  0.7635
  641TMC3    C5 9542   3.970   4.610   9.879 -0.0754 -0.2931  0.4669
  641TMC3    C6 9543   3.954   4.511   9.964  0.1643  0.6612  0.0770
  641TMC3     C 9544   3.624   4.696   9.776  0.0348 -0.2987 -0.2548
  641TMC3     O 9545   3.514   4.639   9.761  1.0031 -0.7681 -0.1345
  641TMC3     H 9546   3.624   4.457   9.908  0.1639  1.8121  1.0106
  641TMC3    H1 9547   3.885   0.010   9.751  1.1425  0.3845  1.1595
  641TMC3    H2 9548   4.027   4.482  10.039  0.0571 -1.9549 -0.8342
  641TMC3    C7 9549   4.105   4.671   9.867  0.9380  0.4428 -0.9856
  641TMC3    C8 9550   3.811   4.331  10.044  0.5912  0.8268 -0.0920
  641TMC3    O1 9551   4.121   0.051   9.839 -0.1432 -0.3376 -0.1476
  641TMC3    O2 9552   3.730   4.249  10.002 -0.5973  0.0376  0.4780
  642TMC3    C1 9553   3.942   0.510  12.976  0.0786  0.7757  0.3179
  642TMC3    C2 9554   4.029   0.528  13.084  0.0944 -0.5873  0.1936
  642TMC3    C3 9555   4.151   0.462  13.079 -0.1992 -0.3893  0.0976
  642TMC3    C4 9556   3.973   0.437  12.864 -0.2008 -0.1477  0.1168
  642TMC3    C5 9557   4.086   0.364  12.874  0.0182  1.0542 -0.2811
  642TMC3    C6 9558   4.175   0.374  12.978 -0.8409 -0.2252  0.9212
  642TMC3     C 9559   3.830   0.610  12.967  1.1296 -0.5592 -0.3213
  642TMC3     O 9560   3.826   0.693  13.056  0.2996 -0.0013 -0.1324
  642TMC3     H 9561   3.997   0.586  13.170  1.5530  0.5763 -0.0555
  642TMC3    H1 9562   3.915   0.438  12.773 -0.0995 -2.1323  0.0344
  642TMC3    H2 9563   4.266   0.317  12.966  1.2909  3.1569  0.9639
  642TMC3    C7 9564   4.100   0.245  12.784 -0.1852 -0.0407 -0.2228
  642TMC3    C8 9565   4.244   0.496  13.188  0.4168 -0.2512  0.2415
  642TMC3    O1 9566   4.047   0.253  12.674  0.4222 -0.0160 -1.0007
  642TMC3    O2 9567   4.205   0.558  13.285 -0.0302 -0.3347 -0.0772
  643TMC3    C1 9568   4.236   4.398  17.674  0.3124 -0.4230  0.3627
  643TMC3    C2 9569   4.127   4.414  17.587  0.5454 -0.1862 -0.0427
  643TMC3    C3 9570   4.150   4.401  17.456  0.9727  0.1428  0.4472
  643TMC3    C4 9571   4.364   4.377  17.623  0.2317 -0.4868 -0.3084
  643TMC3    C5 9572   4.377   4.347  17.490 -0.9307 -0.2733 -0.7363
  643TMC3    C6 9573   4.271   4.355  17.408 -1.1179  1.2269 -0.0370
  643TMC3     C 9574   4.199   4.390   0.057 -0.2168 -0.9163  0.6312
  643TMC3     O 9575   4.083   4.416   0.086 -0.1495  0.3132  0.3822
  643TMC3     H 9576   4.025   4.422  17.624  0.4951  2.6825 -0.7848
  643TMC3    H1 9577   4.450   4.380  17.689  1.4236 -0.5034 -1.8705
  643TMC3    H2 9578   4.281   4.327  17.304 -0.3827  1.7389 -0.1019
  643TMC3    C7 9579   4.519   4.316  17.453  0.3084 -0.3076  0.3965
  643TMC3    C8 9580   4.082   4.481  17.362  0.1829 -0.1433 -0.2602
  643TMC3    O1 9581   4.581   4.267  17.545 -0.3379 -0.3598 -0.4186
  643TMC3    O2 9582   4.115   4.473  17.244  0.2592 -0.2498 -0.3771
  644MPD2     C 9583   4.460   0.413  10.166 -0.3969  0.2422 -0.5956
  644MPD2    C1 9584   4.402   0.289  10.157 -0.2103 -0.0636  0.2529
  644MPD2    C2 9585   4.304   0.263  10.062 -0.1257  0.3823  0.4562
  644MPD2    C3 9586   4.261   0.362   9.981  0.5666  0.2834 -0.3049
  644MPD2    C4 9587   4.312   0.495   9.994 -0.2004 -0.0240  0.2315
  644MPD2    C5 9588   4.411   0.518  10.087  0.4209 -0.4262  0.3825
  644MPD2     H 9589   4.263   0.162  10.056  1.2997 -0.1862  0.2928
  644MPD2    H1 9590   4.283   0.576   9.928  1.5024 -1.1684 -1.9053
  644MPD2    H2 9591   4.541   0.432  10.236 -0.7448  2.2967 -0.7576
  644MPD2    H3 9592   4.450   0.619  10.098 -2.3561  0.7215 -0.3917
  644MPD2     N 9593   4.162   0.339   9.878  0.1026 -0.0676  0.4469
  644MPD2    H5 9594   4.152   0.243   9.847 -2.3304  0.4497 -0.3342
  644MPD2    N1 9595   4.476   0.200  10.235 -0.0062  0.2838 -0.4137
  644MPD2    H7 9596   4.562   0.236  10.275  1.1629 -2.0997 -0.7981
  645TMC3    C1 9597   3.997   0.387   9.719  0.1444  0.6897  0.1995
  645TMC3    C2 9598   3.878   0.449   9.689 -0.1170 -0.0483  0.2189
  645TMC3    C3 9599   3.786   0.406   9.598 -0.5052 -0.3057  0.4111
  645TMC3    C4 9600   4.024   0.272   9.645 -0.0641  1.0125  0.5649
  645TMC3    C5 9601   3.938   0.231   9.551 -0.0984 -0.3164 -0.3064
  645TMC3    C6 9602   3.821   0.296   9.526 -0.0114 -0.4174 -0.1080
  645TMC3     C 9603   4.084   0.440   9.818 -0.3598  0.1901  0.1593
  645TMC3     O 9604   4.054   0.552   9.851  0.3175  0.3639 -0.6961
  645TMC3     H 9605   3.852   0.535   9.750 -1.9268  0.4858 -1.3142
  645TMC3    H1 9606   4.108   0.206   9.663 -0.6426  0.4760  1.3066
  645TMC3    H2 9607   3.748   0.269   9.449  0.0788 -2.0981  0.3939
  645TMC3    C7 9608   3.924   0.093   9.517  0.1879  0.2786  0.2703
  645TMC3    C8 9609   3.691   0.500   9.546  1.3267  0.2001 -0.1123
  645TMC3    O1 9610   3.810   0.052   9.503  1.1286 -0.4292 -0.0123
  645TMC3    O2 9611   3.631   0.458   9.446 -0.2856 -0.0138  0.3129
  646MPD2     C 9612   3.179   3.826  14.766 -0.2436 -0.1793  0.0215
  646MPD2    C1 9613   3.082   3.821  14.867  0.1736  0.0536  0.0003
  646MPD2    C2 9614   2.951   3.853  14.830 -0.3907 -0.1093 -0.6112
  646MPD2    C3 9615   2.925   3.896  14.699 -0.6929 -0.5073 -0.1148
  646MPD2    C4 9616   3.028   3.895  14.608  0.4208 -0.2590 -0.2617
  646MPD2    C5 9617   3.150   3.864  14.644  0.2301  0.8282  0.1789
  646MPD2     H 9618   2.865   3.849  14.896 -0.0092 -0.9813 -0.1677
  646MPD2    H1 9619   3.014   3.907  14.501  0.0865 -1.4340 -0.3577
  646MPD2    H2 9620   3.278   3.783  14.779 -0.7303 -1.7920 -1.5074
  646MPD2    H3 9621   3.233   3.869  14.575  0.2160  3.0617  0.3337
  646MPD2     N 9622   2.791   3.941  14.664 -0.5341  0.2322 -0.5106
  646MPD2    H5 9623   2.717   3.927  14.732  0.7540  0.6501  0.9808
  646MPD2    N1 9624   3.127   3.786  14.997  0.1893 -0.0444 -0.0432
  646MPD2    H7 9625   3.222   3.754  15.009  0.9000  2.2721  0.4358
  647TMC3    C1 9626   3.118   3.738  15.225 -0.5578 -0.2816 -0.1672
  647TMC3    C2 9627   3.038   3.722  15.342 -0.0294  0.2743 -0.2521
  647TMC3    C3 9628   3.107   3.718  15.459 -0.3847  0.1333 -0.5694
  647TMC3    C4 9629   3.256   3.741  15.227  0.0510  0.1082 -0.1796
  647TMC3    C5 9630   3.315   3.739  15.349  0.2982 -0.0663 -0.8537
  647TMC3    C6 9631   3.241   3.746  15.468  0.4885  0.2230  0.5444
  647TMC3     C 9632   3.047   3.779  15.108 -0.4485 -0.0153 -0.1070
  647TMC3     O 9633   2.926   3.809  15.119 -0.4909 -0.3318 -0.1686
  647TMC3     H 9634   2.931   3.716  15.331  0.1448 -1.0317 -1.2268
  647TMC3    H1 9635   3.320   3.729  15.140 -0.5096  0.8926 -0.6923
  647TMC3    H2 9636   3.291   3.725  15.562  0.0758 -3.4055 -0.0573
  647TMC3    C7 9637   3.452   3.695  15.357 -0.3620 -0.2370  0.7734
  647TMC3    C8 9638   3.069   3.607  15.544 -0.4675  0.2894 -0.3748
  647TMC3    O1 9639   3.484   3.656  15.467 -0.4282  0.5351 -0.1527
  647TMC3    O2 9640   3.129   3.587  15.649  0.3460 -0.0227  0.3690
  648TMC3    C1 9641   2.472   1.778  16.037  0.9077  0.5207 -0.5455
  648TMC3    C2 9642   2.537   1.654  16.051  0.3693 -0.4854  0.0098
  648TMC3    C3 9643   2.501   1.560  15.955  0.2690 -0.0052  1.2297
  648TMC3    C4 9644   2.380   1.804  15.936  0.0912  0.1154  0.5695
  648TMC3    C5 9645   2.359   1.710  15.842  0.1839  0.3903  0.1373
  648TMC3    C6 9646   2.416   1.591  15.854  0.8037  0.0245 -0.7506
  648TMC3     C 9647   2.472   1.868  16.150 -0.5989 -0.6845 -0.3632
  648TMC3     O 9648   2.421   1.979  16.140 -0.1786  0.1782 -0.2697
  648TMC3     H 9649   2.611   1.627  16.125  0.8122  2.1024  0.4933
  648TMC3    H1 9650   2.330   1.900  15.929 -1.3918 -0.6219  1.1319
  648TMC3    H2 9651   2.399   1.516  15.777 -0.1614  0.9799 -1.4594
  648TMC3    C7 9652   2.263   1.738  15.735 -0.5778  0.1751 -0.8535
  648TMC3    C8 9653   2.554   1.423  15.988  0.0487 -0.6019 -0.6107
  648TMC3    O1 9654   2.278   1.695  15.618 -0.3439 -0.3890 -0.5035
  648TMC3    O2 9655   2.552   1.392  16.106 -0.6591  0.6227 -0.0602
  649TMC3    C1 9656   1.412   2.416  13.112 -0.4084  0.6337  0.1193
  649TMC3    C2 9657   1.528   2.431  13.182 -0.1418  0.7057  0.3162
  649TMC3    C3 9658   1.545   2.337  13.279 -0.1011  0.2917  0.4216
  649TMC3    C4 9659   1.315   2.321  13.139 -0.8675 -0.1462 -0.8096
  649TMC3    C5 9660   1.341   2.229  13.237 -0.5139 -0.9414 -0.2149
  649TMC3    C6 9661   1.453   2.240  13.312 -0.3545 -0.6016  0.2047
  649TMC3     C 9662   1.388   2.503  13.003 -0.5243  0.1584 -1.0272
  649TMC3     O 9663   1.272   2.508  12.961  0.2593 -0.4175  0.3011
  649TMC3     H 9664   1.607   2.504  13.173  1.2592 -0.9651 -0.9254
  649TMC3    H1 9665   1.224   2.322  13.082 -0.4756  1.2664 -1.4048
  649TMC3    H2 9666   1.484   2.172  13.391 -1.4109 -0.7976  0.4433
  649TMC3    C7 9667   1.220   2.152  13.282 -0.9932  0.2418  0.4166
  649TMC3    C8 9668   1.663   2.344  13.364  0.2767  0.0231  0.0890
  649TMC3    O1 9669   1.117   2.164  13.217 -0.1503  0.9127  0.6940
  649TMC3    O2 9670   1.712   2.237  13.397  0.0478 -0.2769 -0.3469
  650TMC3    C1 9671   3.640   4.130  12.401  0.0847 -0.5155  0.4496
  650TMC3    C2 9672   3.574   4.249  12.399 -0.4157  0.0221  0.5861
  650TMC3    C3 9673   3.444   4.260  12.346  0.2453  0.8316  0.3201
  650TMC3    C4 9674   3.590   4.028  12.327  0.1957 -0.1604 -0.1466
  650TMC3    C5 9675   3.459   4.030  12.285  0.2458 -0.2579  0.1857
  650TMC3    C6 9676   3.382   4.145  12.298 -0.1886  0.0242  0.5129
  650TMC3     C 9677   3.769   4.127  12.468  0.1934 -0.1206  0.7672
  650TMC3     O 9678   3.803   4.229  12.519  0.1375 -0.2034  1.0193
  650TMC3     H 9679   3.613   4.336  12.451 -0.9390  2.5028 -3.1901
  650TMC3    H1 9680   3.657   3.944  12.312  0.0917 -0.2736  0.0299
  650TMC3    H2 9681   3.281   4.150  12.260  0.6033  0.5467 -1.5155
  650TMC3    C7 9682   3.433   3.936  12.181  0.3782  0.2753 -0.1135
  650TMC3    C8 9683   3.370   4.378  12.390 -0.0004 -0.0281 -0.0670
  650TMC3    O1 9684   3.473   3.818  12.194  0.2166  0.6488  0.5062
  650TMC3    O2 9685   3.438   4.476  12.417 -0.1635 -0.1123  0.4384
  651MPD2     C 9686   2.689   1.723  10.362 -0.3498 -0.2872 -0.8717
  651MPD2    C1 9687   2.703   1.829  10.451 -0.8561  0.3574  0.1993
  651MPD2    C2 9688   2.822   1.895  10.442 -0.2558  0.2087  0.1071
  651MPD2    C3 9689   2.933   1.844  10.385 -0.0813 -0.3184  0.0102
  651MPD2    C4 9690   2.920   1.730  10.307  0.3612  0.0608  0.4028
  651MPD2    C5 9691   2.793   1.684  10.291 -0.4602  0.1646  0.5666
  651MPD2     H 9692   2.823   1.983  10.504  0.8310 -0.4451  1.0131
  651MPD2    H1 9693   3.009   1.690  10.261  0.2136  1.1118 -0.7984
  651MPD2    H2 9694   2.598   1.666  10.351  0.1969 -1.0402 -1.5063
  651MPD2    H3 9695   2.783   1.601  10.222  4.2282 -1.1857  1.4767
  651MPD2     N 9696   3.057   1.908  10.410 -0.1285 -0.5117  0.7064
  651MPD2    H5 9697   3.059   1.988  10.473 -0.4177 -1.7702  2.3108
  651MPD2    N1 9698   2.600   1.879  10.528  0.0796 -0.4124  0.0818
  651MPD2    H7 9699   2.622   1.961  10.584  0.6172 -1.2756  1.1177
  652TMC3    C1 9700   3.420   1.856  10.575 -0.4307 -0.5910 -0.6543
  652TMC3    C2 9701   3.370   1.834  10.454 -0.7062  0.4270 -0.0775
  652TMC3    C3 9702   3.290   1.929  10.400  0.2214 -0.6538  0.3732
  652TMC3    C4 9703   3.398   1.967  10.654 -0.3842 -0.1486  0.0021
  652TMC3    C5 9704   3.317   2.068  10.598 -0.3895  0.1049 -0.0999
  652TMC3    C6 9705   3.262   2.046  10.477 -0.6041  0.5846  0.1372
  652TMC3     C 9706   3.541   1.779  10.616  0.3301 -0.4520 -0.3460
  652TMC3     O 9707   3.565   1.759  10.733 -0.7967  0.2160  0.0996
  652TMC3     H 9708   3.409   1.757  10.389  2.0918  0.0233  2.0719
  652TMC3    H1 9709   3.443   1.979  10.752 -2.4689 -0.5096  1.0042
  652TMC3    H2 9710   3.211   2.130  10.431  0.0612  1.2845  0.6820
  652TMC3    C7 9711   3.376   2.196  10.629  0.7234  0.4317  0.5807
  652TMC3    C8 9712   3.173   1.872  10.340 -0.2367 -0.3938  0.4049
  652TMC3    O1 9713   3.380   2.218  10.748  0.2287 -0.3794  0.1495
  652TMC3    O2 9714   3.200   1.788  10.257 -0.2670 -0.0672 -0.4788
  653MPD2     C 9715   1.451   1.908   0.185 -0.0073  0.6407 -0.4698
  653MPD2    C1 9716   1.424   1.936   0.052 -0.3932 -0.8234  0.2851
  653MPD2    C2 9717   1.356   1.841  17.725 -0.3145 -0.7043  0.3996
  653MPD2    C3 9718   1.344   1.714   0.015 -0.3577  0.1498 -1.0253
  653MPD2    C4 9719   1.386   1.683   0.140 -0.2791  0.1851 -0.1893
  653MPD2    C5 9720   1.436   1.782   0.225 -0.0499 -0.9896 -0.0284
  653MPD2     H 9721   1.328   1.866  17.623 -1.8465 -1.8857  0.5284
  653MPD2    H1 9722   1.362   1.586   0.183 -1.4492  0.3166 -0.5578
  653MPD2    H2 9723   1.478   1.980   0.262  1.7297 -0.0223 -0.4666
  653MPD2    H3 9724   1.468   1.759   0.326 -3.2730 -0.3827  1.0976
  653MPD2     N 9725   1.285   1.613  17.684  0.6926  0.2953  0.1850
  653MPD2    H5 9726   1.249   1.652  17.598  0.5830 -0.3286 -0.0559
  653MPD2    N1 9727   1.462   2.053  17.737  0.0267 -0.7334 -0.6511
  653MPD2    H7 9728   1.440   2.058  17.637  0.4422  1.5168 -0.6156
  654TMC3    C1 9729   1.225   1.406  17.599 -0.2728  0.4859  0.6429
  654TMC3    C2 9730   1.112   1.460  17.544  0.3159 -0.0115 -0.4089
  654TMC3    C3 9731   1.045   1.382  17.453  0.2291  0.0365 -0.6651
  654TMC3    C4 9732   1.271   1.282  17.563 -0.4448 -0.1799  0.4778
  654TMC3    C5 9733   1.207   1.213  17.467  0.3845  0.1066 -0.0110
  654TMC3    C6 9734   1.096   1.266  17.405 -0.4309 -0.1072  0.1320
  654TMC3     C 9735   1.302   1.479  17.699  0.1406 -0.4919 -0.2612
  654TMC3     O 9736   1.367   1.412   0.028 -0.2720 -0.0231  0.3041
  654TMC3     H 9737   1.083   1.556  17.586 -1.3773  0.0433 -1.7414
  654TMC3    H1 9738   1.360   1.234  17.601 -0.3508  0.3277  0.9017
  654TMC3    H2 9739   1.034   1.208  17.338 -1.2933  0.7071  0.2306
  654TMC3    C7 9740   1.266   1.096  17.419 -0.0040  0.6992  0.4250
  654TMC3    C8 9741   0.967   1.449  17.362  0.5109 -0.0836  0.5422
  654TMC3    O1 9742   1.383   1.072  17.443  0.2642 -0.2466 -0.1608
  654TMC3    O2 9743   0.862   1.497  17.404  0.1149 -0.2871  0.2194
  655MPD2     C 9744   2.633   1.911  15.601  0.5602  0.3327  1.1814
  655MPD2    C1 9745   2.529   1.949  15.509 -0.4110  0.0291 -0.5382
  655MPD2    C2 9746   2.528   1.890  15.388 -0.8544 -0.6384 -0.1081
  655MPD2    C3 9747   2.627   1.803  15.352 -0.0319 -0.3853 -0.4442
  655MPD2    C4 9748   2.728   1.774  15.440  0.3239 -0.5951 -0.0634
  655MPD2    C5 9749   2.731   1.839  15.555  0.0476  0.5115 -0.4784
  655MPD2     H 9750   2.450   1.919  15.318 -1.2554 -0.1128  0.5524
  655MPD2    H1 9751   2.804   1.701  15.414  1.6186  1.0670 -0.9734
  655MPD2    H2 9752   2.650   1.955  15.699  3.9501  0.9705  0.2797
  655MPD2    H3 9753   2.814   1.803  15.615 -1.9399 -0.9452  1.4225
  655MPD2     N 9754   2.627   1.720  15.244 -0.3533 -0.0781  0.3582
  655MPD2    H5 9755   2.702   1.651  15.244 -1.8228 -1.6698 -2.1222
  655MPD2    N1 9756   2.423   2.038  15.548 -0.5133 -0.1250 -0.4457
  655MPD2    H7 9757   2.350   2.040  15.478  0.6285  0.8260 -1.6200
  656TMC3    C1 9758   2.279   2.170  15.689 -0.0393  0.0931 -0.0899
  656TMC3    C2 9759   2.229   2.173  15.813 -0.0822 -1.1005 -0.0433
  656TMC3    C3 9760   2.106   2.234  15.831 -0.7451 -0.3788  0.0394
  656TMC3    C4 9761   2.219   2.225  15.577  0.0103 -0.0589  0.1030
  656TMC3    C5 9762   2.099   2.289  15.605  0.5008  0.1320 -0.0273
  656TMC3    C6 9763   2.046   2.301  15.728 -0.2543  0.2832  0.3305
  656TMC3     C 9764   2.408   2.102  15.672  0.1484 -0.3912 -0.7772
  656TMC3     O 9765   2.477   2.086  15.770  0.2927 -0.7291 -0.4922
  656TMC3     H 9766   2.266   2.112  15.895  0.5682 -0.7935 -0.1092
  656TMC3    H1 9767   2.267   2.218  15.480  0.0756  1.2021  0.0524
  656TMC3    H2 9768   1.953   2.353  15.745  0.4415  1.0668  1.6841
  656TMC3    C7 9769   2.041   2.361  15.490  0.2913  0.3790  0.0877
  656TMC3    C8 9770   2.021   2.177  15.935  0.4498  0.2568  0.0024
  656TMC3    O1 9771   2.102   2.355  15.384 -0.0633 -0.1825  0.0084
  656TMC3    O2 9772   2.052   2.070  15.984  0.2690  0.6315 -0.0840
  657TMC3    C1 9773   0.897   1.101  14.990  0.6296 -0.8519 -0.4974
  657TMC3    C2 9774   0.846   1.203  15.063 -0.3496  0.1166 -0.1755
  657TMC3    C3 9775   0.804   1.313  14.994 -0.0543  0.7299  0.5966
  657TMC3    C4 9776   0.905   1.106  14.849  0.2503  0.3592 -0.6194
  657TMC3    C5 9777   0.871   1.225  14.790  0.3263  0.4246  0.2880
  657TMC3    C6 9778   0.819   1.330  14.857 -0.0446  0.0883  0.0557
  657TMC3     C 9779   0.922   0.982  15.067 -0.5363 -0.1577 -0.2249
  657TMC3     O 9780   0.886   0.985  15.184 -0.0276  0.3228  0.2290
  657TMC3     H 9781   0.854   1.201  15.171 -3.3827  0.7589  0.0710
  657TMC3    H1 9782   0.948   1.027  14.788  0.0515  0.5838 -1.0503
  657TMC3    H2 9783   0.782   1.422  14.813  0.1029 -0.2291 -0.7212
  657TMC3    C7 9784   0.895   1.243  14.645  0.3167 -0.4544 -0.0762
  657TMC3    C8 9785   0.694   1.373  15.061 -0.7188  0.1397  0.5189
  657TMC3    O1 9786   0.820   1.319  14.586  0.0841 -0.2392  0.0442
  657TMC3    O2 9787   0.609   1.407  14.979  0.3508 -0.8148 -0.2453
  658MPD2     C 9788   2.891   1.258  14.567  0.4780  0.3211  0.4264
  658MPD2    C1 9789   2.894   1.381  14.633  0.3416  0.2678  0.0845
  658MPD2    C2 9790   2.990   1.469  14.593  0.2260  0.1230 -0.4680
  658MPD2    C3 9791   3.085   1.441  14.498  0.0590  0.2907  0.2641
  658MPD2    C4 9792   3.079   1.320  14.435 -0.0479  0.1349 -0.7455
  658MPD2    C5 9793   2.978   1.233  14.466 -0.0546  0.1926  0.4847
  658MPD2     H 9794   2.980   1.570  14.632 -2.6636 -0.6655  0.8592
  658MPD2    H1 9795   3.146   1.286  14.356 -0.0766 -0.3178 -0.5764
  658MPD2    H2 9796   2.824   1.176  14.590  0.0506  0.3441 -0.7862
  658MPD2    H3 9797   2.969   1.139  14.414 -0.4307  0.2900  0.3737
  658MPD2     N 9798   3.172   1.544  14.465 -0.1396  0.4007  0.2426
  658MPD2    H5 9799   3.149   1.631  14.511  0.9887  1.8783 -1.9881
  658MPD2    N1 9800   2.791   1.412  14.727 -0.3979 -0.1343 -0.0306
  658MPD2    H7 9801   2.719   1.341  14.732 -1.5649  0.9570 -1.2958
  659TMC3    C1 9802   2.670   1.525  14.891  0.0140  0.1291  0.2251
  659TMC3    C2 9803   2.664   1.596  15.006 -0.2612  0.1452 -0.0202
  659TMC3    C3 9804   2.538   1.603  15.062  0.3605  0.2131 -0.6247
  659TMC3    C4 9805   2.552   1.483  14.828  0.1268  0.0514  0.1228
  659TMC3    C5 9806   2.432   1.500  14.885  0.0674  0.1239  0.2296
  659TMC3    C6 9807   2.419   1.562  15.006  0.1667  0.2758 -0.3629
  659TMC3     C 9808   2.791   1.519  14.815 -0.3411  1.0740 -0.1711
  659TMC3     O 9809   2.871   1.611  14.828  0.4658 -0.6415 -0.1668
  659TMC3     H 9810   2.751   1.648  15.045  0.7350 -1.8545  0.4238
  659TMC3    H1 9811   2.555   1.442  14.727  0.4117 -0.0650  0.1791
  659TMC3    H2 9812   2.321   1.572  15.050  0.0241 -2.8748 -0.0257
  659TMC3    C7 9813   2.309   1.478  14.812 -0.2790 -0.3872  0.3842
  659TMC3    C8 9814   2.520   1.704  15.163  0.3101 -0.0226  0.3522
  659TMC3    O1 9815   2.208   1.544  14.846 -0.3021 -0.9349  0.0584
  659TMC3    O2 9816   2.408   1.754  15.162 -0.0419 -0.2776 -0.0755
  660MPD2     C 9817   1.083   0.071  12.755 -0.8026  1.0321  0.1274
  660MPD2    C1 9818   0.949   0.093  12.744  0.3275 -0.4937  0.2616
  660MPD2    C2 9819   0.862   0.046  12.839  0.2366  0.0883 -0.0300
  660MPD2    C3 9820   0.905   4.722  12.949  0.7852  0.2615  0.3958
  660MPD2    C4 9821   1.043   4.705  12.968 -0.3748  0.4718 -0.7357
  660MPD2    C5 9822   1.130   0.022  12.873  0.1325  0.1156  0.2799
  660MPD2     H 9823   0.760   0.078  12.822 -0.0634 -0.3888  0.8524
  660MPD2    H1 9824   1.074   4.651  13.056 -0.8341 -3.1883 -2.8154
  660MPD2    H2 9825   1.152   0.108  12.680 -0.6785  3.3807  1.4189
  660MPD2    H3 9826   1.238   0.015  12.874  0.0488 -0.9632  2.1500
  660MPD2     N 9827   0.816   4.679  13.051 -0.3803  0.2579  0.3348
  660MPD2    H5 9828   0.867   4.653  13.135  1.9856  0.8552 -0.8899
  660MPD2    N1 9829   0.893   0.166  12.635  0.3216  0.7342  0.5455
  660MPD2    H7 9830   0.793   0.188  12.633  0.2361  0.4215  1.5445
  661TMC3    C1 9831   0.880   0.337  12.468  0.3052 -0.1345  0.3391
  661TMC3    C2 9832   0.927   0.384  12.351  0.2594  0.9111  0.5379
  661TMC3    C3 9833   0.845   0.472  12.282  0.0980  0.1334 -0.0138
  661TMC3    C4 9834   0.757   0.368  12.521 -0.3103  0.2615  0.4643
  661TMC3    C5 9835   0.686   0.471  12.460  0.7149 -0.3801  0.5110
  661TMC3    C6 9836   0.728   0.519  12.335  0.0333  1.1104 -0.2798
  661TMC3     C 9837   0.967   0.243  12.545 -0.2335  0.4331  0.3205
  661TMC3     O 9838   1.084   0.257  12.515 -0.1528  0.1428 -0.1610
  661TMC3     H 9839   1.021   0.348  12.312 -1.1014 -0.1188 -1.7869
  661TMC3    H1 9840   0.733   0.353  12.626 -2.3402 -0.8371 -0.1451
  661TMC3    H2 9841   0.669   0.594  12.284 -1.5408  0.4287  0.5418
  661TMC3    C7 9842   0.565   0.518  12.526  0.1794 -0.5225 -0.5301
  661TMC3    C8 9843   0.858   0.472  12.133 -0.4722 -0.0696  0.1632
  661TMC3    O1 9844   0.554   0.498  12.650  0.4501  0.0161  0.3339
  661TMC3    O2 9845   0.969   0.433  12.103 -0.1866 -1.0319 -0.3843
  662MPD2     C 9846   1.117   0.400  17.139  0.6237  1.0312 -0.3805
  662MPD2    C1 9847   1.148   0.303  17.233  0.2734  0.3856  0.1606
  662MPD2    C2 9848   1.101   0.319  17.363  0.6065  0.5236 -0.5623
  662MPD2    C3 9849   1.012   0.420  17.388 -0.6360 -0.3214 -0.6348
  662MPD2    C4 9850   0.976   0.512  17.294  0.3306 -0.1571 -0.1510
  662MPD2    C5 9851   1.026   0.496  17.173  0.4403 -0.3851  0.1985
  662MPD2     H 9852   1.127   0.250  17.443 -0.0638  1.9245  0.8752
  662MPD2    H1 9853   0.902   0.589  17.313  0.1325 -0.8981  2.1188
  662MPD2    H2 9854   1.141   0.383  17.035 -0.8333  0.2653 -0.5939
  662MPD2    H3 9855   0.985   0.561  17.096  0.0212 -0.9816 -0.0851
  662MPD2     N 9856   0.950   0.443  17.513 -0.2246 -0.5395  1.2289
  662MPD2    H5 9857   0.875   0.511  17.515  2.2501  2.2675 -1.4505
  662MPD2    N1 9858   1.231   0.197  17.202  0.0562  0.0218  0.3760
  662MPD2    H7 9859   1.246   0.138  17.283  2.0931 -0.9490 -0.7277
  663TMC3    C1 9860   1.327   0.032  17.068 -0.1049 -0.0075 -0.4440
  663TMC3    C2 9861   1.411   4.738  17.175  0.1970 -0.1988  0.4045
  663TMC3    C3 9862   1.496   4.632  17.158 -0.2973  0.3742  0.3192
  663TMC3    C4 9863   1.317   4.705  16.950 -0.4077  0.9312  0.0308
  663TMC3    C5 9864   1.379   4.584  16.963  0.6069 -0.5836  0.7663
  663TMC3    C6 9865   1.452   4.542  17.070 -0.7012 -0.1955  0.2802
  663TMC3     C 9866   1.263   0.155  17.072  0.2773 -0.5107 -0.4698
  663TMC3     O 9867   1.246   0.204  16.960  0.6261 -0.3021  0.5060
  663TMC3     H 9868   1.446   0.071  17.249  1.1854  0.4093 -0.6455
  663TMC3    H1 9869   1.260   4.730  16.862  1.5082  1.6318 -1.0250
  663TMC3    H2 9870   1.522   4.461  17.057 -1.6895 -0.8361 -1.0771
  663TMC3    C7 9871   1.303   4.483  16.892 -0.2309 -0.2525  0.1553
  663TMC3    C8 9872   1.542   4.568  17.278  0.4322  0.5114 -0.5433
  663TMC3    O1 9873   1.257   4.516  16.783 -0.1892 -0.0642  0.2566
  663TMC3    O2 9874   1.650   4.511  17.271  0.5161  0.1056 -0.4428
  664MPD2     C 9875   4.314   3.735  17.628 -0.0532  0.4105 -0.1454
  664MPD2    C1 9876   4.426   3.718  17.711 -0.0867  0.1881  0.2005
  664MPD2    C2 9877   4.399   3.661   0.083 -0.0006 -0.1837  0.8633
  664MPD2    C3 9878   4.277   3.618   0.128 -0.1129 -0.1645 -0.2546
  664MPD2    C4 9879   4.171   3.643   0.046  0.0907  0.9024  0.4108
  664MPD2    C5 9880   4.189   3.706  17.679 -0.2788  0.2290  0.1939
  664MPD2     H 9881   4.480   3.652   0.154 -0.3405 -4.4097  0.7044
  664MPD2    H1 9882   4.068   3.624   0.075 -0.3790  0.0617 -1.7977
  664MPD2    H2 9883   4.317   3.788  17.534  3.4055 -0.7156 -0.6568
  664MPD2    H3 9884   4.099   3.728  17.623  0.0354 -0.6354 -0.6496
  664MPD2     N 9885   4.267   3.569   0.259  0.9365 -0.6903 -0.4372
  664MPD2    H5 9886   4.356   3.565   0.308  0.9794  2.6955 -0.2376
  664MPD2    N1 9887   4.551   3.767  17.672  0.0663  0.1992  0.0248
  664MPD2    H7 9888   4.632   3.732  17.723  0.6792  1.0110 -0.3950
  665TMC3    C1 9889   4.182   3.533   0.479 -0.5835 -0.6604  0.7585
  665TMC3    C2 9890   4.088   3.573   0.574 -0.4375  0.3471  0.4527
  665TMC3    C3 9891   4.126   3.563   0.701  0.6455  0.1985 -0.1457
  665TMC3    C4 9892   4.304   3.484   0.506  0.6429 -0.2627 -0.7170
  665TMC3    C5 9893   4.332   3.480   0.643 -0.4017 -0.8420 -0.5230
  665TMC3    C6 9894   4.248   3.525   0.743 -0.2992  0.3794 -0.1099
  665TMC3     C 9895   4.151   3.557   0.337 -0.4183 -0.7351 -0.4555
  665TMC3     O 9896   4.034   3.565   0.302 -0.3755  0.0038 -0.0910
  665TMC3     H 9897   3.996   3.618   0.539 -0.3902  0.2101  0.1473
  665TMC3    H1 9898   4.365   3.433   0.432  1.6012  0.1724 -0.2333
  665TMC3    H2 9899   4.271   3.502   0.846 -1.6842 -1.4562 -0.2112
  665TMC3    C7 9900   4.477   3.477   0.685 -0.0657 -0.0206 -0.6949
  665TMC3    C8 9901   4.025   3.575   0.810  0.1165 -0.0939 -0.3969
  665TMC3    O1 9902   4.547   3.399   0.625 -0.3154 -0.8572 -0.4294
  665TMC3    O2 9903   4.069   3.554   0.923 -0.4756 -0.0981  0.1774
  666TMC3    C1 9904   2.989   3.028   9.983 -0.2770 -0.5701  0.6005
  666TMC3    C2 9905   3.107   2.997   9.921 -1.1849 -0.1109  0.0005
  666TMC3    C3 9906   3.187   3.086   9.861 -0.7581  0.1354  1.1487
  666TMC3    C4 9907   2.955   3.156   9.986  0.2303  0.2602  0.3338
  666TMC3    C5 9908   3.042   3.249   9.930  0.6686  0.2941 -0.2329
  666TMC3    C6 9909   3.155   3.214   9.856  0.4227 -0.0323 -0.4644
  666TMC3     C 9910   2.946   2.954  10.096  0.6112  0.6043  0.0443
  666TMC3     O 9911   2.917   3.020  10.194 -0.2580 -0.1183 -0.4105
  666TMC3     H 9912   3.138   2.895   9.942 -0.5443  0.3937  1.5256
  666TMC3    H1 9913   2.862   3.184  10.034  0.0156  2.0912 -1.1259
  666TMC3    H2 9914   3.219   3.293   9.817  0.6052 -0.9315 -2.0103
  666TMC3    C7 9915   3.001   3.390   9.931  0.1271 -0.2107  1.0539
  666TMC3    C8 9916   3.324   3.045   9.857 -0.5539 -0.3056 -0.1459
  666TMC3    O1 9917   2.906   3.419  10.001  0.1057 -0.0022  0.7099
  666TMC3    O2 9918   3.359   2.939   9.911  0.1100  0.4917 -0.1552
  667MPD2     C 9919   4.551   2.834  14.745 -0.0769  0.0943  0.2172
  667MPD2    C1 9920   4.574   2.840  14.879 -0.3666 -0.0535 -0.5248
  667MPD2    C2 9921   4.555   2.723  14.950 -0.4610  0.1532  0.5124
  667MPD2    C3 9922   4.511   2.604  14.897 -0.0707 -0.1826  0.3092
  667MPD2    C4 9923   4.497   2.600  14.761  0.2957  0.0209 -0.0225
  667MPD2    C5 9924   4.518   2.717  14.687 -0.6680  0.9868 -0.4130
  667MPD2     H 9925   4.583   2.730  15.055  1.1108  2.0062 -0.0320
  667MPD2    H1 9926   4.468   2.511  14.709  0.8767  0.1695 -0.6013
  667MPD2    H2 9927   4.570   2.915  14.675 -0.9264  0.6780  0.6538
  667MPD2    H3 9928   4.505   2.709  14.580 -1.4455 -2.3665 -0.0683
  667MPD2     N 9929   4.485   2.493  14.983 -0.0677  0.1635  0.0945
  667MPD2    H5 9930   4.455   2.404  14.946  2.1240 -0.2965 -0.6048
  667MPD2    N1 9931   4.613   2.950  14.955 -0.5664  0.5072 -0.1675
  667MPD2    H7 9932   4.628   2.937  15.055 -0.3603  0.1177 -0.2470
  668TMC3    C1 9933   4.672   3.172  15.024 -0.3059  0.6090 -0.0907
  668TMC3    C2 9934   0.011   3.283  15.011  0.4310 -0.3996  0.2580
  668TMC3    C3 9935   0.019   3.366  15.121 -0.2451  0.4523  0.0124
  668TMC3    C4 9936   4.592   3.147  15.133  0.0249 -0.4225  0.6692
  668TMC3    C5 9937   4.594   3.238  15.229  0.2670 -0.0510  0.1671
  668TMC3    C6 9938   4.681   3.344  15.232 -0.5538  0.8684 -0.0827
  668TMC3     C 9939   4.649   3.079  14.912  0.3032  0.9614  0.8654
  668TMC3     O 9940   4.659   3.120  14.798 -0.4285 -0.2319  0.0630
  668TMC3     H 9941   0.073   3.292  14.922  0.6405 -1.5352  0.2880
  668TMC3    H1 9942   4.521   3.066  15.127  0.1642 -0.5891  1.2963
  668TMC3    H2 9943   4.677   3.418  15.311  1.3369  1.1961 -0.2900
  668TMC3    C7 9944   4.497   3.224  15.340  0.4763 -0.8137  0.3392
  668TMC3    C8 9945   0.108   3.479  15.123 -0.0318 -0.1279  0.4179
  668TMC3    O1 9946   4.522   3.271  15.449  0.0256  0.0787 -0.3787
  668TMC3    O2 9947   0.114   3.541  15.228 -0.0069  0.8961  0.1056
  669TMC3    C1 9948   2.997   3.224  14.781  0.3728 -0.4387  0.2352
  669TMC3    C2 9949   2.906   3.212  14.684 -0.1400 -0.2079 -0.2615
  669TMC3    C3 9950   2.929   3.254  14.555 -0.2804 -0.0187  0.5090
  669TMC3    C4 9951   3.115   3.293  14.764 -0.7345  0.5739 -0.1263
  669TMC3    C5 9952   3.130   3.348  14.639 -0.1119  0.0168 -0.1360
  669TMC3    C6 9953   3.037   3.327  14.539 -0.2793 -0.4459  0.4361
  669TMC3     C 9954   2.963   3.171  14.909  0.9885  0.0135  0.6398
  669TMC3     O 9955   2.846   3.150  14.930  0.3865 -0.4717  0.1633
  669TMC3     H 9956   2.817   3.153  14.704 -0.2875  0.1566  0.1780
  669TMC3    H1 9957   3.196   3.297  14.837 -0.3974 -2.7176 -0.3092
  669TMC3    H2 9958   3.060   3.389  14.453  0.6423 -1.7106 -0.2189
  669TMC3    C7 9959   3.257   3.396  14.606 -0.3933 -0.1485 -0.3744
  669TMC3    C8 9960   2.829   3.222  14.457  0.6771  0.5171  0.0501
  669TMC3    O1 9961   3.310   3.458  14.696  0.7144 -0.0851 -0.5424
  669TMC3    O2 9962   2.749   3.132  14.474 -0.3964  0.0020 -0.1314
  670MPD2     C 9963   0.666   0.289  13.791 -0.2130 -0.4013 -0.1389
  670MPD2    C1 9964   0.791   0.351  13.814  0.2584  0.4122 -1.1164
  670MPD2    C2 9965   0.842   0.377  13.941  0.1862 -0.4850 -0.2242
  670MPD2    C3 9966   0.771   0.351  14.049  0.4859  0.3555  0.1090
  670MPD2    C4 9967   0.643   0.309  14.023  0.4687 -0.8381  0.0007
  670MPD2    C5 9968   0.600   0.264  13.903 -0.1959 -0.4283  0.2465
  670MPD2     H 9969   0.935   0.430  13.964  0.4524 -0.0332 -2.3757
  670MPD2    H1 9970   0.573   0.278  14.101  0.2672  0.6022  0.3862
  670MPD2    H2 9971   0.628   0.266  13.692 -2.2609  2.8305 -0.1144
  670MPD2    H3 9972   0.499   0.228  13.888 -0.2874 -0.0216 -0.0784
  670MPD2     N 9973   0.829   0.373  14.180  0.3629 -0.2300 -0.0195
  670MPD2    H5 9974   0.926   0.405  14.182  0.5449 -0.8860  1.3572
  670MPD2    N1 9975   0.871   0.382  13.705 -0.3901 -0.2363  0.1604
  670MPD2    H7 9976   0.962   0.427  13.716 -0.4765  0.5249 -2.2700
  671TMC3    C1 9977   0.832   0.389  14.412  0.2923  0.4862 -0.6800
  671TMC3    C2 9978   0.959   0.364  14.378  0.7107 -0.3560  0.6314
  671TMC3    C3 9979   1.016   0.257  14.432  0.2892 -0.6027 -1.1065
  671TMC3    C4 9980   0.766   0.318  14.510  0.0656 -0.5566 -0.8089
  671TMC3    C5 9981   0.821   0.200  14.555  0.0619  0.4241  0.0560
  671TMC3    C6 9982   0.945   0.171  14.515  1.0463 -0.2693  0.0312
  671TMC3     C 9983   0.752   0.375  14.292  0.5638  0.3802  0.1515
  671TMC3     O 9984   0.630   0.346  14.306  0.0907 -0.2357  0.1383
  671TMC3     H 9985   1.023   0.445  14.343 -1.9757  1.2788 -0.4584
  671TMC3    H1 9986   0.659   0.326  14.523  0.4974  1.9165  1.2251
  671TMC3    H2 9987   0.981   0.073  14.545 -0.9643 -0.7696  0.8074
  671TMC3    C7 9988   0.726   0.090  14.525 -0.1973 -0.0300  0.0568
  671TMC3    C8 9989   1.155   0.239  14.413 -0.0703 -0.2386 -0.2805
  671TMC3    O1 9990   0.679   0.035  14.619 -0.7593  0.1477 -0.3524
  671TMC3    O2 9991   1.192   0.264  14.298 -0.1010  0.4751 -0.1940
  672MPD2     C 9992   1.807   1.871   0.104  0.0074 -1.4926 -0.6237
  672MPD2    C1 9993   1.796   1.771   0.197 -0.0466 -0.4566  0.3014
  672MPD2    C2 9994   1.802   1.799   0.332  0.6443  0.3071  0.3899
  672MPD2    C3 9995   1.834   1.927   0.374  0.2153  0.1330 -0.6885
  672MPD2    C4 9996   1.861   2.024   0.279  0.6843 -0.6409  0.6951
  672MPD2    C5 9997   1.843   2.001   0.143 -0.2812 -0.1550  0.1605
  672MPD2     H 9998   1.794   1.714   0.398  2.2000 -1.6877 -2.0236
  672MPD2    H1 9999   1.878   2.125   0.314 -1.7686  0.1818 -0.5091
  672MPD2    H210000   1.789   1.851  17.752 -0.4749 -0.4273 -0.7505
  672MPD2    H310001   1.866   2.083   0.076 -1.7379  0.4375  0.4020
  672MPD2     N10002   1.832   1.968   0.511  0.4691 -0.2091 -0.1893
  672MPD2    H510003   1.856   2.064   0.535  1.0013 -0.1556 -0.9562
  672MPD2    N110004   1.768   1.638   0.158 -0.0189 -0.2713 -0.0848
  672MPD2    H710005   1.745   1.575   0.233  0.4268  0.2525  0.4939
  673TMC3    C110006   1.765   1.444   0.026  0.5976 -0.7945 -0.4036
  673TMC3    C210007   1.876   1.378  17.739  0.6858  0.2920  0.0497
  673TMC3    C310008   1.910   1.262   0.052 -0.1728 -0.5276 -0.5410
  673TMC3    C410009   1.679   1.390   0.114  0.0222  0.3995 -0.3198
  673TMC3    C510010   1.707   1.270   0.174 -0.5058  0.0219  0.4622
  673TMC3    C610011   1.825   1.204   0.150  0.1593 -0.5868 -0.3312
  673TMC3     C10012   1.782   1.591   0.028 -0.2887 -0.3599  0.2750
  673TMC3     O10013   1.842   1.636  17.681 -0.0709  0.4180 -0.0956
  673TMC3     H10014   1.943   1.427  17.669  0.9159 -1.1428 -0.7501
  673TMC3    H110015   1.602   1.454   0.154 -1.2354 -1.9818  1.0299
  673TMC3    H210016   1.844   1.110   0.199  0.8289 -0.9108 -1.2070
  673TMC3    C710017   1.619   1.222   0.274  0.9705  0.1294  0.0575
  673TMC3    C810018   2.047   1.208   0.052 -0.3951  0.2173  0.4659
  673TMC3    O110019   1.663   1.133   0.345  0.0857 -0.3848 -0.1062
  673TMC3    O210020   2.115   1.245  17.708 -0.2106  0.0546 -0.2131
  674MPD2     C10021   1.291   0.564  17.672  0.7047  0.0837  0.0086
  674MPD2    C110022   1.306   0.536   0.054  0.5403  0.4196 -0.1408
  674MPD2    C210023   1.264   0.634   0.144 -0.7794 -0.7751 -0.4185
  674MPD2    C310024   1.218   0.756   0.107  0.3135 -0.0027 -0.7411
  674MPD2    C410025   1.216   0.786  17.723  0.1393 -0.7350  0.6174
  674MPD2    C510026   1.240   0.686  17.633 -0.0482  0.0893  0.6803
  674MPD2     H10027   1.267   0.616   0.251 -0.5611 -1.3423 -0.5188
  674MPD2    H110028   1.176   0.877  17.679  1.8976  0.1402  0.8248
  674MPD2    H210029   1.317   0.492  17.595 -0.8542  0.2120 -0.6510
  674MPD2    H310030   1.223   0.706  17.528 -2.4925 -0.4463  0.9766
  674MPD2     N10031   1.183   0.849   0.201 -0.3743 -0.3325  0.5064
  674MPD2    H510032   1.166   0.814   0.295 -2.8933 -0.4820 -0.0054
  674MPD2    N110033   1.372   0.416   0.085 -0.3759 -0.5618  0.4726
  674MPD2    H710034   1.404   0.370   0.001 -1.1272  1.0990 -0.7251
  675TMC3    C110035   1.526   0.302   0.223  0.2774  0.7940  0.0576
  675TMC3    C210036   1.531   0.241   0.349  0.0338 -0.2565 -0.1784
  675TMC3    C310037   1.643   0.265   0.423 -0.2930  0.9690 -0.1735
  675TMC3    C410038   1.630   0.384   0.178  0.4071 -0.8220 -0.8143
  675TMC3    C510039   1.741   0.399   0.257  0.4597  0.2217 -0.1785
  675TMC3    C610040   1.747   0.346   0.383 -0.0220  0.1946 -0.1320
  675TMC3     C10041   1.395   0.368   0.214  0.3052  0.3103  0.0326
  675TMC3     O10042   1.352   0.416   0.316  0.3274 -0.7389  0.2749
  675TMC3     H10043   1.444   0.197   0.396 -0.6485  0.3451 -0.8612
  675TMC3    H110044   1.624   0.409   0.073  0.1556  1.4028 -0.2798
  675TMC3    H210045   1.839   0.349   0.440 -0.2663  1.3655  0.2020
  675TMC3    C710046   1.852   0.487   0.214 -0.2552 -0.0287  0.2496
  675TMC3    C810047   1.633   0.245   0.564 -0.3059  0.3194 -0.1462
  675TMC3    O110048   1.850   0.511   0.098 -0.0246  0.4137  0.3533
  675TMC3    O210049   1.582   0.142   0.609  0.2607 -0.0172 -0.0579
  676MPD2     C10050   4.057   3.970  11.263 -0.1697 -0.3794 -0.2381
  676MPD2    C110051   3.951   3.889  11.245 -0.0117 -0.3788  0.3724
  676MPD2    C210052   3.964   3.768  11.176  0.1597 -0.6247  0.3217
  676MPD2    C310053   4.081   3.724  11.125 -0.0240  0.2851  0.9028
  676MPD2    C410054   4.190   3.812  11.150 -0.0503 -0.4248 -0.2604
  676MPD2    C510055   4.176   3.934  11.216  0.3271  0.3908  0.1454
  676MPD2     H10056   3.868   3.717  11.171 -0.3355  0.4204 -0.9189
  676MPD2    H110057   4.289   3.789  11.114 -0.0852  0.3792 -0.8605
  676MPD2    H210058   4.064   4.060  11.322  1.6950 -1.7175  1.5853
  676MPD2    H310059   4.265   3.994  11.229  0.9375 -0.5412  0.2836
  676MPD2     N10060   4.095   3.610  11.040  0.4666  0.5405  0.8870
  676MPD2    H510061   4.190   3.585  11.014  0.7331  2.1114  0.3747
  676MPD2    N110062   3.829   3.920  11.308 -0.2759  0.0363 -0.3610
  676MPD2    H710063   3.750   3.856  11.306  0.8449 -1.3668  0.1323
  677TMC3    C110064   3.650   4.023  11.424 -0.1660 -0.4288  0.3730
  677TMC3    C210065   3.647   3.924  11.526  0.6284  0.1352 -0.2077
  677TMC3    C310066   3.532   3.917  11.602 -0.7625  0.4837 -0.7738
  677TMC3    C410067   3.548   4.102  11.389  0.0265  0.3088  0.9307
  677TMC3    C510068   3.445   4.086  11.475 -0.2594  0.8412 -0.7189
  677TMC3    C610069   3.433   3.993  11.569 -0.0904  0.8116 -0.4164
  677TMC3     C10070   3.784   4.038  11.367  0.3511  0.2586  0.1598
  677TMC3     O10071   3.835   4.151  11.357  0.2687  0.0240  0.1962
  677TMC3     H10072   3.739   3.869  11.544 -0.5480 -1.3772  1.0157
  677TMC3    H110073   3.546   4.171  11.305 -1.5130 -0.1860  0.5644
  677TMC3    H210074   3.363   4.018  11.649 -2.1612 -1.4154 -1.5212
  677TMC3    C710075   3.352   4.203  11.478  0.5789 -0.0513 -0.3196
  677TMC3    C810076   3.571   3.961  11.733  0.1272  0.0182  0.1380
  677TMC3    O110077   3.238   4.176  11.503 -0.6381  0.5019  0.6568
  677TMC3    O210078   3.562   4.084  11.750 -0.5450 -0.4116  0.0166
  678MPD2     C10079   0.901   0.008   1.535  1.0491 -0.1906  0.0184
  678MPD2    C110080   0.897   4.681   1.415 -1.6855 -0.2450 -0.0244
  678MPD2    C210081   0.772   4.651   1.361  0.4093 -0.7056  0.7845
  678MPD2    C310082   0.657   4.677   1.430  0.2363  0.6518  0.1131
  678MPD2    C410083   0.656   0.012   1.545  0.1263 -0.2277  0.0061
  678MPD2    C510084   0.782   0.049   1.600  1.0846  0.4533 -0.1376
  678MPD2     H10085   0.772   4.591   1.270  0.2430 -0.2622  0.4888
  678MPD2    H110086   0.570   0.049   1.599  0.0120 -0.0194 -0.3117
  678MPD2    H210087   0.997   0.031   1.578  2.2050 -0.2970 -2.5247
  678MPD2    H310088   0.787   0.100   1.695 -1.4882  0.2498  0.1229
  678MPD2     N10089   0.543   4.620   1.382 -0.6282 -0.7571  0.1977
  678MPD2    H510090   0.558   4.566   1.297  2.2996  1.3602 -0.6358
  678MPD2    N110091   1.010   4.635   1.351 -0.7546 -0.4936 -0.3805
  678MPD2    H710092   0.999   4.600   1.256  0.1870 -0.6872 -0.4214
  679TMC3    C110093   1.351   4.377   1.234  0.6582 -0.2623 -0.4952
  679TMC3    C210094   1.277   4.420   1.337  0.4093 -0.0049 -0.3407
  679TMC3    C310095   1.223   4.547   1.318 -0.5626  0.8104 -0.3568
  679TMC3    C410096   1.382   4.455   1.125  0.3974  0.4470  0.1733
  679TMC3    C510097   1.333   4.579   1.110 -0.2822 -0.2537 -0.9562
  679TMC3    C610098   1.252   4.627   1.213  0.3675  0.9418 -0.3301
  679TMC3     C10099   1.374   4.232   1.211  0.4672 -0.1367  0.8792
  679TMC3     O10100   1.430   4.196   1.106 -0.1443  0.0528 -0.6094
  679TMC3     H10101   1.239   4.361   1.420 -0.0932 -0.5870 -0.9841
  679TMC3    H110102   1.440   4.421   1.040 -1.4217 -0.8432 -0.5427
  679TMC3    H210103   1.186   4.711   1.192 -3.0048 -1.4777  0.6836
  679TMC3    C710104   1.348   4.641   0.983  0.1142 -0.5080 -0.3856
  679TMC3    C810105   1.135   4.610   1.414  0.7162 -0.4093  0.1382
  679TMC3    O110106   1.377   4.574   0.885 -0.0255  0.0026 -0.2300
  679TMC3    O210107   1.158   4.620   1.530  0.5137  0.4458  0.1186
  680MPD2     C10108   0.453   2.497  13.198  0.0847  0.2906 -0.2421
  680MPD2    C110109   0.484   2.414  13.308 -0.1061  0.7171  0.7329
  680MPD2    C210110   0.535   2.484  13.419 -0.3760  0.1075 -0.0124
  680MPD2    C310111   0.538   2.622  13.424  0.4077  0.5073  0.0850
  680MPD2    C410112   0.489   2.700  13.318 -0.9037  0.6133 -0.1591
  680MPD2    C510113   0.453   2.630  13.204  0.2287 -0.8146  0.2683
  680MPD2     H10114   0.583   2.431  13.501  1.8868  1.3621 -0.5245
  680MPD2    H110115   0.492   2.808  13.307  2.8244  0.7110  1.9004
  680MPD2    H210116   0.425   2.448  13.106  0.3351  1.9171 -1.1697
  680MPD2    H310117   0.425   2.693  13.120  0.8342 -0.1395  0.5726
  680MPD2     N10118   0.587   2.694  13.538 -0.4944  0.1227  0.2636
  680MPD2    H510119   0.576   2.795  13.533  1.9531  0.4111  0.4794
  680MPD2    N110120   0.485   2.274  13.309 -0.2618 -0.0864  0.0738
  680MPD2    H710121   0.531   2.235  13.391 -0.0531 -1.6358 -0.7666
  681TMC3    C110122   0.403   2.054  13.262  0.1549  0.4979 -0.1604
  681TMC3    C210123   0.287   2.015  13.327  0.7671  0.3401  0.0482
  681TMC3    C310124   0.291   1.913  13.422 -0.0163 -0.3795 -0.5156
  681TMC3    C410125   0.527   2.012  13.305  0.1887 -0.3336  0.9087
  681TMC3    C510126   0.533   1.915  13.404 -0.3544  0.1112  0.7302
  681TMC3    C610127   0.411   1.861  13.459 -0.1124 -0.4937 -0.4850
  681TMC3     C10128   0.401   2.196  13.228  0.2829 -0.9569  0.0458
  681TMC3     O10129   0.307   2.244  13.169 -0.1672 -0.4343 -0.2764
  681TMC3     H10130   0.190   2.057  13.300  0.7094 -0.0542 -0.3596
  681TMC3    H110131   0.613   2.056  13.256 -0.8545 -1.3173 -1.8365
  681TMC3    H210132   0.417   1.787  13.538  3.8642  0.1024 -0.1988
  681TMC3    C710133   0.652   1.885  13.473 -0.2590  0.1035 -0.9311
  681TMC3    C810134   0.176   1.898  13.506 -0.6410 -0.0519 -0.5910
  681TMC3    O110135   0.643   1.792  13.556 -0.5692 -0.3106  0.6102
  681TMC3    O210136   0.067   1.914  13.448  0.3230 -0.2197 -0.0691
  682MPD2     C10137   2.722   4.501  10.570  0.2004  0.3522 -0.9397
  682MPD2    C110138   2.706   4.364  10.580 -0.2709 -0.0262  0.0600
  682MPD2    C210139   2.643   4.315  10.687 -0.3336 -0.2859 -0.0973
  682MPD2    C310140   2.584   4.401  10.783  0.3351 -0.3434 -0.4135
  682MPD2    C410141   2.595   4.534  10.761 -0.2140 -0.7958 -0.8164
  682MPD2    C510142   2.671   4.579  10.666  0.1191 -0.0230  0.3667
  682MPD2     H10143   2.637   4.206  10.684 -1.6029 -0.2139 -0.1707
  682MPD2    H110144   2.543   4.600  10.831  1.0259  0.6271 -1.2444
  682MPD2    H210145   2.788   4.546  10.496  0.8902  0.6513 -0.1429
  682MPD2    H310146   2.692   4.685  10.658 -1.1977  0.1358 -0.8473
  682MPD2     N10147   2.507   4.360  10.890  0.3701 -0.0445  0.0012
  682MPD2    H510148   2.484   4.431  10.959  1.3975  1.2250 -0.9534
  682MPD2    N110149   2.746   4.271  10.483 -0.2101  0.3844  0.3471
  682MPD2    H710150   2.712   4.176  10.493 -1.2835  0.8765  1.3988
  683TMC3    C110151   2.483   4.216  11.291 -0.0294 -0.4160 -0.3490
  683TMC3    C210152   2.461   4.084  11.314  0.2166  0.0660 -0.0365
  683TMC3    C310153   2.434   4.018  11.201 -0.5391 -0.0736  0.1670
  683TMC3    C410154   2.490   4.275  11.167  0.6064 -0.2127 -0.5061
  683TMC3    C510155   2.439   4.205  11.061  0.5699  0.8545 -0.3675
  683TMC3    C610156   2.409   4.072  11.085  0.0455 -0.6574  0.6447
  683TMC3     C10157   2.492   4.312  11.400 -0.6856 -0.3001 -0.2332
  683TMC3     O10158   2.504   4.434  11.380 -0.5268 -0.0009  0.1686
  683TMC3     H10159   2.447   4.037  11.410  0.0294 -0.0168 -0.1045
  683TMC3    H110160   2.492   4.383  11.157  0.0468 -0.2822 -1.3184
  683TMC3    H210161   2.390   3.997  11.009  2.6602 -1.0635  0.3789
  683TMC3    C710162   2.480   4.230  10.919  0.0807 -0.8882  0.8426
  683TMC3    C810163   2.399   3.877  11.210  0.0698  0.8335 -0.4711
  683TMC3    O110164   2.508   4.126  10.857  0.2134 -0.1644  0.1468
  683TMC3    O210165   2.302   3.840  11.146  0.7002  0.5809  0.5323
  684MPD2     C10166   0.678   2.953  16.297 -0.3644  0.2894 -0.5945
  684MPD2    C110167   0.672   3.039  16.190 -0.2417 -0.4969 -0.1633
  684MPD2    C210168   0.696   3.171  16.221 -0.7425 -0.2579 -0.7264
  684MPD2    C310169   0.736   3.218  16.342  0.6244  0.2019 -0.3355
  684MPD2    C410170   0.746   3.128  16.448  0.1653  0.2412 -0.1669
  684MPD2    C510171   0.710   3.000  16.421  0.4879  0.0565 -0.4218
  684MPD2     H10172   0.688   3.247  16.144 -1.0360  1.5623  1.0869
  684MPD2    H110173   0.770   3.155  16.550 -0.9899  1.3886 -0.1832
  684MPD2    H210174   0.657   2.847  16.288 -0.0439  0.1305  0.5265
  684MPD2    H310175   0.704   2.920  16.494 -0.9135 -0.1952 -0.8172
  684MPD2     N10176   0.760   3.356  16.364  0.0531  0.0705  0.5279
  684MPD2    H510177   0.765   3.379  16.463 -2.2977  2.6633  0.0345
  684MPD2    N110178   0.639   3.000  16.057  0.3053 -0.0717 -0.7999
  684MPD2    H710179   0.621   3.065  15.982 -1.2427 -0.3605 -0.6861
  685TMC3    C110180   0.613   2.868  15.877 -1.1253 -0.7381 -0.7846
  685TMC3    C210181   0.558   2.976  15.823  0.3546 -0.8421 -0.9826
  685TMC3    C310182   0.563   2.973  15.691  0.0166 -0.1502 -0.2910
  685TMC3    C410183   0.682   2.771  15.806 -0.0975  0.7653 -0.1094
  685TMC3    C510184   0.703   2.788  15.672  0.1521  0.0130 -0.6815
  685TMC3    C610185   0.629   2.889  15.613 -1.3225  0.3120 -0.3242
  685TMC3     C10186   0.626   2.869  16.023 -0.5917 -0.4810  0.2460
  685TMC3     O10187   0.650   2.761  16.078  0.0012 -0.0285 -0.9379
  685TMC3     H10188   0.493   3.035  15.886  2.2375  1.4536 -1.2115
  685TMC3    H110189   0.718   2.682  15.855  1.0224  0.7198 -1.0210
  685TMC3    H210190   0.621   2.898  15.505  3.3652  0.4737 -0.6619
  685TMC3    C710191   0.844   2.787  15.648  0.1829  0.3543 -0.5468
  685TMC3    C810192   0.450   3.044  15.619 -0.6507  0.0530 -0.3492
  685TMC3    O110193   0.915   2.699  15.705  0.3085 -0.0436  0.0347
  685TMC3    O210194   0.424   3.015  15.502 -0.0529 -0.9683 -0.3405
  686MPD2     C10195   2.213   3.574  15.496  0.2125  0.2809 -0.6093
  686MPD2    C110196   2.226   3.544  15.631  0.8503  0.6920 -0.1838
  686MPD2    C210197   2.346   3.561  15.693 -1.0481  0.2222  0.0572
  686MPD2    C310198   2.458   3.598  15.616  0.1099 -0.0076 -0.0370
  686MPD2    C410199   2.445   3.640  15.484  0.3571  0.2946  0.1521
  686MPD2    C510200   2.318   3.625  15.429 -0.2320  0.1812 -0.0040
  686MPD2     H10201   2.359   3.544  15.799  1.8656 -0.0628 -0.3526
  686MPD2    H110202   2.532   3.672  15.429  1.1701 -0.7962  0.7896
  686MPD2    H210203   2.125   3.545  15.440  0.2040 -0.5254 -0.1696
  686MPD2    H310204   2.315   3.641  15.322  0.6855 -1.1290 -0.2397
  686MPD2     N10205   2.594   3.606  15.675  0.0646  0.1661  0.6907
  686MPD2    H510206   2.662   3.648  15.612 -0.0567  1.1934  1.2427
  686MPD2    N110207   2.110   3.503  15.695 -0.5841 -0.7515 -0.0080
  686MPD2    H710208   2.030   3.514  15.634 -0.8288  0.2334  0.4773
  687TMC3    C110209   2.575   3.445  15.859 -0.2578 -0.4760  0.8930
  687TMC3    C210210   2.527   3.341  15.785 -0.2236  0.0807 -0.3284
  687TMC3    C310211   2.511   3.216  15.845 -0.1376  0.0496  0.0118
  687TMC3    C410212   2.618   3.422  15.987 -0.4223  0.2684  0.0931
  687TMC3    C510213   2.605   3.299  16.043  0.3281 -0.2563 -0.1194
  687TMC3    C610214   2.566   3.189  15.967  0.6588  0.3062 -0.2083
  687TMC3     C10215   2.635   3.559  15.797  0.5607 -0.0942  0.3618
  687TMC3     O10216   2.740   3.593  15.842  0.4810  0.3335 -0.1141
  687TMC3     H10217   2.526   3.354  15.677  1.2497  1.2305 -0.2109
  687TMC3    H110218   2.652   3.507  16.045 -0.5405  0.8112 -0.6203
  687TMC3    H210219   2.546   3.094  16.014  1.7243  1.4030  2.4160
  687TMC3    C710220   2.682   3.280  16.167  0.2069 -0.7343 -0.1154
  687TMC3    C810221   2.414   3.121  15.794 -0.9070  0.4042  0.9857
  687TMC3    O110222   2.770   3.363  16.180 -0.6988 -0.3599  0.2611
  687TMC3    O210223   2.410   3.005  15.837 -0.2259  0.6536  0.7052
  688MPD2     C10224   1.581   2.488  17.074  0.2398  1.6015 -0.7224
  688MPD2    C110225   1.698   2.462  17.135 -0.4678 -0.5095 -0.6459
  688MPD2    C210226   1.814   2.476  17.062 -0.4953  0.2744 -0.0694
  688MPD2    C310227   1.813   2.509  16.924 -0.3128  0.0109 -0.1382
  688MPD2    C410228   1.689   2.542  16.866 -0.1041  0.0773  0.6922
  688MPD2    C510229   1.578   2.534  16.943 -0.8004 -0.0080 -0.2763
  688MPD2     H10230   1.905   2.447  17.113  0.6252  1.7646 -1.2425
  688MPD2    H110231   1.671   2.578  16.766  3.3035  2.8719  1.1032
  688MPD2    H210232   1.494   2.488  17.138  0.8386  0.4891  0.0926
  688MPD2    H310233   1.480   2.561  16.905 -0.3513  2.2587  0.1398
  688MPD2     N10234   1.926   2.517  16.836  0.1942  0.4433  0.4218
  688MPD2    H510235   1.913   2.545  16.740 -0.7672  1.1141  0.7540
  688MPD2    N110236   1.700   2.424  17.276  0.5945 -0.2511 -0.5362
  688MPD2    H710237   1.795   2.417  17.311  0.3946 -0.0922  0.0471
  689TMC3    C110238   1.642   2.343  17.492  0.3319 -0.2188 -0.7846
  689TMC3    C210239   1.720   2.438  17.551 -0.5466 -0.4686 -0.6535
  689TMC3    C310240   1.744   2.419  17.685  0.5412 -0.5262  0.1806
  689TMC3    C410241   1.579   2.247  17.573 -0.0239 -0.8763 -0.1221
  689TMC3    C510242   1.596   2.246  17.704  0.6777 -0.0031  0.3574
  689TMC3    C610243   1.686   2.323   0.007 -0.3510  0.8362  0.0528
  689TMC3     C10244   1.599   2.371  17.353 -0.3032  0.7260 -0.6815
  689TMC3     O10245   1.487   2.336  17.313 -0.1911 -0.0985  0.4617
  689TMC3     H10246   1.748   2.534  17.510  1.0394 -1.4836 -1.9479
  689TMC3    H110247   1.508   2.178  17.529 -0.3442 -0.4014 -0.3470
  689TMC3    H210248   1.703   2.313   0.113 -1.1995  2.1892  0.3180
  689TMC3    C710249   1.529   2.154   0.046 -0.2298  0.0083 -0.1703
  689TMC3    C810250   1.782   2.547   0.008 -0.4928 -0.2524 -0.5254
  689TMC3    O110251   1.538   2.177   0.167  0.0827  1.0810  0.0847
  689TMC3    O210252   1.713   2.580   0.102 -0.0858 -0.3537 -0.5752
  690MPD2     C10253   4.133   4.197  15.992  0.1932 -0.9182  0.0217
  690MPD2    C110254   4.032   4.166  15.902 -1.1584 -0.0032  0.2737
  690MPD2    C210255   4.041   4.184  15.768  0.1197 -0.1991  0.4248
  690MPD2    C310256   4.169   4.209  15.716 -0.0925  0.1307 -0.4338
  690MPD2    C410257   4.274   4.220  15.803 -0.3191  0.1013 -0.5702
  690MPD2    C510258   4.258   4.222  15.937 -0.0499 -0.2696 -0.3224
  690MPD2     H10259   3.955   4.167  15.703 -0.2152  1.2117  0.5010
  690MPD2    H110260   4.372   4.246  15.763  0.3332 -0.9859  0.2978
  690MPD2    H210261   4.110   4.219  16.096  1.5514  0.1456  0.0995
  690MPD2    H310262   4.347   4.257  15.989  1.0323 -0.9531 -1.7342
  690MPD2     N10263   4.183   4.206  15.579  0.1520 -0.3257  0.3732
  690MPD2    H510264   4.097   4.204  15.526 -0.0752  1.9500  0.6600
  690MPD2    N110265   3.907   4.124  15.945 -0.7352  0.4585  0.1906
  690MPD2    H710266   3.843   4.096  15.872 -3.4370  0.1273  2.6800
  691TMC3    C110267   3.757   3.999  16.068 -0.0650 -0.3291 -0.2058
  691TMC3    C210268   3.666   4.034  15.972 -0.6403 -0.3923  0.0897
  691TMC3    C310269   3.578   3.939  15.939 -0.3819  0.5241 -0.2896
  691TMC3    C410270   3.747   3.884  16.142  0.0217 -0.3934  0.1304
  691TMC3    C510271   3.644   3.795  16.109 -0.6385 -1.1111 -0.4491
  691TMC3    C610272   3.562   3.816  15.994 -0.4554 -0.0986 -0.3827
  691TMC3     C10273   3.873   4.085  16.076  0.4459  0.0025  0.0283
  691TMC3     O10274   3.936   4.095  16.182  0.0318 -0.2496 -0.5452
  691TMC3     H10275   3.670   4.123  15.910  0.0546 -1.3670 -1.2827
  691TMC3    H110276   3.821   3.857  16.216  0.8378 -1.1615 -0.9511
  691TMC3    H210277   3.479   3.754  15.965  0.2016 -0.7647 -0.8427
  691TMC3    C710278   3.641   3.668  16.179  0.1167  0.8668  0.0471
  691TMC3    C810279   3.472   3.979  15.855  0.1914 -0.0857  0.3648
  691TMC3    O110280   3.714   3.667  16.276 -0.0612  0.0110  0.4730
  691TMC3    O210281   3.416   3.900  15.778  0.3731  0.6581 -0.4099
  692TMC3    C110282   0.578   0.009  15.768  0.4204 -0.5614 -0.4424
  692TMC3    C210283   0.680   0.063  15.845  0.3569 -0.1694  0.7677
  692TMC3    C310284   0.766   4.718  15.917  0.2614  0.3283 -0.5392
  692TMC3    C410285   0.578   4.613  15.741  0.1342 -0.0598  0.7021
  692TMC3    C510286   0.680   4.541  15.798  0.1688  0.7070 -0.1991
  692TMC3    C610287   0.791   4.598  15.857 -0.6886 -0.1320  0.6809
  692TMC3     C10288   0.447   0.077  15.776 -0.1697 -0.1433 -0.0870
  692TMC3     O10289   0.420   0.144  15.873  0.4258  0.1904 -0.0818
  692TMC3     H10290   0.660   0.164  15.877  2.7899  0.1391  1.3280
  692TMC3    H110291   0.497   4.574  15.680  0.0859 -1.1334  1.4569
  692TMC3    H210292   0.863   4.533  15.906 -0.9485 -0.3448  0.7825
  692TMC3    C710293   0.693   4.405  15.754  0.5724  0.7115  0.3863
  692TMC3    C810294   0.887   0.050  15.979 -1.0159  0.2023 -0.4204
  692TMC3    O110295   0.636   4.381  15.652 -0.4733 -0.1755  0.3193
  692TMC3    O210296   0.993   4.727  15.991  0.1376  0.9532 -0.0894
  693MPD2     C10297   0.652   3.067  10.253 -0.3781  0.5626 -0.0947
  693MPD2    C110298   0.592   2.958  10.315  0.8863  0.4081  1.0068
  693MPD2    C210299   0.655   2.903  10.426  0.4499 -0.0938 -0.0425
  693MPD2    C310300   0.780   2.943  10.465  0.3127 -0.2943 -0.7566
  693MPD2    C410301   0.843   3.046  10.391 -0.0754 -0.5510  0.4787
  693MPD2    C510302   0.778   3.103  10.287  0.1464 -0.0086  0.2318
  693MPD2     H10303   0.608   2.825  10.486 -0.5818  1.0653  0.6617
  693MPD2    H110304   0.943   3.085  10.409  0.3400 -0.6021 -1.7301
  693MPD2    H210305   0.603   3.105  10.164 -0.2963  1.1645  0.1203
  693MPD2    H310306   0.819   3.184  10.227 -1.4881 -0.1933 -1.1177
  693MPD2     N10307   0.848   2.891  10.582 -0.3555 -0.4940  0.4236
  693MPD2    H510308   0.947   2.908  10.593 -0.0545 -1.1888 -1.1701
  693MPD2    N110309   0.461   2.925  10.288 -0.4866 -0.4525 -0.3827
  693MPD2    H710310   0.404   2.995  10.242  0.2843  0.3455 -0.1293
  694TMC3    C110311   0.266   2.804  10.290  0.8774  0.5608  0.5350
  694TMC3    C210312   0.211   2.688  10.250  0.2073 -0.6791  0.0456
  694TMC3    C310313   0.071   2.687  10.272 -0.3250  0.2157  0.8131
  694TMC3    C410314   0.199   2.909  10.353  0.8787  0.1777 -0.1924
  694TMC3    C510315   0.074   2.889  10.388  0.5603  0.6170  0.5210
  694TMC3    C610316   0.002   2.776  10.351 -0.4458 -0.9315  0.5231
  694TMC3     C10317   0.411   2.806  10.317 -0.1313 -0.2046  0.8607
  694TMC3     O10318   0.465   2.705  10.356 -0.2161  0.4133 -0.1901
  694TMC3     H10319   0.274   2.615  10.201 -0.1776 -1.2534  0.4016
  694TMC3    H110320   0.252   2.992  10.399  0.8477 -0.2659  0.6313
  694TMC3    H210321   4.638   2.767  10.382 -0.0414 -1.8913  1.6112
  694TMC3    C710322   0.020   2.967  10.500 -0.2785  0.3250  0.6404
  694TMC3    C810323   4.725   2.592  10.207 -0.1621  0.0974 -0.2203
  694TMC3    O110324   0.077   3.075  10.525 -0.0500  0.4904 -0.0254
  694TMC3    O210325   4.602   2.593  10.231 -0.0530 -0.4745  0.6748
  695MPD2     C10326   1.425   4.678  13.501  0.6540  0.3913  0.0180
  695MPD2    C110327   1.392   4.700  13.625 -0.0559 -0.3392 -0.2362
  695MPD2    C210328   1.258   4.707  13.650 -0.2891  0.0331  0.5004
  695MPD2    C310329   1.154   4.712  13.556 -0.1413 -0.1803 -0.1397
  695MPD2    C410330   1.198   4.688  13.424  0.5412 -0.1221 -0.3082
  695MPD2    C510331   1.334   4.670  13.402  0.5800 -0.5721  0.8724
  695MPD2     H10332   1.231   4.735  13.751 -1.0281 -0.4990  0.4460
  695MPD2    H110333   1.136   4.681  13.336  2.2061 -0.0250 -1.4812
  695MPD2    H210334   1.531   4.679  13.475  0.4963 -0.7120 -0.6788
  695MPD2    H310335   1.370   4.647  13.302 -0.2928  2.3752 -0.1079
  695MPD2     N10336   1.017   4.713  13.590 -0.1253  0.6911 -0.5931
  695MPD2    H510337   0.995   4.727  13.688  0.1086  1.1934 -0.6136
  695MPD2    N110338   1.484   4.713  13.729 -0.3910  0.1529 -0.2147
  695MPD2    H710339   1.446   0.001  13.819  0.3170 -0.9251  0.4059
  696TMC3    C110340   0.796   4.683  13.573  0.5119 -0.0260 -0.0989
  696TMC3    C210341   0.795   4.640  13.699 -0.4517  0.1803  0.1551
  696TMC3    C310342   0.681   4.643  13.764  0.2787  0.3760  0.3188
  696TMC3    C410343   0.687   4.717  13.503  0.5351 -0.0477  0.2253
  696TMC3    C510344   0.574   4.715  13.569 -0.2119  0.1965 -0.5370
  696TMC3    C610345   0.572   4.684  13.703  0.8390  0.2715 -0.4874
  696TMC3     C10346   0.919   4.693  13.498 -0.3404 -1.2653 -0.3635
  696TMC3     O10347   0.916   4.697  13.374  0.2155  0.3885  0.8309
  696TMC3     H10348   0.880   4.605  13.758  0.5170  2.0767 -0.1241
  696TMC3    H110349   0.704   0.029  13.409  1.8086 -1.3690 -0.2514
  696TMC3    H210350   0.477   4.688  13.755  0.7942 -2.2004 -0.3854
  696TMC3    C710351   0.462   0.051  13.516  0.1891 -0.2056  0.1034
  696TMC3    C810352   0.692   4.644  13.907  0.2996  0.4691  0.8388
  696TMC3    O110353   0.468   0.071  13.398 -0.2646 -0.3498 -0.0087
  696TMC3    O210354   0.801   4.660  13.948  0.1712 -0.0901  0.0231
  697MPD2     C10355   0.065   1.707  15.845 -0.2362 -0.0877 -0.1456
  697MPD2    C110356   0.077   1.655  15.717 -0.4535  0.3908  0.2045
  697MPD2    C210357   0.105   1.748  15.616 -0.3563 -0.0507 -0.6486
  697MPD2    C310358   0.147   1.878  15.639  0.2473  0.1378 -0.1261
  697MPD2    C410359   0.140   1.923  15.772 -0.9148 -0.6442  0.2795
  697MPD2    C510360   0.092   1.837  15.869 -0.2549 -0.2566  0.1619
  697MPD2     H10361   0.111   1.712  15.514 -1.8437  1.2127 -1.1885
  697MPD2    H110362   0.159   2.023  15.810 -0.1437 -1.8974  3.2775
  697MPD2    H210363   0.041   1.648  15.933 -0.3363  2.5930  1.6076
  697MPD2    H310364   0.088   1.871  15.972 -2.3566  0.4779 -0.1521
  697MPD2     N10365   0.184   1.956  15.528 -0.2956 -0.1099  0.3715
  697MPD2    H510366   0.196   1.911  15.437  0.0639  1.2394 -0.2589
  697MPD2    N110367   0.048   1.519  15.685  0.4891 -0.3487 -0.3552
  697MPD2    H710368   0.047   1.495  15.586 -0.8030 -2.7224  0.2318
  698TMC3    C110369   0.312   2.108  15.410 -0.0115 -0.1905 -0.0766
  698TMC3    C210370   0.436   2.155  15.421  0.3548 -0.4445 -0.1297
  698TMC3    C310371   0.508   2.154  15.301  0.4272  0.0351 -0.4927
  698TMC3    C410372   0.252   2.058  15.295  0.1696  0.3627  0.6902
  698TMC3    C510373   0.327   2.049  15.180 -0.2748 -0.0808  0.0472
  698TMC3    C610374   0.457   2.098  15.185 -0.2357  0.4115 -0.3933
  698TMC3     C10375   0.245   2.077  15.539  0.2953  0.3868 -0.6856
  698TMC3     O10376   0.272   2.141  15.637  0.2991  0.2022 -0.4242
  698TMC3     H10377   0.474   2.201  15.510  1.1296 -1.7498  0.2156
  698TMC3    H110378   0.147   2.031  15.297 -0.6406  3.5046  0.1238
  698TMC3    H210379   0.514   2.092  15.093  1.3158  0.2956  0.5942
  698TMC3    C710380   0.264   2.012  15.054  0.8777 -0.0979  0.3027
  698TMC3    C810381   0.646   2.147  15.318  0.1091  0.3984  0.8823
  698TMC3    O110382   0.142   2.005  15.054 -0.0547  0.0985 -0.2276
  698TMC3    O210383   0.682   2.107  15.426 -0.5656  0.5907 -0.4633
  699TMC3    C110384   0.613   4.608  13.153 -0.1253 -0.0573  0.7751
  699TMC3    C210385   0.693   4.527  13.227 -0.1391 -0.0204 -0.5114
  699TMC3    C310386   0.629   4.438  13.308  0.0194  0.9244  0.4681
  699TMC3    C410387   0.474   4.606  13.152 -0.0150  0.3673 -0.3109
  699TMC3    C510388   0.416   4.521  13.237  0.1688 -0.1153 -0.0078
  699TMC3    C610389   0.492   4.440  13.317  0.2481 -0.1947  0.1935
  699TMC3     C10390   0.682   4.696  13.059  0.1564  0.6437 -0.3968
  699TMC3     O10391   0.608   0.030  12.987  0.0305  0.0739 -0.2291
  699TMC3     H10392   0.801   4.535  13.237 -0.1517 -1.4540  0.7851
  699TMC3    H110393   0.426   4.652  13.066  0.2140 -0.2583 -0.7716
  699TMC3    H210394   0.444   4.369  13.383  2.4533 -0.0235  2.0097
  699TMC3    C710395   0.274   4.535  13.263 -0.1768  0.3976  0.6783
  699TMC3    C810396   0.709   4.395  13.424 -0.1871 -0.1580 -0.4285
  699TMC3    O110397   0.226   4.457  13.346  0.1026  0.8468  0.0210
  699TMC3    O210398   0.821   4.363  13.394  0.3597  0.1205  0.3783
  700TMC3    C110399   4.421   2.728  17.378  0.6224 -0.0467  0.1036
  700TMC3    C210400   4.488   2.615  17.360  0.0108  0.1935 -0.2830
  700TMC3    C310401   4.585   2.585  17.449  0.3687 -0.9802 -1.0380
  700TMC3    C410402   4.455   2.812  17.482  0.5243  0.6062 -0.3624
  700TMC3    C510403   4.551   2.776  17.575 -0.7035  0.2712  0.4269
  700TMC3    C610404   4.614   2.658  17.560 -0.1040  0.0187 -0.6068
  700TMC3     C10405   4.369   2.793  17.261 -0.1916  0.0809  0.3525
  700TMC3     O10406   4.278   2.737  17.198  0.1524  0.4032 -0.7626
  700TMC3     H10407   4.465   2.557  17.271 -0.7624  0.7265 -0.4296
  700TMC3    H110408   4.425   2.916  17.483  2.2297  1.0953  1.5008
  700TMC3    H210409   4.693   2.631  17.630 -0.0198  1.0359 -0.3071
  700TMC3    C710410   4.620   2.876  17.656 -0.2932  0.1477 -0.0099
  700TMC3    C810411   4.677   2.485  17.395  0.5119  0.2389 -0.1666
  700TMC3    O110412   4.736   2.868  17.677  0.1911 -0.9027  0.2347
  700TMC3    O210413   4.629   2.407  17.314 -0.2142  0.0542  0.2265
  701TMC3    C110414   4.089   1.263  15.409  0.0425  0.0062  0.2050
  701TMC3    C210415   4.153   1.234  15.292 -0.3561 -0.4476  0.3993
  701TMC3    C310416   4.289   1.260  15.293  0.6402 -0.2551  0.1946
  701TMC3    C410417   4.150   1.316  15.521 -0.1437 -0.6561  0.1560
  701TMC3    C510418   4.282   1.340  15.519 -0.3284 -0.1247 -0.4148
  701TMC3    C610419   4.353   1.312  15.405 -0.9752 -0.3486 -0.1904
  701TMC3     C10420   3.953   1.312  15.401  0.1256  0.4825  0.1743
  701TMC3     O10421   3.937   1.416  15.466 -0.0708  0.3576 -0.2084
  701TMC3     H10422   4.114   1.161  15.222  0.4145  0.7672 -1.2986
  701TMC3    H110423   4.101   1.342  15.614 -2.6211 -1.8000 -0.8070
  701TMC3    H210424   4.458   1.338  15.393 -1.2830  0.7168 -0.5647
  701TMC3    C710425   4.331   1.446  15.608  0.2801 -0.0860 -0.0038
  701TMC3    C810426   4.371   1.174  15.210 -0.2175  0.1218 -0.8655
  701TMC3    O110427   4.417   1.517  15.555 -0.2860 -0.1689  0.6853
  701TMC3    O210428   4.477   1.138  15.257  0.2896 -0.5656 -0.0967
  702MPD2     C10429   4.223   3.756  10.374  0.5023  0.1376  0.2037
  702MPD2    C110430   4.219   3.764  10.514  0.5847  0.3574  0.6648
  702MPD2    C210431   4.261   3.887  10.567  0.0263  0.1971  0.0874
  702MPD2    C310432   4.293   3.992  10.478  0.3415 -0.5947  0.2132
  702MPD2    C410433   4.284   3.979  10.344 -0.1493 -0.1845 -0.4744
  702MPD2    C510434   4.261   3.854  10.290 -0.3444  0.3234 -0.4401
  702MPD2     H10435   4.282   3.896  10.673 -1.3550 -1.0019  0.4591
  702MPD2    H110436   4.293   4.061  10.275  1.2176 -0.6505 -0.8421
  702MPD2    H210437   4.200   3.662  10.325  3.2298  0.6718 -2.1461
  702MPD2    H310438   4.264   3.845  10.182 -0.2371  1.3437 -0.5260
  702MPD2     N10439   4.342   4.111  10.525 -0.4070 -0.1808  0.0010
  702MPD2    H510440   4.330   4.186  10.458 -0.0801  0.8771  1.1218
  702MPD2    N110441   4.174   3.653  10.593  0.5141 -0.3632 -0.2347
  702MPD2    H710442   4.176   3.659  10.694 -1.1786  1.7466 -0.3313
  703TMC3    C110443   4.362   4.271  10.682 -0.2089  0.0655 -0.1529
  703TMC3    C210444   4.244   4.332  10.652 -0.2871  0.1924 -0.2198
  703TMC3    C310445   4.210   4.444  10.718 -0.7874 -0.4264  0.3347
  703TMC3    C410446   4.454   4.331  10.762 -0.1728 -0.1762  0.3707
  703TMC3    C510447   4.424   4.452  10.816 -0.1357  0.6616  0.4910
  703TMC3    C610448   4.299   4.511  10.805 -0.4707  0.1354  0.2431
  703TMC3     C10449   4.385   4.134  10.653 -0.8992  0.6225 -1.1656
  703TMC3     O10450   4.435   4.059  10.737 -0.1544 -0.1804  0.1681
  703TMC3     H10451   4.174   4.278  10.589  0.0947 -1.5728  0.8699
  703TMC3    H110452   4.552   4.285  10.775  0.1097  0.3062 -0.0193
  703TMC3    H210453   4.267   4.610  10.832 -2.0558 -0.2300 -0.2642
  703TMC3    C710454   4.527   4.514  10.895  0.1371  0.4093 -0.2832
  703TMC3    C810455   4.090   4.512  10.667 -0.0150  0.0835  0.5810
  703TMC3    O110456   4.639   4.482  10.862  0.4173  0.0363  0.1088
  703TMC3    O210457   4.113   4.620  10.615 -0.0113  0.2916  0.4244
  704TMC3    C110458   1.713   1.635  12.597  0.1085  0.4152  0.9453
  704TMC3    C210459   1.777   1.652  12.474  0.2558 -0.0450 -0.2488
  704TMC3    C310460   1.897   1.597  12.456  0.0676 -0.2895 -1.1631
  704TMC3    C410461   1.767   1.569  12.702 -0.3371 -0.0256  0.1646
  704TMC3    C510462   1.888   1.509  12.679  0.2317  0.0035 -0.5900
  704TMC3    C610463   1.950   1.524  12.561 -0.1343 -0.0542  0.3928
  704TMC3     C10464   1.572   1.653  12.605  0.8340 -0.3637  0.1574
  704TMC3     O10465   1.512   1.661  12.714  0.2028  0.1055 -0.2878
  704TMC3     H10466   1.736   1.710  12.392  1.8664  0.6765 -0.5456
  704TMC3    H110467   1.706   1.559  12.791  0.6439  0.4992  0.8873
  704TMC3    H210468   2.032   1.455  12.545  1.1807  1.5118  0.5299
  704TMC3    C710469   1.880   1.372  12.722  0.2603 -0.7606  0.3694
  704TMC3    C810470   1.908   1.548  12.315 -0.0269  0.3176 -0.0955
  704TMC3    O110471   1.870   1.293  12.631 -0.0408  0.1947 -0.3070
  704TMC3    O210472   1.804   1.548  12.254 -0.2015  0.4319  0.5810
  705MPD2     C10473   1.024   4.722  16.699 -0.3512  0.2017  0.4482
  705MPD2    C110474   1.051   0.116  16.701 -0.1474 -0.1595  0.7296
  705MPD2    C210475   0.968   0.201  16.773  0.0832  0.0010  0.0187
  705MPD2    C310476   0.860   0.150  16.849 -0.5552 -1.0421  0.0253
  705MPD2    C410477   0.848   0.012  16.856 -0.1454  0.3647  0.6104
  705MPD2    C510478   0.923   4.674  16.780 -0.9762 -0.3820 -0.2285
  705MPD2     H10479   0.978   0.309  16.770  0.8663 -0.0723 -0.0988
  705MPD2    H110480   0.771   4.697  16.911 -1.9584  0.6611 -1.6068
  705MPD2    H210481   1.089   4.648  16.654 -0.7949  0.1459 -0.1112
  705MPD2    H310482   0.927   4.569  16.805 -0.0435 -0.4003 -0.4579
  705MPD2     N10483   0.754   0.231  16.895 -0.2831 -0.0141 -0.7578
  705MPD2    H510484   0.686   0.188  16.957 -2.1231  3.0911 -0.5976
  705MPD2    N110485   1.149   0.182  16.619  0.5074 -0.5876 -0.3110
  705MPD2    H710486   1.177   0.276  16.643  1.4975 -0.9305 -0.0920
  706TMC3    C110487   1.536   0.222  16.375 -0.2376 -0.5964 -0.2411
  706TMC3    C210488   1.535   0.354  16.394  0.1926 -0.2390  0.4996
  706TMC3    C310489   1.428   0.411  16.450  0.3460  0.1650 -0.6940
  706TMC3    C410490   1.434   0.139  16.410 -0.1483 -0.4916 -0.4112
  706TMC3    C510491   1.326   0.200  16.465 -0.2359  0.4758  0.4287
  706TMC3    C610492   1.322   0.334  16.490 -0.0352  0.6305  0.2935
  706TMC3     C10493   1.635   0.173  16.287 -0.2743  1.0785  0.4037
  706TMC3     O10494   1.745   0.226  16.297 -0.3131 -0.3760 -0.4500
  706TMC3     H10495   1.614   0.416  16.352 -0.2977 -1.0526 -1.6385
  706TMC3    H110496   1.455   0.032  16.408  0.6781 -0.3343 -0.1213
  706TMC3    H210497   1.238   0.388  16.532  1.2544  1.2067  2.1589
  706TMC3    C710498   1.225   0.114  16.524 -0.0014  0.2675 -0.0262
  706TMC3    C810499   1.397   0.539  16.399  0.2521  0.5557  0.0094
  706TMC3    O110500   1.208   0.003  16.474 -0.2681  0.5167 -0.0647
  706TMC3    O210501   1.455   0.574  16.294 -0.1784 -0.3824 -0.2085
  707TMC3    C110502   3.252   4.173   1.386  0.0357  0.2880 -0.5707
  707TMC3    C210503   3.175   4.164   1.498 -0.7277  0.3696  0.2646
  707TMC3    C310504   3.074   4.070   1.493  0.4023 -0.0761 -0.0247
  707TMC3    C410505   3.237   4.097   1.273 -0.1974  0.0392  0.7039
  707TMC3    C510506   3.131   4.009   1.271 -0.2550 -0.3055  0.1136
  707TMC3    C610507   3.052   3.993   1.384 -0.4015  0.1729  0.2629
  707TMC3     C10508   3.386   4.210   1.404 -0.2849  0.5542  0.3823
  707TMC3     O10509   3.446   4.211   1.295 -0.3736  0.0012 -0.4944
  707TMC3     H10510   3.179   4.219   1.591  1.4783 -1.1018  1.0336
  707TMC3    H110511   3.296   4.111   1.184 -1.2299 -1.8689 -0.2730
  707TMC3    H210512   2.979   3.914   1.394  1.6146 -1.9053 -1.5946
  707TMC3    C710513   3.140   3.902   1.174  0.0566  0.1073 -0.0569
  707TMC3    C810514   2.983   4.052   1.605  0.4775 -0.2820  0.2199
  707TMC3    O110515   3.250   3.881   1.124  0.1901  0.4783  0.3599
  707TMC3    O210516   2.865   4.045   1.578  0.4473  0.0672 -0.2876
  708MPD2     C10517   4.024   2.774  13.655  0.6082 -0.9561 -0.5937
  708MPD2    C110518   4.126   2.837  13.720 -0.3618 -0.1400 -0.2613
  708MPD2    C210519   4.101   2.921  13.831  0.0848 -0.4598  0.2613
  708MPD2    C310520   3.970   2.938  13.882 -0.3845  0.0615  0.8198
  708MPD2    C410521   3.870   2.879  13.808 -0.4604  0.2208 -0.6591
  708MPD2    C510522   3.892   2.804  13.690  0.2436 -0.3405 -0.4402
  708MPD2     H10523   4.188   2.971  13.872  0.6965 -0.1122 -1.4387
  708MPD2    H110524   3.765   2.900  13.829 -0.8034 -2.0902 -0.0811
  708MPD2    H210525   4.042   2.729  13.559  0.6884 -0.7487 -0.6766
  708MPD2    H310526   3.812   2.768  13.626 -0.6078  0.3664  0.2219
  708MPD2     N10527   3.952   3.014  13.998  0.1120  0.3095 -0.0060
  708MPD2    H510528   4.038   3.048  14.038  0.5669 -0.0651 -0.6523
  708MPD2    N110529   4.257   2.806  13.677  0.2974  0.2804 -0.2478
  708MPD2    H710530   4.272   2.774  13.582  0.4789 -0.2183 -0.0483
  709TMC3    C110531   4.422   2.951  13.636  0.1490 -0.4687  0.2593
  709TMC3    C210532   4.434   2.911  13.504 -0.3497  0.1660 -0.3293
  709TMC3    C310533   4.422   2.998  13.399  0.5714  0.8491 -0.0140
  709TMC3    C410534   4.398   3.086  13.658 -0.3483  0.2630  0.0418
  709TMC3    C510535   4.393   3.176  13.555 -0.0333 -0.7136 -0.5174
  709TMC3    C610536   4.396   3.125  13.430  0.3674 -0.8360  0.4666
  709TMC3     C10537   4.370   2.861  13.734 -0.6605 -0.4945 -0.3580
  709TMC3     O10538   4.394   2.887  13.851 -0.4533 -0.0270 -0.2370
  709TMC3     H10539   4.465   2.811  13.474  0.8888  0.2288  0.7494
  709TMC3    H110540   4.361   3.114  13.756  2.2373  2.0549  0.4874
  709TMC3    H210541   4.408   3.196  13.348  0.6779  0.3691  1.5606
  709TMC3    C710542   4.302   3.287  13.578  0.0652  0.4555 -0.5280
  709TMC3    C810543   4.508   2.963  13.291  0.4540  0.7755  0.1703
  709TMC3    O110544   4.328   3.361  13.670  0.0121 -0.5247 -0.5917
  709TMC3    O210545   4.592   2.874  13.309  0.7417 -0.1095 -0.2491
  710TMC3    C110546   0.896   0.004   0.258 -0.1949 -0.3373 -0.3307
  710TMC3    C210547   0.955   4.668   0.159 -0.4306 -0.7701 -0.3625
  710TMC3    C310548   1.083   4.626   0.177 -0.5812  0.2151  1.2627
  710TMC3    C410549   0.965   0.039   0.369 -0.1969  0.1231  0.5174
  710TMC3    C510550   1.095   4.731   0.382  0.3052 -0.4671  0.1508
  710TMC3    C610551   1.153   4.659   0.288 -0.0171  0.1262 -0.7079
  710TMC3     C10552   0.761   0.055   0.237  0.1233 -0.1539 -0.6576
  710TMC3     O10553   0.719   0.089   0.126 -0.2982 -0.4016 -0.1794
  710TMC3     H10554   0.900   4.627   0.075  1.2739  0.1183 -1.9294
  710TMC3    H110555   0.922   0.096   0.450 -1.1974  0.1399 -0.0300
  710TMC3    H210556   1.258   4.638   0.308 -0.8815 -1.7444  1.7406
  710TMC3    C710557   1.182   0.021   0.493 -0.0560  0.7064  0.7107
  710TMC3    C810558   1.159   4.609   0.056  0.2359 -0.5588  0.4945
  710TMC3    O110559   1.245   4.665   0.532 -0.4629 -0.3588  0.3634
  710TMC3    O210560   1.117   4.671  17.713  0.8598 -0.1412 -0.2759
  711TMC3    C110561   4.641   0.424  15.050  0.8269 -0.2592  0.2372
  711TMC3    C210562   4.661   0.517  15.145 -0.1119 -0.2519 -0.0551
  711TMC3    C310563   0.025   0.506  15.231  0.4996 -0.0261  0.2229
  711TMC3    C410564   4.722   0.318  15.038 -0.6214  0.4512  0.4693
  711TMC3    C510565   0.097   0.317  15.116  0.2509  0.6573 -0.0749
  711TMC3    C610566   0.115   0.404  15.217  0.2132  0.5621  0.3108
  711TMC3     C10567   4.541   0.442  14.950  0.1536 -0.4453 -0.2983
  711TMC3     O10568   4.471   0.545  14.966 -0.0288  0.1695  0.2935
  711TMC3     H10569   4.601   0.608  15.142  0.7493  0.3763  1.3060
  711TMC3    H110570   4.703   0.245  14.959 -0.2266 -1.6714  2.3299
  711TMC3    H210571   0.183   0.378  15.298 -0.6198 -1.7338  0.2741
  711TMC3    C710572   0.178   0.199  15.126  0.0847 -0.9630  0.3732
  711TMC3    C810573   0.033   0.589  15.348  0.5134 -0.7232  0.3164
  711TMC3    O110574   0.288   0.223  15.175 -0.4027  0.6667 -0.2838
  711TMC3    O210575   4.665   0.638  15.379 -0.6048  0.4527  0.1309
  712MPD2     C10576   1.772   1.124  13.616 -0.4041  0.1959 -0.1185
  712MPD2    C110577   1.656   1.195  13.628  0.3255 -0.1366  0.1066
  712MPD2    C210578   1.647   1.327  13.664 -0.7765  0.1228 -0.2012
  712MPD2    C310579   1.765   1.395  13.685 -0.6002 -0.6259 -0.6223
  712MPD2    C410580   1.879   1.322  13.696 -0.0010  0.2497 -0.1289
  712MPD2    C510581   1.886   1.193  13.651  0.4769 -0.8878 -0.3755
  712MPD2     H10582   1.551   1.378  13.657 -1.0754 -0.5312 -0.7972
  712MPD2    H110583   1.980   1.361  13.703  0.3656 -0.4674 -1.4363
  712MPD2    H210584   1.774   1.023  13.578 -3.2119  0.2342 -0.3496
  712MPD2    H310585   1.972   1.128  13.643  0.6740 -0.7081  0.2777
  712MPD2     N10586   1.782   1.534  13.702 -0.2421  0.1838  0.1475
  712MPD2    H510587   1.875   1.568  13.721  0.6156 -2.3695  0.5420
  712MPD2    N110588   1.544   1.112  13.592  0.5121  0.5440  0.0468
  712MPD2    H710589   1.561   1.015  13.566 -0.3974  0.2608  0.5454
  713TMC3    C110590   1.733   1.765  13.650 -0.3836  0.0352  0.1516
  713TMC3    C210591   1.866   1.799  13.659 -0.1428 -0.1080 -0.5786
  713TMC3    C310592   1.884   1.938  13.658  0.3539  0.3432  0.0201
  713TMC3    C410593   1.628   1.854  13.632  0.0104  0.6813 -0.0558
  713TMC3    C510594   1.664   1.984  13.622  0.1330  0.6688 -0.3127
  713TMC3    C610595   1.787   2.034  13.652 -0.3796 -0.2318  0.0781
  713TMC3     C10596   1.692   1.621  13.645  0.1824 -0.5714  0.8082
  713TMC3     O10597   1.572   1.608  13.613  0.4565  0.6450  0.1768
  713TMC3     H10598   1.947   1.728  13.647 -0.7862 -0.8187 -0.6942
  713TMC3    H110599   1.526   1.819  13.624  0.2211  0.2345 -0.7506
  713TMC3    H210600   1.805   2.141  13.661 -0.6827 -0.2719  1.1256
  713TMC3    C710601   1.547   2.068  13.629 -0.1898 -0.6417  0.7561
  713TMC3    C810602   2.007   1.993  13.719  0.1750 -0.0361  0.1997
  713TMC3    O110603   1.450   2.031  13.559 -0.7318 -0.6389 -0.0823
  713TMC3    O210604   2.022   2.115  13.710  0.6331  0.4781 -0.2292
  714MPD2     C10605   3.887   0.230   1.474 -0.4875 -0.3086 -0.0276
  714MPD2    C110606   3.938   0.237   1.352 -0.0712 -0.4036 -0.0733
  714MPD2    C210607   3.850   0.216   1.245 -0.1904  0.5570 -0.2991
  714MPD2    C310608   3.715   0.195   1.259  0.4556  0.1889 -0.4266
  714MPD2    C410609   3.670   0.183   1.389  0.3811  0.0952 -0.4014
  714MPD2    C510610   3.754   0.200   1.495  0.3262  0.5796 -0.2471
  714MPD2     H10611   3.891   0.237   1.147  2.0100 -0.8082  0.3293
  714MPD2    H110612   3.575   0.149   1.429  0.8861 -2.1129 -1.1194
  714MPD2    H210613   3.942   0.235   1.568 -1.1667  0.7204  0.3104
  714MPD2    H310614   3.724   0.178   1.596  0.8721  0.1960 -0.1642
  714MPD2     N10615   3.643   0.196   1.135  0.1090  0.5889  0.7674
  714MPD2    H510616   3.703   0.216   1.056 -1.1875  1.6148  0.0460
  714MPD2    N110617   4.077   0.264   1.335  0.0794 -0.4572 -0.4955
  714MPD2    H710618   4.121   0.275   1.426  0.4271 -3.0003 -0.3519
  715TMC3    C110619   4.290   0.264   1.257 -0.2521 -0.2391 -0.1765
  715TMC3    C210620   4.378   0.184   1.192  0.1385 -0.0183 -0.2141
  715TMC3    C310621   4.502   0.183   1.237 -0.7692 -0.9282 -0.0654
  715TMC3    C410622   4.327   0.346   1.355 -0.2740  0.1548  0.5463
  715TMC3    C510623   4.458   0.350   1.394  0.0833 -0.6519  0.0880
  715TMC3    C610624   4.550   0.260   1.342  1.0504  0.0221 -0.4301
  715TMC3     C10625   4.155   0.251   1.224  0.0078 -0.2976 -0.0072
  715TMC3     O10626   4.124   0.224   1.111  0.1791  0.3942 -0.0919
  715TMC3     H10627   4.366   0.124   1.103  0.4182 -1.3451  0.6407
  715TMC3    H110628   4.259   0.426   1.384 -0.5501 -0.0479  0.4605
  715TMC3    H210629   4.650   0.267   1.385  0.6010  2.1346  0.2722
  715TMC3    C710630   4.500   0.441   1.502 -0.8889  0.0205 -0.4656
  715TMC3    C810631   4.602   0.119   1.151 -0.3691  0.1039  0.4395
  715TMC3    O110632   4.626   0.454   1.518  0.0751 -0.7187 -0.0121
  715TMC3    O210633   4.560   0.061   1.054  0.0600 -0.1769  0.0152
  716MPD2     C10634   3.940   4.216  10.369 -0.4564 -0.0235 -0.3454
  716MPD2    C110635   3.899   4.202  10.235  0.5530 -0.9568 -0.5827
  716MPD2    C210636   3.869   4.082  10.184 -0.9098  0.8247 -0.1702
  716MPD2    C310637   3.868   3.967  10.261  0.5191  0.2350 -0.9645
  716MPD2    C410638   3.891   3.982  10.393 -0.1355  0.2229 -0.5436
  716MPD2    C510639   3.927   4.104  10.444 -1.2197  0.3316 -0.5858
  716MPD2     H10640   3.851   4.072  10.078  1.3044  2.3660 -0.6782
  716MPD2    H110641   3.902   3.897  10.458 -0.9983  2.1909  2.2004
  716MPD2    H210642   3.961   4.309  10.422  1.0788 -1.1448  1.0203
  716MPD2    H310643   3.936   4.114  10.552 -0.9413 -0.2718 -0.5569
  716MPD2     N10644   3.838   3.842  10.192 -0.2646  0.3589 -0.2806
  716MPD2    H510645   3.827   3.846  10.091  3.2669 -0.5906 -0.6717
  716MPD2    N110646   3.887   4.321  10.164 -1.0545 -0.3704 -0.4546
  716MPD2    H710647   3.931   4.402  10.208 -1.7656  1.3576 -2.9469
  717TMC3    C110648   3.840   3.618  10.158  0.4972 -0.5811 -1.9232
  717TMC3    C210649   3.761   3.629  10.044  0.0068 -0.1946 -0.2887
  717TMC3    C310650   3.772   3.545   9.940  0.1274  0.2791  0.1148
  717TMC3    C410651   3.923   3.510  10.173  0.1338  0.2982 -0.4384
  717TMC3    C510652   3.948   3.427  10.064  0.0425 -0.6312  0.1045
  717TMC3    C610653   3.871   3.449   9.953 -0.0662  0.5458 -0.0317
  717TMC3     C10654   3.851   3.726  10.253  0.2434 -0.4924  0.4106
  717TMC3     O10655   3.891   3.705  10.365 -0.1411  0.6756  0.3175
  717TMC3     H10656   3.695   3.714  10.033 -0.5548 -0.9621 -2.7394
  717TMC3    H110657   3.984   3.509  10.262 -0.1146  0.3663 -0.2684
  717TMC3    H210658   3.886   3.378   9.872 -1.3230  0.1493  0.0755
  717TMC3    C710659   4.086   3.414  10.027 -0.3307  0.0140  0.4303
  717TMC3    C810660   3.715   3.569   9.809  0.0459 -0.3432  0.2669
  717TMC3    O110661   4.110   3.387   9.911  0.1496  0.4411  0.2389
  717TMC3    O210662   3.605   3.620   9.799 -0.2454  0.3514 -0.6896
  718MPD2     C10663   3.319   2.090  13.079 -0.6613 -0.0910 -0.1337
  718MPD2    C110664   3.254   2.123  12.958  0.0009 -0.1013 -0.4874
  718MPD2    C210665   3.139   2.056  12.927 -0.0588  0.2204 -0.3182
  718MPD2    C310666   3.081   1.969  13.012 -0.3212 -0.7935 -0.1739
  718MPD2    C410667   3.150   1.927  13.126 -0.0562 -0.5971 -0.2270
  718MPD2    C510668   3.277   1.982  13.153  0.1292  0.0141 -0.0057
  718MPD2     H10669   3.082   2.083  12.838  0.2058  3.0896  0.3809
  718MPD2    H110670   3.106   1.852  13.191 -4.3375  0.3116 -2.0900
  718MPD2    H210671   3.401   2.148  13.118 -0.3196  0.9123 -2.3799
  718MPD2    H310672   3.331   1.947  13.240  1.2063 -0.9511 -1.0840
  718MPD2     N10673   2.952   1.928  12.980 -0.0233  0.1714  0.0441
  718MPD2    H510674   2.919   1.957  12.888 -0.3554  0.8106  0.3678
  718MPD2    N110675   3.302   2.229  12.871 -0.1694  0.0267  0.1331
  718MPD2    H710676   3.370   2.294  12.908 -1.7417  3.2884 -2.7206
  719TMC3    C110677   3.306   2.367  12.680 -0.5059  0.0077 -0.1676
  719TMC3    C210678   3.195   2.446  12.668  0.1424 -0.8445 -0.3098
  719TMC3    C310679   3.163   2.516  12.562 -0.1419  0.4733  0.8040
  719TMC3    C410680   3.373   2.341  12.563  0.6403 -0.5941  0.3508
  719TMC3    C510681   3.348   2.418  12.452  0.8219  0.0645  0.6664
  719TMC3    C610682   3.236   2.494  12.448 -0.3731  0.2488  0.1318
  719TMC3     C10683   3.264   2.246  12.743  0.0004 -0.3426  0.1321
  719TMC3     O10684   3.210   2.163  12.668  0.2613  0.2074 -0.0509
  719TMC3     H10685   3.128   2.435  12.753  1.1862 -0.4103  0.5567
  719TMC3    H110686   3.462   2.279  12.570  2.3276  1.6923 -0.7542
  719TMC3    H210687   3.210   2.547  12.357 -2.5612  1.0484  1.1989
  719TMC3    C710688   3.422   2.402  12.331  0.0627 -0.4521  0.1708
  719TMC3    C810689   3.018   2.539  12.554  0.5810  0.5489 -0.4995
  719TMC3    O110690   3.411   2.495  12.251  0.8304  0.4906 -0.4167
  719TMC3    O210691   2.970   2.560  12.665  0.8995  0.2018  0.0018
  720MPD2     C10692   1.536   3.354  14.241  0.3563 -0.1099  0.4877
  720MPD2    C110693   1.538   3.476  14.171  0.2758  0.0628 -0.5320
  720MPD2    C210694   1.660   3.540  14.172 -1.0505 -0.3677  0.0807
  720MPD2    C310695   1.772   3.486  14.231 -0.2182 -0.6619  0.5173
  720MPD2    C410696   1.759   3.374  14.301 -0.5203 -1.1918  0.3475
  720MPD2    C510697   1.646   3.306  14.304  0.4061 -0.0714 -0.4254
  720MPD2     H10698   1.676   3.626  14.109  0.8331 -1.5605 -1.0850
  720MPD2    H110699   1.841   3.336  14.362  0.3590 -0.8107 -0.6042
  720MPD2    H210700   1.444   3.299  14.260  2.5691 -3.6726  0.8082
  720MPD2    H310701   1.631   3.218  14.367  0.6513 -1.5932 -2.5015
  720MPD2     N10702   1.900   3.553  14.233 -0.7852  0.7357 -0.0286
  720MPD2    H510703   1.963   3.523  14.307  3.3598  0.3153 -3.7171
  720MPD2    N110704   1.422   3.524  14.104 -0.6247  0.0272  0.5251
  720MPD2    H710705   1.357   3.454  14.068  0.1122 -0.0480 -0.6557
  721TMC3    C110706   2.065   3.700  14.153 -0.4510 -0.1932  0.1679
  721TMC3    C210707   2.100   3.728  14.284 -0.4316  0.2708 -0.3001
  721TMC3    C310708   2.204   3.811  14.308  0.0586 -0.4975 -0.1488
  721TMC3    C410709   2.128   3.753  14.047  0.5104 -0.1457 -0.0234
  721TMC3    C510710   2.234   3.835  14.077 -0.6092  0.6172  0.6600
  721TMC3    C610711   2.274   3.862  14.207  0.4780  0.4324 -0.7511
  721TMC3     C10712   1.941   3.632  14.130 -0.1376  0.1081  0.3038
  721TMC3     O10713   1.889   3.649  14.022  0.2951  0.1020  0.0539
  721TMC3     H10714   2.026   3.705  14.360 -0.0272 -0.0499 -0.0020
  721TMC3    H110715   2.104   3.722  13.946 -1.0079 -0.7911  0.5342
  721TMC3    H210716   2.353   3.930  14.239  0.0306  0.3771  0.4877
  721TMC3    C710717   2.332   3.868  13.980 -0.4552 -0.1470  0.0077
  721TMC3    C810718   2.188   3.893  14.424  0.3705  0.1598  0.5651
  721TMC3    O110719   2.444   3.870  14.024 -0.4597 -0.4554  0.9839
  721TMC3    O210720   2.224   4.009  14.401  0.1238 -0.4216 -0.4823
  722MPD2     C10721   0.657   2.218  13.022  0.0593  0.7863 -0.3317
  722MPD2    C110722   0.690   2.352  12.997 -0.3674  0.6765 -0.0210
  722MPD2    C210723   0.630   2.417  12.890  0.4385 -0.1420  0.2111
  722MPD2    C310724   0.548   2.345  12.802 -0.2927 -0.2294 -0.2719
  722MPD2    C410725   0.522   2.207  12.820  0.3372  0.1860  0.2206
  722MPD2    C510726   0.574   2.152  12.937  0.4648 -0.1124  0.2847
  722MPD2     H10727   0.648   2.522  12.869 -0.1926  0.3619  2.1138
  722MPD2    H110728   0.449   2.150  12.764  2.1949 -4.2066  2.2725
  722MPD2    H210729   0.691   2.159  13.106  2.5286  2.3522 -0.2460
  722MPD2    H310730   0.547   2.050  12.962  1.2298 -0.7748 -1.5600
  722MPD2     N10731   0.479   2.415  12.702 -0.6416  0.0636 -1.0021
  722MPD2    H510732   0.484   2.516  12.705  0.6515  0.0041 -1.0185
  722MPD2    N110733   0.782   2.431  13.079  0.6952  0.0338 -0.0499
  722MPD2    H710734   0.812   2.521  13.044  1.9973 -0.6407 -0.6751
  723TMC3    C110735   0.354   2.475  12.517  0.0267  0.1102 -0.0724
  723TMC3    C210736   0.262   2.448  12.423 -0.0094 -0.5894 -0.4770
  723TMC3    C310737   0.242   2.544  12.329  0.5048  0.3691 -0.2764
  723TMC3    C410738   0.415   2.601  12.528  0.7077  0.0268 -0.1664
  723TMC3    C510739   0.388   2.699  12.436  0.2065 -0.5245 -0.2333
  723TMC3    C610740   0.302   2.673  12.332 -0.1304 -0.4974 -0.1039
  723TMC3     C10741   0.396   2.368  12.601  0.1836  0.1194 -0.6121
  723TMC3     O10742   0.376   2.251  12.561  0.5582 -0.1739 -0.3971
  723TMC3     H10743   0.216   2.350  12.415  0.4766 -0.6366 -2.6471
  723TMC3    H110744   0.482   2.627  12.609 -0.1879 -0.7489  0.8362
  723TMC3    H210745   0.271   2.754  12.267  0.2404  0.9750  1.5360
  723TMC3    C710746   0.389   2.840  12.469  1.0450 -0.9312 -0.1219
  723TMC3    C810747   0.169   2.511  12.202 -0.2993 -0.2311 -0.1276
  723TMC3    O110748   0.385   2.920  12.375  0.1054 -0.0588 -0.2937
  723TMC3    O210749   0.224   2.554  12.099 -0.6214 -0.5863 -0.6617
  724TMC3    C110750   0.424   1.126   9.417  0.2090  0.1711 -0.1447
  724TMC3    C210751   0.399   1.246   9.359  1.2291  0.0431  0.1764
  724TMC3    C310752   0.494   1.304   9.286 -0.7539  0.9002  0.0741
  724TMC3    C410753   0.550   1.062   9.395 -0.0832 -0.3479  0.3846
  724TMC3    C510754   0.641   1.123   9.310  0.2666 -0.0941 -0.2132
  724TMC3    C610755   0.615   1.245   9.252  1.2891  0.3816 -0.1082
  724TMC3     C10756   0.320   1.050   9.477  0.2324 -0.1383 -0.2284
  724TMC3     O10757   0.360   0.946   9.527 -0.3541 -0.6463 -0.0729
  724TMC3     H10758   0.320   1.308   9.400  1.5638  1.2199 -0.9384
  724TMC3    H110759   0.563   0.963   9.436 -0.4224  0.2145  1.8700
  724TMC3    H210760   0.678   1.292   9.177  2.1920 -0.9665 -0.1993
  724TMC3    C710761   0.765   1.057   9.278  0.4036  0.4614  0.2805
  724TMC3    C810762   0.463   1.437   9.235 -0.0418 -0.1475  0.2328
  724TMC3    O110763   0.794   0.966   9.353 -0.1578  0.0684  0.6690
  724TMC3    O210764   0.343   1.467   9.219 -0.0284  0.3688 -0.4570
  725TMC3    C110765   2.358   3.954  12.331  0.4625 -0.8523 -0.5830
  725TMC3    C210766   2.328   3.979  12.199 -0.1738  0.2227 -0.0668
  725TMC3    C310767   2.348   3.878  12.102 -0.7229  0.5261  0.4060
  725TMC3    C410768   2.384   3.823  12.368  0.0284  0.8981 -0.8448
  725TMC3    C510769   2.385   3.720  12.271 -0.3921  0.2950 -0.0251
  725TMC3    C610770   2.376   3.747  12.141 -0.2012 -0.3480  0.6197
  725TMC3     C10771   2.452   4.049  12.393  0.6768 -0.3303 -0.2358
  725TMC3     O10772   2.445   4.160  12.347  0.0777  0.1774 -0.4823
  725TMC3     H10773   2.306   4.076  12.157  2.0817  1.3205  1.3316
  725TMC3    H110774   2.384   3.799  12.473  0.6727  3.6182 -0.2141
  725TMC3    H210775   2.379   3.658  12.079  2.1318  1.6107 -2.0931
  725TMC3    C710776   2.398   3.582  12.311 -0.0148  0.0056  0.0702
  725TMC3    C810777   2.318   3.897  11.960 -0.9383  0.4832  0.1764
  725TMC3    O110778   2.486   3.514  12.260 -0.5279 -0.3032  0.6275
  725TMC3    O210779   2.361   3.817  11.881 -0.2038  0.2786  0.0404
  726MPD2     C10780   4.702   1.153  10.408  0.1290 -0.6814  0.8167
  726MPD2    C110781   4.586   1.217  10.365 -0.2526  0.3321  0.4429
  726MPD2    C210782   4.466   1.158  10.393  0.4724  1.0220  0.4369
  726MPD2    C310783   4.446   1.045  10.472 -0.0535 -0.6183  0.4134
  726MPD2    C410784   4.559   0.982  10.510  0.4139  0.9323 -0.3675
  726MPD2    C510785   4.685   1.037  10.481  0.2502  0.5002  0.1272
  726MPD2     H10786   4.374   1.212  10.374 -0.4540 -0.3038  1.2281
  726MPD2    H110787   4.553   0.890  10.567  2.0539  0.3238 -1.1791
  726MPD2    H210788   0.061   1.197  10.390 -0.6587  0.3961 -0.8243
  726MPD2    H310789   0.035   0.979  10.503 -0.2627 -0.7008 -0.9687
  726MPD2     N10790   4.314   0.992  10.511 -0.0919  0.2272 -0.0828
  726MPD2    H510791   4.312   0.901  10.557 -0.8579  1.4547  2.3021
  726MPD2    N110792   4.604   1.341  10.303  0.8259 -0.0573 -0.5119
  726MPD2    H710793   4.701   1.367  10.289  0.9170 -0.0926  0.0524
  727TMC3    C110794   4.554   1.537  10.178 -0.0309  0.2156  0.2193
  727TMC3    C210795   4.662   1.601  10.232  0.7152  0.3836 -0.2201
  727TMC3    C310796   4.691   1.725  10.175  0.1727  0.0484  0.2665
  727TMC3    C410797   4.473   1.591  10.081  0.3422  0.4744 -0.0829
  727TMC3    C510798   4.495   1.720  10.036  0.6839  0.2914 -0.8331
  727TMC3    C610799   4.603   1.784  10.084  0.3038 -0.0487  0.0322
  727TMC3     C10800   4.509   1.408  10.229  0.4665  0.3763 -0.0319
  727TMC3     O10801   4.395   1.378  10.204 -0.0294  0.8254  0.0385
  727TMC3     H10802   4.713   1.575  10.324  0.1516  0.1064  0.0099
  727TMC3    H110803   4.381   1.542  10.050 -0.1407 -1.4137  4.3309
  727TMC3    H210804   4.627   1.880  10.040  0.9482 -1.6718 -3.1533
  727TMC3    C710805   4.395   1.805   9.968  0.0541 -0.4834 -0.2890
  727TMC3    C810806   0.079   1.787  10.218 -0.0763 -0.3581  0.2320
  727TMC3    O110807   4.425   1.919   9.919  0.0941  0.2360 -0.3091
  727TMC3    O210808   0.123   1.743  10.322  0.1624 -0.1705 -0.4835
  728TMC3    C110809   4.289   4.188  15.365  0.2949 -1.0198  0.2478
  728TMC3    C210810   4.403   4.132  15.309  0.8202 -0.4995  0.3315
  728TMC3    C310811   4.401   4.128  15.174  0.5623  0.0198 -0.1174
  728TMC3    C410812   4.170   4.198  15.307  0.6378  0.6915  0.6108
  728TMC3    C510813   4.161   4.169  15.175 -0.0558  0.5573  0.6251
  728TMC3    C610814   4.279   4.142  15.114 -0.8336  0.6959 -0.0572
  728TMC3     C10815   4.301   4.199  15.511 -0.6589  0.7932 -0.2873
  728TMC3     O10816   4.417   4.192  15.558  0.2968 -0.0912 -0.1073
  728TMC3     H10817   4.495   4.145  15.364  0.3475 -2.0749  1.4911
  728TMC3    H110818   4.083   4.235  15.360 -1.3514 -1.2603 -1.2790
  728TMC3    H210819   4.279   4.146  15.006  0.9775  2.3683  0.0206
  728TMC3    C710820   4.039   4.214  15.110  0.0482 -0.1581  0.2454
  728TMC3    C810821   4.522   4.130  15.097 -0.6393 -0.0881 -0.5947
  728TMC3    O110822   3.944   4.224  15.179  0.3730 -0.0219 -0.2208
  728TMC3    O210823   4.516   4.167  14.980 -0.0621  0.0472 -0.0472
  729MPD2     C10824   2.552   1.329  17.049 -0.2301  0.3041 -0.1686
  729MPD2    C110825   2.457   1.418  17.015 -0.0076 -0.6523  0.3250
  729MPD2    C210826   2.407   1.496  17.115 -0.5582  0.2290  0.4808
  729MPD2    C310827   2.455   1.492  17.245 -0.0599 -0.3615 -0.2350
  729MPD2    C410828   2.547   1.398  17.280 -0.0744  0.1412  0.0994
  729MPD2    C510829   2.592   1.309  17.184 -0.4196  0.3777  0.5594
  729MPD2     H10830   2.350   1.583  17.085  0.0722  0.0998 -1.1289
  729MPD2    H110831   2.575   1.387  17.384  0.7969  0.4984 -0.0961
  729MPD2    H210832   2.616   1.271  16.983 -0.4596  1.6211 -1.5409
  729MPD2    H310833   2.667   1.233  17.202 -0.1307  0.3079 -0.9629
  729MPD2     N10834   2.407   1.578  17.347  0.0715 -0.6228 -0.0678
  729MPD2    H510835   2.450   1.563  17.438  1.0135 -1.3630 -0.6350
  729MPD2    N110836   2.418   1.439  16.873 -0.7754  0.5425  0.2688
  729MPD2    H710837   2.458   1.377  16.803 -1.0651  1.4937 -0.7433
  730TMC3    C110838   2.265   1.727  17.469  0.2509 -0.1092  0.4405
  730TMC3    C210839   2.355   1.824  17.521 -0.0982  0.1894 -0.0418
  730TMC3    C310840   2.302   1.923  17.594 -0.2530 -0.4359 -0.2172
  730TMC3    C410841   2.129   1.752  17.478  0.3519 -0.4439  0.4483
  730TMC3    C510842   2.080   1.855  17.556  0.0252 -0.4169  0.3890
  730TMC3    C610843   2.167   1.937  17.618 -0.7057 -0.5032  0.2001
  730TMC3     C10844   2.312   1.674  17.337  0.2614  0.2273 -0.8361
  730TMC3     O10845   2.230   1.691  17.249 -0.0326  0.1160  0.1389
  730TMC3     H10846   2.462   1.823  17.501 -0.4006  1.6003 -1.7838
  730TMC3    H110847   2.059   1.698  17.416  0.0538 -1.1163  1.3590
  730TMC3    H210848   2.129   2.031  17.658  0.3731  0.2230 -0.4826
  730TMC3    C710849   1.974   1.918  17.486  0.4790  0.5096 -0.0752
  730TMC3    C810850   2.396   2.009  17.665 -0.2521 -0.0260  0.2091
  730TMC3    O110851   2.001   2.027  17.433  0.4655 -0.2762  0.2609
  730TMC3    O210852   2.500   2.033  17.600  0.4342  0.5336  0.4222
  731MPD2     C10853   1.892   3.394  12.250  0.4792 -0.0558  0.1327
  731MPD2    C110854   2.002   3.316  12.229 -0.2025 -0.7330  0.1290
  731MPD2    C210855   2.024   3.200  12.305  0.8217  0.0132  0.1247
  731MPD2    C310856   1.937   3.166  12.409 -0.2524 -1.1701  0.2404
  731MPD2    C410857   1.832   3.253  12.434  0.1851  0.1871  0.5994
  731MPD2    C510858   1.809   3.358  12.356  0.1171 -0.1588 -0.0581
  731MPD2     H10859   2.109   3.134  12.299  0.2187 -0.7362 -0.1805
  731MPD2    H110860   1.763   3.241  12.516 -0.3474  1.4638  0.3373
  731MPD2    H210861   1.875   3.480  12.186 -1.0411 -0.3586  0.1169
  731MPD2    H310862   1.736   3.428  12.396  1.5646  0.7649  0.9679
  731MPD2     N10863   1.963   3.045  12.482 -0.6494  0.2274 -0.2927
  731MPD2    H510864   2.029   2.978  12.444  1.2922  0.5339  2.5100
  731MPD2    N110865   2.085   3.357  12.121  0.7074 -1.1148 -0.0844
  731MPD2    H710866   2.067   3.442  12.069  1.0464  0.3239  2.1454
  732TMC3    C110867   2.268   3.372  11.974 -0.4333 -0.2323 -0.4961
  732TMC3    C210868   2.194   3.401  11.867  0.0538 -0.0790 -0.2137
  732TMC3    C310869   2.260   3.442  11.757 -0.1057 -0.1105  0.2505
  732TMC3    C410870   2.402   3.388  11.987  0.1537 -0.0530  0.6804
  732TMC3    C510871   2.471   3.450  11.885  0.1497  0.2870  0.9125
  732TMC3    C610872   2.400   3.463  11.762  0.1099 -0.5948 -0.1002
  732TMC3     C10873   2.209   3.297  12.085 -0.3171 -0.2831  0.0381
  732TMC3     O10874   2.271   3.202  12.132 -0.0573  0.3194  0.8010
  732TMC3     H10875   2.088   3.379  11.865 -0.0591  0.3002  1.9299
  732TMC3    H110876   2.445   3.353  12.081 -2.6268 -3.7815  0.5375
  732TMC3    H210877   2.459   3.500  11.679 -0.8299  2.1136  0.4542
  732TMC3    C710878   2.618   3.449  11.892  0.4843  0.2135 -0.2856
  732TMC3    C810879   2.192   3.506  11.649 -0.2778 -0.7124 -0.0812
  732TMC3    O110880   2.676   3.467  11.785  0.1790  0.7772 -0.1634
  732TMC3    O210881   2.249   3.607  11.606  0.5129  0.2090  0.4550
  733TMC3    C110882   2.490   1.903  13.013 -0.5438  0.1228 -0.4453
  733TMC3    C210883   2.608   1.880  13.074  0.8439 -1.2503 -0.3905
  733TMC3    C310884   2.721   1.908  13.001 -0.2613 -0.1362  0.4666
  733TMC3    C410885   2.473   1.968  12.890 -0.1400  0.4309  0.3076
  733TMC3    C510886   2.586   2.014  12.841  0.0722 -0.4420  0.0411
  733TMC3    C610887   2.710   1.987  12.890  0.1779  0.0694 -0.5508
  733TMC3     C10888   2.366   1.870  13.085 -0.7956  0.0603 -0.4900
  733TMC3     O10889   2.273   1.952  13.072  0.0490 -0.4667 -0.1218
  733TMC3     H10890   2.613   1.838  13.174 -0.4621  0.5228  0.4188
  733TMC3    H110891   2.377   1.989  12.844  0.1153  0.0488 -0.4019
  733TMC3    H210892   2.794   2.014  12.828 -0.0918  2.3118  0.0604
  733TMC3    C710893   2.582   2.069  12.710 -0.2708  0.1362 -0.2627
  733TMC3    C810894   2.852   1.879  13.066  0.3861  0.1190 -0.2038
  733TMC3    O110895   2.520   2.002  12.628 -0.1092  0.2144  0.1415
  733TMC3    O210896   2.858   1.840  13.181 -0.1198 -0.5046 -0.0558
  734MPD2     C10897   4.530   3.951  12.452  0.5039 -0.0418  0.7069
  734MPD2    C110898   4.463   3.930  12.331  0.2013  0.4039 -0.0998
  734MPD2    C210899   4.435   4.034  12.256 -0.2509  0.7704 -0.0397
  734MPD2    C310900   4.477   4.166  12.288  0.9606  0.1545  0.6874
  734MPD2    C410901   4.529   4.189  12.414 -0.1577 -0.1388 -0.6780
  734MPD2    C510902   4.559   4.083  12.492  0.2441 -0.4136  0.5819
  734MPD2     H10903   4.405   4.026  12.152 -2.8654 -0.4114  0.8295
  734MPD2    H110904   4.566   4.286  12.446  1.4385 -0.5890 -1.1321
  734MPD2    H210905   4.545   3.871  12.524  1.4299  0.4918  1.1134
  734MPD2    H310906   4.617   4.101  12.581 -1.3450 -0.1363  1.5669
  734MPD2     N10907   4.450   4.263  12.184 -0.2596  0.6454 -0.3174
  734MPD2    H510908   4.399   4.232  12.102 -1.3100 -0.6474  0.8350
  734MPD2    N110909   4.408   3.803  12.312 -0.2774  0.3497 -0.8048
  734MPD2    H710910   4.439   3.723  12.366  1.6796 -0.2317 -2.7619
  735TMC3    C110911   4.271   3.640  12.211 -0.2295  0.0467  0.1799
  735TMC3    C210912   4.147   3.629  12.149  0.2211 -0.1193 -0.2105
  735TMC3    C310913   4.144   3.561  12.029 -0.1374 -0.0543  0.6929
  735TMC3    C410914   4.382   3.566  12.167  0.3992  0.4859  0.0006
  735TMC3    C510915   4.358   3.483  12.060 -0.7229  0.2197 -0.2663
  735TMC3    C610916   4.246   3.486  11.984 -0.0108 -0.4552  0.4812
  735TMC3     C10917   4.301   3.779  12.227  0.2706  0.2917 -0.5168
  735TMC3     O10918   4.227   3.859  12.175 -0.0952  0.6219  0.3409
  735TMC3     H10919   4.063   3.692  12.176  0.1964 -0.5668  0.7521
  735TMC3    H110920   4.477   3.590  12.213 -0.3804 -1.1990  2.4578
  735TMC3    H210921   4.238   3.448  11.882  0.6607 -0.6932  0.5134
  735TMC3    C710922   4.482   3.428  12.003  0.0482 -0.8746 -0.0147
  735TMC3    C810923   4.081   3.631  11.915  0.1512  0.1852 -0.1470
  735TMC3    O110924   4.580   3.483  12.049  0.2014 -0.0661 -0.4018
  735TMC3    O210925   4.056   3.579  11.807 -0.4804  0.2972 -0.0095
  736MPD2     C10926   4.550   3.194  11.737 -0.5959 -0.4913 -0.1558
  736MPD2    C110927   4.572   3.303  11.824 -0.0356  1.1540  0.6524
  736MPD2    C210928   4.697   3.370  11.813  0.4113 -0.2718  0.4350
  736MPD2    C310929   0.064   3.298  11.756  0.1960  0.4961  0.6664
  736MPD2    C410930   0.041   3.185  11.683 -0.0635 -1.1490 -0.1255
  736MPD2    C510931   4.654   3.136  11.668  0.3057 -0.3990  0.0456
  736MPD2     H10932   4.707   3.464  11.866 -1.3084  0.2488 -0.1581
  736MPD2    H110933   0.122   3.140  11.627  0.6731  2.3680 -1.8882
  736MPD2    H210934   4.450   3.152  11.733 -1.7636  2.0557  2.5267
  736MPD2    H310935   4.643   3.046  11.609  0.9409 -0.1143 -0.5098
  736MPD2     N10936   0.197   3.349  11.756  0.3077  0.1779 -0.0528
  736MPD2    H510937   0.271   3.288  11.723 -1.9647 -2.0877 -0.9885
  736MPD2    N110938   4.467   3.344  11.904 -0.1967  0.7427 -0.7626
  736MPD2    H710939   4.376   3.300  11.894 -0.5587  1.0132  1.3854
  737TMC3    C110940   0.372   3.518  11.784  0.2592  0.4112  1.4915
  737TMC3    C210941   0.401   3.645  11.821  0.3607 -0.2138  0.7265
  737TMC3    C310942   0.528   3.689  11.794  0.3097  0.3739  0.3999
  737TMC3    C410943   0.458   3.446  11.709  0.1976 -1.0733 -0.3676
  737TMC3    C510944   0.578   3.509  11.673  0.6206  0.2352  0.0204
  737TMC3    C610945   0.618   3.633  11.708  0.2768 -0.0297  0.5181
  737TMC3     C10946   0.231   3.476  11.799  0.1378  0.2579 -0.1167
  737TMC3     O10947   0.163   3.571  11.830 -0.6757 -0.2670 -0.6317
  737TMC3     H10948   0.334   3.704  11.883 -0.2118  0.0864 -0.1656
  737TMC3    H110949   0.430   3.351  11.666 -2.8310  0.0248 -0.8875
  737TMC3    H210950   0.721   3.669  11.712  0.6811 -1.1235  0.1372
  737TMC3    C710951   0.669   3.411  11.611  0.4801  0.5440 -0.0275
  737TMC3    C810952   0.548   3.829  11.818  0.2652 -0.5672 -0.2466
  737TMC3    O110953   0.657   3.291  11.644 -0.4761  0.7496 -0.3466
  737TMC3    O210954   0.469   3.878  11.895  0.2587  0.3863  0.4112
  738MPD2     C10955   0.940   2.149  15.322 -0.2918  0.5301  0.3441
  738MPD2    C110956   0.863   2.205  15.217 -0.6202  0.4496  0.3561
  738MPD2    C210957   0.939   2.277  15.123  0.3029  0.7034 -0.0333
  738MPD2    C310958   1.072   2.275  15.118 -0.6916 -0.0810  0.3319
  738MPD2    C410959   1.144   2.214  15.222  0.2881  0.1368 -0.2363
  738MPD2    C510960   1.075   2.161  15.321 -0.7060 -0.3987  0.3922
  738MPD2     H10961   0.884   2.331  15.046  2.6412  0.2214 -2.0432
  738MPD2    H110962   1.251   2.221  15.230  0.3666 -0.4677 -0.7572
  738MPD2    H210963   0.902   2.093  15.406  2.0315  1.1962  1.8566
  738MPD2    H310964   1.137   2.126  15.403  2.3744  1.7734 -0.9836
  738MPD2     N10965   1.148   2.328  15.009 -0.2961  0.1394  0.1461
  738MPD2    H510966   1.250   2.328  15.011 -0.2764 -1.3128 -0.9700
  738MPD2    N110967   0.724   2.196  15.214  0.2757  0.5712 -0.2307
  738MPD2    H710968   0.671   2.239  15.140  0.3895 -0.8850 -1.1695
  739TMC3    C110969   1.187   2.436  14.801  0.0054  0.3472 -0.2784
  739TMC3    C210970   1.146   2.497  14.690  0.0493 -0.1996  0.2530
  739TMC3    C310971   1.243   2.534  14.601 -0.4665 -0.7304  0.3595
  739TMC3    C410972   1.325   2.434  14.832  0.1383  0.3341  0.1705
  739TMC3    C510973   1.415   2.485  14.749 -0.0720 -0.0572  0.4809
  739TMC3    C610974   1.378   2.529  14.626  0.0647 -0.1967  0.1278
  739TMC3     C10975   1.090   2.389  14.892 -0.1447  0.0503 -0.1925
  739TMC3     O10976   0.972   2.411  14.865  0.5060 -0.4107  0.1232
  739TMC3     H10977   1.043   2.502  14.654 -0.1650 -1.3253  0.7352
  739TMC3    H110978   1.349   2.427  14.938  0.6764 -2.5009 -0.1517
  739TMC3    H210979   1.448   2.575  14.557  0.5216  0.9569  1.3284
  739TMC3    C710980   1.555   2.506  14.789 -0.1344 -0.6974  0.3630
  739TMC3    C810981   1.196   2.556  14.468  0.4106  0.3461 -0.2959
  739TMC3    O110982   1.595   2.440  14.882 -0.2853 -0.8967  0.0556
  739TMC3    O210983   1.079   2.587  14.448 -0.2237  0.2748  0.4035
  740TMC3    C110984   1.465   3.812  14.484 -0.5921 -0.6577 -0.0245
  740TMC3    C210985   1.516   3.731  14.590 -0.0566  0.2260 -0.9385
  740TMC3    C310986   1.655   3.737  14.587 -0.3745  0.8616 -1.0905
  740TMC3    C410987   1.537   3.856  14.375  0.3788 -0.1895  0.3091
  740TMC3    C510988   1.675   3.846  14.376  0.6023 -0.0580 -0.2988
  740TMC3    C610989   1.732   3.782  14.479  0.5157 -0.5064 -0.0915
  740TMC3     C10990   1.340   3.890  14.501 -0.0837 -0.5388  0.3512
  740TMC3     O10991   1.321   3.997  14.438  0.8394  0.1467  0.5211
  740TMC3     H10992   1.465   3.720  14.685 -1.0451  1.8251 -1.2871
  740TMC3    H110993   1.499   3.938  14.315  2.2664  1.3496  1.1956
  740TMC3    H210994   1.840   3.780  14.485  0.4967 -1.1456  0.0634
  740TMC3    C710995   1.755   3.914  14.279  0.1712  0.5401 -0.3498
  740TMC3    C810996   1.725   3.633  14.654 -0.9074  0.1021  0.9199
  740TMC3    O110997   1.870   3.948  14.314  0.0667  0.5096 -0.8639
  740TMC3    O210998   1.843   3.613  14.634  0.5409 -0.0862  0.1693
  741TMC3    C110999   0.833   3.316  14.107  0.2339  0.0043 -0.3614
  741TMC3    C211000   0.757   3.224  14.174 -0.0842  0.3360  0.4139
  741TMC3    C311001   0.816   3.101  14.185  0.0543 -0.6032 -0.3148
  741TMC3    C411002   0.963   3.306  14.070  0.2089 -0.3362  0.4168
  741TMC3    C511003   1.023   3.193  14.110  0.2976 -0.0199  0.4551
  741TMC3    C611004   0.951   3.083  14.153  0.1960 -0.4958 -0.5354
  741TMC3     C11005   0.776   3.449  14.086  0.7999  0.2458  0.2513
  741TMC3     O11006   0.701   3.499  14.166 -0.1446 -0.5549  0.2171
  741TMC3     H11007   0.649   3.232  14.183 -0.0266  2.8518 -1.1385
  741TMC3    H111008   1.022   3.393  14.044  0.3092 -0.3959  0.4446
  741TMC3    H211009   0.999   2.992  14.188 -2.1190 -0.5168  2.6077
  741TMC3    C711010   1.163   3.184  14.102 -0.4782 -1.1111 -0.5698
  741TMC3    C811011   0.729   2.985  14.190  0.9914 -0.0000 -0.9837
  741TMC3    O111012   1.223   3.289  14.079 -0.2652 -0.4263  0.5508
  741TMC3    O211013   0.611   2.998  14.159  0.2500 -0.2641 -0.0964
  742TMC3    C111014   0.942   1.671  15.505 -0.6527  0.1202  0.9553
  742TMC3    C211015   0.826   1.722  15.449 -0.4113  0.4894 -0.1147
  742TMC3    C311016   0.835   1.787  15.330  0.2664  0.2497 -0.7323
  742TMC3    C411017   1.062   1.701  15.450 -0.0830 -1.1929  0.0370
  742TMC3    C511018   1.060   1.757  15.322  0.4626 -0.3272  0.0324
  742TMC3    C611019   0.951   1.798  15.258 -0.5216  0.2631 -0.1181
  742TMC3     C11020   0.929   1.592  15.630  0.5297  0.0809 -0.2660
  742TMC3     O11021   0.815   1.548  15.648  0.4000 -0.3868  0.7919
  742TMC3     H11022   0.749   1.743  15.524 -0.0664  0.3161  0.2883
  742TMC3    H111023   1.151   1.655  15.492  2.5944  0.8360 -3.4111
  742TMC3    H211024   0.963   1.853  15.165  1.8347  2.0902  1.2776
  742TMC3    C711025   1.184   1.763  15.243  0.2569 -0.4134 -0.2103
  742TMC3    C811026   0.720   1.802  15.243 -0.9006  0.0371  0.4452
  742TMC3    O111027   1.167   1.740  15.123  0.1863 -0.3764 -0.1097
  742TMC3    O211028   0.743   1.810  15.122 -0.6410 -0.0294  0.1382
  743MPD2     C11029   4.027   4.100   2.010  0.3318 -0.1343  1.2588
  743MPD2    C111030   4.066   4.054   1.890 -0.3911  0.5455 -0.1158
  743MPD2    C211031   4.202   4.080   1.852 -0.6791  0.3684 -0.7067
  743MPD2    C311032   4.287   4.141   1.944 -0.0446  0.2839 -0.9412
  743MPD2    C411033   4.241   4.178   2.068 -0.1538  0.2266 -0.4751
  743MPD2    C511034   4.108   4.168   2.092  0.5466  0.1847  0.8401
  743MPD2     H11035   4.247   4.061   1.755  0.3790 -0.8034  0.0182
  743MPD2    H111036   4.308   4.225   2.139 -0.8977 -0.2239  0.5380
  743MPD2    H211037   3.927   4.080   2.048  1.1486  0.2686  3.6349
  743MPD2    H311038   4.063   4.201   2.184  1.1055  1.5397  0.6260
  743MPD2     N11039   4.428   4.160   1.913  0.3774 -0.3061 -0.3190
  743MPD2    H511040   4.450   4.112   1.827 -2.5433  2.2209 -2.4900
  743MPD2    N111041   3.976   3.980   1.809 -0.0501  0.1160 -0.4141
  743MPD2    H711042   3.883   3.980   1.851 -1.1233  0.8414 -2.7638
  744TMC3    C111043   3.886   3.877   1.617  0.6127 -0.1575 -0.6752
  744TMC3    C211044   3.759   3.901   1.666 -0.9214  0.2440  0.1080
  744TMC3    C311045   3.652   3.843   1.599  0.2184  0.1547  0.2806
  744TMC3    C411046   3.913   3.798   1.509 -0.1872  0.0353  0.5393
  744TMC3    C511047   3.802   3.751   1.438 -0.1415 -0.2431 -0.0398
  744TMC3    C611048   3.673   3.770   1.483  0.2676  0.6274 -0.7032
  744TMC3     C11049   3.998   3.941   1.679 -0.3811  0.0643  0.1557
  744TMC3     O11050   4.106   3.944   1.615 -0.3902 -0.2332  0.5388
  744TMC3     H11051   3.738   3.984   1.732  0.1810 -0.2839  1.1222
  744TMC3    H111052   4.016   3.790   1.475 -1.2361  0.6943 -2.8102
  744TMC3    H211053   3.591   3.722   1.431 -0.0354  1.4279 -0.9750
  744TMC3    C711054   3.825   3.704   1.298  0.4255 -0.2692 -0.0345
  744TMC3    C811055   3.512   3.879   1.628 -0.7305 -0.6234  0.2063
  744TMC3    O111056   3.941   3.679   1.276 -0.1777  0.4094 -0.7401
  744TMC3    O211057   3.424   3.845   1.551  0.2713 -0.0516 -0.0718
  745TMC3    C111058   1.311   1.061  13.536  0.0111 -0.2365 -0.7325
  745TMC3    C211059   1.198   1.044  13.601  0.1172  0.1123  0.1833
  745TMC3    C311060   1.079   1.028  13.532 -0.3030 -0.6016  0.1167
  745TMC3    C411061   1.323   1.049  13.400  0.2079  0.2226  0.2474
  745TMC3    C511062   1.204   1.022  13.332 -0.2503  0.2583  0.4973
  745TMC3    C611063   1.082   1.020  13.392  0.0195  0.1606 -0.1610
  745TMC3     C11064   1.406   1.148  13.597  0.0801  0.3004  0.7465
  745TMC3     O11065   1.351   1.235  13.668  0.7796  0.0785 -0.4298
  745TMC3     H11066   1.196   1.050  13.709 -0.9801  2.6536  0.0135
  745TMC3    H111067   1.411   1.067  13.340  2.6338 -2.9813  2.9092
  745TMC3    H211068   0.985   1.016  13.344  0.5709  0.7746 -1.3068
  745TMC3    C711069   1.209   1.056  13.192  0.1366 -0.6963  0.3540
  745TMC3    C811070   0.979   1.126  13.566 -0.3570 -0.1364 -0.5404
  745TMC3    O111071   1.157   0.965  13.127 -0.2286  0.6352 -0.5789
  745TMC3    O211072   0.871   1.133  13.508  0.2595  0.2780  0.2154
  746TMC3    C111073   4.033   3.441  10.881  0.7450 -0.6757  0.2349
  746TMC3    C211074   4.121   3.487  10.788  0.3476  0.2816 -0.1456
  746TMC3    C311075   4.094   3.444  10.655  0.5924 -0.6085 -0.0798
  746TMC3    C411076   3.938   3.344  10.849 -0.5412 -0.2588 -0.2996
  746TMC3    C511077   3.931   3.298  10.724 -0.5437  0.0778 -0.0317
  746TMC3    C611078   4.004   3.347  10.622 -0.3653 -0.8706  0.1413
  746TMC3     C11079   3.987   3.546  10.978  0.4234 -0.4273 -0.1474
  746TMC3     O11080   3.867   3.558  10.999 -0.0262 -0.3703  0.5063
  746TMC3     H11081   4.191   3.566  10.811 -0.2967  1.0034 -0.6370
  746TMC3    H111082   3.862   3.325  10.925 -2.1470 -0.2461 -1.8974
  746TMC3    H211083   3.976   3.307  10.525 -0.2153 -0.5461 -0.0341
  746TMC3    C711084   3.819   3.216  10.692 -0.0612  0.1153 -0.9273
  746TMC3    C811085   4.131   3.529  10.544  0.0074  0.1807 -0.3994
  746TMC3    O111086   3.758   3.260  10.598  0.1016 -0.8235  0.0205
  746TMC3    O211087   4.114   3.482  10.434  0.7549  0.2347  0.2187
  747TMC3    C111088   1.590   3.807  11.216 -0.1173  0.0104 -0.6265
  747TMC3    C211089   1.528   3.691  11.251 -0.0513 -0.2050  0.4426
  747TMC3    C311090   1.427   3.689  11.337  0.2051 -0.6595  0.2481
  747TMC3    C411091   1.564   3.924  11.285 -0.1392 -0.0708  0.4481
  747TMC3    C511092   1.470   3.923  11.382 -0.0876 -0.3784  0.1269
  747TMC3    C611093   1.391   3.810  11.397  0.2958 -0.2839  0.2549
  747TMC3     C11094   1.685   3.824  11.102  0.2801 -0.1773 -0.9580
  747TMC3     O11095   1.740   3.929  11.090  0.1352 -0.1326  0.2177
  747TMC3     H11096   1.552   3.600  11.198  0.9581  1.3811 -1.7995
  747TMC3    H111097   1.634   4.005  11.269 -1.4991  0.7577 -1.3821
  747TMC3    H211098   1.315   3.810  11.474  0.5467  0.5059  0.5066
  747TMC3    C711099   1.455   4.037  11.472  0.4447 -0.6687 -0.7776
  747TMC3    C811100   1.352   3.568  11.359 -0.3583  0.4333 -0.4955
  747TMC3    O111101   1.348   4.032  11.529 -0.3291  0.0527 -0.2390
  747TMC3    O211102   1.392   3.467  11.303 -0.0136 -0.5310  0.6752
  748MPD2     C11103   2.947   4.405   1.093 -0.3101  0.2825  0.1325
  748MPD2    C111104   3.035   4.322   1.025 -0.2061 -0.0152  0.1147
  748MPD2    C211105   3.174   4.350   1.023  0.5880  0.0206  0.4670
  748MPD2    C311106   3.220   4.455   1.092  0.6100  0.7957 -0.5378
  748MPD2    C411107   3.133   4.534   1.169 -0.4413 -0.1503 -0.2620
  748MPD2    C511108   3.000   4.502   1.168  0.7547 -0.0055 -0.4907
  748MPD2     H11109   3.248   4.285   0.978 -1.0847 -1.0308 -0.7824
  748MPD2    H111110   3.166   4.615   1.234 -0.9947 -0.0798 -0.0652
  748MPD2    H211111   2.839   4.395   1.103 -0.1741 -0.6767  0.6791
  748MPD2    H311112   2.932   4.563   1.227 -0.4031 -1.0908 -0.6901
  748MPD2     N11113   3.364   4.472   1.102  0.0932  0.5281  0.0060
  748MPD2    H511114   3.433   4.410   1.062 -1.3977 -0.9787 -0.2138
  748MPD2    N111115   2.984   4.209   0.964 -0.0652  0.2832 -0.5607
  748MPD2    H711116   2.884   4.213   0.949 -0.2676 -0.1865  0.6416
  749TMC3    C111117   3.571   4.551   1.194 -0.4037 -1.1674 -0.3606
  749TMC3    C211118   3.643   4.563   1.310  0.0347  0.3071  0.2284
  749TMC3    C311119   3.776   4.589   1.289  0.3122 -0.2417  0.6865
  749TMC3    C411120   3.616   4.563   1.066 -0.0507 -0.0281 -0.6017
  749TMC3    C511121   3.753   4.589   1.056 -0.9337 -0.5543 -0.3591
  749TMC3    C611122   3.830   4.606   1.165  0.0070  0.9354  0.0621
  749TMC3     C11123   3.426   4.545   1.209  0.1682 -0.5468 -0.4783
  749TMC3     O11124   3.388   4.551   1.327 -0.7098 -0.0677  0.7888
  749TMC3     H11125   3.598   4.546   1.408 -1.9964  1.0925 -0.5668
  749TMC3    H111126   3.547   4.577   0.983 -0.8111 -0.6288 -0.0688
  749TMC3    H211127   3.934   4.635   1.160 -0.0217  0.7758 -1.2818
  749TMC3    C711128   3.780   4.693   0.962  0.4516 -0.4573 -0.1328
  749TMC3    C811129   3.863   4.576   1.406 -0.2089 -0.3019  0.0900
  749TMC3    O111130   3.851   0.047   0.998  0.1887 -0.0974  0.1279
  749TMC3    O211131   3.812   4.609   1.512 -0.1216  0.4330 -0.5735
  750MPD2     C11132   3.345   0.725  11.316 -0.1430  0.4864  0.2970
  750MPD2    C111133   3.243   0.632  11.330  0.2655  0.1768  0.3840
  750MPD2    C211134   3.235   0.528  11.238 -1.2616 -0.4746 -0.2006
  750MPD2    C311135   3.318   0.526  11.122  0.2355 -0.2482 -0.4350
  750MPD2    C411136   3.422   0.619  11.113  0.1428  0.8478 -0.4319
  750MPD2    C511137   3.436   0.715  11.210 -0.7467  0.1785 -0.3412
  750MPD2     H11138   3.153   0.458  11.248 -1.6772  0.0169 -0.1182
  750MPD2    H111139   3.508   0.600  11.049 -0.3416 -0.1858 -0.7780
  750MPD2    H211140   3.358   0.803  11.390 -0.8321  2.2820 -1.5052
  750MPD2    H311141   3.520   0.782  11.222  0.8088 -1.5838 -1.5428
  750MPD2     N11142   3.302   0.428  11.017  0.1970 -0.0784  0.0236
  750MPD2    H511143   3.371   0.424  10.943 -1.1406  3.6701 -1.4122
  750MPD2    N111144   3.149   0.644  11.437 -0.0450 -0.1680 -0.3709
  750MPD2    H711145   3.165   0.730  11.488  1.7847 -1.1071  0.6303
  751TMC3    C111146   3.185   0.261  10.884  0.8088  0.3370 -0.4609
  751TMC3    C211147   3.061   0.238  10.837  0.3319 -0.2850  0.2593
  751TMC3    C311148   3.057   0.187  10.709  0.1997 -0.0674  0.0339
  751TMC3    C411149   3.298   0.243  10.817  0.3833  0.3033  0.4907
  751TMC3    C511150   3.283   0.198  10.684 -0.1320  0.0984 -0.1326
  751TMC3    C611151   3.164   0.174  10.623 -0.6196 -0.3743 -0.1966
  751TMC3     C11152   3.185   0.341  11.007 -0.0537 -0.6165 -0.7199
  751TMC3     O11153   3.083   0.330  11.075 -0.0187 -0.6312  0.0325
  751TMC3     H11154   2.971   0.252  10.895  0.9455 -2.7509  1.7792
  751TMC3    H111155   3.399   0.262  10.853 -0.0701 -1.2833  2.6072
  751TMC3    H211156   3.150   0.147  10.519  1.6380  3.1315 -1.4183
  751TMC3    C711157   3.406   0.179  10.613 -0.0513  0.5025 -0.1579
  751TMC3    C811158   2.987   0.063  10.713 -0.5016  0.4922  0.3446
  751TMC3    O111159   3.508   0.206  10.673 -0.2651  0.9579 -1.1831
  751TMC3    O211160   2.971   0.007  10.607  0.3023 -0.0367 -0.5072
  752TMC3    C111161   2.589   0.502  16.489  0.0053 -0.1167  0.5132
  752TMC3    C211162   2.664   0.407  16.439  0.4979 -0.1660  0.5857
  752TMC3    C311163   2.722   0.312  16.517  0.3397 -0.5555 -0.0167
  752TMC3    C411164   2.551   0.498  16.616  0.4223 -0.8238 -0.0424
  752TMC3    C511165   2.585   0.385  16.694 -0.8763  0.7616  0.0206
  752TMC3    C611166   2.676   0.294  16.642  0.2079  0.2958 -0.0495
  752TMC3     C11167   2.544   0.610  16.398  0.2927  0.2884  0.8428
  752TMC3     O11168   2.547   0.588  16.277  0.3438 -0.2118 -0.3119
  752TMC3     H11169   2.708   0.418  16.341  1.6917 -0.8223  1.0491
  752TMC3    H111170   2.467   0.560  16.645  0.1694 -1.3183  0.2730
  752TMC3    H211171   2.680   0.194  16.683  0.5464  0.3860  0.1328
  752TMC3    C711172   2.527   0.370  16.827 -0.3436  0.6810  0.2012
  752TMC3    C811173   2.791   0.204  16.448 -0.1503 -0.0446  0.4112
  752TMC3    O111174   2.443   0.456  16.853  0.0583 -0.3569  0.0415
  752TMC3    O211175   2.812   0.219  16.329  0.1592 -0.0476 -0.4242
  753TMC3    C111176   4.246   1.683  13.365  0.2693 -0.0294 -0.2257
  753TMC3    C211177   4.296   1.610  13.468 -0.2427  0.1438 -0.1646
  753TMC3    C311178   4.225   1.503  13.516  0.7467 -0.8094  0.2961
  753TMC3    C411179   4.149   1.636  13.281  0.3504 -0.4815 -0.5519
  753TMC3    C511180   4.084   1.526  13.332 -0.6883 -0.5562  0.1066
  753TMC3    C611181   4.122   1.457  13.444  0.0856  0.2602  0.0794
  753TMC3     C11182   4.329   1.785  13.310 -0.1924 -0.7661 -0.0309
  753TMC3     O11183   4.386   1.857  13.394 -0.5685  0.1589  0.0785
  753TMC3     H11184   4.382   1.643  13.527 -1.1199 -2.8229  2.7828
  753TMC3    H111185   4.107   1.694  13.199  1.8627 -0.1339 -1.0825
  753TMC3    H211186   4.079   1.360  13.469 -0.2434  0.1988 -0.7315
  753TMC3    C711187   4.020   1.454  13.224  0.4520  0.1920 -0.8122
  753TMC3    C811188   4.282   1.420  13.617 -0.4443 -0.0163 -0.7728
  753TMC3    O111189   3.958   1.528  13.143  0.1789 -0.0833  0.2719
  753TMC3    O211190   4.262   1.300  13.600  0.2884 -0.1474 -0.3735
  754MPD2     C11191   3.381   0.287  12.973 -0.5906  0.4121  0.5369
  754MPD2    C111192   3.360   0.153  12.960  0.3171  0.6305  0.5097
  754MPD2    C211193   3.258   0.114  12.877 -0.1122 -1.1079  0.1248
  754MPD2    C311194   3.171   0.199  12.823 -0.2669  0.2473  0.8633
  754MPD2    C411195   3.194   0.329  12.850  0.4063 -0.8560 -0.1539
  754MPD2    C511196   3.304   0.373  12.908 -0.1561 -0.5697 -0.1467
  754MPD2     H11197   3.257   0.007  12.862 -1.4528 -0.7930 -1.9888
  754MPD2    H111198   3.124   0.404  12.814 -1.0268 -1.9779  0.2661
  754MPD2    H211199   3.459   0.328  13.037 -0.1291  0.2687  0.0664
  754MPD2    H311200   3.312   0.481  12.920  1.4606 -0.4515 -2.4056
  754MPD2     N11201   3.050   0.147  12.765 -0.7134  0.3432  0.0752
  754MPD2    H511202   2.973   0.213  12.758  0.7357  1.8807 -1.4246
  754MPD2    N111203   3.434   0.066  13.046 -0.2490 -0.6999  0.8575
  754MPD2    H711204   3.473   0.094  13.136 -0.8563  1.5834  0.4205
  755MPD2     C11205   2.470   0.504  13.200 -0.7756  0.1030  0.1443
  755MPD2    C111206   2.377   0.435  13.134 -0.0689  0.5171  0.2683
  755MPD2    C211207   2.424   0.333  13.043  0.2852  0.2036  0.2467
  755MPD2    C311208   2.561   0.303  13.036 -0.2195 -1.1119  0.2781
  755MPD2    C411209   2.647   0.370  13.117  0.1758  0.8269  0.6449
  755MPD2    C511210   2.603   0.470  13.192  0.3770  0.4749  0.3992
  755MPD2     H11211   2.356   0.276  12.981  0.7522  0.0791 -0.1544
  755MPD2    H111212   2.753   0.350  13.115 -0.5274 -2.5826 -2.0082
  755MPD2    H211213   2.442   0.594  13.254  1.0367  0.1130  1.0799
  755MPD2    H311214   2.675   0.529  13.247  1.1367  1.9613 -2.1748
  755MPD2     N11215   2.627   0.207  12.957 -0.2656 -0.6295 -0.3745
  755MPD2    H511216   2.727   0.193  12.962 -0.3830 -1.0424  0.9083
  755MPD2    N111217   2.238   0.461  13.151  0.0623  0.0895  0.4663
  755MPD2    H711218   2.178   0.394  13.104 -0.3102  1.4563 -1.0204
  756MPD2     C11219   3.544   1.825   9.941  0.1470  0.2751  0.1489
  756MPD2    C111220   3.449   1.731   9.940  0.3718 -0.4728  0.3512
  756MPD2    C211221   3.350   1.747   9.843  0.5110 -0.0989  0.2209
  756MPD2    C311222   3.358   1.825   9.738 -0.2301  0.6496 -0.4147
  756MPD2    C411223   3.456   1.915   9.736 -0.2960 -0.0993 -0.6820
  756MPD2    C511224   3.545   1.919   9.842 -0.2458  0.2475 -1.0983
  756MPD2     H11225   3.263   1.682   9.854 -0.7914  1.3258 -1.7132
  756MPD2    H111226   3.465   1.995   9.665 -1.3618  0.2541 -0.4125
  756MPD2    H211227   3.623   1.831  10.015  0.3799 -2.2958  0.0876
  756MPD2    H311228   3.620   1.997   9.838 -0.4236  0.4077 -1.2788
  756MPD2     N11229   3.250   1.819   9.647 -0.3593  0.1438 -0.5078
  756MPD2    H511230   3.186   1.740   9.655  0.1958 -0.2801 -0.2090
  756MPD2    N111231   3.440   1.628  10.041 -0.4290  0.3089 -0.7816
  756MPD2    H711232   3.353   1.579  10.055 -1.2432  1.9946  0.0107
  757MPD2     C11233   2.577   1.285   9.738  0.3604 -0.0672  0.4695
  757MPD2    C111234   2.713   1.274   9.755  0.2735 -0.1413  0.3685
  757MPD2    C211235   2.789   1.374   9.694 -0.3026 -0.3116  0.3936
  757MPD2    C311236   2.733   1.476   9.620 -0.7183 -0.1206  0.0786
  757MPD2    C411237   2.594   1.485   9.594  0.2797  0.0893  0.3357
  757MPD2    C511238   2.520   1.394   9.673  0.5286  0.0747 -0.1889
  757MPD2     H11239   2.896   1.359   9.685 -0.2904  0.3627 -0.6419
  757MPD2    H111240   2.539   1.564   9.544 -2.0211 -1.7113  0.0329
  757MPD2    H211241   2.509   1.207   9.770 -1.7927  1.3693 -0.6029
  757MPD2    H311242   2.413   1.391   9.655  0.0541  0.8846  2.4789
  757MPD2     N11243   2.830   1.570   9.570  0.5763  0.6472 -0.2796
  757MPD2    H511244   2.925   1.548   9.597  0.5593  0.4787 -0.3531
  757MPD2    N111245   2.764   1.151   9.795 -0.0194 -0.5314  0.0627
  757MPD2    H711246   2.694   1.087   9.831 -1.2307  0.2592 -0.8890
  758MPD2     C11247   3.628   0.190  15.840 -0.5630  0.4939 -0.0490
  758MPD2    C111248   3.637   0.085  15.932 -0.5551  0.4230 -1.2338
  758MPD2    C211249   3.544   0.072  16.034 -1.2308 -0.2291  0.4469
  758MPD2    C311250   3.434   0.155  16.040 -0.4301 -0.3689  0.2270
  758MPD2    C411251   3.420   0.261  15.953 -0.0914  0.3908 -0.3137
  758MPD2    C511252   3.518   0.275  15.858 -0.0048  0.1818 -0.3108
  758MPD2     H11253   3.557   4.733  16.108  0.9787  0.1353  0.4281
  758MPD2    H111254   3.340   0.333  15.963 -2.0351 -1.6321 -1.2181
  758MPD2    H211255   3.704   0.224  15.771  2.6303 -1.0465  2.7341
  758MPD2    H311256   3.521   0.342  15.773  2.6024  1.2233  0.5873
  758MPD2     N11257   3.350   0.162  16.151 -0.6379  0.3081 -0.2024
  758MPD2    H511258   3.283   0.238  16.159 -0.9115  0.1374 -0.9259
  758MPD2    N111259   3.759   0.014  15.920  0.2602  0.1267 -0.0406
  758MPD2    H711260   3.825   0.046  15.849 -0.0636 -0.7114 -0.7230
  759MPD2     C11261   2.503   2.884  10.301  0.2827  0.1336 -0.6001
  759MPD2    C111262   2.397   2.956  10.343  0.2940  0.1433 -0.3743
  759MPD2    C211263   2.356   3.070  10.267 -0.0622  0.9040 -0.2546
  759MPD2    C311264   2.423   3.101  10.149 -0.0808  0.7453  0.1591
  759MPD2    C411265   2.517   3.013  10.101  0.5575  0.4252 -0.1667
  759MPD2    C511266   2.560   2.919  10.181 -0.1924  1.3957 -0.2719
  759MPD2     H11267   2.285   3.142  10.307 -0.0257 -0.0939  1.6009
  759MPD2    H111268   2.572   3.019  10.007 -0.0198  0.7010 -0.4891
  759MPD2    H211269   2.542   2.793  10.345  1.2291  1.3867  1.1301
  759MPD2    H311270   2.640   2.855  10.146  0.0798  1.3862  0.3697
  759MPD2     N11271   2.391   3.218  10.078 -0.1899  0.0984 -0.0394
  759MPD2    H511272   2.325   3.275  10.131 -1.3819 -1.1223 -0.2128
  759MPD2    N111273   2.334   2.934  10.461  0.7035 -0.1296 -0.3753
  759MPD2    H711274   2.258   2.997  10.487 -0.1748 -1.8413  1.1947
  760MPD2     C11275   1.464   0.112  11.350 -0.2666 -0.3904  0.4369
  760MPD2    C111276   1.562   0.198  11.302 -0.6555 -0.4791  0.0105
  760MPD2    C211277   1.689   0.154  11.280  0.2333 -0.6053  0.0367
  760MPD2    C311278   1.719   0.019  11.296 -0.3917 -0.3424  0.5756
  760MPD2    C411279   1.617   4.671  11.340  0.2481 -0.2818  0.3876
  760MPD2    C511280   1.496   4.718  11.372 -0.6868  0.5510 -0.2404
  760MPD2     H11281   1.763   0.225  11.242 -0.4466  1.3058  2.2977
  760MPD2    H111282   1.632   4.565  11.356 -1.9018 -0.4995  0.9828
  760MPD2    H211283   1.360   0.141  11.365 -1.0370 -2.6014 -0.6927
  760MPD2    H311284   1.430   4.648  11.422  0.9158 -0.2482  0.7463
  760MPD2     N11285   1.847   4.700  11.279  0.1953  0.4547  0.4669
  760MPD2    H511286   1.862   4.615  11.331 -1.2546  0.6720  1.2515
  760MPD2    N111287   1.544   0.339  11.304  0.3980  0.1374 -0.2614
  760MPD2    H711288   1.621   0.393  11.267 -0.3624  1.6262  0.3139
  761MPD2     C11289   2.909   4.358  10.958  0.5885 -0.2988  0.0533
  761MPD2    C111290   2.956   4.381  10.829 -0.0118  0.3851  0.1121
  761MPD2    C211291   2.964   4.516  10.788  0.5753 -0.2322 -0.1920
  761MPD2    C311292   2.930   4.622  10.870  0.2450 -0.1339 -0.4488
  761MPD2    C411293   2.892   4.596  11.002 -0.0748  0.8427 -0.2604
  761MPD2    C511294   2.869   4.461  11.040 -0.0523  0.4994 -0.7933
  761MPD2     H11295   3.009   4.540  10.692  2.0055  1.6486  0.9468
  761MPD2    H111296   2.867   4.676  11.070  1.5543  1.2766 -0.1660
  761MPD2    H211297   2.894   4.257  10.993  2.2152 -0.3558  0.5929
  761MPD2    H311298   2.835   4.446  11.142  0.4058 -1.8878 -0.9855
  761MPD2     N11299   2.959   0.018  10.839 -0.6310  0.6297 -0.2211
  761MPD2    H511300   2.942   0.085  10.914 -1.8418  2.0645 -1.7782
  761MPD2    N111301   2.994   4.268  10.751 -0.0162 -0.2202 -0.3560
  761MPD2    H711302   2.991   4.180  10.802  0.5297  0.6727  1.2243
  762MPD2     C11303   3.589   4.564  10.595 -0.7214 -0.6119  0.4586
  762MPD2    C111304   3.615   4.431  10.621 -0.2624 -0.4446 -0.0536
  762MPD2    C211305   3.748   4.383  10.624  0.4920  0.3421 -0.7821
  762MPD2    C311306   3.853   4.472  10.623 -0.0206  0.4853  0.3168
  762MPD2    C411307   3.821   4.606  10.607 -0.1157  0.2722 -0.3476
  762MPD2    C511308   3.689   4.649  10.597 -0.1394 -0.0517  0.7018
  762MPD2     H11309   3.759   4.278  10.648  0.4210  0.3829 -0.5651
  762MPD2    H111310   3.906   4.672  10.620 -0.7674  0.7563  1.4794
  762MPD2    H211311   3.485   4.587  10.577 -1.1274 -3.3919 -0.7198
  762MPD2    H311312   3.674   0.017  10.586  0.5887  0.1683  1.8550
  762MPD2     N11313   3.982   4.428  10.657 -0.1250  0.2019  0.3815
  762MPD2    H511314   3.992   4.331  10.684 -0.7697 -1.1893 -4.4253
  762MPD2    N111315   3.500   4.357  10.632 -0.4815  0.8617  0.3550
  762MPD2    H711316   3.415   4.406  10.607 -0.8731  0.4869  0.9557
  763MPD2     C11317   0.788   4.507  16.276 -0.3331 -0.0213  0.4027
  763MPD2    C111318   0.656   4.559  16.264 -0.9002  0.4016  0.3298
  763MPD2    C211319   0.627   4.681  16.323 -0.0146  0.0256 -0.3501
  763MPD2    C311320   0.734   0.009  16.392 -0.0103  0.2944 -0.1306
  763MPD2    C411321   0.860   4.694  16.393  0.1427 -0.8852 -0.1996
  763MPD2    C511322   0.882   4.570  16.345 -0.5201  0.0155  0.1466
  763MPD2     H11323   0.531   4.730  16.327  0.1386  0.3278 -0.3639
  763MPD2    H111324   0.939   4.738  16.454  0.6141  0.1291 -1.5483
  763MPD2    H211325   0.814   4.413  16.227 -4.3084 -0.1198 -1.5347
  763MPD2    H311326   0.976   4.518  16.357 -0.3853  0.0538 -0.7429
  763MPD2     N11327   0.719   0.132  16.464  0.3411  0.0558 -0.0768
  763MPD2    H511328   0.802   0.163  16.514  0.5823  2.1130 -1.7480
  763MPD2    N111329   0.559   4.490  16.186 -0.0603 -0.2401  0.3796
  763MPD2    H711330   0.486   4.553  16.156  1.6767  2.9105  2.8100
  764MPD2     C11331   3.245   1.846   0.143  1.1718  0.5034 -0.0160
  764MPD2    C111332   3.111   1.851   0.178  0.4711  0.4483  0.4303
  764MPD2    C211333   3.060   1.747   0.256 -0.2419 -0.1050  0.5810
  764MPD2    C311334   3.143   1.647   0.310 -0.2401  0.7122  0.2205
  764MPD2    C411335   3.280   1.650   0.278 -0.2271 -0.2461  0.6671
  764MPD2    C511336   3.328   1.748   0.200  0.0410  0.6509 -0.5695
  764MPD2     H11337   2.953   1.747   0.278 -0.7567  0.2814 -1.9199
  764MPD2    H111338   3.351   1.572   0.303  1.8277  0.8437 -1.8030
  764MPD2    H211339   3.294   1.928   0.093 -0.2611  0.5862 -1.3007
  764MPD2    H311340   3.430   1.744   0.165  0.5009 -2.1018  1.1092
  764MPD2     N11341   3.076   1.539   0.373 -0.5157 -0.0496 -0.0454
  764MPD2    H511342   2.975   1.542   0.378 -0.5914 -0.7455 -1.0406
  764MPD2    N111343   3.018   1.947   0.122 -0.2550  0.3044  0.4180
  764MPD2    H711344   2.919   1.950   0.146 -0.1591 -0.5223  0.9239
  765MPD2     C11345   3.121   4.291  15.674  0.4477 -0.1250 -0.5784
  765MPD2    C111346   3.166   4.351  15.793  0.0005 -0.4990 -0.2770
  765MPD2    C211347   3.266   4.282  15.860 -0.2194  0.0763  0.0727
  765MPD2    C311348   3.313   4.161  15.810  0.1209  0.1842 -0.3524
  765MPD2    C411349   3.257   4.110  15.702  0.9408 -0.2560 -0.5954
  765MPD2    C511350   3.169   4.176  15.626  0.6834  0.0842 -0.9226
  765MPD2     H11351   3.300   4.322  15.955  0.1610  3.5652 -1.5293
  765MPD2    H111352   3.310   4.030  15.650  0.4344  0.0644 -1.6059
  765MPD2    H211353   3.043   4.343  15.621 -2.0429 -1.7874  1.4568
  765MPD2    H311354   3.130   4.141  15.531 -0.8307 -0.8449  0.0331
  765MPD2     N11355   3.427   4.107  15.875 -0.3669 -0.0900  0.3610
  765MPD2    H511356   3.467   4.162  15.950 -3.1110 -1.0488  2.5071
  765MPD2    N111357   3.099   4.466  15.843 -0.4664 -0.2675 -0.0852
  765MPD2    H711358   3.008   4.488  15.803 -0.1168  0.9891 -0.2046
  766MPD2     C11359   2.471   4.603  15.581 -0.0050 -0.0755  0.7777
  766MPD2    C111360   2.584   4.539  15.632 -0.4541 -0.4457 -0.3040
  766MPD2    C211361   2.652   4.444  15.555  0.1872  0.2207 -1.4073
  766MPD2    C311362   2.606   4.409  15.427 -0.2707  0.6842  0.4059
  766MPD2    C411363   2.480   4.460  15.389  0.7215 -0.6381 -0.8127
  766MPD2    C511364   2.416   4.554  15.463  0.0740  0.3779 -0.5216
  766MPD2     H11365   2.740   4.395  15.595  1.5261  1.1870 -3.1427
  766MPD2    H111366   2.426   4.435  15.298 -0.5430 -1.3967  0.1462
  766MPD2    H211367   2.434   4.683  15.643 -1.1033  0.4089 -0.5113
  766MPD2    H311368   2.319   4.588  15.427 -0.4339  0.2217  0.7090
  766MPD2     N11369   2.665   4.323  15.333  0.4100  0.4370 -0.5052
  766MPD2    H511370   2.617   4.311  15.244 -1.1643  1.4707  0.2110
  766MPD2    N111371   2.637   4.588  15.754 -0.6683 -0.9179  0.4126
  766MPD2    H711372   2.592   4.671  15.790 -0.2149  0.8237 -3.0406
  767MPD2     C11373   2.286   4.563  15.100 -0.0055  0.4375  0.1326
  767MPD2    C111374   2.421   4.551  15.081 -0.6982 -0.5791 -0.3272
  767MPD2    C211375   2.471   4.453  14.997 -0.3492 -0.3577  0.0332
  767MPD2    C311376   2.383   4.379  14.920  0.7042 -0.3333  0.2425
  767MPD2    C411377   2.248   4.390  14.941 -0.0327  0.4127 -0.0071
  767MPD2    C511378   2.203   4.483  15.022  0.5944  0.2389  0.4814
  767MPD2     H11379   2.574   4.431  14.970 -0.2017  0.9966 -0.5184
  767MPD2    H111380   2.173   4.323  14.900 -1.3316  2.1583 -0.5080
  767MPD2    H211381   2.240   4.627  15.174  3.0934  2.4451  0.3360
  767MPD2    H311382   2.096   4.493  15.035  0.3386  0.1940 -1.6915
  767MPD2     N11383   2.427   4.291  14.824 -0.6491 -0.3378 -0.3295
  767MPD2    H511384   2.525   4.269  14.830 -0.4833  0.6097  0.4376
  767MPD2    N111385   2.505   4.650  15.134 -0.3452 -0.0176  1.1617
  767MPD2    H711386   2.458   4.714  15.198 -1.8242 -0.2108  0.2702
  768MPD2     C11387   3.720   3.103  10.139 -0.3542 -0.2417 -0.5868
  768MPD2    C111388   3.668   3.043  10.250 -0.5459 -0.8908  1.1167
  768MPD2    C211389   3.751   3.000  10.353 -0.3852  0.0619  0.4517
  768MPD2    C311390   3.889   2.990  10.328 -0.4135 -0.0420 -0.0036
  768MPD2    C411391   3.933   3.052  10.214 -0.0724  0.0405  1.0427
  768MPD2    C511392   3.859   3.114  10.123 -0.2086  0.1459  0.5987
  768MPD2     H11393   3.706   2.966  10.446 -1.5420 -0.3784 -0.2803
  768MPD2    H111394   4.039   3.045  10.192 -0.5121 -0.0647 -0.9993
  768MPD2    H211395   3.649   3.149  10.071 -1.1315 -0.4865  0.0502
  768MPD2    H311396   3.911   3.156  10.038 -0.8396 -2.2741 -1.0011
  768MPD2     N11397   3.979   2.934  10.428 -0.6110 -0.1338  0.2005
  768MPD2    H511398   4.076   2.959  10.409  0.1121 -1.5163  2.0227
  768MPD2    N111399   3.530   3.038  10.278  0.4826 -0.3707  0.0427
  768MPD2    H711400   3.512   2.969  10.351 -2.4212  0.4467  0.1140
  769MPD2     C11401   4.377   0.844  14.824  0.0828  0.5461  0.2392
  769MPD2    C111402   4.274   0.940  14.805 -0.7082  0.2564  0.7063
  769MPD2    C211403   4.258   1.036  14.896 -0.0971  0.2123 -0.1956
  769MPD2    C311404   4.337   1.040  15.004 -0.4429 -0.1400 -0.5374
  769MPD2    C411405   4.432   0.940  15.035 -0.6418  0.3102  0.4313
  769MPD2    C511406   4.454   0.846  14.941  0.3954  0.1390 -0.2342
  769MPD2     H11407   4.182   1.114  14.895 -0.3045 -0.0094 -1.5383
  769MPD2    H111408   4.486   0.950  15.128 -0.8336  2.3428  0.3215
  769MPD2    H211409   4.398   0.770  14.747 -2.2729  0.6723 -0.5229
  769MPD2    H311410   4.529   0.770  14.954 -0.6859 -1.0119 -0.7561
  769MPD2     N11411   4.311   1.149  15.087  0.0088  0.3349  0.4024
  769MPD2    H511412   4.241   1.216  15.058  1.1346  1.4780  0.3126
  769MPD2    N111413   4.195   0.928  14.684  0.5745  0.2848 -0.0522
  769MPD2    H711414   4.210   0.842  14.632 -0.1694  0.3821 -0.4418
  770MPD2     C11415   3.437   0.477  14.831 -0.0606 -0.3914 -0.2873
  770MPD2    C111416   3.569   0.454  14.811 -0.1338  0.5770 -0.7081
  770MPD2    C211417   3.645   0.552  14.753  0.6250 -0.5856 -0.2386
  770MPD2    C311418   3.595   0.662  14.694 -0.0676  0.6299  0.4956
  770MPD2    C411419   3.453   0.676  14.708 -0.6662  0.1148 -0.3606
  770MPD2    C511420   3.377   0.584  14.775  0.9227 -0.2242  0.9041
  770MPD2     H11421   3.751   0.540  14.732  0.3410 -1.2257 -1.3294
  770MPD2    H111422   3.411   0.760  14.653 -0.9424 -0.8697 -1.6583
  770MPD2    H211423   3.370   0.408  14.880  0.8169  0.1521  1.6856
  770MPD2    H311424   3.270   0.601  14.787  1.5040  2.9676  1.6747
  770MPD2     N11425   3.689   0.744  14.628 -0.1925 -0.0618 -0.4336
  770MPD2    H511426   3.787   0.720  14.642 -0.7827 -0.6456  2.6646
  770MPD2    N111427   3.621   0.332  14.865  0.2355 -0.4006  0.1089
  770MPD2    H711428   3.553   0.265  14.900  0.0036 -0.0600  0.3074
  771MPD2     C11429   0.403   3.438  13.888 -0.8090  0.3273 -0.2630
  771MPD2    C111430   0.320   3.532  13.833 -0.4300 -0.0020  0.0634
  771MPD2    C211431   0.257   3.484  13.717  0.3206  0.3252  0.4387
  771MPD2    C311432   0.278   3.360  13.658 -0.2230 -0.1757  0.0927
  771MPD2    C411433   0.378   3.275  13.707  0.7411  0.2824  0.2508
  771MPD2    C511434   0.435   3.314  13.829  0.3839  0.0169  0.5710
  771MPD2     H11435   0.177   3.541  13.671 -0.1463 -0.6144  0.0800
  771MPD2    H111436   0.406   3.177  13.668 -1.3049  0.5571 -1.9611
  771MPD2    H211437   0.455   3.467  13.979 -1.6510  0.0264  0.3066
  771MPD2    H311438   0.496   3.248  13.890  1.3957 -0.6451 -1.1550
  771MPD2     N11439   0.197   3.332  13.549 -0.3009  0.0686 -0.0736
  771MPD2    H511440   0.122   3.399  13.532 -0.2626  0.0296 -0.4037
  771MPD2    N111441   0.290   3.659  13.883  0.3278  0.0475  0.2809
  771MPD2    H711442   0.221   3.716  13.835 -1.8000 -0.7998  2.3423
  772MPD2     C11443   0.031   4.248  13.626 -0.0448 -0.2591  0.1715
  772MPD2    C111444   4.713   4.163  13.718 -0.5775  0.7944  0.8676
  772MPD2    C211445   4.577   4.150  13.719  0.4252 -0.6674 -0.1172
  772MPD2    C311446   4.494   4.233  13.640  0.0002  0.0929 -0.3537
  772MPD2    C411447   4.555   4.337  13.568 -0.5090  0.2677  0.1121
  772MPD2    C511448   4.696   4.340  13.557 -1.4550 -0.4192  0.1025
  772MPD2     H11449   4.542   4.083  13.796 -2.2714  0.1063 -0.6914
  772MPD2    H111450   4.495   4.410  13.515  1.7731  1.0273 -1.3761
  772MPD2    H211451   0.140   4.251  13.623 -0.1275  2.1671 -0.2041
  772MPD2    H311452   0.004   4.412  13.492 -0.9391  1.2480  2.3134
  772MPD2     N11453   4.352   4.234  13.640  0.2244 -0.0799 -0.4823
  772MPD2    H511454   4.306   4.299  13.578  0.4089  1.6850  1.2341
  772MPD2    N111455   0.042   4.091  13.819 -0.6156  0.4015 -0.2757
  772MPD2    H711456   4.718   4.027  13.867  0.5379 -0.6087 -0.1056
  773MPD2     C11457   4.050   0.585   0.267  0.2885  0.2531  0.4615
  773MPD2    C111458   3.989   0.472   0.207  0.1723 -0.6389  0.8375
  773MPD2    C211459   4.031   0.347   0.255  0.4789 -0.2891 -0.2735
  773MPD2    C311460   4.103   0.345   0.375 -0.1271 -0.6959  0.5645
  773MPD2    C411461   4.161   0.457   0.425 -0.1481  1.3704 -0.0354
  773MPD2    C511462   4.134   0.578   0.373  0.6871  1.0759 -0.2015
  773MPD2     H11463   3.987   0.255   0.218 -1.9293  1.6343 -2.2081
  773MPD2    H111464   4.233   0.451   0.506  0.1443  0.9697 -0.3255
  773MPD2    H211465   4.030   0.680   0.219 -0.4545  0.5863  1.4419
  773MPD2    H311466   4.185   0.665   0.413  1.1191 -0.0058  1.5951
  773MPD2     N11467   4.108   0.227   0.449  0.1966  0.0896 -0.4245
  773MPD2    H511468   4.088   0.142   0.398 -0.0787 -0.2591  0.2601
  773MPD2    N111469   3.891   0.469   0.106 -0.0338 -0.8344 -0.4662
  773MPD2    H711470   3.881   0.382   0.055 -0.1301  0.7337 -3.1130
  774MPD2     C11471   3.356   3.855  13.096  0.4552 -0.8248  0.2261
  774MPD2    C111472   3.355   3.884  13.232  0.0760  0.2368  0.5188
  774MPD2    C211473   3.436   3.986  13.280  0.1348 -0.6245 -0.2736
  774MPD2    C311474   3.509   4.066  13.195  0.3099 -0.0227  0.4304
  774MPD2    C411475   3.506   4.029  13.060 -0.3908 -0.1189  0.4593
  774MPD2    C511476   3.423   3.933  13.008  0.1182 -0.6796  0.2797
  774MPD2     H11477   3.440   4.020  13.383  1.0681 -2.1780  0.1841
  774MPD2    H111478   3.558   4.088  12.985  1.3922 -1.0721  0.9556
  774MPD2    H211479   3.286   3.785  13.051  2.0363 -1.8902 -0.5583
  774MPD2    H311480   3.420   3.927  12.900 -1.2963 -1.7993  0.3905
  774MPD2     N11481   3.570   4.189  13.247 -0.3820 -0.0406  0.3732
  774MPD2    H511482   3.541   4.208  13.342 -2.9759  1.3224 -0.6771
  774MPD2    N111483   3.260   3.821  13.313  0.2533  0.0410  0.2745
  774MPD2    H711484   3.191   3.762  13.268 -0.0299  0.7479 -0.2234
  775MPD2     C11485   3.938   0.901  15.608 -0.0244  0.0970  0.2069
  775MPD2    C111486   3.993   0.985  15.701 -0.3895 -0.1044 -0.7125
  775MPD2    C211487   4.133   0.994  15.715  0.0568 -0.2670 -0.1489
  775MPD2    C311488   4.219   0.937  15.624  0.8820 -0.4558 -0.4753
  775MPD2    C411489   4.165   0.855  15.525 -0.0534 -0.2223 -0.1549
  775MPD2    C511490   4.024   0.836  15.516  0.0806 -0.2687 -0.5881
  775MPD2     H11491   4.165   1.064  15.791 -0.7910  3.3639 -3.2004
  775MPD2    H111492   4.225   0.808  15.448 -0.0510  1.6658 -1.3098
  775MPD2    H211493   3.832   0.877  15.604  0.1752 -0.4236 -1.8161
  775MPD2    H311494   3.977   0.783  15.434 -1.2964  1.2601 -0.7928
  775MPD2     N11495   4.360   0.983  15.618  0.8014 -0.0146  0.7302
  775MPD2    H511496   4.411   0.944  15.539  0.7047 -1.2611  1.2890
  775MPD2    N111497   3.902   1.051  15.779 -0.8184 -0.4693  0.5304
  775MPD2    H711498   3.806   1.032  15.750 -1.0996  1.3015  0.3000
  776MPD2     C11499   2.666   1.075  12.007  0.3106  0.1066  0.3400
  776MPD2    C111500   2.690   1.065  11.873  0.0320 -0.0384 -0.1079
  776MPD2    C211501   2.698   1.186  11.801  0.9224  0.0476  0.8037
  776MPD2    C311502   2.670   1.314  11.859  0.0600  0.4032 -0.4037
  776MPD2    C411503   2.617   1.312  11.987 -0.5623  0.3202  0.8186
  776MPD2    C511504   2.619   1.192  12.053  0.1043  0.2581 -0.5318
  776MPD2     H11505   2.732   1.174  11.698 -0.1886 -0.0695  0.4486
  776MPD2    H111506   2.580   1.401  12.036 -0.2084  0.6871  0.4138
  776MPD2    H211507   2.685   0.991  12.073  0.2777  1.0917  1.5968
  776MPD2    H311508   2.587   1.191  12.157  1.6359  1.9389 -0.0537
  776MPD2     N11509   2.676   1.439  11.787  0.5528  0.1928  0.5810
  776MPD2    H511510   2.655   1.521  11.843  2.1368  0.3000  0.9949
  776MPD2    N111511   2.738   0.940  11.838  0.1763 -0.5386  0.2752
  776MPD2    H711512   2.746   0.874  11.915 -1.0160 -0.6253  0.3344
  777MPD2     C11513   0.112   3.628   0.996 -0.1136 -0.4861 -0.5319
  777MPD2    C111514   0.005   3.710   1.023  0.2452  0.5992 -0.6596
  777MPD2    C211515   4.624   3.688   0.949 -0.2118  0.0773  0.4445
  777MPD2    C311516   4.617   3.584   0.864 -0.9233  0.3525 -0.0911
  777MPD2    C411517   4.726   3.502   0.843  0.0716 -0.2260  0.4280
  777MPD2    C511518   0.105   3.526   0.907 -0.2522 -0.0241  0.9768
  777MPD2     H11519   4.529   3.739   0.959  0.8958  2.5199 -1.6479
  777MPD2    H111520   4.727   3.418   0.774  0.9886 -0.4917  0.7597
  777MPD2    H211521   0.205   3.629   1.051  0.4089  0.2417 -1.4213
  777MPD2    H311522   0.194   3.471   0.879 -2.0505 -1.3810 -2.0388
  777MPD2     N11523   4.500   3.564   0.788 -0.0272  0.3743  0.0727
  777MPD2    H511524   4.419   3.623   0.804 -1.2078 -1.1402 -0.2898
  777MPD2    N111525   0.018   3.818   1.115  0.3070 -0.3270  0.1013
  777MPD2    H711526   0.080   3.808   1.194  0.4607 -0.5640 -0.0479
  778MPD2     C11527   0.309   3.696  15.086  0.2380 -0.1295 -0.0003
  778MPD2    C111528   0.289   3.589  15.000  0.0400 -0.1002 -0.4854
  778MPD2    C211529   0.374   3.577  14.889  0.5692 -0.2643 -0.5451
  778MPD2    C311530   0.479   3.664  14.867  0.9331 -0.9748  0.1311
  778MPD2    C411531   0.501   3.763  14.960 -0.1651  0.2631 -0.8403
  778MPD2    C511532   0.410   3.783  15.064 -0.6721  0.2595  0.7540
  778MPD2     H11533   0.360   3.492  14.823 -3.2039  0.5898 -0.7849
  778MPD2    H111534   0.583   3.833  14.948 -0.3502  0.6890  0.4397
  778MPD2    H211535   0.247   3.713  15.174 -0.0331  2.2020 -0.6582
  778MPD2    H311536   0.405   3.872  15.125  0.3119  1.3834 -0.8454
  778MPD2     N11537   0.569   3.643  14.755  0.3933 -0.0503 -0.0893
  778MPD2    H511538   0.552   3.557  14.705 -2.0957  0.9789 -1.0289
  778MPD2    N111539   0.183   3.496  15.009  0.3848 -0.2196 -0.1464
  778MPD2    H711540   0.161   3.435  14.931  0.1914 -2.0631  1.3310
  779MPD2     C11541   4.418   2.320  14.440 -0.1077  0.2167 -0.1101
  779MPD2    C111542   4.508   2.247  14.368 -0.0018  0.4339 -0.2101
  779MPD2    C211543   4.602   2.315  14.288  0.2535  0.3844  0.1860
  779MPD2    C311544   4.603   2.446  14.275 -0.2465  0.0626 -0.2025
  779MPD2    C411545   4.509   2.524  14.344 -0.2399 -0.0472  0.6771
  779MPD2    C511546   4.418   2.454  14.419  0.4877  0.2130  0.0261
  779MPD2     H11547   4.681   2.266  14.232  1.5643  1.8341  0.7905
  779MPD2    H111548   4.499   2.631  14.337 -0.1069 -0.1784 -1.4201
  779MPD2    H211549   4.335   2.273  14.492 -0.3469  0.2506 -0.4652
  779MPD2    H311550   4.334   2.498  14.472 -1.1357 -1.3990 -1.2091
  779MPD2     N11551   4.688   2.509  14.180  0.0571  0.1686  0.3267
  779MPD2    H511552   0.035   2.463  14.151  0.6863  0.9524  0.9352
  779MPD2    N111553   4.516   2.106  14.385 -0.5535  0.3765 -0.6089
  779MPD2    H711554   4.596   2.061  14.342  0.0484 -0.4829  1.3967
  780MPD2     C11555   0.236   2.531   1.197  0.5204  0.6177 -0.0026
  780MPD2    C111556   0.143   2.478   1.107 -0.1023  0.0152 -0.2723
  780MPD2    C211557   0.167   2.510   0.972 -0.5603  0.1527  0.5500
  780MPD2    C311558   0.264   2.610   0.938 -0.9982 -0.0231 -0.0977
  780MPD2    C411559   0.349   2.661   1.035  0.4559 -0.0570 -0.0012
  780MPD2    C511560   0.342   2.604   1.157 -0.7517  0.0509 -0.2401
  780MPD2     H11561   0.108   2.463   0.895  0.6003  0.6375 -0.6390
  780MPD2    H111562   0.437   2.720   1.015 -0.6330  1.3551 -0.6603
  780MPD2    H211563   0.234   2.496   1.299  3.4956 -1.8311 -0.7867
  780MPD2    H311564   0.416   2.628   1.234 -1.6297 -0.5515  0.7895
  780MPD2     N11565   0.263   2.676   0.811  0.2242 -0.2012  0.0084
  780MPD2    H511566   0.193   2.628   0.755 -0.8946  0.8934  0.4634
  780MPD2    N111567   0.026   2.408   1.158  0.2441  0.2338  0.0034
  780MPD2    H711568   0.027   2.390   1.258  1.0014  0.2811  0.0095
  781MPD2     C11569   0.522   4.363  12.307  0.4012  0.6693 -0.3825
  781MPD2    C111570   0.645   4.305  12.278 -1.2262 -0.5470 -0.0669
  781MPD2    C211571   0.725   4.350  12.179 -0.7154 -0.4580 -0.3848
  781MPD2    C311572   0.690   4.462  12.099 -0.3569 -0.3587  0.7696
  781MPD2    C411573   0.569   4.517  12.130 -0.3363  0.3518  0.2190
  781MPD2    C511574   0.488   4.467  12.226 -0.8984 -0.1856  0.1803
  781MPD2     H11575   0.815   4.290  12.167 -1.2642 -1.4889  0.6774
  781MPD2    H111576   0.543   4.607  12.075 -1.9715 -2.1528 -3.1145
  781MPD2    H211577   0.450   4.337  12.383 -1.0547  2.9084 -0.9880
  781MPD2    H311578   0.395   4.519  12.246 -0.3307  0.1734  1.8838
  781MPD2     N11579   0.773   4.508  11.997 -0.4272 -0.2252  0.2409
  781MPD2    H511580   0.736   4.585  11.942  1.1126  1.7334  1.9271
  781MPD2    N111581   0.694   4.196  12.361 -0.7895  0.5599 -0.5907
  781MPD2    H711582   0.775   4.145  12.328 -1.1930 -0.5039  0.0594
  782MPD2     C11583   3.919   0.902   9.952  0.0921 -0.6025 -1.2092
  782MPD2    C111584   3.945   0.836  10.069  0.1438 -0.0324 -0.0590
  782MPD2    C211585   3.882   0.872  10.184 -0.9081  0.7224  0.7052
  782MPD2    C311586   3.800   0.981  10.193 -0.2937  0.1257 -0.4010
  782MPD2    C411587   3.778   1.055  10.076 -0.7140  0.4011 -0.6868
  782MPD2    C511588   3.837   1.016   9.960  0.4907  0.2638 -0.4524
  782MPD2     H11589   3.897   0.809  10.271  1.2750  0.9526  0.4855
  782MPD2    H111590   3.720   1.145  10.058 -2.1840 -0.4615 -0.3080
  782MPD2    H211591   3.952   0.868   9.855  1.6316 -0.1098 -0.8489
  782MPD2    H311592   3.803   1.071   9.873  0.5966  0.2326 -0.5141
  782MPD2     N11593   3.726   1.025  10.312 -0.3168 -0.2427  0.5374
  782MPD2    H511594   3.654   1.095  10.295  0.4596  0.6869  1.0814
  782MPD2    N111595   4.038   0.729  10.074  0.5592 -0.0166  0.0988
  782MPD2    H711596   4.047   0.674   9.988 -0.6367 -0.8346  0.5037
  783MPD2     C11597   3.449   0.008  10.283  0.3487  0.6829  0.9932
  783MPD2    C111598   3.478   0.089  10.392  0.2211 -0.7206 -0.2705
  783MPD2    C211599   3.595   0.165  10.391  0.1966 -0.4611  0.1373
  783MPD2    C311600   3.684   0.154  10.285  0.3102 -0.1446 -0.1185
  783MPD2    C411601   3.657   0.072  10.185 -0.4263 -0.3924  0.5376
  783MPD2    C511602   3.542   4.736  10.186 -0.6621 -0.3785  0.3690
  783MPD2     H11603   3.611   0.241  10.467 -0.9624 -1.9529  1.8675
  783MPD2    H111604   3.728   0.058  10.104 -0.0521 -0.2009  0.8296
  783MPD2    H211605   3.357   4.691  10.271  0.9877 -0.3445  0.9132
  783MPD2    H311606   3.529   4.657  10.112  0.3070  0.4947 -0.7431
  783MPD2     N11607   3.800   0.228  10.300 -0.0825  0.4215 -0.0738
  783MPD2    H511608   3.801   0.279  10.388  0.1480  1.7416 -0.8431
  783MPD2    N111609   3.388   0.105  10.498  0.7375  0.3448 -0.3959
  783MPD2    H711610   3.298   0.061  10.483  1.2690 -1.5823  2.1091
  784MPD2     C11611   2.494   1.110   0.301  0.4001 -0.1349 -0.5280
  784MPD2    C111612   2.401   1.153   0.386  0.5822  0.0308  0.3280
  784MPD2    C211613   2.268   1.173   0.348 -0.3009 -0.5093 -0.6584
  784MPD2    C311614   2.224   1.159   0.215  0.3687  0.1785 -0.1555
  784MPD2    C411615   2.320   1.120   0.128  0.4013 -0.6631  0.0291
  784MPD2    C511616   2.453   1.100   0.170 -0.5203 -0.8699 -0.1716
  784MPD2     H11617   2.201   1.202   0.428 -2.2048  2.4347 -3.3399
  784MPD2    H111618   2.297   1.110   0.022 -0.8806  0.3435  0.2099
  784MPD2    H211619   2.593   1.078   0.332  0.2858  1.2031  1.2813
  784MPD2    H311620   2.525   1.070   0.095 -1.8481 -3.0714 -0.5697
  784MPD2     N11621   2.087   1.187   0.182 -0.3574 -1.0078  0.3975
  784MPD2    H511622   2.030   1.225   0.257  0.0518 -2.4682  1.4566
  784MPD2    N111623   2.422   1.180   0.524  0.1427 -0.0124 -0.3686
  784MPD2    H711624   2.344   1.218   0.577  1.5146  2.7799 -0.3417
  785MPD2     C11625   2.493   4.303  10.151  0.3638  0.4400 -0.6042
  785MPD2    C111626   2.411   4.286  10.269 -0.2587 -0.7888 -0.1836
  785MPD2    C211627   2.309   4.191  10.276  0.2746  0.2498 -0.4116
  785MPD2    C311628   2.291   4.109  10.169 -0.3201  0.4311 -1.1051
  785MPD2    C411629   2.374   4.116  10.054  0.1580  0.7281 -0.2289
  785MPD2    C511630   2.472   4.212  10.048 -0.1215  0.2545  0.1381
  785MPD2     H11631   2.237   4.195  10.357 -1.6327  0.9639 -2.1628
  785MPD2    H111632   2.376   4.041   9.976 -2.3907  2.0903 -1.5915
  785MPD2    H211633   2.554   4.393  10.144  0.8873  0.1890  0.7137
  785MPD2    H311634   2.546   4.219   9.969  0.7625  0.1575  0.9624
  785MPD2     N11635   2.169   4.037  10.166 -0.1307  0.8345 -0.0030
  785MPD2    H511636   2.105   4.051  10.244 -0.4289  0.4553 -0.1775
  785MPD2    N111637   2.413   4.392  10.369  0.1101  0.4527 -0.4121
  785MPD2    H711638   2.448   4.482  10.338  0.1109  0.8559  0.7758
  786MPD2     C11639   0.253   1.640  15.119  0.2732  0.3726 -0.0213
  786MPD2    C111640   0.372   1.620  15.055 -0.7172  0.2226  0.4186
  786MPD2    C211641   0.485   1.675  15.111  0.2039 -0.5224  0.6533
  786MPD2    C311642   0.482   1.734  15.240  0.1095  0.7518  0.3332
  786MPD2    C411643   0.367   1.745  15.303 -0.4859 -0.5306 -0.0418
  786MPD2    C511644   0.248   1.701  15.241 -0.4906 -0.2914  0.3922
  786MPD2     H11645   0.583   1.657  15.068 -0.4982  0.6164 -1.4213
  786MPD2    H111646   0.363   1.777  15.407  0.7076  0.1886 -0.2125
  786MPD2    H211647   0.157   1.607  15.081 -0.0031 -2.5120  3.2006
  786MPD2    H311648   0.155   1.715  15.295 -0.5003  1.6827 -0.1537
  786MPD2     N11649   0.597   1.777  15.302  0.1640 -0.2505 -0.4781
  786MPD2    H511650   0.585   1.816  15.395  1.0009  1.0742 -0.9283
  786MPD2    N111651   0.384   1.549  14.933 -0.3881 -0.2526  0.3131
  786MPD2    H711652   0.475   1.513  14.906 -0.8434 -0.7809 -0.5090
  787MPD2     C11653   0.493   1.019  15.154  0.0855 -0.1188 -0.0738
  787MPD2    C111654   0.516   0.993  15.015 -0.2812  0.5106 -0.6417
  787MPD2    C211655   0.584   0.884  14.979 -0.1072 -0.1267  0.4924
  787MPD2    C311656   0.616   0.792  15.075 -0.0216  0.4756 -0.4452
  787MPD2    C411657   0.608   0.822  15.210 -1.0138 -0.5097  0.8121
  787MPD2    C511658   0.544   0.939  15.251  0.6125  0.6028 -0.4124
  787MPD2     H11659   0.604   0.866  14.874 -1.8341  0.6972  0.0229
  787MPD2    H111660   0.655   0.772  15.293  0.6850 -2.3564 -1.2453
  787MPD2    H211661   0.436   1.105  15.188 -1.9985 -1.1136 -1.0517
  787MPD2    H311662   0.534   0.962  15.357 -0.6269 -1.1467 -0.1480
  787MPD2     N11663   0.688   0.680  15.037 -0.1214 -0.1392  0.2089
  787MPD2    H511664   0.705   0.680  14.937 -1.4053 -0.5235 -0.0111
  787MPD2    N111665   0.477   1.092  14.932  0.2787 -0.1026 -0.2186
  787MPD2    H711666   0.430   1.166  14.982 -0.8198 -2.2752  1.9757
  788MPD2     C11667   3.292   0.208   0.608 -0.7518  0.0177 -0.4469
  788MPD2    C111668   3.173   0.143   0.579 -0.1003 -0.2166  0.4031
  788MPD2    C211669   3.071   0.207   0.505 -0.0307  0.2241  0.9229
  788MPD2    C311670   3.090   0.335   0.460 -0.5602  0.4777 -0.1127
  788MPD2    C411671   3.210   0.398   0.488  0.3063  0.0954 -0.3764
  788MPD2    C511672   3.313   0.332   0.556 -0.0808  0.9083 -0.1110
  788MPD2     H11673   2.973   0.161   0.492  0.2224  0.5208 -1.9192
  788MPD2    H111674   3.214   0.503   0.463  1.5611 -0.0972 -1.0007
  788MPD2    H211675   3.367   0.164   0.673 -1.2986 -0.0057  0.1669
  788MPD2    H311676   3.408   0.379   0.580 -0.2768  1.3217 -0.1346
  788MPD2     N11677   2.986   0.412   0.408  0.4583 -0.4740 -0.0421
  788MPD2    H511678   3.014   0.508   0.389  2.8077 -0.8899  1.2875
  788MPD2    N111679   3.155   0.007   0.624 -0.4979  0.9221 -0.1087
  788MPD2    H711680   3.078   4.700   0.576  0.6611 -2.5536  1.3741
  789MPD2     C11681   2.662   4.307  16.158 -0.1384  0.6291  0.4598
  789MPD2    C111682   2.558   4.386  16.114 -0.7357 -0.6198  0.0128
  789MPD2    C211683   2.536   4.509  16.177 -0.2644 -0.8653 -0.3934
  789MPD2    C311684   2.617   4.551  16.287 -0.5751 -0.3379 -0.2824
  789MPD2    C411685   2.707   4.462  16.338 -0.8590  0.6187 -0.1294
  789MPD2    C511686   2.737   4.349  16.266 -0.0633 -0.0385 -0.2276
  789MPD2     H11687   2.453   4.572  16.148 -0.4612 -0.2403  1.5230
  789MPD2    H111688   2.759   4.504  16.423  0.5905 -2.6182  0.5880
  789MPD2    H211689   2.682   4.211  16.112 -0.3010 -0.0272  1.7576
  789MPD2    H311690   2.813   4.284  16.307  1.3916  1.3089 -0.7990
  789MPD2     N11691   2.599   4.668  16.361 -0.3081 -0.2312 -0.2506
  789MPD2    H511692   2.640   4.670  16.454 -0.4518  0.3834 -0.2015
  789MPD2    N111693   2.478   4.358  16.002 -0.1330  0.0636  0.3339
  789MPD2    H711694   2.412   4.433  15.985  2.1707  1.4252 -2.5547
  790MPD2     C11695   3.771   1.484  13.593  0.0975 -0.1138  0.4573
  790MPD2    C111696   3.803   1.352  13.550 -0.0083 -0.4170  0.2391
  790MPD2    C211697   3.757   1.308  13.424  0.0642 -0.2054  0.4468
  790MPD2    C311698   3.678   1.391  13.348 -0.5942  0.6721  0.1123
  790MPD2    C411699   3.662   1.521  13.389 -0.2121  0.4292  0.9311
  790MPD2    C511700   3.713   1.568  13.506 -0.6940 -0.0372 -0.6693
  790MPD2     H11701   3.780   1.209  13.387  1.7279  1.3020 -2.5361
  790MPD2    H111702   3.618   1.598  13.326 -0.7094 -0.9577 -0.4244
  790MPD2    H211703   3.816   1.509  13.688  0.4287  2.2948 -0.3298
  790MPD2    H311704   3.687   1.667  13.540 -1.0320  0.0472 -1.1683
  790MPD2     N11705   3.618   1.343  13.232 -0.7096  0.2869  0.0966
  790MPD2    H511706   3.625   1.243  13.213  0.9014  0.5351 -0.6162
  790MPD2    N111707   3.881   1.274  13.632 -0.1281  0.1377  0.2191
  790MPD2    H711708   3.914   1.323  13.715  2.8737 -1.3191 -0.1183
  791MPD2     C11709   2.982   1.148  13.188  0.1103 -0.3164 -0.2482
  791MPD2    C111710   3.041   1.102  13.072 -0.7046  0.2477  0.0255
  791MPD2    C211711   2.972   1.007  12.998  0.3851 -0.3058 -0.2887
  791MPD2    C311712   2.845   0.958  13.035 -0.0531  0.1658  0.0446
  791MPD2    C411713   2.792   1.013  13.149 -0.4149  0.4219 -0.3025
  791MPD2    C511714   2.861   1.106  13.228  0.1603  0.1979 -0.1694
  791MPD2     H11715   3.025   0.962  12.915  0.1361  0.4808 -0.8750
  791MPD2    H111716   2.688   1.005  13.176 -0.1025  0.2419  0.8366
  791MPD2    H211717   3.036   1.215  13.254 -1.9859 -0.9052  2.0444
  791MPD2    H311718   2.817   1.147  13.318 -1.0964  0.1893 -0.7921
  791MPD2     N11719   2.773   0.863  12.954 -0.5314 -0.3108 -0.2971
  791MPD2    H511720   2.826   0.816  12.881  1.6202  1.1828  0.3106
  791MPD2    N111721   3.168   1.161  13.030  0.9371  0.4329  0.0077
  791MPD2    H711722   3.210   1.228  13.093 -2.4015  2.2063  0.3608
  792MPD2     C11723   3.889   1.439  11.620  0.1146 -0.3677  0.2484
  792MPD2    C111724   3.850   1.460  11.487  0.0541  0.1914 -0.1518
  792MPD2    C211725   3.713   1.479  11.462 -0.2659  0.5007  0.1849
  792MPD2    C311726   3.616   1.448  11.555  0.4046  0.1477  0.3113
  792MPD2    C411727   3.655   1.418  11.680 -0.2395  0.2049  0.0651
  792MPD2    C511728   3.788   1.425  11.712  0.5398  0.5383 -0.2900
  792MPD2     H11729   3.681   1.490  11.359  0.2062  0.3296  0.0177
  792MPD2    H111730   3.579   1.410  11.756 -0.5091  0.6621 -0.1511
  792MPD2    H211731   3.992   1.426  11.650 -0.2397 -0.1108  1.5546
  792MPD2    H311732   3.803   1.415  11.819  2.2086  0.5553 -0.5323
  792MPD2     N11733   3.476   1.466  11.533 -0.5872  0.4698 -0.4643
  792MPD2    H511734   3.409   1.429  11.601 -0.3302 -0.0896 -0.5200
  792MPD2    N111735   3.952   1.471  11.385  0.5203 -0.6232  0.1539
  792MPD2    H711736   4.049   1.457  11.412  0.6259  0.4573  0.3149
  793MPD2     C11737   3.057   1.613  10.654 -0.3021 -0.3404  0.1017
  793MPD2    C111738   3.184   1.595  10.706 -0.1220 -0.1191  0.2714
  793MPD2    C211739   3.213   1.604  10.843 -0.8006 -0.1226  0.9340
  793MPD2    C311740   3.109   1.624  10.931  0.1087 -0.2588 -0.4366
  793MPD2    C411741   2.980   1.648  10.877  0.2759 -0.3314 -0.5278
  793MPD2    C511742   2.955   1.642  10.744 -0.7768 -0.0468  0.1914
  793MPD2     H11743   3.312   1.611  10.885 -0.7298  1.1050  0.5751
  793MPD2    H111744   2.890   1.668  10.933  2.2714  0.8612  2.2517
  793MPD2    H211745   3.027   1.601  10.551  1.9070 -1.5134 -0.4102
  793MPD2    H311746   2.857   1.673  10.710 -0.7995  1.0385  1.2959
  793MPD2     N11747   3.138   1.617  11.075  0.2189  0.2154  0.2836
  793MPD2    H511748   3.227   1.583  11.111 -1.1166 -2.7442  0.7843
  793MPD2    N111749   3.286   1.541  10.624  0.8781 -0.0164 -0.4173
  793MPD2    H711750   3.377   1.531  10.668  0.8035  2.8984  0.4275
  794MPD2     C11751   3.140   0.818  17.636 -0.3133  0.6798 -0.4228
  794MPD2    C111752   3.224   0.816  17.529 -0.4398 -0.4088  0.2640
  794MPD2    C211753   3.197   0.894  17.415 -0.2958 -0.4279 -0.0704
  794MPD2    C311754   3.090   0.981  17.415 -0.0492 -0.2610  0.1211
  794MPD2    C411755   3.010   0.982  17.528  0.3030 -0.2847 -0.8281
  794MPD2    C511756   3.029   0.894  17.638  0.2440  0.2856 -0.1781
  794MPD2     H11757   3.259   0.879  17.328 -1.6854 -1.2166 -0.9267
  794MPD2    H111758   2.937   1.062  17.539  0.9394  0.0120  1.1403
  794MPD2    H211759   3.166   0.753  17.719 -1.6648  1.6026  0.7327
  794MPD2    H311760   2.972   0.896  17.730  0.3015  0.5608 -0.1480
  794MPD2     N11761   3.055   1.068  17.315 -0.1860  0.2175 -0.3427
  794MPD2    H511762   2.982   1.131  17.344 -1.1723 -1.5523  1.0565
  794MPD2    N111763   3.343   0.732  17.526  0.0914 -0.4521 -0.1472
  794MPD2    H711764   3.384   0.734  17.434  2.4384  0.0198  0.9091
  795MPD2     C11765   1.393   2.550  13.657  0.8645  0.0365 -0.1027
  795MPD2    C111766   1.321   2.435  13.614 -0.5215 -0.7633  0.6172
  795MPD2    C211767   1.376   2.310  13.629 -0.1673  0.4615  0.7374
  795MPD2    C311768   1.494   2.304  13.697 -0.5070 -0.0454  0.6190
  795MPD2    C411769   1.554   2.413  13.760  0.1299  0.5303 -0.2140
  795MPD2    C511770   1.504   2.539  13.740  1.2700  0.5294  0.3142
  795MPD2     H11771   1.315   2.228  13.593 -3.0696  1.4421  3.3642
  795MPD2    H111772   1.648   2.418  13.815  0.9456 -1.7193 -1.3639
  795MPD2    H211773   1.364   2.650  13.626  3.2378  0.8061  0.1686
  795MPD2    H311774   1.565   2.619  13.779  0.9418  0.2282  1.4529
  795MPD2     N11775   1.575   2.185  13.702 -0.2589  0.5894 -0.3950
  795MPD2    H511776   1.658   2.179  13.761 -1.4351 -2.5129  0.9308
  795MPD2    N111777   1.197   2.446  13.550 -0.4874  0.0522  0.1504
  795MPD2    H711778   1.150   2.363  13.514 -1.2489  1.5267 -2.2947
  796MPD2     C11779   0.809   3.910  15.790  0.4542  0.0613  1.0312
  796MPD2    C111780   0.819   3.965  15.921  0.2428 -0.4814  0.5342
  796MPD2    C211781   0.799   4.099  15.942 -0.5737  0.0557  0.0008
  796MPD2    C311782   0.764   4.173  15.822 -0.3367 -0.2726 -0.3819
  796MPD2    C411783   0.760   4.114  15.697 -0.0823 -0.0980 -0.0147
  796MPD2    C511784   0.788   3.983  15.681 -0.8084 -0.1372 -0.1596
  796MPD2     H11785   0.793   4.148  16.038 -1.4823  2.3640 -1.2250
  796MPD2    H111786   0.728   4.168  15.609  0.9086  1.0683  0.3485
  796MPD2    H211787   0.827   3.804  15.777 -0.5241  0.0829 -0.4837
  796MPD2    H311788   0.777   3.928  15.589 -0.9654 -0.8858  0.3021
  796MPD2     N11789   0.744   4.309  15.842  0.2130  0.1580 -0.3436
  796MPD2    H511790   0.772   4.342  15.934  0.5199  1.8333 -1.0441
  796MPD2    N111791   0.831   3.879  16.033  0.1607  0.2353 -0.1252
  796MPD2    H711792   0.831   3.782  16.004 -0.5364  0.8918 -2.3485
  797MPD2     C11793   2.261   3.450  17.202  0.2624  0.2596  0.6383
  797MPD2    C111794   2.236   3.583  17.198 -0.1995  0.1275  0.1809
  797MPD2    C211795   2.108   3.620  17.186 -0.6160  0.2491  0.2664
  797MPD2    C311796   2.005   3.533  17.175 -0.6334 -0.4666  0.3241
  797MPD2    C411797   2.027   3.401  17.177 -0.2828 -0.2719 -0.2527
  797MPD2    C511798   2.157   3.361  17.193  0.4080 -0.1141 -0.6631
  797MPD2     H11799   2.080   3.724  17.203 -1.1889 -0.0057  0.8792
  797MPD2    H111800   1.953   3.324  17.195  0.8759 -1.1253  0.9489
  797MPD2    H211801   2.362   3.415  17.223  0.4753  0.7003  0.3721
  797MPD2    H311802   2.184   3.259  17.219 -2.3695 -0.0656  2.4529
  797MPD2     N11803   1.877   3.589  17.177  0.1830  0.0140 -0.3830
  797MPD2    H511804   1.877   3.690  17.182  0.2202 -0.0173  0.3002
  797MPD2    N111805   2.333   3.690  17.206  0.2945 -0.1956  0.1250
  797MPD2    H711806   2.296   3.782  17.185 -1.0704 -1.1874 -1.8296
  798MPD2     C11807   1.895   4.261  17.277  0.1221 -0.7503  0.9818
  798MPD2    C111808   1.917   4.129  17.301 -0.0894 -0.0151  0.2617
  798MPD2    C211809   2.046   4.071  17.309  0.0073 -0.8634 -0.3936
  798MPD2    C311810   2.156   4.151  17.308 -0.0908 -0.5691  0.4699
  798MPD2    C411811   2.138   4.292  17.300  0.8923  0.7049  0.4822
  798MPD2    C511812   2.008   4.347  17.287  0.0744 -0.5527  0.6034
  798MPD2     H11813   2.058   3.965  17.328  0.5731 -0.5045  1.2217
  798MPD2    H111814   2.223   4.358  17.289  0.6417  0.9443 -0.0110
  798MPD2    H211815   1.792   4.290  17.258  0.7648  0.1550 -1.1276
  798MPD2    H311816   1.999   4.454  17.279 -1.1816 -0.6138  1.2043
  798MPD2     N11817   2.281   4.083  17.303  0.7756 -0.0545 -0.2962
  798MPD2    H511818   2.278   3.982  17.290  0.8945 -0.6560  4.1218
  798MPD2    N111819   1.805   4.037  17.292  0.3081 -0.0506 -0.5456
  798MPD2    H711820   1.721   4.084  17.259 -1.0157 -2.3501 -0.4759
  799MPD2     C11821   0.462   0.416  14.886  0.7702  0.0653 -0.3402
  799MPD2    C111822   0.439   0.328  14.790 -0.3318 -0.2817 -0.3524
  799MPD2    C211823   0.396   0.368  14.666 -0.8531 -0.2488  0.4743
  799MPD2    C311824   0.384   0.509  14.640  0.2932 -0.0714 -0.0795
  799MPD2    C411825   0.394   0.597  14.744  0.3921  0.3624  0.1961
  799MPD2    C511826   0.444   0.551  14.862  0.0896 -0.0229 -0.2532
  799MPD2     H11827   0.393   0.293  14.589  1.2230  1.3686 -1.1838
  799MPD2    H111828   0.377   0.704  14.740  0.6950  0.3974 -0.1598
  799MPD2    H211829   0.493   0.384  14.985 -0.7430  1.1177  0.4722
  799MPD2    H311830   0.449   0.616  14.948 -1.0510  0.5542 -0.6363
  799MPD2     N11831   0.352   0.565  14.519  0.5561  0.2806  0.3429
  799MPD2    H511832   0.385   0.660  14.506  2.4615 -0.7757 -2.4534
  799MPD2    N111833   0.454   0.186  14.807  0.2966 -0.4706  0.0352
  799MPD2    H711834   0.452   0.131  14.721  1.1923 -2.0851  1.0399
  800MPD2     C11835   0.887   1.565  13.822  0.4402 -0.0313 -0.3960
  800MPD2    C111836   1.022   1.546  13.826  0.3619 -0.2128 -0.4191
  800MPD2    C211837   1.071   1.423  13.777  0.0704 -0.1681  0.0125
  800MPD2    C311838   0.990   1.337  13.697 -0.3955 -1.0169 -0.0170
  800MPD2    C411839   0.852   1.371  13.679  1.0442 -0.1567 -0.9461
  800MPD2    C511840   0.809   1.477  13.753 -0.4115 -0.5028 -0.6208
  800MPD2     H11841   1.166   1.374  13.796  1.5681  2.5006 -0.4910
  800MPD2    H111842   0.787   1.297  13.634  0.2113 -0.1153  0.2056
  800MPD2    H211843   0.836   1.647  13.871 -1.6138 -1.5332  0.0150
  800MPD2    H311844   0.701   1.482  13.745 -0.4676 -0.0499  0.4010
  800MPD2     N11845   1.045   1.225  13.637  0.0203 -0.5302 -0.3443
  800MPD2    H511846   1.146   1.219  13.642  0.0655  1.6622  1.4332
  800MPD2    N111847   1.098   1.641  13.893  0.0715  0.6048  0.2095
  800MPD2    H711848   1.045   1.722  13.923 -1.7049 -1.4632  2.6984
  801MPD2     C11849   1.044   2.198  14.358 -0.4378  0.5099 -0.5322
  801MPD2    C111850   1.008   2.080  14.291  0.1513 -0.0072  0.2216
  801MPD2    C211851   0.871   2.044  14.305  0.0163  0.2241  0.5078
  801MPD2    C311852   0.782   2.136  14.368  0.2889 -0.1086  0.8338
  801MPD2    C411853   0.824   2.249  14.428  0.6461 -0.2397 -0.1674
  801MPD2    C511854   0.959   2.278  14.429 -0.3086  0.5169  0.1179
  801MPD2     H11855   0.838   1.961  14.243  2.3644  1.1152 -1.9396
  801MPD2    H111856   0.760   2.328  14.466  1.6290 -0.5690  2.2175
  801MPD2    H211857   1.148   2.227  14.358  0.7209 -3.5907  1.9970
  801MPD2    H311858   0.996   2.366  14.479  0.3502 -1.0607  2.4207
  801MPD2     N11859   0.637   2.122  14.374 -0.1896 -0.6013  0.4180
  801MPD2    H511860   0.582   2.181  14.434  2.6472  1.0230  1.4092
  801MPD2    N111861   1.094   1.995  14.218 -0.0157  0.6993 -0.5232
  801MPD2    H711862   1.055   1.923  14.158 -1.1570  0.7277  0.1657
  802MPD2     C11863   1.279   3.606   0.278 -0.6008 -0.5319  0.9982
  802MPD2    C111864   1.157   3.548   0.281 -0.9272 -0.0309  0.3932
  802MPD2    C211865   1.147   3.415   0.265 -0.6914  0.0191  1.0225
  802MPD2    C311866   1.255   3.338   0.239  0.0016  0.1727  0.2841
  802MPD2    C411867   1.384   3.395   0.238 -0.3900  0.0276  0.0960
  802MPD2    C511868   1.392   3.532   0.255  0.5339 -0.8644 -0.7082
  802MPD2     H11869   1.051   3.366   0.274 -1.5210  1.7630  1.6717
  802MPD2    H111870   1.475   3.344   0.207  0.7544  2.5218 -0.6586
  802MPD2    H211871   1.288   3.712   0.300 -1.5670 -0.3426  0.4695
  802MPD2    H311872   1.490   3.578   0.247 -0.1467  0.7665  0.1725
  802MPD2     N11873   1.230   3.208   0.193  0.1408 -0.4059  0.5369
  802MPD2    H511874   1.135   3.177   0.209 -1.5791  3.8010 -1.5509
  802MPD2    N111875   1.035   3.621   0.295 -0.0457 -0.3769  0.0436
  802MPD2    H711876   0.954   3.561   0.308 -1.6673  1.8224  0.1391
  803MPD2     C11877   1.210   1.183  12.154  0.4569 -0.0868  0.1038
  803MPD2    C111878   1.320   1.099  12.133  0.1258 -0.5398  0.4720
  803MPD2    C211879   1.359   1.011  12.231 -0.3457  0.3544 -0.3782
  803MPD2    C311880   1.295   1.007  12.353 -0.3448  0.2018 -0.3601
  803MPD2    C411881   1.198   1.100  12.375 -0.0749  0.3026 -0.1902
  803MPD2    C511882   1.147   1.177  12.271  0.7380  0.3609  0.3534
  803MPD2     H11883   1.448   0.953  12.213  0.0429  0.1122  2.3481
  803MPD2    H111884   1.144   1.105  12.468  2.8869 -2.1829  1.6782
  803MPD2    H211885   1.161   1.244  12.080  0.4223 -0.8758 -0.5227
  803MPD2    H311886   1.058   1.239  12.273  1.2000  0.9858  2.5631
  803MPD2     N11887   1.324   0.910  12.459 -0.2654  0.5613  0.3706
  803MPD2    H511888   1.267   0.908  12.542 -1.5044  0.8684 -0.4671
  803MPD2    N111889   1.398   1.096  12.016  0.5595 -0.4452 -0.2841
  803MPD2    H711890   1.491   1.061  12.035  1.3802  2.7037  1.5887
  804MPD2     C11891   1.094   2.296  16.792 -0.0844 -0.9758 -0.2490
  804MPD2    C111892   1.098   2.280  16.928  0.0867 -0.2469 -0.4663
  804MPD2    C211893   1.127   2.389  17.003  0.2135 -0.1178  0.1049
  804MPD2    C311894   1.160   2.517  16.954 -0.3436 -1.0603  0.4102
  804MPD2    C411895   1.151   2.533  16.818 -0.3201  0.1703  0.1515
  804MPD2    C511896   1.121   2.422  16.742  0.5798  0.2305 -0.2232
  804MPD2     H11897   1.131   2.384  17.111 -1.9311  0.1442  0.1916
  804MPD2    H111898   1.159   2.628  16.766 -0.9707  0.5419  0.7403
  804MPD2    H211899   1.069   2.215  16.724  0.8640 -2.4226  1.1122
  804MPD2    H311900   1.113   2.435  16.634 -1.4127  2.5724  0.1884
  804MPD2     N11901   1.204   2.616  17.040 -0.0300  0.1399 -0.2612
  804MPD2    H511902   1.214   2.586  17.136  0.0038 -1.7529 -0.8532
  804MPD2    N111903   1.089   2.153  16.996  0.0357  0.4354  0.0928
  804MPD2    H711904   1.112   2.152  17.095 -3.0157 -0.5210  0.7865
  805MPD2     C11905   0.105   0.772  15.556  0.6377 -0.7494 -0.0953
  805MPD2    C111906   0.195   0.688  15.496  0.6379 -0.3291  0.1164
  805MPD2    C211907   0.329   0.692  15.537  0.3369 -0.3914  0.4221
  805MPD2    C311908   0.372   0.779  15.641  0.5426  0.2353 -1.0373
  805MPD2    C411909   0.277   0.855  15.696  0.4432 -0.3504 -0.4575
  805MPD2    C511910   0.147   0.849  15.661  0.4734  0.1784  0.1154
  805MPD2     H11911   0.412   0.629  15.505 -1.8163 -2.4841 -1.0552
  805MPD2    H111912   0.299   0.924  15.777  0.8758 -0.8770 -0.1270
  805MPD2    H211913   4.738   0.774  15.532  0.3504 -1.8244  1.0755
  805MPD2    H311914   0.085   0.920  15.716  0.0286  1.3899 -1.9466
  805MPD2     N11915   0.507   0.790  15.683 -0.0209 -0.2654 -0.2753
  805MPD2    H511916   0.571   0.719  15.649  1.2068  1.3257 -1.2812
  805MPD2    N111917   0.158   0.605  15.391  0.5552 -0.2799 -0.3114
  805MPD2    H711918   0.223   0.545  15.341  0.4504 -2.8719  2.6398
  806MPD2     C11919   1.671   0.427   1.042 -0.4727 -0.3032 -0.2765
  806MPD2    C111920   1.748   0.504   0.956  0.3241  0.6543 -0.4101
  806MPD2    C211921   1.744   0.476   0.819  0.3404 -0.3636 -0.4023
  806MPD2    C311922   1.679   0.363   0.775  0.5408 -0.4114  0.0616
  806MPD2    C411923   1.617   0.278   0.868 -0.2344  0.8079 -0.0208
  806MPD2    C511924   1.607   0.318   0.998 -0.0859  0.2979  0.4554
  806MPD2     H11925   1.786   0.538   0.741 -0.3320  2.6904  1.6944
  806MPD2    H111926   1.549   0.199   0.838  1.0152  0.1922 -1.2691
  806MPD2    H211927   1.673   0.433   1.150  0.7884  0.6459 -0.3480
  806MPD2    H311928   1.548   0.260   1.067 -1.7699 -0.2828 -1.4530
  806MPD2     N11929   1.684   0.350   0.633 -0.5962 -0.7602  0.2342
  806MPD2    H511930   1.732   0.422   0.580  0.6452 -1.4353  0.4327
  806MPD2    N111931   1.806   0.626   1.004  0.0900  0.1493  0.0416
  806MPD2    H711932   1.779   0.668   1.092  2.7110 -0.9083  1.3447
  807MPD2     C11933   2.071   1.006   1.602 -0.7080 -0.2793  0.1192
  807MPD2    C111934   1.993   0.916   1.530 -0.1842 -0.3241  0.0694
  807MPD2    C211935   1.890   0.844   1.587  0.3200  0.5765  0.5904
  807MPD2    C311936   1.861   0.871   1.720 -0.0482  0.1467 -0.4891
  807MPD2    C411937   1.948   0.945   1.796  0.5495  0.3770 -0.2599
  807MPD2    C511938   2.055   1.009   1.734  0.6317 -0.2193  0.3271
  807MPD2     H11939   1.820   0.779   1.535 -1.3252 -0.7873  4.5009
  807MPD2    H111940   1.927   0.970   1.899  0.1632 -2.0870  0.2631
  807MPD2    H211941   2.148   1.066   1.554 -3.3457  1.1287 -2.3217
  807MPD2    H311942   2.134   1.055   1.792  0.9590 -1.8748  1.1814
  807MPD2     N11943   1.746   0.803   1.771  0.2588  0.1528  0.5463
  807MPD2    H511944   1.682   0.763   1.703 -0.0093  1.6396 -0.0713
  807MPD2    N111945   1.993   0.897   1.390  0.3894  0.1979  0.2424
  807MPD2    H711946   1.929   0.829   1.351 -0.7589  1.2144  0.3418
  808MPD2     C11947   1.160   2.617   9.191 -0.2916  1.1237 -0.1107
  808MPD2    C111948   1.248   2.553   9.275  0.2560  0.4243 -0.5988
  808MPD2    C211949   1.344   2.619   9.355  0.0825 -0.6628  0.5792
  808MPD2    C311950   1.343   2.759   9.342  0.5308 -0.0674  0.1532
  808MPD2    C411951   1.252   2.822   9.271  0.2532 -0.3531  0.3764
  808MPD2    C511952   1.166   2.753   9.199 -0.3285 -0.1470 -0.3132
  808MPD2     H11953   1.413   2.567   9.421 -0.2938 -2.0581 -0.1255
  808MPD2    H111954   1.250   2.930   9.281  1.8763 -0.3235  0.3305
  808MPD2    H211955   1.082   2.567   9.135  0.3578  1.3459 -1.2138
  808MPD2    H311956   1.093   2.805   9.138 -0.4110  0.8145  0.6135
  808MPD2     N11957   1.431   2.838   9.417 -0.1072 -0.3471 -0.1379
  808MPD2    H511958   1.435   2.936   9.391 -0.6715 -1.1171 -3.1329
  808MPD2    N111959   1.237   2.417   9.295 -0.6778  0.2882  0.8924
  808MPD2    H711960   1.312   2.369   9.344  0.5659 -0.7860 -2.0609
  809MPD2     C11961   2.221   3.061   9.039  0.1928 -0.2139 -0.4956
  809MPD2    C111962   2.237   2.972   9.142  0.3869  0.3857 -0.3064
  809MPD2    C211963   2.139   2.960   9.240 -0.1916 -0.0965  0.4665
  809MPD2    C311964   2.038   3.054   9.245  0.2514 -0.9218  0.0011
  809MPD2    C411965   2.026   3.138   9.133 -0.3531  0.3056  0.0850
  809MPD2    C511966   2.114   3.146   9.030  0.8185  0.4274  0.6017
  809MPD2     H11967   2.148   2.882   9.315  0.2964 -0.8156 -0.3383
  809MPD2    H111968   1.945   3.209   9.136 -1.0426 -0.5484  1.7921
  809MPD2    H211969   2.292   3.071   8.958 -1.1238  0.6802 -1.5183
  809MPD2    H311970   2.103   3.219   8.951 -1.3419  0.2819  0.7461
  809MPD2     N11971   1.929   3.049   9.342 -0.2456  0.2428  0.2248
  809MPD2    H511972   1.852   3.112   9.326 -2.6981 -3.1665 -1.3894
  809MPD2    N111973   2.350   2.897   9.165 -0.5730 -0.2456 -0.2794
  809MPD2    H711974   2.345   2.846   9.253 -1.4466  1.2911  0.5604
  810MPD2     C11975   0.946   1.048  10.655  0.5689 -0.4754  0.0472
  810MPD2    C111976   0.854   1.092  10.559 -0.0675  0.1084 -0.4267
  810MPD2    C211977   0.829   1.233  10.548  0.7626 -0.8297  1.1173
  810MPD2    C311978   0.906   1.312  10.625 -1.4823 -0.0536 -0.6788
  810MPD2    C411979   1.006   1.267  10.709 -0.6942  0.1652  0.1100
  810MPD2    C511980   1.008   1.138  10.736  0.4932  0.0134 -0.6585
  810MPD2     H11981   0.760   1.264  10.470  0.6609 -1.5751  0.9043
  810MPD2    H111982   1.067   1.330  10.773 -1.4639  2.2519 -1.1931
  810MPD2    H211983   0.974   0.944  10.671  0.4735 -0.1485  2.2159
  810MPD2    H311984   1.069   1.112  10.822  0.0447 -2.1697 -0.9974
  810MPD2     N11985   0.904   1.451  10.600  0.1166  0.1692 -0.0210
  810MPD2    H511986   0.976   1.502  10.650 -0.7264  2.4700 -1.1683
  810MPD2    N111987   0.791   0.994  10.480  0.2867  0.1263  0.4241
  810MPD2    H711988   0.816   0.897  10.495 -1.1422 -0.3926 -0.4971
  811MPD2     C11989   0.190   1.264  10.100  0.0801 -0.4806  0.4124
  811MPD2    C111990   0.318   1.238  10.148  0.8671  0.0122 -0.5482
  811MPD2    C211991   0.412   1.337  10.145  0.1756 -0.5295 -0.3131
  811MPD2    C311992   0.389   1.454  10.078  0.1864 -0.4363  0.4779
  811MPD2    C411993   0.254   1.483  10.035  1.3042  0.1693  0.0106
  811MPD2    C511994   0.159   1.383  10.042 -0.1624  0.6545 -0.4700
  811MPD2     H11995   0.510   1.317  10.187 -0.0081  0.6669  0.6678
  811MPD2    H111996   0.219   1.569   9.979 -0.5039 -1.0853 -0.7919
  811MPD2    H211997   0.111   1.191  10.091 -1.9787  1.5399  1.9069
  811MPD2    H311998   0.059   1.406  10.007  0.0085  1.1653 -0.6230
  811MPD2     N11999   0.500   1.546  10.060 -0.2473 -0.0436  0.3999
  811MPD2    H512000   0.591   1.525  10.099  0.2158  0.3886 -0.4475
  811MPD2    N112001   0.360   1.133  10.218 -0.0333  0.1236  0.7024
  811MPD2    H712002   0.457   1.132  10.250 -0.5357  0.7072  2.2198
  812MPD2     C12003   3.608   1.367  12.272 -0.2275 -0.0973 -0.1735
  812MPD2    C112004   3.725   1.431  12.245 -0.1866 -0.3846 -0.3001
  812MPD2    C212005   3.829   1.427  12.331 -0.4890  0.2234 -0.5971
  812MPD2    C312006   3.829   1.337  12.440 -0.3568 -0.7439  0.4631
  812MPD2    C412007   3.731   1.241  12.436  0.4576 -0.6607  0.4319
  812MPD2    C512008   3.612   1.269  12.364 -0.4428  0.1531 -0.0147
  812MPD2     H12009   3.910   1.497  12.319  2.1996 -2.8306 -0.3139
  812MPD2    H112010   3.722   1.163  12.511  2.1332 -1.4854 -0.2219
  812MPD2    H212011   3.518   1.382  12.214 -0.0111  1.3717 -0.1360
  812MPD2    H312012   3.520   1.213  12.372 -0.8450  0.9371  0.8321
  812MPD2     N12013   3.939   1.335  12.532  0.1899 -0.6060 -0.4454
  812MPD2    H512014   4.007   1.410  12.518  0.4008 -0.8139 -0.5374
  812MPD2    N112015   3.726   1.521  12.132 -0.0732  0.0423  0.0152
  812MPD2    H712016   3.632   1.541  12.102 -1.4447 -1.0378  3.5153
  813MPD2     C12017   3.895   2.888  12.809  0.0421 -0.0061  0.1996
  813MPD2    C112018   3.894   3.026  12.816 -0.0017  0.3319  0.5321
  813MPD2    C212019   3.819   3.099  12.908 -0.0861  0.4170 -0.4080
  813MPD2    C312020   3.752   3.038  13.009  0.5685  0.0528 -0.1012
  813MPD2    C412021   3.760   2.900  13.009 -0.1555 -0.0365  0.5602
  813MPD2    C512022   3.837   2.830  12.914  0.0112  0.1873  0.2729
  813MPD2     H12023   3.810   3.206  12.897 -1.1617  0.0277 -3.2917
  813MPD2    H112024   3.715   2.832  13.081 -1.8576  1.9668  1.3930
  813MPD2    H212025   3.948   2.832  12.733  0.1893 -0.5236  0.6809
  813MPD2    H312026   3.848   2.722  12.919 -0.8871  0.1049  0.4105
  813MPD2     N12027   3.690   3.108  13.114  0.1164  0.0070 -0.1628
  813MPD2    H512028   3.688   3.209  13.101  0.0595  0.4367  3.2591
  813MPD2    N112029   3.959   3.104  12.723  0.0118 -0.1736 -0.1619
  813MPD2    H712030   3.947   3.204  12.741 -0.5420  0.1179 -2.1209
  814MPD2     C12031   4.275   4.517  12.664 -0.4730  0.3864  0.4378
  814MPD2    C112032   4.185   4.597  12.598 -0.3070 -0.1252  0.0665
  814MPD2    C212033   4.148   4.715  12.661  1.3415 -0.1978  0.1045
  814MPD2    C312034   4.199   0.011  12.782 -0.2502  0.2977 -0.0763
  814MPD2    C412035   4.283   4.673  12.848 -0.3050 -0.2005 -0.4551
  814MPD2    C512036   4.329   4.558  12.780  0.6790  0.4033  0.0731
  814MPD2     H12037   4.072   0.040  12.616  1.2347 -0.3032  0.1330
  814MPD2    H112038   4.326   4.709  12.941  0.1602 -1.9723  0.0207
  814MPD2    H212039   4.298   4.420  12.620  1.6482  0.5280  1.2250
  814MPD2    H312040   4.386   4.485  12.837 -0.0319 -1.4016 -1.5284
  814MPD2     N12041   4.169   0.136  12.842 -0.3751 -0.3740 -0.7655
  814MPD2    H512042   4.207   0.146  12.936  2.3512 -0.4964 -1.8590
  814MPD2    N112043   4.133   4.570  12.468 -0.2308  0.5269  0.4188
  814MPD2    H712044   4.069   4.637  12.427 -2.2011 -1.0824  0.8854
  815MPD2     C12045   4.578   2.608  11.936  0.0227 -0.2593 -0.2762
  815MPD2    C112046   4.555   2.663  11.812 -0.5840  0.1024  0.0949
  815MPD2    C212047   4.424   2.687  11.772 -0.3788 -0.4177  1.0063
  815MPD2    C312048   4.319   2.654  11.857  0.6102  0.0995 -0.6631
  815MPD2    C412049   4.342   2.602  11.979 -0.8034 -0.2390  0.6094
  815MPD2    C512050   4.477   2.580  12.019 -0.2199 -0.3465 -0.5105
  815MPD2     H12051   4.393   2.709  11.670 -0.0509 -0.4513  0.8975
  815MPD2    H112052   4.268   2.560  12.046  0.3365 -3.5772 -0.1976
  815MPD2    H212053   4.676   2.596  11.982 -0.6902  0.4912  1.4332
  815MPD2    H312054   4.503   2.549  12.120 -0.2927  0.6411 -0.1909
  815MPD2     N12055   4.185   2.659  11.802 -0.2726 -0.2974 -0.2059
  815MPD2    H512056   4.169   2.682  11.705  1.0698  1.7278  0.0670
  815MPD2    N112057   4.667   2.701  11.734 -0.5335  0.3440 -0.5354
  815MPD2    H712058   0.019   2.667  11.765 -0.6817  0.1118 -0.3549
  816MPD2     C12059   0.290   2.462  17.458  0.5787 -0.0910  0.4063
  816MPD2    C112060   0.175   2.416  17.407 -0.2028 -0.3561  0.0464
  816MPD2    C212061   0.168   2.299  17.333  0.0836  0.0964  0.4623
  816MPD2    C312062   0.282   2.230  17.316  0.3404 -0.0414  0.0391
  816MPD2    C412063   0.405   2.274  17.358 -0.1320  0.6426  0.2006
  816MPD2    C512064   0.403   2.389  17.432 -0.5601 -0.4758 -0.3959
  816MPD2     H12065   0.074   2.252  17.307 -0.0506  1.0797 -0.8125
  816MPD2    H112066   0.498   2.223  17.340 -0.9675 -1.6921  2.4592
  816MPD2    H212067   0.306   2.551  17.518 -2.5696  0.8478 -0.1621
  816MPD2    H312068   0.497   2.434  17.461 -0.3194 -1.5812  0.5332
  816MPD2     N12069   0.270   2.102  17.247  0.2934  0.7284  0.1574
  816MPD2    H512070   0.184   2.071  17.203 -1.0058  1.2249  2.3617
  816MPD2    N112071   0.065   2.494  17.443  0.0180 -0.6605  0.2729
  816MPD2    H712072   0.083   2.577  17.500 -0.0223 -0.3104 -0.2244
  817MPD2     C12073   0.058   3.894  10.286 -0.6717  0.6705 -0.4325
  817MPD2    C112074   0.158   3.970  10.232  0.5153  0.2244  0.2611
  817MPD2    C212075   0.145   4.105  10.230  0.5624 -0.4251 -0.4602
  817MPD2    C312076   0.039   4.169  10.290  0.3089  0.1939  0.9010
  817MPD2    C412077   4.674   4.093  10.348 -0.0414  0.5701  0.4763
  817MPD2    C512078   4.686   3.952  10.348 -0.2998 -0.6422  0.4227
  817MPD2     H12079   0.226   4.156  10.180  0.4024  0.0734 -0.2196
  817MPD2    H112080   4.591   4.145  10.393  0.0574  1.1734 -0.0397
  817MPD2    H212081   0.071   3.789  10.307 -0.0150  0.3561 -2.4517
  817MPD2    H312082   4.609   3.884  10.382 -0.2570 -1.0025 -0.2015
  817MPD2     N12083   0.026   4.312  10.276 -0.7033  0.1176  0.2740
  817MPD2    H512084   0.107   4.362  10.240 -0.1355  1.0860  2.8427
  817MPD2    N112085   0.279   3.912  10.183  0.3846 -0.1234 -0.2760
  817MPD2    H712086   0.357   3.975  10.163 -0.0091  1.6231  3.5679
  818MPD2     C12087   3.016   3.876   9.761  0.2763  0.0231  0.1165
  818MPD2    C112088   2.973   3.818   9.880 -0.5487  0.0793 -0.4147
  818MPD2    C212089   2.998   3.683   9.897 -0.6218 -0.1413 -0.3022
  818MPD2    C312090   3.053   3.604   9.807  0.1759  0.2610  1.1672
  818MPD2    C412091   3.099   3.657   9.691 -0.1369 -0.3683 -0.8704
  818MPD2    C512092   3.076   3.791   9.665  0.5503  1.2731 -0.3294
  818MPD2     H12093   2.956   3.650   9.991 -1.0156 -1.8961 -1.1072
  818MPD2    H112094   3.141   3.605   9.605 -1.0993  1.4535 -2.4180
  818MPD2    H212095   3.004   3.982   9.744  1.1806 -0.0378 -0.9290
  818MPD2    H312096   3.096   3.828   9.565  0.7963  1.4437 -0.2175
  818MPD2     N12097   3.066   3.467   9.835  0.2890  0.5518  0.1161
  818MPD2    H512098   3.132   3.424   9.771 -0.7381  1.1671 -1.3710
  818MPD2    N112099   2.904   3.893   9.979 -0.0369 -0.3448  0.2479
  818MPD2    H712100   2.878   3.842  10.062  1.7362 -0.0102  0.9936
  819MPD2     C12101   1.016   0.293  15.504 -0.3112 -0.0665  0.1553
  819MPD2    C112102   1.030   0.169  15.560 -0.0817  0.8179  0.8110
  819MPD2    C212103   1.119   0.146  15.661 -0.1567  0.5089  0.5368
  819MPD2    C312104   1.194   0.249  15.713  0.0306 -0.0664 -0.7460
  819MPD2    C412105   1.169   0.377  15.664 -0.2888 -0.6294  0.2080
  819MPD2    C512106   1.080   0.402  15.560 -0.1807  0.2301 -0.5080
  819MPD2     H12107   1.155   0.046  15.682  2.2602  1.1224 -0.6883
  819MPD2    H112108   1.232   0.462  15.688 -0.8425 -0.4926  1.2061
  819MPD2    H212109   0.949   0.309  15.420  0.3301 -1.4305 -0.5989
  819MPD2    H312110   1.067   0.504  15.524  0.4695 -0.2237 -2.0451
  819MPD2     N12111   1.304   0.223  15.794  0.1594 -0.3019  0.5694
  819MPD2    H512112   1.330   0.125  15.801 -1.7970 -0.8251  0.6724
  819MPD2    N112113   0.952   0.062  15.507  0.1652  0.3069 -0.2417
  819MPD2    H712114   0.895   0.089  15.428  1.9838 -3.0918 -2.6958
  820MPD2     C12115   0.140   4.590  15.020  0.2941  0.4957 -0.3504
  820MPD2    C112116   0.191   4.696  15.096 -0.3739  0.2897  0.2100
  820MPD2    C212117   0.298   4.673  15.178  0.0336  0.1743 -0.0911
  820MPD2    C312118   0.357   4.545  15.175 -0.1055  0.7929 -0.1577
  820MPD2    C412119   0.309   4.445  15.100  0.3410 -0.3772  0.5492
  820MPD2    C512120   0.198   4.468  15.029 -0.1644  0.2302  0.0940
  820MPD2     H12121   0.339   0.007  15.247  0.5859 -0.9809  0.7948
  820MPD2    H112122   0.345   4.343  15.100  0.7679 -0.2224  2.1870
  820MPD2    H212123   0.056   4.602  14.952 -0.4374  1.9043  0.8089
  820MPD2    H312124   0.151   4.384  14.979  0.2434 -0.9974  1.7824
  820MPD2     N12125   0.465   4.507  15.257 -0.0214 -0.0180  0.3376
  820MPD2    H512126   0.503   4.414  15.241  2.0756  0.6232  1.5089
  820MPD2    N112127   0.125   0.085  15.072 -0.6134  0.4721  0.6000
  820MPD2    H712128   0.039   0.083  15.019 -1.7807 -1.2271  2.5837
  821MPD2     C12129   1.317   1.172  12.929 -0.9716 -0.5962  0.0899
  821MPD2    C112130   1.302   1.238  13.046  0.0454  0.0576 -0.4060
  821MPD2    C212131   1.356   1.360  13.062 -0.5295 -0.0112 -0.6634
  821MPD2    C312132   1.406   1.430  12.957  0.3256  0.0482 -0.1268
  821MPD2    C412133   1.422   1.360  12.839  0.6983  0.0483 -0.0152
  821MPD2    C512134   1.383   1.232  12.823  0.5228  0.6088  0.3271
  821MPD2     H12135   1.346   1.408  13.158  3.8965  0.2339 -0.3224
  821MPD2    H112136   1.460   1.411  12.751  1.0554 -1.0744 -0.5101
  821MPD2    H212137   1.295   1.067  12.918  0.5632 -0.9714  0.5394
  821MPD2    H312138   1.398   1.187  12.725  0.3764  1.9182 -0.2860
  821MPD2     N12139   1.470   1.558  12.968 -0.2362  0.0803  0.3818
  821MPD2    H512140   1.506   1.590  12.878 -3.4317 -1.3587 -1.3825
  821MPD2    N112141   1.256   1.179  13.167  0.0378 -0.9610  0.3265
  821MPD2    H712142   1.259   1.244  13.245 -0.6180 -2.2038  1.4018
  822MPD2     C12143   2.075   1.894  15.562  0.7278  0.6172  0.2413
  822MPD2    C112144   2.053   1.863  15.695  0.6588 -0.4364 -0.0735
  822MPD2    C212145   1.934   1.903  15.749  0.6370  0.7488 -0.4782
  822MPD2    C312146   1.844   1.985  15.679 -0.6310  1.2113 -0.1820
  822MPD2    C412147   1.871   2.015  15.548 -0.2914  0.4809 -0.3511
  822MPD2    C512148   1.985   1.963  15.489 -0.8091  0.2654 -0.1275
  822MPD2     H12149   1.920   1.888  15.855  1.0880 -1.2132 -0.6948
  822MPD2    H112150   1.800   2.076  15.494 -0.7707 -0.9845 -1.3775
  822MPD2    H212151   2.172   1.879  15.515  0.4535  0.7073 -0.3460
  822MPD2    H312152   2.011   1.983  15.386  0.8308  1.3483  0.5058
  822MPD2     N12153   1.732   2.031  15.751 -0.2229 -0.3693 -0.0502
  822MPD2    H512154   1.702   1.981  15.835 -1.6120  0.2574 -0.1772
  822MPD2    N112155   2.155   1.810  15.778 -0.4946  0.1505 -0.0131
  822MPD2    H712156   2.149   1.826  15.878  0.0537 -0.5443  0.1343
  823MPD2     C12157   1.191   1.934  16.257  0.4369 -0.4368  0.2733
  823MPD2    C112158   1.251   2.061  16.248 -0.4039  0.1656  0.5528
  823MPD2    C212159   1.273   2.140  16.355 -0.1338  0.1394  0.5070
  823MPD2    C312160   1.257   2.084  16.481 -0.0425  1.1201 -0.6235
  823MPD2    C412161   1.193   1.961  16.494  0.7572 -0.4169  0.0282
  823MPD2    C512162   1.148   1.898  16.383  0.2848  0.3212  0.2786
  823MPD2     H12163   1.315   2.238  16.336  0.1513  0.0243  0.5401
  823MPD2    H112164   1.177   1.918  16.592  1.3917 -0.3099  0.1748
  823MPD2    H212165   1.168   1.869  16.173  2.7014 -1.1737  0.2253
  823MPD2    H312166   1.098   1.803  16.398  1.1659 -0.5083 -2.0895
  823MPD2     N12167   1.320   2.134  16.600  0.1836 -0.0630 -0.8879
  823MPD2    H512168   1.301   2.082  16.685 -0.1524  0.3655 -0.7017
  823MPD2    N112169   1.294   2.118  16.127 -0.0752  0.8601 -0.6272
  823MPD2    H712170   1.334   2.211  16.135  1.3563  0.0361  1.9007
  824MPD2     C12171   2.577   1.120  15.963  0.1932 -0.1660 -0.5698
  824MPD2    C112172   2.576   1.208  15.858 -0.2209 -0.5717  0.0469
  824MPD2    C212173   2.593   1.154  15.731 -0.8100  0.5358 -0.3061
  824MPD2    C312174   2.633   1.022  15.712  0.1351 -0.0129  0.6564
  824MPD2    C412175   2.646   0.940  15.826 -0.2691 -0.4458  0.2948
  824MPD2    C512176   2.605   0.988  15.951  0.1692  0.4394 -0.0871
  824MPD2     H12177   2.563   1.210  15.643  0.3505 -0.0506 -1.0645
  824MPD2    H112178   2.666   0.834  15.816  0.1015 -0.4033  0.5952
  824MPD2    H212179   2.570   1.162  16.064  0.3906 -0.8891 -0.2598
  824MPD2    H312180   2.623   0.922  16.035  1.6317 -0.5894 -1.2137
  824MPD2     N12181   2.663   0.983  15.580 -0.1497 -0.1936 -0.1315
  824MPD2    H512182   2.637   1.043  15.503  0.7879  2.2396  1.4374
  824MPD2    N112183   2.562   1.348  15.873 -0.0139  0.5730 -0.1829
  824MPD2    H712184   2.558   1.402  15.787 -1.5583  0.7617  0.0109
  825MPD2     C12185   3.171   1.250  14.975 -0.1256  0.3461  0.2141
  825MPD2    C112186   3.089   1.278  15.079 -0.5290  0.3706  0.2267
  825MPD2    C212187   3.066   1.408  15.123  0.8924  0.3526 -0.1881
  825MPD2    C312188   3.099   1.510  15.039 -0.3083  0.4848  0.2664
  825MPD2    C412189   3.174   1.482  14.923  0.0330 -0.0747 -0.5230
  825MPD2    C512190   3.213   1.351  14.905  0.1482 -0.3540  0.0633
  825MPD2     H12191   3.016   1.440  15.214 -2.0739  1.4266 -2.2027
  825MPD2    H112192   3.210   1.559  14.857  1.0143  0.1236  0.2472
  825MPD2    H212193   3.191   1.152  14.934  3.4671  0.9194  0.5622
  825MPD2    H312194   3.265   1.339  14.810 -1.3464 -1.9867 -0.5604
  825MPD2     N12195   3.070   1.645  15.061 -0.1365 -0.2281  0.3655
  825MPD2    H512196   3.076   1.714  14.987  0.5990 -0.8023 -0.1159
  825MPD2    N112197   3.050   1.158  15.143  0.4515 -0.4555 -0.2476
  825MPD2    H712198   3.088   1.072  15.105  1.1960  0.4908 -1.6351
  826MPD2     C12199   2.859   0.717  13.967  0.3341  0.3897  0.4640
  826MPD2    C112200   2.957   0.816  13.950  0.6865  0.7108 -0.0301
  826MPD2    C212201   2.929   0.944  13.993 -0.5142 -0.6629 -0.4165
  826MPD2    C312202   2.794   0.974  14.042  0.8478 -0.4451 -0.4971
  826MPD2    C412203   2.691   0.875  14.052 -0.2864 -0.0701 -0.4352
  826MPD2    C512204   2.736   0.751  14.020 -0.4647  0.7299 -0.8599
  826MPD2     H12205   2.997   1.028  13.988  1.2434 -2.0933 -0.5021
  826MPD2    H112206   2.592   0.900  14.089 -0.3548  0.5534 -1.0366
  826MPD2    H212207   2.877   0.612  13.951  0.7141  0.5504 -0.1541
  826MPD2    H312208   2.672   0.664  14.033  0.2203  0.2987 -0.3637
  826MPD2     N12209   2.764   1.107  14.072  0.3747 -1.0145 -0.5158
  826MPD2    H512210   2.667   1.138  14.083  0.1928 -1.6839 -0.2792
  826MPD2    N112211   3.077   0.778  13.890 -0.2919 -0.8349  0.2329
  826MPD2    H712212   3.083   0.683  13.856 -1.4111 -1.2675  1.2593
  827MPD2     C12213   4.054   2.458   9.598  0.2302  0.3928 -0.2792
  827MPD2    C112214   3.957   2.428   9.694  1.0138  0.0006  0.2478
  827MPD2    C212215   3.835   2.502   9.697  0.5889 -0.5857  0.3013
  827MPD2    C312216   3.804   2.594   9.599  0.1073  0.1179 -0.4841
  827MPD2    C412217   3.902   2.621   9.504 -0.5365  0.7197 -0.3655
  827MPD2    C512218   4.022   2.553   9.507  1.1770  0.0987  0.2706
  827MPD2     H12219   3.760   2.479   9.771  0.6472  2.2319  1.2130
  827MPD2    H112220   3.876   2.708   9.444 -2.0436  0.5525  0.0513
  827MPD2    H212221   4.152   2.412   9.589 -2.1914 -4.4706 -2.1713
  827MPD2    H312222   4.089   2.578   9.426  1.0473  1.7792  0.6606
  827MPD2     N12223   3.682   2.664   9.607 -0.8772 -0.3707 -0.1319
  827MPD2    H512224   3.638   2.636   9.693 -0.0234  0.3615  0.5447
  827MPD2    N112225   3.996   2.334   9.787 -0.1192  0.0670  0.2897
  827MPD2    H712226   4.085   2.287   9.770 -0.9592 -1.8557  1.2023
  828MPD2     C12227   1.837   2.048  12.565 -0.2739  0.2791  0.1439
  828MPD2    C112228   1.767   2.007  12.456 -0.4936  0.2114 -0.5897
  828MPD2    C212229   1.830   1.960  12.339 -0.0693  0.4514  0.2195
  828MPD2    C312230   1.967   1.961  12.325 -0.5014 -0.1442 -0.1818
  828MPD2    C412231   2.035   2.016  12.433  0.0647 -0.0728 -0.9385
  828MPD2    C512232   1.973   2.039  12.550  0.4198 -0.2819  0.0316
  828MPD2     H12233   1.769   1.925  12.256  0.7242  0.3924 -0.3394
  828MPD2    H112234   2.143   2.013  12.442  0.0858 -1.6559 -1.6953
  828MPD2    H212235   1.787   2.084  12.654  0.3510 -2.2553  1.5186
  828MPD2    H312236   2.022   2.070  12.642 -0.9953  1.0489  0.3519
  828MPD2     N12237   2.037   1.899  12.218  0.0206 -0.3451  0.4521
  828MPD2    H512238   2.137   1.914  12.218  0.3872 -2.7989  0.1295
  828MPD2    N112239   1.623   2.007  12.459 -0.2009  1.6365  0.2071
  828MPD2    H712240   1.580   2.024  12.369 -0.3970 -1.0395 -0.1852
  829MPD2     C12241   1.144   1.996  11.769  0.5925  0.7555 -0.5430
  829MPD2    C112242   1.046   2.007  11.863  0.5963 -0.4714 -0.4958
  829MPD2    C212243   1.083   2.002  11.996 -0.0634 -0.1438 -0.4605
  829MPD2    C312244   1.216   2.002  12.036 -0.1229  0.8385  0.2588
  829MPD2    C412245   1.316   1.987  11.940  0.1689 -0.0294 -0.4950
  829MPD2    C512246   1.276   1.988  11.811 -0.7141 -0.4154 -1.4290
  829MPD2     H12247   1.001   1.996  12.067 -0.7064 -0.8413 -1.2700
  829MPD2    H112248   1.421   1.978  11.963  0.0672  0.0098 -0.0242
  829MPD2    H212249   1.127   2.004  11.663  2.3783 -0.8423 -0.9484
  829MPD2    H312250   1.343   1.991  11.726 -0.1759 -0.3461 -0.9992
  829MPD2     N12251   1.242   2.010  12.176  0.1619 -0.2978 -1.1857
  829MPD2    H512252   1.340   2.016  12.203 -0.5900 -0.8655  1.7043
  829MPD2    N112253   0.916   2.022  11.811  0.0903 -0.0242 -0.7850
  829MPD2    H712254   0.905   2.022  11.710 -1.1236 -2.8823 -0.6507
  830MPD2     C12255   2.082   0.314  15.451  0.1421  1.0713  0.1798
  830MPD2    C112256   1.959   0.262  15.436  0.2320 -0.4168 -0.2721
  830MPD2    C212257   1.895   0.262  15.314 -0.4573 -0.5393 -0.9767
  830MPD2    C312258   1.961   0.324  15.206  0.1733 -0.8445  0.6036
  830MPD2    C412259   2.087   0.367  15.222 -0.3147  0.4510  0.1404
  830MPD2    C512260   2.151   0.355  15.343  0.3287  0.0726 -0.5742
  830MPD2     H12261   1.789   0.241  15.306 -0.0191 -3.1413 -0.0022
  830MPD2    H112262   2.145   0.408  15.140  1.1730 -1.3965  0.2739
  830MPD2    H212263   2.136   0.310  15.545 -2.7596  3.5482  1.9444
  830MPD2    H312264   2.256   0.378  15.358  0.3475 -0.9995  0.9451
  830MPD2     N12265   1.893   0.356  15.093  0.3892 -1.0365 -0.6731
  830MPD2    H512266   1.939   0.426  15.034  1.2351 -0.3880  0.7626
  830MPD2    N112267   1.898   0.230  15.559 -0.0944 -0.1388 -0.5174
  830MPD2    H712268   1.961   0.218  15.638  1.5806  0.0638 -1.8341
  831MPD2     C12269   1.776   2.318  16.147  0.2439 -0.0338 -1.1846
  831MPD2    C112270   1.831   2.229  16.067  0.7488 -0.2144  0.7081
  831MPD2    C212271   1.781   2.102  16.072 -0.3977  0.3725  0.3933
  831MPD2    C312272   1.679   2.065  16.161  0.3466  0.3771  0.1872
  831MPD2    C412273   1.619   2.160  16.234 -0.0731 -0.0081 -1.2003
  831MPD2    C512274   1.678   2.286  16.234 -0.3559  0.1639 -0.0335
  831MPD2     H12275   1.820   2.035  15.996  1.1022 -0.0156  1.5003
  831MPD2    H112276   1.542   2.141  16.308 -0.1891  0.4918 -1.1918
  831MPD2    H212277   1.811   2.420  16.142  2.4894 -0.7509 -0.1559
  831MPD2    H312278   1.624   2.356  16.297  0.2399  0.3806  0.2352
  831MPD2     N12279   1.630   1.935  16.168 -0.3344  0.0399 -0.7028
  831MPD2    H512280   1.567   1.910  16.245  1.0755  1.8341  1.0321
  831MPD2    N112281   1.925   2.269  15.970  0.8906  0.4747  0.1588
  831MPD2    H712282   1.923   2.367  15.943 -0.1476  0.1455 -0.9893
  832MPD2     C12283   0.856   3.204  17.383 -0.5987 -0.6056 -0.2005
  832MPD2    C112284   0.858   3.316  17.307 -0.5174 -0.4847 -0.6853
  832MPD2    C212285   0.750   3.350  17.235 -0.0121  0.3187 -0.4109
  832MPD2    C312286   0.634   3.271  17.235 -0.0790 -0.4544  0.5585
  832MPD2    C412287   0.634   3.160  17.311  0.4043  0.0331 -0.0571
  832MPD2    C512288   0.742   3.126  17.391  0.0285 -0.2499 -0.8050
  832MPD2     H12289   0.750   3.452  17.197  0.6369  0.1871 -0.7700
  832MPD2    H112290   0.538   3.111  17.312  1.1230 -1.3867 -0.2544
  832MPD2    H212291   0.943   3.172  17.438  0.1822 -0.5575 -1.3957
  832MPD2    H312292   0.734   3.029  17.439 -0.0036 -1.4656 -3.2690
  832MPD2     N12293   0.519   3.302  17.157 -0.6411 -0.6268  0.0173
  832MPD2    H512294   0.443   3.236  17.144  0.5776 -2.3209  1.5528
  832MPD2    N112295   0.975   3.400  17.313 -0.2875  0.1175  0.7830
  832MPD2    H712296   1.050   3.371  17.374  1.1658 -1.7734 -1.9249
  833MPD2     C12297   1.812   4.666  12.492 -0.4386 -0.3655 -0.9195
  833MPD2    C112298   1.798   0.049  12.430 -0.5127 -0.4548  0.1260
  833MPD2    C212299   1.910   0.099  12.373  0.2132  0.0174 -0.1919
  833MPD2    C312300   2.026   0.031  12.354 -0.2921  0.1759 -0.4181
  833MPD2    C412301   2.041   4.653  12.416  0.3637 -0.9513  0.3961
  833MPD2    C512302   1.929   4.603  12.477 -0.1727  1.0466  0.2765
  833MPD2     H12303   1.900   0.201  12.338  2.2841  1.5889  3.7874
  833MPD2    H112304   2.132   4.594  12.410  0.5828 -0.4958 -0.7902
  833MPD2    H212305   1.727   4.625  12.546 -0.5067 -1.8883 -2.1897
  833MPD2    H312306   1.943   4.503  12.514  1.2301  1.0053 -0.3613
  833MPD2     N12307   2.138   0.089  12.289  0.1429 -0.0296 -0.4780
  833MPD2    H512308   2.215   0.028  12.264 -0.3852 -0.8851 -0.0268
  833MPD2    N112309   1.669   0.103  12.431  0.3690 -0.8016  0.0647
  833MPD2    H712310   1.605   0.036  12.473  0.5011 -3.0636 -3.3478
  834MPD2     C12311   2.543   4.228  11.749  0.0887  0.4768  0.8561
  834MPD2    C112312   2.509   4.311  11.645  0.2741 -0.7861 -0.3066
  834MPD2    C212313   2.481   4.443  11.672  0.5907  0.1510 -0.2914
  834MPD2    C312314   2.469   4.479  11.804 -0.1729  0.2938  0.2859
  834MPD2    C412315   2.518   4.398  11.908 -0.0643  0.3106 -1.1506
  834MPD2    C512316   2.553   4.269  11.879 -0.4724  0.3216  0.7532
  834MPD2     H12317   2.460   4.512  11.591  0.0978 -0.0655 -0.3424
  834MPD2    H112318   2.527   4.421  12.013 -0.1006  0.3636 -1.1589
  834MPD2    H212319   2.554   4.122  11.729  1.0011  0.9603 -1.1957
  834MPD2    H312320   2.594   4.198  11.950  1.3164 -0.0133 -0.6162
  834MPD2     N12321   2.417   4.607  11.824 -0.2484 -0.0248 -0.5162
  834MPD2    H512322   2.382   4.655  11.742  0.2437  0.3652 -0.5020
  834MPD2    N112323   2.510   4.250  11.521 -0.3033 -0.0926 -0.1921
  834MPD2    H712324   2.527   4.150  11.523  1.2502  0.1482 -1.6274
  835MPD2     C12325   3.039   2.579  11.328 -0.4474 -0.3441  0.4706
  835MPD2    C112326   2.900   2.576  11.335 -0.5554  0.1687 -0.0374
  835MPD2    C212327   2.845   2.479  11.418 -0.1213 -0.4019  0.1478
  835MPD2    C312328   2.921   2.404  11.506 -0.6578 -0.9217  0.9608
  835MPD2    C412329   3.056   2.410  11.487 -0.7404 -0.5379 -0.0351
  835MPD2    C512330   3.110   2.491  11.396  0.4179 -0.1992 -0.0519
  835MPD2     H12331   2.737   2.468  11.425 -0.1223  0.1681  1.0737
  835MPD2    H112332   3.124   2.346  11.542  0.0686  1.3893  1.2061
  835MPD2    H212333   3.087   2.645  11.257  0.4818 -1.9117 -0.3588
  835MPD2    H312334   3.217   2.504  11.387  0.3896 -0.8528 -1.3609
  835MPD2     N12335   2.868   2.318  11.610 -0.5362  0.1014 -0.6944
  835MPD2    H512336   2.937   2.258  11.655 -1.0455 -1.5631 -2.1176
  835MPD2    N112337   2.811   2.667  11.265 -0.2370  0.0332  0.3212
  835MPD2    H712338   2.715   2.652  11.292  0.3088 -0.4971  1.9877
  836MPD2     C12339   2.156   2.051  11.757 -0.7100  0.6747 -0.4048
  836MPD2    C112340   2.220   2.121  11.859 -0.7491  0.8586  0.1141
  836MPD2    C212341   2.138   2.185  11.956  0.5017  0.4062  1.8248
  836MPD2    C312342   1.999   2.171  11.950  0.2196  0.2194 -0.2507
  836MPD2    C412343   1.945   2.099  11.842  0.4791 -0.0083  0.3425
  836MPD2    C512344   2.024   2.048  11.745  0.3256  0.6600  0.0723
  836MPD2     H12345   2.181   2.233  12.043 -1.2164  1.3355  2.1682
  836MPD2    H112346   1.839   2.075  11.834  0.5104 -0.0456  0.0444
  836MPD2    H212347   2.209   2.001  11.676 -0.6829  1.2936 -0.7693
  836MPD2    H312348   1.970   1.999  11.664  0.6374 -1.4145  1.1007
  836MPD2     N12349   1.909   2.217  12.049  0.1746 -0.5802 -0.6349
  836MPD2    H512350   1.811   2.203  12.028  0.2716 -1.0802 -0.7505
  836MPD2    N112351   2.361   2.131  11.859 -0.1251 -0.1111  0.7682
  836MPD2    H712352   2.415   2.097  11.780 -0.2307 -0.4174  0.8262
  837MPD2     C12353   1.096   1.931  10.361 -0.7171 -0.0028 -0.8158
  837MPD2    C112354   1.018   1.999  10.275  0.1871 -0.5654 -0.5727
  837MPD2    C212355   1.014   2.141  10.272 -0.6402 -0.7732 -0.2361
  837MPD2    C312356   1.113   2.211  10.339  0.4545  0.6372  1.4328
  837MPD2    C412357   1.195   2.141  10.427  0.9361  0.1456 -0.1914
  837MPD2    C512358   1.183   2.002  10.438 -0.7896 -0.1192  0.2188
  837MPD2     H12359   0.938   2.187  10.211 -2.1423  2.5481  4.0914
  837MPD2    H112360   1.266   2.190  10.492  1.8600 -0.7943 -0.5002
  837MPD2    H212361   1.098   1.823  10.367  1.4885 -0.0254 -1.9409
  837MPD2    H312362   1.244   1.947  10.508  0.2031 -0.1395 -0.6659
  837MPD2     N12363   1.121   2.349  10.316 -0.2810  0.0926  0.0657
  837MPD2    H512364   1.041   2.393  10.272  0.2526 -0.5156 -1.4887
  837MPD2    N112365   0.930   1.925  10.186  0.6925 -0.5347 -0.1817
  837MPD2    H712366   0.871   1.994  10.142  1.8023  0.9013  0.5873
  838MPD2     C12367   3.351   4.430  11.022 -0.3720 -0.2897  0.5613
  838MPD2    C112368   3.299   4.533  11.095  0.5050  0.0978 -0.0912
  838MPD2    C212369   3.195   4.515  11.189 -0.4271 -0.1677 -0.2648
  838MPD2    C312370   3.146   4.388  11.205  0.3146  0.6464  0.0441
  838MPD2    C412371   3.194   4.282  11.135  0.2281 -0.2593  0.5856
  838MPD2    C512372   3.298   4.308  11.050  0.3101  0.1880  0.2961
  838MPD2     H12373   3.162   4.593  11.256 -1.1789 -0.3123 -0.4699
  838MPD2    H112374   3.150   4.183  11.136  0.4897 -0.3632  1.3199
  838MPD2    H212375   3.434   4.430  10.952  0.0779  0.8904  1.1023
  838MPD2    H312376   3.348   4.229  10.996 -1.1825  0.1855 -1.0540
  838MPD2     N12377   3.048   4.379  11.310 -0.2572  0.2232 -0.3516
  838MPD2    H512378   3.053   4.449  11.383  0.2112 -0.0697 -0.1064
  838MPD2    N112379   3.337   4.667  11.082 -0.1922 -0.0833  0.1033
  838MPD2    H712380   3.296   4.726  11.153 -1.2616  0.7200 -1.1877
  839MPD2     C12381   3.234   4.471  11.540 -0.0694  0.4001 -0.2393
  839MPD2    C112382   3.359   4.457  11.482 -0.3401 -0.6923  0.0268
  839MPD2    C212383   3.437   4.564  11.443 -0.0769 -0.0128  0.5581
  839MPD2    C312384   3.386   4.690  11.457  0.0648  0.0696  0.0565
  839MPD2    C412385   3.267   4.706  11.517 -0.0730 -0.6430 -0.0877
  839MPD2    C512386   3.196   4.602  11.570  1.1989  1.1541 -0.1748
  839MPD2     H12387   3.534   4.556  11.396  1.2763  2.6244  2.8906
  839MPD2    H112388   3.216   0.059  11.544  2.2366  0.9405 -1.1930
  839MPD2    H212389   3.166   4.398  11.582 -1.2786  2.9135  2.1951
  839MPD2    H312390   3.102   4.618  11.621  2.0900  1.9768  1.2056
  839MPD2     N12391   3.461   0.064  11.418 -0.0257  0.0651  0.1540
  839MPD2    H512392   3.414   0.154  11.417  1.0581  0.6333  0.2439
  839MPD2    N112393   3.415   4.324  11.454 -0.0891  0.1067  0.1042
  839MPD2    H712394   3.511   4.315  11.425  0.1266 -1.4476  1.2800
  840MPD2     C12395   4.635   2.204   9.905  0.3163  0.2533  0.9226
  840MPD2    C112396   4.550   2.252  10.004 -0.1653  0.6324 -0.7630
  840MPD2    C212397   4.600   2.351  10.085  0.0369  0.4932 -0.0393
  840MPD2    C312398   4.726   2.394  10.061  0.0012  0.3383  0.3185
  840MPD2    C412399   0.073   2.330   9.977 -1.0473  0.1064  0.0305
  840MPD2    C512400   0.024   2.238   9.897  0.5053 -0.4137  0.2551
  840MPD2     H12401   4.544   2.396  10.167 -0.8180 -1.2404  0.3231
  840MPD2    H112402   0.173   2.366   9.957 -1.2554 -0.1471 -1.4315
  840MPD2    H212403   4.589   2.133   9.838 -0.1265  0.8124  0.6346
  840MPD2    H312404   0.075   2.196   9.811  0.0434 -2.0782  0.8051
  840MPD2     N12405   0.056   2.502  10.130  0.1520  0.5931 -0.5255
  840MPD2    H512406   0.157   2.514  10.122  0.3074 -0.0215  0.4769
  840MPD2    N112407   4.424   2.195  10.015 -0.4321 -0.4868  0.1571
  840MPD2    H712408   4.393   2.116   9.960 -0.0144 -0.9396  0.5790
  841MPD2     C12409   3.648   2.024  14.977  0.0389 -0.1132  0.4115
  841MPD2    C112410   3.734   1.913  14.988  0.3179  0.4025 -0.4517
  841MPD2    C212411   3.863   1.947  15.036 -0.1998 -0.0214  0.4315
  841MPD2    C312412   3.902   2.073  15.063  0.1096 -0.0385  0.0542
  841MPD2    C412413   3.814   2.178  15.045 -0.7572  0.2747 -0.3624
  841MPD2    C512414   3.686   2.150  15.007 -0.0089 -0.2120  0.2419
  841MPD2     H12415   3.951   1.883  15.040 -2.3092 -2.9568  0.3084
  841MPD2    H112416   3.838   2.283  15.053  1.1925 -0.2143  0.2363
  841MPD2    H212417   3.545   2.010  14.947  0.6612 -3.3693 -0.3014
  841MPD2    H312418   3.616   2.231  14.987 -0.8671 -1.1830 -0.7225
  841MPD2     N12419   4.038   2.097  15.094 -0.0425 -0.4874 -0.0784
  841MPD2    H512420   4.088   2.013  15.122  0.8838  0.7750  1.9670
  841MPD2    N112421   3.702   1.779  14.953 -0.2413  0.2129  0.7840
  841MPD2    H712422   3.782   1.717  14.958 -1.9238 -1.9594  0.4366
  842MPD2     C12423   0.213   3.717  16.857 -0.4895 -0.8308 -0.1954
  842MPD2    C112424   0.113   3.669  16.943 -0.1316  1.0035 -0.7370
  842MPD2    C212425   0.132   3.660  17.081  0.0832 -0.0109 -0.3539
  842MPD2    C312426   0.256   3.701  17.133 -0.5177 -0.4599  0.0661
  842MPD2    C412427   0.348   3.758  17.047  0.2325 -0.0044  0.0676
  842MPD2    C512428   0.328   3.772  16.912  0.0165  0.1524 -0.2540
  842MPD2     H12429   0.057   3.614  17.145  1.6253 -1.2311  0.5745
  842MPD2    H112430   0.443   3.782  17.093 -0.1185 -1.5249  1.5914
  842MPD2    H212431   0.194   3.735  16.752 -0.2588 -0.8057 -0.2326
  842MPD2    H312432   0.398   3.826  16.850 -2.3565  2.9356 -0.5228
  842MPD2     N12433   0.280   3.709  17.274 -0.4210 -0.4543 -0.1453
  842MPD2    H512434   0.349   3.779  17.298  0.1486 -1.2911  0.6466
  842MPD2    N112435   4.734   3.642  16.870  0.1800  0.2344 -0.2705
  842MPD2    H712436   4.726   3.665  16.771 -1.4340 -0.8438 -0.3838
  843MPD2     C12437   2.319   3.515   0.364  0.3630  0.2124  0.4601
  843MPD2    C112438   2.419   3.552   0.448  0.6228  1.2721 -1.0440
  843MPD2    C212439   2.502   3.661   0.417  0.0660  0.1817  0.5383
  843MPD2    C312440   2.482   3.737   0.302 -0.3249 -0.0584 -0.0036
  843MPD2    C412441   2.379   3.699   0.218 -0.2913  0.7745  0.1344
  843MPD2    C512442   2.301   3.589   0.251  0.3646  0.5794 -0.4737
  843MPD2     H12443   2.569   3.701   0.493  0.5300  1.5164 -0.5695
  843MPD2    H112444   2.349   3.760   0.133  2.1721 -0.1476 -1.3997
  843MPD2    H212445   2.251   3.434   0.389  0.8847 -0.3425  0.0810
  843MPD2    H312446   2.215   3.562   0.192 -1.2474 -0.5477  2.3597
  843MPD2     N12447   2.563   3.841   0.263  0.4661  0.0159 -0.3115
  843MPD2    H512448   2.525   3.882   0.178  2.5936  0.6361 -0.9580
  843MPD2    N112449   2.426   3.485   0.569 -0.1765 -0.2748  0.4219
  843MPD2    H712450   2.354   3.414   0.580  1.7893 -2.3164  0.1235
  844MPD2     C12451   0.039   2.784  16.797 -0.2707 -0.1358 -0.3461
  844MPD2    C112452   0.107   2.790  16.676 -0.4588  0.4277  0.0428
  844MPD2    C212453   0.215   2.879  16.673  0.4768 -0.2514 -0.0167
  844MPD2    C312454   0.274   2.936  16.785 -0.4879 -0.2357 -0.2354
  844MPD2    C412455   0.211   2.918  16.908 -0.6589  0.4181 -0.0807
  844MPD2    C512456   0.093   2.851  16.908 -0.2016 -0.3867  0.5390
  844MPD2     H12457   0.260   2.890  16.575  0.2507  0.5623 -0.0266
  844MPD2    H112458   0.252   2.966  16.996  0.3668  0.3573 -0.5354
  844MPD2    H212459   4.692   2.716  16.800 -0.5786  0.4023  3.1436
  844MPD2    H312460   0.042   2.843  17.004  1.2889 -0.9070  1.2911
  844MPD2     N12461   0.402   2.998  16.775  0.1889  0.0416  0.3998
  844MPD2    H512462   0.444   2.992  16.683  0.7347 -1.7473  0.7683
  844MPD2    N112463   0.080   2.716  16.556 -0.1377 -0.2830  0.5458
  844MPD2    H712464   0.150   2.734  16.485 -1.0166 -1.2736 -0.5715
  845MPD2     C12465   0.732   3.929  16.735  0.3522  0.3953 -0.1660
  845MPD2    C112466   0.764   3.887  16.858 -0.2232 -0.4406 -0.1758
  845MPD2    C212467   0.767   3.749  16.878 -0.4308  0.2266  0.0922
  845MPD2    C312468   0.738   3.656  16.783  0.0571 -0.2339 -0.1816
  845MPD2    C412469   0.703   3.707  16.658  0.5160  0.2702  0.8385
  845MPD2    C512470   0.692   3.839  16.642  0.1324  0.0159  0.1674
  845MPD2     H12471   0.801   3.710  16.973 -0.3161  0.0882 -0.0061
  845MPD2    H112472   0.671   3.649  16.572 -1.4844  1.4818  0.7633
  845MPD2    H212473   0.710   4.035  16.728 -0.9927  0.2420  1.6727
  845MPD2    H312474   0.656   3.874  16.546 -3.3793  1.9089  2.1807
  845MPD2     N12475   0.738   3.521  16.824 -0.6841  0.0873 -0.9317
  845MPD2    H512476   0.738   3.496  16.922  1.7929  0.4151 -0.8473
  845MPD2    N112477   0.797   3.991  16.953  0.0726  0.2624  0.3415
  845MPD2    H712478   0.783   4.084  16.917 -2.1731 -0.6014 -1.0612
  846MPD2     C12479   1.839   4.108  13.819 -0.4842  0.3498  0.3832
  846MPD2    C112480   1.713   4.047  13.817  0.0676  0.1016 -0.5159
  846MPD2    C212481   1.675   3.978  13.924  0.4490  0.4873  0.1153
  846MPD2    C312482   1.752   3.981  14.041 -1.0805  0.3703 -0.3395
  846MPD2    C412483   1.877   4.032  14.044 -0.2219  0.1949  0.1755
  846MPD2    C512484   1.922   4.098  13.930 -0.7186 -0.0713  0.0367
  846MPD2     H12485   1.580   3.926  13.931  0.3792  0.6459  0.3529
  846MPD2    H112486   1.941   4.041  14.130  0.1123  3.1627 -0.3855
  846MPD2    H212487   1.872   4.162  13.731  0.4201 -0.9925 -0.1106
  846MPD2    H312488   2.021   4.141  13.926 -1.1948  0.7915 -2.2699
  846MPD2     N12489   1.693   3.921  14.151  1.0202  0.1808  0.0927
  846MPD2    H512490   1.598   3.890  14.136  0.5773  1.9335 -0.7004
  846MPD2    N112491   1.621   4.064  13.706 -0.1235 -0.0315 -0.6792
  846MPD2    H712492   1.529   4.028  13.729  0.1159 -0.0631  0.2578
  847MPD2     C12493   1.997   0.097  14.819  0.6129  0.4259  0.2057
  847MPD2    C112494   2.040   0.186  14.727 -0.1069 -0.1084  0.0468
  847MPD2    C212495   2.164   0.233  14.747 -0.6672  0.3704 -0.1620
  847MPD2    C312496   2.239   0.222  14.859  0.4986 -0.4360  0.3664
  847MPD2    C412497   2.194   0.136  14.958  0.2637 -0.2954 -0.4520
  847MPD2    C512498   2.072   0.075  14.933 -0.6006 -0.2005  0.8841
  847MPD2     H12499   2.209   0.299  14.673  1.4225  0.4718  1.2184
  847MPD2    H112500   2.258   0.115  15.043 -1.5085  0.9327  1.1734
  847MPD2    H212501   1.895   0.059  14.824  0.9167 -0.4315 -0.2428
  847MPD2    H312502   2.027   0.011  15.008 -0.5825 -0.1877  0.9061
  847MPD2     N12503   2.358   0.299  14.855  0.0615  0.1036  0.1576
  847MPD2    H512504   2.385   0.327  14.761 -2.0391  1.7508  0.0450
  847MPD2    N112505   1.964   0.218  14.612  0.4513 -0.0048 -0.5963
  847MPD2    H712506   2.027   0.239  14.536  0.1458  0.0486 -0.8324
  848MPD2     C12507   0.391   3.511  16.384  0.5873 -0.3857  0.4260
  848MPD2    C112508   0.375   3.591  16.494  0.2504  0.1103  0.5072
  848MPD2    C212509   0.383   3.733  16.478  0.3407  0.6119  0.1311
  848MPD2    C312510   0.374   3.786  16.351 -0.7006  0.1291  0.7477
  848MPD2    C412511   0.375   3.705  16.244 -0.6927 -0.3274 -0.1081
  848MPD2    C512512   0.386   3.568  16.259 -0.1762 -0.0703 -0.0233
  848MPD2     H12513   0.382   3.802  16.562 -4.4145 -2.3786  2.5323
  848MPD2    H112514   0.366   3.744  16.144  1.6838  0.1301 -0.1533
  848MPD2    H212515   0.403   3.404  16.388  1.7356 -0.2266  1.0415
  848MPD2    H312516   0.408   3.503  16.175  1.3629 -0.4784  0.6875
  848MPD2     N12517   0.356   3.924  16.324  0.2748 -0.2177  0.0071
  848MPD2    H512518   0.327   3.947  16.230  0.9671  1.0802  0.1088
  848MPD2    N112519   0.359   3.541  16.625 -0.2391  0.9734 -0.2415
  848MPD2    H712520   0.376   3.607  16.701 -2.6706  1.2135  0.0927
  849MPD2     C12521   3.958   3.316  13.445 -0.4612 -0.1414  0.4415
  849MPD2    C112522   4.059   3.329  13.542 -0.0944 -0.7663  0.6605
  849MPD2    C212523   4.027   3.375  13.670 -0.1762  0.0016  0.2246
  849MPD2    C312524   3.902   3.409  13.712  0.7491 -0.1754 -0.4045
  849MPD2    C412525   3.795   3.406  13.618  0.0307  1.5094  0.3669
  849MPD2    C512526   3.828   3.350  13.494  0.0342  0.1454 -0.5190
  849MPD2     H12527   4.103   3.358  13.745  0.7041  1.2483 -0.3832
  849MPD2    H112528   3.694   3.430  13.646 -0.3694  0.6337 -0.3029
  849MPD2    H212529   3.987   3.274  13.350 -0.1907  1.9103 -0.3845
  849MPD2    H312530   3.751   3.357  13.418 -0.6790  3.5061  0.5340
  849MPD2     N12531   3.870   3.431  13.846  0.1343  0.1285  0.1940
  849MPD2    H512532   3.773   3.440  13.872 -0.9418 -0.1806 -3.6906
  849MPD2    N112533   4.185   3.271  13.506 -0.5309 -0.2073  0.2758
  849MPD2    H712534   4.183   3.218  13.419  2.3945 -1.2704  0.8768
  850MPD2     C12535   2.116   1.353  14.343  0.2114 -0.2026 -0.6189
  850MPD2    C112536   2.060   1.425  14.446 -0.1109 -0.2108  0.4491
  850MPD2    C212537   2.126   1.448  14.567 -0.3018  0.1697  0.1010
  850MPD2    C312538   2.251   1.390  14.580  0.0667 -0.5398  0.3626
  850MPD2    C412539   2.307   1.319  14.471  0.5056 -0.2548  0.4228
  850MPD2    C512540   2.241   1.292  14.359 -0.2895  0.0872  0.7878
  850MPD2     H12541   2.081   1.503  14.649 -1.4594 -1.3973  0.4919
  850MPD2    H112542   2.401   1.266  14.484  0.0794 -1.0106  0.4017
  850MPD2    H212543   2.074   1.328  14.246 -0.2035 -0.3026 -0.4171
  850MPD2    H312544   2.291   1.239  14.279 -0.4805 -1.8301  1.9484
  850MPD2     N12545   2.332   1.399  14.698  0.5343 -0.6028  0.2745
  850MPD2    H512546   2.419   1.350  14.684  1.3042  0.5483  0.9478
  850MPD2    N112547   1.935   1.484  14.427 -0.0061  0.1826  0.6232
  850MPD2    H712548   1.889   1.460  14.340 -0.7850  0.1768  1.0283
  851MPD2     C12549   1.889   1.063  14.418 -0.0879  0.0438  0.8477
  851MPD2    C112550   1.800   1.096  14.521 -0.1816 -0.0719 -0.5841
  851MPD2    C212551   1.761   0.990  14.602  0.1427 -0.1649 -0.3322
  851MPD2    C312552   1.818   0.866  14.599 -0.2230 -0.5844  0.6919
  851MPD2    C412553   1.914   0.843  14.503 -0.5684 -1.3224 -0.2146
  851MPD2    C512554   1.952   0.943  14.407  0.2784  0.0210 -0.1683
  851MPD2     H12555   1.690   1.004  14.682  2.8743  2.6654  1.5947
  851MPD2    H112556   1.975   0.757  14.477  0.5957 -0.5155 -0.1410
  851MPD2    H212557   1.913   1.137  14.341 -0.7621 -1.3024 -0.6472
  851MPD2    H312558   2.025   0.930  14.328  0.2188 -3.3389  0.3023
  851MPD2     N12559   1.771   0.768  14.682 -0.1496  0.1700 -0.3418
  851MPD2    H512560   1.697   0.790  14.747 -1.7001  0.0025 -2.0443
  851MPD2    N112561   1.760   1.227  14.527 -0.5112  0.0234  0.0874
  851MPD2    H712562   1.797   1.284  14.452 -0.9536  1.3579  0.8956
  852MPD2     C12563   1.737   4.300   9.545  0.0328 -0.2830 -0.6610
  852MPD2    C112564   1.771   4.336   9.667  0.0123  0.7933 -0.5700
  852MPD2    C212565   1.800   4.471   9.694  0.0085 -0.2686  0.1273
  852MPD2    C312566   1.806   4.567   9.593 -0.3362 -0.4609  0.3351
  852MPD2    C412567   1.765   4.525   9.467 -0.5649  0.5869 -0.4749
  852MPD2    C512568   1.732   4.397   9.446 -0.2563 -0.6431 -0.4450
  852MPD2     H12569   1.833   4.485   9.797 -2.7785 -0.6158  1.0795
  852MPD2    H112570   1.759   4.590   9.380 -0.7325 -0.6115 -1.3615
  852MPD2    H212571   1.712   4.196   9.527  1.4220 -1.1806  2.6093
  852MPD2    H312572   1.701   4.366   9.347  0.9149  0.9142 -1.3043
  852MPD2     N12573   1.851   4.699   9.627 -0.4419  0.0437 -0.1102
  852MPD2    H512574   1.873   4.719   9.724  0.0217 -1.2471  0.0552
  852MPD2    N112575   1.785   4.248   9.776  0.3671  0.7529  0.0038
  852MPD2    H712576   1.803   4.297   9.863 -0.5210 -1.2106  1.2943
  853MPD2     C12577   3.792   3.364  12.184 -0.1756  0.2753 -0.3057
  853MPD2    C112578   3.674   3.396  12.129  0.8930  0.2712  0.1316
  853MPD2    C212579   3.671   3.405  11.990 -0.0167 -0.2654 -0.1900
  853MPD2    C312580   3.784   3.372  11.910  0.5920  0.3987 -0.6447
  853MPD2    C412581   3.892   3.311  11.971  0.3317  0.0980  0.3495
  853MPD2    C512582   3.898   3.313  12.108  0.4369 -0.4382 -0.1412
  853MPD2     H12583   3.584   3.439  11.936 -1.5200 -1.1343  1.7025
  853MPD2    H112584   3.971   3.265  11.913  0.1490  0.5082 -0.2242
  853MPD2    H212585   3.813   3.372  12.290 -1.4299  1.1953 -0.1280
  853MPD2    H312586   3.988   3.276  12.156  0.5967 -0.8617 -0.7582
  853MPD2     N12587   3.780   3.382  11.768  0.1789  0.7523  0.3791
  853MPD2    H512588   3.861   3.342  11.723  0.4832  0.7966  0.8879
  853MPD2    N112589   3.573   3.456  12.207 -0.6149 -0.7382  0.0842
  853MPD2    H712590   3.582   3.480  12.305 -0.5157 -1.3969  0.2386
  854MPD2     C12591   0.422   3.917  12.762  0.0307  0.1180 -0.1119
  854MPD2    C112592   0.464   3.831  12.661 -0.0813  0.3147 -0.2317
  854MPD2    C212593   0.575   3.750  12.676  0.0845  0.3385 -0.1810
  854MPD2    C312594   0.641   3.752  12.799 -0.8667  0.4364  0.7047
  854MPD2    C412595   0.601   3.835  12.902 -0.1596 -0.3781 -0.6300
  854MPD2    C512596   0.498   3.924  12.878  0.5676 -0.3721 -0.4714
  854MPD2     H12597   0.621   3.696  12.595 -2.1784 -0.3381 -1.0242
  854MPD2    H112598   0.645   3.827  13.000 -1.8872  1.9120  0.3438
  854MPD2    H212599   0.333   3.978  12.766  0.4282  0.7165 -0.3407
  854MPD2    H312600   0.464   3.992  12.956 -2.0893  0.1304 -2.0655
  854MPD2     N12601   0.737   3.653  12.832 -0.3874 -0.6000  0.3925
  854MPD2    H512602   0.767   3.649  12.929 -0.1113  1.7049  0.4063
  854MPD2    N112603   0.389   3.814  12.543 -0.4975 -0.0137 -0.0146
  854MPD2    H712604   0.300   3.861  12.551  1.0427  2.5169  2.6818
  855MPD2     C12605   0.705   3.358  13.602  0.0133 -0.5928  0.0056
  855MPD2    C112606   0.754   3.248  13.539  0.7919  0.2859  0.5151
  855MPD2    C212607   0.805   3.264  13.411  0.3478 -1.3041  0.4170
  855MPD2    C312608   0.807   3.389  13.341  0.6113 -0.2998  0.7282
  855MPD2    C412609   0.755   3.502  13.410 -0.1778 -0.7469  0.2606
  855MPD2    C512610   0.704   3.481  13.534  0.3801  0.9546  0.4198
  855MPD2     H12611   0.849   3.179  13.360 -0.4650 -0.2524 -2.0290
  855MPD2    H112612   0.775   3.600  13.367 -1.4450  0.3629  2.1966
  855MPD2    H212613   0.665   3.347  13.702  0.9177 -1.5089  0.2773
  855MPD2    H312614   0.663   3.563  13.592 -0.0792 -0.2308  1.7872
  855MPD2     N12615   0.855   3.409  13.209  0.1771  0.1202 -0.4507
  855MPD2    H512616   0.835   3.500  13.169  1.5937  0.9744  0.8110
  855MPD2    N112617   0.761   3.120  13.606  0.4478 -0.3654 -0.3902
  855MPD2    H712618   0.778   3.039  13.547  0.8829 -0.8040  0.3432
  856MPD2     C12619   2.860   4.147  13.096  0.5713 -0.1010  0.0727
  856MPD2    C112620   2.842   4.252  13.188  0.5779  0.0052  0.4245
  856MPD2    C212621   2.747   4.348  13.152 -0.0748  0.3444 -0.2842
  856MPD2    C312622   2.668   4.335  13.037 -0.4194 -0.7179  0.3389
  856MPD2    C412623   2.683   4.223  12.958 -0.1415 -0.9667  0.5563
  856MPD2    C512624   2.781   4.136  12.983 -0.0109 -0.0995  0.1868
  856MPD2     H12625   2.737   4.432  13.221 -1.1922  0.1370 -0.1968
  856MPD2    H112626   2.623   4.223  12.868  3.1532  2.0307 -1.6407
  856MPD2    H212627   2.936   4.070  13.107 -1.6456 -2.1500  1.0524
  856MPD2    H312628   2.798   4.051  12.919  0.4866 -1.1713  1.7437
  856MPD2     N12629   2.562   4.429  13.015  1.0189 -0.0857 -0.1977
  856MPD2    H512630   2.481   4.399  12.962  0.4606 -0.8502  1.0922
  856MPD2    N112631   2.923   4.272  13.303 -0.0111  0.0621 -0.2131
  856MPD2    H712632   2.894   4.347  13.364 -0.6160  0.1711 -0.6373
  857MPD2     C12633   4.600   2.195  11.951 -0.3429  0.3673  0.3349
  857MPD2    C112634   4.553   2.212  12.082  1.1711 -0.4866  0.3491
  857MPD2    C212635   4.615   2.298  12.169 -0.0003 -0.3083  0.2302
  857MPD2    C312636   4.725   2.363  12.124 -0.3459  0.5538  0.0417
  857MPD2    C412637   0.041   2.339  12.000  0.4384  0.2275  0.3752
  857MPD2    C512638   4.716   2.256  11.910  0.0251 -0.3247  0.4416
  857MPD2     H12639   4.588   2.301  12.274  2.3965  0.5377  0.8234
  857MPD2    H112640   0.139   2.376  11.972  1.0501 -1.8318 -0.1822
  857MPD2    H212641   4.554   2.122  11.885 -1.7343  0.8205  0.7919
  857MPD2    H312642   0.030   2.239  11.816  0.9396 -3.2609  1.4795
  857MPD2     N12643   0.057   2.436  12.222 -0.4642  0.1328 -0.5171
  857MPD2    H512644   0.038   2.425  12.321  0.3375 -2.9757 -0.7002
  857MPD2    N112645   4.457   2.128  12.121 -0.8267  0.1853 -0.4222
  857MPD2    H712646   4.422   2.063  12.052  0.4651  0.0109 -0.9012
  858MPD2     C12647   0.315   0.915  16.587  0.0869 -0.2677  0.1194
  858MPD2    C112648   0.442   0.899  16.632  1.2290  0.0923  0.4627
  858MPD2    C212649   0.497   0.995  16.720 -0.2306 -0.1181 -0.4753
  858MPD2    C312650   0.428   1.105  16.758 -0.6011 -0.0642 -0.4240
  858MPD2    C412651   0.295   1.115  16.711 -0.1164 -0.6605  0.7047
  858MPD2    C512652   0.245   1.027  16.624 -0.7982 -0.3020 -0.2301
  858MPD2     H12653   0.592   0.970  16.768  0.6579 -0.3575 -2.3673
  858MPD2    H112654   0.230   1.199  16.735  0.8345  0.0842  0.6889
  858MPD2    H212655   0.271   0.850  16.513  0.1151 -1.5044  1.1874
  858MPD2    H312656   0.144   1.033  16.585 -0.4536  1.9389 -0.7717
  858MPD2     N12657   0.480   1.193  16.859  0.2473  0.0257 -0.5477
  858MPD2    H512658   0.415   1.258  16.904  1.4242  0.2038  0.9199
  858MPD2    N112659   0.516   0.782  16.595 -0.6082  0.2729 -0.3195
  858MPD2    H712660   0.609   0.768  16.632 -0.0872  0.1976 -1.6571
  859MPD2     C12661   3.703   3.027  15.681  0.0292 -0.1554  0.4163
  859MPD2    C112662   3.814   3.040  15.767  0.1392  0.1792  0.2493
  859MPD2    C212663   3.847   2.946  15.861 -0.0927  0.4203  0.2937
  859MPD2    C312664   3.784   2.821  15.862  1.0666  0.2613 -0.3544
  859MPD2    C412665   3.682   2.802  15.769  0.7742  0.4079  0.3745
  859MPD2    C512666   3.643   2.905  15.682 -0.0786  0.6623  0.7737
  859MPD2     H12667   3.938   2.956  15.920  0.7322  0.1002 -0.9374
  859MPD2    H112668   3.619   2.714  15.775  1.2368  0.2255  2.3232
  859MPD2    H212669   3.667   3.103  15.613  1.3325  0.8144  0.8110
  859MPD2    H312670   3.559   2.881  15.617  0.6258  0.5736 -0.0969
  859MPD2     N12671   3.815   2.722  15.955 -0.2629  1.0798  0.6005
  859MPD2    H512672   3.766   2.634  15.945  0.8892  0.4866  0.1163
  859MPD2    N112673   3.885   3.154  15.744  0.2426  0.0809  0.4867
  859MPD2    H712674   3.841   3.215  15.676 -0.7340  1.2177  2.1159
  860MPD2     C12675   1.967   3.657  11.507  0.9766 -0.1724  0.1070
  860MPD2    C112676   1.956   3.543  11.579  0.3336  0.5102 -0.5689
  860MPD2    C212677   1.829   3.501  11.619  0.0807 -0.6339 -0.6197
  860MPD2    C312678   1.715   3.576  11.600  0.9512 -0.1417 -0.1667
  860MPD2    C412679   1.724   3.699  11.527  0.2601 -0.3086  0.0719
  860MPD2    C512680   1.853   3.727  11.473 -0.1765 -0.0469 -0.3835
  860MPD2     H12681   1.822   3.412  11.680 -2.0968  0.6568  1.0112
  860MPD2    H112682   1.641   3.766  11.511  0.2060  0.1496  2.4155
  860MPD2    H212683   2.058   3.692  11.458 -0.2410  0.3586 -1.7847
  860MPD2    H312684   1.856   3.819  11.416  0.1714  0.3431  0.2649
  860MPD2     N12685   1.601   3.525  11.666  0.7219 -0.4727 -0.0664
  860MPD2    H512686   1.607   3.434  11.710 -2.0471 -1.3103 -1.3854
  860MPD2    N112687   2.065   3.468  11.635 -0.4019  0.0448 -0.1672
  860MPD2    H712688   2.047   3.383  11.687 -0.6088 -0.1624 -0.5836
  861MPD2     C12689   0.601   1.936  10.943  0.0958  0.5298 -0.3824
  861MPD2    C112690   0.463   1.908  10.925 -1.0068 -0.3280  0.1226
  861MPD2    C212691   0.394   1.957  10.816 -0.0135 -0.4109  0.1761
  861MPD2    C312692   0.456   2.057  10.740  0.6456  0.1558  0.0502
  861MPD2    C412693   0.591   2.084  10.762 -0.5378 -0.2412 -0.2640
  861MPD2    C512694   0.656   2.023  10.863 -0.5011 -0.3385 -0.2628
  861MPD2     H12695   0.292   1.925  10.797  0.0574 -0.0851 -0.7608
  861MPD2    H112696   0.644   2.161  10.708 -3.0823  1.2084 -0.7226
  861MPD2    H212697   0.670   1.900  11.019  0.6821 -0.3356 -1.3074
  861MPD2    H312698   0.761   2.040  10.886  0.1698  0.0745 -3.5582
  861MPD2     N12699   0.377   2.121  10.642 -0.6037  0.3158  0.5839
  861MPD2    H512700   0.425   2.196  10.594 -1.5252 -0.8671 -2.2163
  861MPD2    N112701   0.401   1.805  11.003  0.2201 -0.1235 -0.1217
  861MPD2    H712702   0.300   1.795  10.996  0.2503 -2.1578  2.2856
  862MPD2     C12703   4.378   1.936  10.338  0.1271  0.1777 -0.1587
  862MPD2    C112704   4.499   1.914  10.396 -0.4284 -0.4782 -0.2942
  862MPD2    C212705   4.520   1.789  10.462 -0.0840 -0.2697  0.8327
  862MPD2    C312706   4.429   1.689  10.449  0.6053 -0.3366 -0.8161
  862MPD2    C412707   4.312   1.713  10.378 -0.8496 -0.4540 -0.1125
  862MPD2    C512708   4.284   1.838  10.334 -0.2240 -0.2616 -1.2653
  862MPD2     H12709   4.613   1.776  10.517  0.2533 -2.8732 -0.3544
  862MPD2    H112710   4.241   1.631  10.376 -1.4889  0.0904  0.3111
  862MPD2    H212711   4.361   2.032  10.291  1.7885  0.6037  0.1154
  862MPD2    H312712   4.192   1.855  10.280 -1.7610 -1.0881  1.1600
  862MPD2     N12713   4.443   1.564  10.514 -0.0680 -0.2612 -0.1363
  862MPD2    H512714   4.359   1.507  10.521  0.6713 -1.4493 -0.9739
  862MPD2    N112715   4.597   2.009  10.418  0.5156  0.1487 -0.3927
  862MPD2    H712716   4.683   1.977  10.462  0.5823 -1.8119 -1.9612
  863MPD2     C12717   3.757   4.733  16.470 -0.3310 -0.9551  0.1562
  863MPD2    C112718   3.700   0.078  16.564 -0.7555  0.1693  0.6325
  863MPD2    C212719   3.781   0.128  16.665  0.0433 -0.3532 -0.1303
  863MPD2    C312720   3.913   0.074  16.685 -0.7299  0.6505 -0.1281
  863MPD2    C412721   3.956   4.722  16.591 -0.8299  0.4293 -0.6313
  863MPD2    C512722   3.889   4.690  16.482  1.1077 -0.2245  0.5210
  863MPD2     H12723   3.736   0.197  16.735 -0.8822 -0.1928 -0.8903
  863MPD2    H112724   4.053   4.681  16.615 -0.3114  1.5730 -0.7509
  863MPD2    H212725   3.703   4.701  16.382 -0.9197 -0.0355  0.1744
  863MPD2    H312726   3.940   4.629  16.409 -1.2920 -0.0050 -1.3367
  863MPD2     N12727   3.993   0.108  16.799  0.9794 -0.7089 -0.6492
  863MPD2    H512728   4.077   0.054  16.817  1.3638  0.6971  1.7728
  863MPD2    N112729   3.566   0.112  16.542  0.8738  0.4594 -0.1256
  863MPD2    H712730   3.527   0.070  16.458  0.3705  0.4218  0.1326
  864MPD2     C12731   3.938   1.738  17.127  0.2615  0.6955 -0.0856
  864MPD2    C112732   3.926   1.606  17.094 -0.7378 -0.3599  0.3046
  864MPD2    C212733   4.039   1.534  17.062 -0.1829  0.7950 -0.0165
  864MPD2    C312734   4.165   1.590  17.068  0.0282 -0.0503  0.1438
  864MPD2    C412735   4.180   1.721  17.098 -0.2308 -0.0968 -0.5868
  864MPD2    C512736   4.066   1.799  17.126  0.1396 -0.3201 -0.3210
  864MPD2     H12737   4.025   1.429  17.041  2.0150  0.4189  0.3633
  864MPD2    H112738   4.280   1.761  17.096  0.3188 -1.4682 -0.3150
  864MPD2    H212739   3.852   1.802  17.139 -0.9591 -1.0300  0.3967
  864MPD2    H312740   4.073   1.907  17.130 -0.5182 -0.3294  1.0857
  864MPD2     N12741   4.268   1.530  16.997 -0.3667 -0.6874 -0.1156
  864MPD2    H512742   4.346   1.580  16.956  1.8153 -3.7386  0.3171
  864MPD2    N112743   3.803   1.545  17.072  0.3312 -0.3801 -0.0708
  864MPD2    H712744   3.815   1.457  17.023  1.2277  0.2550 -0.9879
  865MPD2     C12745   4.012   1.768  16.187 -0.3704  1.4025  0.4648
  865MPD2    C112746   3.993   1.629  16.214 -0.3073 -0.3116  0.0086
  865MPD2    C212747   4.060   1.566  16.315 -1.2065  0.3220 -0.3548
  865MPD2    C312748   4.147   1.634  16.398  0.1828  0.8865 -0.1626
  865MPD2    C412749   4.156   1.771  16.383  0.2516 -0.6626  0.5843
  865MPD2    C512750   4.102   1.833  16.269 -0.4408  0.0693 -0.2582
  865MPD2     H12751   4.066   1.458  16.323  1.2699  0.5557  0.9510
  865MPD2    H112752   4.227   1.832  16.438  0.4008 -2.3043  2.2251
  865MPD2    H212753   3.962   1.822  16.108  0.0156 -0.2081 -0.8833
  865MPD2    H312754   4.112   1.941  16.258 -2.0408  0.5190  2.6925
  865MPD2     N12755   4.230   1.568  16.487  0.1793 -0.7491  0.1920
  865MPD2    H512756   4.275   1.631  16.552 -2.4330  0.7789  0.4849
  865MPD2    N112757   3.899   1.563  16.133  0.5868 -0.2622  0.1179
  865MPD2    H712758   3.861   1.601  16.047 -3.1320 -2.1300  0.9312
  866MPD2     C12759   0.547   1.793  11.585  0.3340 -0.2976 -0.3085
  866MPD2    C112760   0.623   1.810  11.478 -1.2483  0.0336  0.3271
  866MPD2    C212761   0.581   1.916  11.395  0.1099  0.4425 -0.3452
  866MPD2    C312762   0.471   1.995  11.414 -0.6614  0.2310  0.6741
  866MPD2    C412763   0.393   1.956  11.518  0.5535  0.0198 -0.6434
  866MPD2    C512764   0.424   1.848  11.589 -0.2320  0.4140 -0.1217
  866MPD2     H12765   0.637   1.928  11.303  0.5243 -1.6591 -0.3644
  866MPD2    H112766   0.294   1.995  11.542  0.7138 -1.0100  1.6604
  866MPD2    H212767   0.579   1.719  11.657 -2.0160 -1.1191 -0.1252
  866MPD2    H312768   0.361   1.807  11.667  1.0122  2.8699  2.1931
  866MPD2     N12769   0.431   2.097  11.329  0.3203  0.1528  0.7987
  866MPD2    H512770   0.339   2.137  11.344 -0.1909 -1.6455  2.4368
  866MPD2    N112771   0.723   1.717  11.442 -0.1411  0.0487 -0.1048
  866MPD2    H712772   0.731   1.642  11.510  0.6722 -1.1361 -1.5134
  867MPD2     C12773   2.613   1.731  16.999  0.3875 -0.8503  0.2709
  867MPD2    C112774   2.704   1.680  17.084  0.1625  0.2740  0.8003
  867MPD2    C212775   2.724   1.735  17.209  0.0616  0.3016  0.0142
  867MPD2    C312776   2.648   1.853  17.239 -0.2082 -0.5387 -0.5009
  867MPD2    C412777   2.555   1.894  17.152 -0.2080  0.2527 -0.0509
  867MPD2    C512778   2.538   1.837  17.029 -0.5824 -0.7122  0.6090
  867MPD2     H12779   2.785   1.691  17.287 -0.5855  0.6161  0.6973
  867MPD2    H112780   2.491   1.979  17.172 -0.1260  0.0786  0.9634
  867MPD2    H212781   2.614   1.688  16.900 -1.8358  1.8648 -0.9169
  867MPD2    H312782   2.463   1.879  16.963  3.1098  3.6661 -0.7950
  867MPD2     N12783   2.669   1.935  17.355 -0.1809  0.1034  0.0334
  867MPD2    H512784   2.621   2.025  17.359 -2.1009 -0.9420  0.4105
  867MPD2    N112785   2.773   1.561  17.046  0.0189  0.2325 -0.4066
  867MPD2    H712786   2.739   1.514  16.963  0.3102  2.7940 -1.9865
  868MPD2     C12787   0.003   4.702  13.069 -0.0208 -0.1577  0.0757
  868MPD2    C112788   0.074   4.659  13.185 -0.6024 -0.0669 -0.1252
  868MPD2    C212789   0.008   4.667  13.307 -0.2279  0.0741 -0.2645
  868MPD2    C312790   4.617   4.715  13.322 -0.3377 -0.1047 -1.4423
  868MPD2    C412791   4.551   0.018  13.204 -0.0628  0.8952 -0.3139
  868MPD2    C512792   4.612   0.003  13.077 -0.5632 -0.6543 -0.0650
  868MPD2     H12793   0.071   4.640  13.392 -0.1202  2.6834  0.4875
  868MPD2    H112794   4.447   0.049  13.205  0.1070  1.4553 -0.1755
  868MPD2    H212795   0.048   4.693  12.971 -3.4470  0.5665 -1.5861
  868MPD2    H312796   4.556   0.031  12.989 -1.0289  0.6531  0.6395
  868MPD2     N12797   4.566   4.726  13.450  0.6198  0.1523 -0.3366
  868MPD2    H512798   4.621   4.712  13.534  0.0458 -0.8546 -0.1312
  868MPD2    N112799   0.213   4.622  13.176  0.5289  0.2436 -0.6348
  868MPD2    H712800   0.254   4.631  13.083  1.2002 -0.4655 -0.4093
  869MPD2     C12801   1.593   4.302   0.716 -0.6848 -0.2485  0.1233
  869MPD2    C112802   1.472   4.256   0.678 -0.6906 -0.2427  0.3447
  869MPD2    C212803   1.456   4.135   0.617  0.1026  0.1441 -0.1466
  869MPD2    C312804   1.572   4.053   0.616  0.2333 -0.7963 -0.3995
  869MPD2    C412805   1.690   4.102   0.659  0.7936 -0.2403  0.0166
  869MPD2    C512806   1.706   4.230   0.703 -0.6554  0.6357 -0.2219
  869MPD2     H12807   1.355   4.098   0.598 -0.1769  1.2583 -0.8328
  869MPD2    H112808   1.778   4.045   0.633  0.0444 -1.3921 -0.0289
  869MPD2    H212809   1.597   4.402   0.759 -0.1173  0.6629 -2.0413
  869MPD2    H312810   1.791   4.271   0.756 -2.3011  2.1816  1.1898
  869MPD2     N12811   1.560   3.915   0.576  0.8948  0.5068  0.4783
  869MPD2    H512812   1.642   3.861   0.601 -0.5536 -1.2193  1.5503
  869MPD2    N112813   1.362   4.339   0.710 -0.1059  0.6613  0.0222
  869MPD2    H712814   1.375   4.422   0.768 -0.4002  0.5338  0.2684
  870MPD2     C12815   1.580   0.841   1.239 -0.3899 -0.5793 -0.4051
  870MPD2    C112816   1.603   0.971   1.281 -0.7095 -0.3234 -0.1329
  870MPD2    C212817   1.642   1.064   1.185  0.6622 -0.1517  0.4165
  870MPD2    C312818   1.642   1.033   1.048 -0.4119  0.4352 -0.2375
  870MPD2    C412819   1.613   0.905   1.013 -0.2361 -0.3659 -0.3473
  870MPD2    C512820   1.581   0.807   1.108 -0.0992  0.0031 -0.4586
  870MPD2     H12821   1.644   1.167   1.220  1.0709 -0.6716  1.9423
  870MPD2    H112822   1.584   0.886   0.910 -0.3234 -2.7230  0.0979
  870MPD2    H212823   1.535   0.773   1.310  1.8734 -0.6097  0.9956
  870MPD2    H312824   1.543   0.710   1.081  1.7385 -0.8455 -0.0224
  870MPD2     N12825   1.666   1.132   0.955  0.0813 -0.1428  0.5251
  870MPD2    H512826   1.687   1.227   0.985 -0.0804  0.1379 -0.2683
  870MPD2    N112827   1.589   1.000   1.418  0.6214  0.2761  0.0570
  870MPD2    H712828   1.547   0.927   1.475  1.0523  0.6944  0.9055
  871MPD2     C12829   1.992   2.222  16.407 -0.8306  0.2477 -0.0557
  871MPD2    C112830   1.967   2.162  16.532  0.2661  0.5446  0.6552
  871MPD2    C212831   2.033   2.050  16.566  0.2681 -0.9655  0.0975
  871MPD2    C312832   2.105   1.980  16.470  0.0339 -0.4029  0.0326
  871MPD2    C412833   2.131   2.036  16.351 -0.2136 -0.6358 -0.4284
  871MPD2    C512834   2.078   2.158  16.327 -0.9420  0.1896  0.8901
  871MPD2     H12835   2.030   2.003  16.664 -1.7177 -1.4843 -0.2118
  871MPD2    H112836   2.190   1.993  16.271 -1.6801  1.9058 -2.8367
  871MPD2    H212837   1.936   2.312  16.386 -2.1308 -0.6563 -0.4533
  871MPD2    H312838   2.093   2.206  16.231  0.9935 -0.9341  0.6388
  871MPD2     N12839   2.147   1.848  16.506 -0.7673 -0.1411  0.4711
  871MPD2    H512840   2.127   1.815  16.599  1.1679  1.1409  1.3605
  871MPD2    N112841   1.888   2.237  16.626  0.6219 -0.2021 -0.1218
  871MPD2    H712842   1.841   2.318  16.588 -1.7227 -1.2818  0.5052
  872MPD2     C12843   2.533   4.020  13.547 -0.0429  0.7109  1.3893
  872MPD2    C112844   2.584   3.943  13.647 -0.0119 -0.2215  0.1289
  872MPD2    C212845   2.496   3.900  13.741  0.0418  0.3677 -0.0438
  872MPD2    C312846   2.365   3.934  13.744 -0.2782 -0.0540 -0.4087
  872MPD2    C412847   2.315   4.010  13.646  0.1456 -0.4703 -0.6562
  872MPD2    C512848   2.402   4.066  13.547  0.1385 -0.2702 -0.7235
  872MPD2     H12849   2.539   3.847  13.825  1.5118  0.1277 -0.9349
  872MPD2    H112850   2.209   4.033  13.645  0.5542  1.4977  1.1796
  872MPD2    H212851   2.587   4.057  13.460  1.5528  0.8181  2.4315
  872MPD2    H312852   2.374   4.135  13.469 -1.2497  0.1776  0.1709
  872MPD2     N12853   2.279   3.893  13.852 -0.4224  0.7022 -0.1855
  872MPD2    H512854   2.181   3.916  13.844 -1.0917 -2.3635 -0.4729
  872MPD2    N112855   2.720   3.898  13.646 -0.0938 -0.5134  0.3205
  872MPD2    H712856   2.736   3.816  13.703  2.2432  1.2244  2.1652
  873MPD2     C12857   0.634   4.159   1.058 -0.3817 -0.6895 -0.0116
  873MPD2    C112858   0.502   4.137   1.076  0.6013 -0.1401  0.0076
  873MPD2    C212859   0.459   4.009   1.102  0.1926 -0.1042 -0.1529
  873MPD2    C312860   0.549   3.905   1.087  0.0560 -0.8530 -0.1676
  873MPD2    C412861   0.678   3.932   1.037  0.7461 -0.0408  0.6914
  873MPD2    C512862   0.718   4.058   1.039  0.0771 -0.1883  0.8034
  873MPD2     H12863   0.352   3.997   1.120  0.6674 -0.6583  2.3153
  873MPD2    H112864   0.758   3.859   1.027 -0.7001 -1.2039 -2.5812
  873MPD2    H212865   0.675   4.258   1.045 -1.7789 -0.3831 -1.9747
  873MPD2    H312866   0.821   4.077   1.011 -0.4285  0.0673 -0.8819
  873MPD2     N12867   0.522   3.774   1.119  0.7094  0.9469  0.5497
  873MPD2    H512868   0.594   3.705   1.102  0.0795  0.1338  1.1608
  873MPD2    N112869   0.423   4.248   1.101  0.4447  0.0426  0.1671
  873MPD2    H712870   0.469   4.338   1.106 -1.1009  1.0637 -3.7823
  874MPD2     C12871   4.309   4.150  16.373  0.1910 -0.3771  0.1780
  874MPD2    C112872   4.400   4.055  16.422 -0.2156 -0.1741 -0.2280
  874MPD2    C212873   4.531   4.068  16.388 -0.2770  0.3961 -0.0845
  874MPD2    C312874   4.573   4.165  16.295 -0.5219  0.1623  1.1288
  874MPD2    C412875   4.475   4.254  16.248  0.4707 -0.5024 -0.3095
  874MPD2    C512876   4.348   4.250  16.292 -0.8047  0.0397 -0.3956
  874MPD2     H12877   4.615   4.009  16.422 -0.7092  0.5930  1.3120
  874MPD2    H112878   4.495   4.336  16.179 -1.2214 -1.4863 -1.9424
  874MPD2    H212879   4.206   4.151  16.409 -0.4784 -1.2139 -1.7521
  874MPD2    H312880   4.275   4.327  16.268 -1.8148 -1.6522 -2.7981
  874MPD2     N12881   4.711   4.184  16.290 -0.1711 -0.2639  0.0362
  874MPD2    H512882   0.035   4.137  16.354 -1.9076 -0.6790  1.4102
  874MPD2    N112883   4.363   3.966  16.521  0.3172 -0.0024  0.6702
  874MPD2    H712884   4.270   3.977  16.560 -0.3208  0.0170 -0.8589
  875MPD2     C12885   0.292   1.783  14.598 -0.0635 -0.0950  0.0188
  875MPD2    C112886   0.185   1.841  14.662 -0.4784  0.5391  0.1321
  875MPD2    C212887   0.211   1.918  14.775  0.0491 -0.0986 -0.3683
  875MPD2    C312888   0.339   1.928  14.832 -0.6839  0.5773 -0.0049
  875MPD2    C412889   0.445   1.863  14.770 -0.2374 -0.2866  0.1076
  875MPD2    C512890   0.415   1.791  14.657  0.0313 -0.0606  0.1262
  875MPD2     H12891   0.129   1.961  14.832 -1.3310  0.4274 -2.7467
  875MPD2    H112892   0.544   1.852  14.812 -1.4527  0.8261  3.2441
  875MPD2    H212893   0.291   1.715  14.514  1.5713 -0.5361  0.3592
  875MPD2    H312894   0.503   1.746  14.612  0.2289 -0.4770  0.9376
  875MPD2     N12895   0.360   1.990  14.954 -0.3187 -0.1874 -0.3364
  875MPD2    H512896   0.457   1.990  14.983 -0.8387  2.4843  1.3944
  875MPD2    N112897   0.054   1.837  14.607 -0.0489  0.0004 -0.0347
  875MPD2    H712898   4.720   1.897  14.644  0.9110  1.5586 -0.6697
  876MPD2     C12899   3.982   3.592  16.459 -0.3913  0.4200  0.0127
  876MPD2    C112900   4.114   3.560  16.448  0.0488  0.2711 -0.2829
  876MPD2    C212901   4.151   3.431  16.491  0.1349  0.2921  0.0891
  876MPD2    C312902   4.060   3.344  16.542 -0.2094  0.6013  0.6022
  876MPD2    C412903   3.929   3.369  16.535 -0.6052 -0.1911 -0.0523
  876MPD2    C512904   3.894   3.498  16.493 -0.4677 -0.3452 -0.6967
  876MPD2     H12905   4.254   3.399  16.485 -0.5496 -1.9840  0.3865
  876MPD2    H112906   3.854   3.297  16.566 -1.3647 -0.3780 -2.3150
  876MPD2    H212907   3.942   3.689  16.431 -0.5837  0.3761  0.1449
  876MPD2    H312908   3.788   3.514  16.476  0.1639  1.1525 -3.2178
  876MPD2     N12909   4.103   3.219  16.589  0.1768  1.2011  0.5554
  876MPD2    H512910   4.198   3.196  16.562  0.7129  1.3258  2.3885
  876MPD2    N112911   4.195   3.650  16.372 -0.0997  0.1225 -0.0113
  876MPD2    H712912   4.148   3.733  16.337 -2.3489 -1.9262 -1.8424
  877MPD2     C12913   4.111   3.882  15.652  0.6311  0.3626 -0.0037
  877MPD2    C112914   4.240   3.839  15.659 -0.0812 -0.0614  0.3833
  877MPD2    C212915   4.307   3.799  15.550  0.6685 -0.1153  0.6177
  877MPD2    C312916   4.243   3.802  15.419  0.4624 -0.6307 -0.2283
  877MPD2    C412917   4.110   3.839  15.408 -0.2814  0.3411  0.1060
  877MPD2    C512918   4.051   3.875  15.522 -0.1676  0.4350  0.2295
  877MPD2     H12919   4.410   3.770  15.561  0.7946  0.6580  1.4288
  877MPD2    H112920   4.056   3.833  15.315 -1.6645 -2.9673  1.1291
  877MPD2    H212921   4.052   3.909  15.739 -1.6844 -2.4702 -0.7188
  877MPD2    H312922   3.946   3.898  15.504 -0.5845 -2.3931 -0.9110
  877MPD2     N12923   4.304   3.759  15.301  0.6553  0.4417 -0.5688
  877MPD2    H512924   4.257   3.774  15.212  1.2458  1.5959 -0.6936
  877MPD2    N112925   4.308   3.834  15.785  0.1397  0.1046 -0.4820
  877MPD2    H712926   4.408   3.814  15.783  0.3893  1.2759  0.5012
  878MPD2     C12927   4.640   3.002  12.798  0.3087  0.0266 -0.6637
  878MPD2    C112928   4.549   3.107  12.822  0.5272  0.2559 -0.2947
  878MPD2    C212929   4.496   3.123  12.952 -0.1137  0.3764 -0.6124
  878MPD2    C312930   4.541   3.035  13.054  0.5133 -0.8460 -0.2647
  878MPD2    C412931   4.651   2.958  13.033 -0.0197  0.4452 -0.0433
  878MPD2    C512932   4.689   2.932  12.904  0.3950  0.3512 -1.0308
  878MPD2     H12933   4.405   3.180  12.968 -0.9775 -1.1369 -0.0553
  878MPD2    H112934   4.686   2.886  13.106 -3.3105 -0.6415  0.4642
  878MPD2    H212935   4.676   2.964  12.703 -1.2792 -0.6354 -0.9930
  878MPD2    H312936   0.012   2.843  12.896 -0.1602 -0.0508 -0.8500
  878MPD2     N12937   4.476   3.039  13.181 -0.1024 -0.7268 -0.1708
  878MPD2    H512938   4.396   3.101  13.188  0.7885  0.7580 -3.1013
  878MPD2    N112939   4.494   3.176  12.714 -0.1897 -0.2044 -0.1173
  878MPD2    H712940   4.499   3.125  12.627  0.7377 -0.9049  0.3494
  879MPD2     C12941   4.341   0.503  17.082 -0.2941 -0.0977  0.0516
  879MPD2    C112942   4.427   0.428  17.156 -0.3355 -0.0741  1.0416
  879MPD2    C212943   4.498   0.328  17.094  0.3169  0.5661 -0.1571
  879MPD2    C312944   4.458   0.275  16.972 -0.9398 -0.0360 -0.0685
  879MPD2    C412945   4.356   0.334  16.903  0.4440 -0.6855  0.5105
  879MPD2    C512946   4.302   0.449  16.959  0.7838  0.2038 -0.6979
  879MPD2     H12947   4.582   0.282  17.145 -1.5909 -2.2487  0.4235
  879MPD2    H112948   4.309   0.289  16.816  1.5025  1.4301 -1.1743
  879MPD2    H212949   4.296   0.600  17.104 -0.3409 -0.0939 -0.0594
  879MPD2    H312950   4.226   0.501  16.902  0.9209  0.8571 -0.2758
  879MPD2     N12951   4.524   0.166  16.901  0.3451 -0.2039 -0.6037
  879MPD2    H512952   4.481   0.133  16.815 -1.1836 -1.9945  0.8544
  879MPD2    N112953   4.460   0.479  17.288  0.7141 -0.7339 -0.3135
  879MPD2    H712954   4.410   0.564  17.313  1.5718 -0.2922 -0.1220
  880MPD2     C12955   1.218   1.263   0.581 -0.1518 -0.8688 -0.0235
  880MPD2    C112956   1.189   1.324   0.463  0.0125 -0.1656  0.6567
  880MPD2    C212957   1.290   1.342   0.364  0.2044 -0.2109 -0.3753
  880MPD2    C312958   1.407   1.277   0.383  0.3924  0.6656  0.3453
  880MPD2    C412959   1.432   1.205   0.495 -0.0665 -0.5843  0.3283
  880MPD2    C512960   1.339   1.202   0.597 -0.2904  0.1799 -0.1004
  880MPD2     H12961   1.267   1.398   0.274  0.5188 -1.6770 -1.3571
  880MPD2    H112962   1.520   1.142   0.508 -1.4783 -2.9826 -1.5517
  880MPD2    H212963   1.144   1.243   0.657 -0.8630 -0.7239 -0.6744
  880MPD2    H312964   1.359   1.146   0.688 -1.8817  1.4067  1.0079
  880MPD2     N12965   1.497   1.288   0.276  0.0950 -0.0076 -0.5292
  880MPD2    H512966   1.471   1.350   0.200  1.8704  0.4393 -0.7743
  880MPD2    N112967   1.059   1.376   0.447 -0.7760  0.6525 -0.2428
  880MPD2    H712968   0.997   1.378   0.528  0.2241 -0.2060  0.5587
  881MPD2     C12969   1.111   2.131  17.629  0.4122  0.2558 -0.0700
  881MPD2    C112970   1.100   2.007  17.574 -0.3164 -0.3841 -0.1567
  881MPD2    C212971   1.022   1.919  17.645  0.0679  0.3040  0.1114
  881MPD2    C312972   0.991   1.947   0.029 -0.6121 -0.2318 -0.1874
  881MPD2    C412973   1.032   2.072   0.081 -0.2495  0.6224  0.0405
  881MPD2    C512974   1.084   2.169   0.004  0.3451  0.3230  0.0079
  881MPD2     H12975   0.995   1.822  17.606  0.7417 -1.1024  3.0983
  881MPD2    H112976   1.019   2.095   0.186  1.7095 -0.9626  0.6385
  881MPD2    H212977   1.133   2.217  17.566 -1.7723 -1.1097 -2.6682
  881MPD2    H312978   1.103   2.265   0.051 -1.9556  0.2344  1.1353
  881MPD2     N12979   0.914   1.873   0.122 -0.1627  0.4905  0.6662
  881MPD2    H512980   0.916   1.898   0.220 -2.0513  0.7394  0.6309
  881MPD2    N112981   1.120   1.976  17.438 -0.3283  0.2381  0.1390
  881MPD2    H712982   1.146   2.052  17.376 -1.5843  0.9238  0.4477
  882MPD2     C12983   4.524   3.744  14.511 -0.3385 -0.1861 -0.0289
  882MPD2    C112984   4.465   3.789  14.625  0.0542 -0.2322 -0.2053
  882MPD2    C212985   4.353   3.864  14.617  0.2022  0.2731 -0.0988
  882MPD2    C312986   4.310   3.913  14.494  0.4339  0.0744  0.8196
  882MPD2    C412987   4.376   3.872  14.382  0.9663  0.6762 -0.0074
  882MPD2    C512988   4.485   3.787  14.391  0.3735  0.2953  0.5493
  882MPD2     H12989   4.302   3.894  14.708 -0.4723  0.7014 -0.6177
  882MPD2    H112990   4.346   3.907  14.284  0.4056  2.3248  0.7626
  882MPD2    H212991   4.610   3.678  14.519  0.0450  0.6954  2.8881
  882MPD2    H312992   4.526   3.741  14.301 -0.5943  1.0696 -0.2779
  882MPD2     N12993   4.180   3.968  14.469  0.2703  0.5868  0.0094
  882MPD2    H512994   4.150   3.978  14.373  1.9607 -1.8150 -0.7749
  882MPD2    N112995   4.526   3.736  14.742  0.1079  0.4358 -0.0105
  882MPD2    H712996   4.606   3.673  14.731  1.4515  1.9939  0.8552
  883MPD2     C12997   1.045   3.246  16.178  0.2377 -0.4326  0.0469
  883MPD2    C112998   1.087   3.356  16.114  0.2663 -0.1916  0.2387
  883MPD2    C212999   1.192   3.426  16.162  0.0023 -0.0053  0.1473
  883MPD2    C313000   1.251   3.384  16.280 -0.8251 -0.2645  0.0009
  883MPD2    C413001   1.199   3.282  16.355 -0.1515 -0.1389  0.0673
  883MPD2    C513002   1.106   3.203  16.292 -1.0044 -0.3950  0.0175
  883MPD2     H13003   1.215   3.517  16.108  0.3294  0.0247  0.3387
  883MPD2    H113004   1.242   3.253  16.450  0.1881 -1.4541 -0.4812
  883MPD2    H213005   0.972   3.187  16.124  0.8434 -0.0361 -1.1991
  883MPD2    H313006   1.068   3.112  16.338 -0.1093 -0.8640 -0.1737
  883MPD2     N13007   1.358   3.464  16.326 -0.1706  0.6006  0.0029
  883MPD2    H513008   1.371   3.549  16.273 -2.0280  0.9800  0.1554
  883MPD2    N113009   1.048   3.381  15.977 -0.5181 -0.0670  0.4680
  883MPD2    H713010   1.101   3.452  15.928 -0.8901  0.5486  0.9680
  884MPD2     C13011   3.462   4.682  15.458  1.2575 -0.2188 -0.6028
  884MPD2    C113012   3.421   0.019  15.348  0.5716  0.1496 -0.5076
  884MPD2    C213013   3.288   0.048  15.334  0.3511 -0.2032 -0.0791
  884MPD2    C313014   3.193   0.010  15.425  0.1565  0.2110  0.6129
  884MPD2    C413015   3.239   4.673  15.531  0.1492 -0.8962 -0.6179
  884MPD2    C513016   3.368   4.632  15.547 -0.0468 -0.2858  0.6731
  884MPD2     H13017   3.265   0.107  15.245  1.0677 -1.9779 -1.4482
  884MPD2    H113018   3.169   4.647  15.610  0.8925  2.0207  1.0295
  884MPD2    H213019   3.564   4.658  15.483  0.1726 -1.3055  2.7718
  884MPD2    H313020   3.393   4.560  15.624  2.1840 -0.5394 -0.2959
  884MPD2     N13021   3.060   0.044  15.413  0.0001 -1.0090 -0.1021
  884MPD2    H513022   3.033   0.118  15.349 -0.8712  0.1069  1.5385
  884MPD2    N113023   3.510   0.072  15.251 -0.2360 -0.7405 -0.5275
  884MPD2    H713024   3.470   0.125  15.174  0.2277  0.8678  0.3615
  885MPD2     C13025   1.678   0.010   0.185  0.1814 -0.6071 -0.0242
  885MPD2    C113026   1.797   0.071   0.152  0.1346  0.6063  0.4601
  885MPD2    C213027   1.812   0.139   0.023 -1.2423  0.1482 -1.4147
  885MPD2    C313028   1.698   0.155  17.701  0.2117  0.1446 -0.1693
  885MPD2    C413029   1.573   0.094  17.737  0.3272 -0.1238 -0.0470
  885MPD2    C513030   1.567   0.024   0.100 -0.1210 -1.1467  0.0673
  885MPD2     H13031   1.908   0.181  17.749 -0.4291 -1.1115 -0.5023
  885MPD2    H113032   1.485   0.101  17.674 -0.0561 -4.1606  0.0642
  885MPD2    H213033   1.672   4.684   0.272  0.8187  0.0204  0.4837
  885MPD2    H313034   1.473   4.728   0.144 -0.2327 -1.1778 -0.1997
  885MPD2     N13035   1.699   0.237  17.584  0.5738 -0.0188  0.5445
  885MPD2    H513036   1.787   0.248  17.535 -0.4953 -1.2522 -1.6563
  885MPD2    N113037   1.900   0.066   0.249  0.0512 -0.1881  0.1932
  885MPD2    H713038   1.876   0.006   0.328  1.4976 -0.0448  0.7470
  886MPD2     C13039   2.781   3.191  15.639  0.0703 -0.0462 -0.3659
  886MPD2    C113040   2.895   3.235  15.705 -0.4719  0.2414  0.3891
  886MPD2    C213041   2.953   3.356  15.656  0.1496 -0.0006 -0.1186
  886MPD2    C313042   2.900   3.424  15.551  0.2359 -0.5418 -0.1104
  886MPD2    C413043   2.790   3.378  15.481 -0.3700 -0.2811  0.8584
  886MPD2    C513044   2.733   3.261  15.522 -0.1972 -0.1542  0.7101
  886MPD2     H13045   3.050   3.383  15.695 -0.4755  1.6420  0.2904
  886MPD2    H113046   2.747   3.437  15.401 -0.5739  0.0991  1.2511
  886MPD2    H213047   2.734   3.095  15.660 -0.6152  0.4570  0.3975
  886MPD2    H313048   2.636   3.242  15.476  1.7254 -2.0102 -2.5924
  886MPD2     N13049   2.960   3.535  15.487  0.8213  0.0042 -0.4985
  886MPD2    H513050   2.927   3.556  15.394  0.1131  0.7105 -0.0815
  886MPD2    N113051   2.959   3.156  15.799 -0.4500  0.2004 -0.4089
  886MPD2    H713052   3.039   3.194  15.850 -2.1196  1.8664  0.9823
  887MPD2     C13053   3.469   3.204  16.297  0.8216 -0.1297 -0.1685
  887MPD2    C113054   3.373   3.258  16.216 -0.0060  0.5561 -0.3185
  887MPD2    C213055   3.395   3.387  16.171 -0.0436 -0.0365 -0.2570
  887MPD2    C313056   3.517   3.457  16.203 -0.5890  0.1424 -0.2190
  887MPD2    C413057   3.614   3.394  16.270 -0.3122 -0.1414  0.1662
  887MPD2    C513058   3.594   3.268  16.316 -0.3931  0.3575  0.1311
  887MPD2     H13059   3.318   3.438  16.115  1.5122  2.0886 -0.4391
  887MPD2    H113060   3.710   3.442  16.281  0.6675 -2.0979  0.1459
  887MPD2    H213061   3.464   3.103  16.337 -5.0638  0.5183  0.7495
  887MPD2    H313062   3.677   3.214  16.359  1.2558  1.8517 -1.1919
  887MPD2     N13063   3.533   3.583  16.146  0.1098  0.0015  0.0447
  887MPD2    H513064   3.459   3.615  16.084 -0.8625  0.6599  1.5563
  887MPD2    N113065   3.265   3.193  16.174  0.2515 -0.4392  0.4339
  887MPD2    H713066   3.201   3.240  16.111  1.0072  0.3771  0.2804
  888MPD2     C13067   0.215   2.996  15.031 -0.3777  0.3489 -0.6521
  888MPD2    C113068   0.256   3.027  15.161 -0.4715 -0.3215  0.8945
  888MPD2    C213069   0.363   3.117  15.180 -0.0518  0.0008  0.2881
  888MPD2    C313070   0.423   3.185  15.077 -0.0468 -0.7341 -0.2206
  888MPD2    C413071   0.372   3.169  14.953  0.4192 -0.5520 -0.9376
  888MPD2    C513072   0.278   3.077  14.934 -0.1154 -0.1945  0.0046
  888MPD2     H13073   0.399   3.133  15.281  2.4730 -2.7238 -0.1733
  888MPD2    H113074   0.404   3.227  14.867  0.2797  1.9677  0.7133
  888MPD2    H213075   0.134   2.928  15.009  1.0987 -0.7012 -2.8127
  888MPD2    H313076   0.215   3.073  14.846  1.5194 -2.9135 -1.0346
  888MPD2     N13077   0.535   3.269  15.106  0.0813  0.6764 -0.5527
  888MPD2    H513078   0.552   3.298  15.202  0.4687 -3.1278  0.5249
  888MPD2    N113079   0.197   2.971  15.278  0.2137 -0.0580 -0.5089
  888MPD2    H713080   0.250   2.985  15.364  1.3757 -0.5605 -1.1308
  889MPD2     C13081   0.425   3.110  12.575  0.3878 -0.7232  0.3213
  889MPD2    C113082   0.403   2.997  12.658  0.5033 -0.2199  0.1529
  889MPD2    C213083   0.344   3.021  12.783 -0.2627 -0.1062 -0.0901
  889MPD2    C313084   0.324   3.151  12.825  0.0108  0.2814 -0.3236
  889MPD2    C413085   0.381   3.252  12.754  0.1640  0.8947 -0.4779
  889MPD2    C513086   0.422   3.235  12.628  1.0390  0.0146  0.2747
  889MPD2     H13087   0.286   2.938  12.821 -1.2265  0.7337  0.2882
  889MPD2    H113088   0.387   3.353  12.792 -0.3393  0.5671  0.4843
  889MPD2    H213089   0.472   3.102  12.477  1.3681  1.1992  0.6408
  889MPD2    H313090   0.433   3.324  12.567 -0.5454 -0.6079 -0.9268
  889MPD2     N13091   0.248   3.174  12.936 -0.3571  0.0514  0.3519
  889MPD2    H513092   0.227   3.095  12.996 -1.7768  0.5903  0.5687
  889MPD2    N113093   0.385   2.868  12.606 -0.7745 -0.1397 -0.0835
  889MPD2    H713094   0.377   2.794  12.675  2.4387  0.6328  1.0955
  890MPD2     C13095   3.785   4.404  14.697 -0.2754 -0.0686 -0.1607
  890MPD2    C113096   3.923   4.422  14.677  0.2852  0.3256 -0.9797
  890MPD2    C213097   4.011   4.373  14.774 -0.2769  0.4755 -0.0195
  890MPD2    C313098   3.968   4.313  14.887 -0.9188  0.2534  0.4590
  890MPD2    C413099   3.830   4.305  14.908  0.5286  0.0396 -0.4931
  890MPD2    C513100   3.745   4.348  14.815  0.3494  0.8764  0.2251
  890MPD2     H13101   4.118   4.386  14.768 -0.3755  1.6474  0.8332
  890MPD2    H113102   3.792   4.254  14.995  1.2861  0.6023  0.1661
  890MPD2    H213103   3.704   4.416  14.626 -0.5571  1.4310  0.4153
  890MPD2    H313104   3.639   4.330  14.830  0.5245  0.5131  1.0473
  890MPD2     N13105   4.059   4.270  14.982  0.3337 -0.0347  0.2230
  890MPD2    H513106   4.157   4.278  14.956  0.9807 -0.8019  2.4945
  890MPD2    N113107   3.957   4.495  14.562 -0.1404 -0.0874  0.3093
  890MPD2    H713108   3.883   4.514  14.496 -0.3562 -0.3898  0.4667
  891MPD2     C13109   1.786   3.518  16.182 -0.0050 -0.6268 -0.6951
  891MPD2    C113110   1.773   3.406  16.256 -0.1855  0.1680 -0.6746
  891MPD2    C213111   1.867   3.384  16.355 -0.0699 -0.1443 -0.2658
  891MPD2    C313112   1.965   3.482  16.372  0.0752 -0.0286  0.2587
  891MPD2    C413113   1.977   3.593  16.294  0.3471  0.3141 -0.3746
  891MPD2    C513114   1.885   3.605  16.193 -0.0350  0.3137  0.0327
  891MPD2     H13115   1.866   3.294  16.415 -1.7170 -0.6049 -0.9876
  891MPD2    H113116   2.043   3.676  16.317  2.6778 -1.1010 -1.9908
  891MPD2    H213117   1.708   3.545  16.112  1.0127  0.1543 -1.5273
  891MPD2    H313118   1.900   3.692  16.130  2.8504 -1.5043 -1.8084
  891MPD2     N13119   2.048   3.459  16.483  0.1156 -0.0948  0.9582
  891MPD2    H513120   2.055   3.363  16.516  1.7610 -0.2609  0.1512
  891MPD2    N113121   1.666   3.319  16.229 -0.1188  0.5462 -0.6875
  891MPD2    H713122   1.615   3.346  16.146 -0.1869  3.1861  0.2077
  892MPD2     C13123   3.474   4.030  15.164 -0.3666 -0.9446  0.3623
  892MPD2    C113124   3.406   4.060  15.049 -0.1311 -0.5799 -0.2524
  892MPD2    C213125   3.467   4.065  14.924  0.3128 -0.0721  0.2940
  892MPD2    C313126   3.604   4.043  14.915  0.2196 -0.1734  0.0511
  892MPD2    C413127   3.668   4.006  15.033 -0.1772 -0.3013  0.0303
  892MPD2    C513128   3.609   4.003  15.155  0.3996  0.2993 -1.2941
  892MPD2     H13129   3.411   4.084  14.834 -0.7959 -1.8294  0.6156
  892MPD2    H113130   3.770   3.973  15.019 -0.0024  0.2602 -0.0186
  892MPD2    H213131   3.435   4.027  15.265  2.4359 -1.2174  1.4373
  892MPD2    H313132   3.660   3.965  15.243 -1.0818  2.8799  0.6639
  892MPD2     N13133   3.680   4.039  14.796 -0.1432 -0.5471  0.5713
  892MPD2    H513134   3.780   4.035  14.814  0.0502 -1.6028 -0.6953
  892MPD2    N113135   3.267   4.083  15.046  0.1098  1.2617  0.1751
  892MPD2    H713136   3.228   4.109  14.956 -0.4849  0.4404  0.1911
  893MPD2     C13137   0.772   3.240   1.697  0.2563  0.1570 -0.0186
  893MPD2    C113138   0.820   3.208   1.569  0.5235  0.2149  0.2807
  893MPD2    C213139   0.779   3.089   1.516  0.1900  0.4348 -0.3735
  893MPD2    C313140   0.702   2.998   1.587  0.2784 -0.5339 -0.4735
  893MPD2    C413141   0.654   3.038   1.708  0.2160 -0.3509 -0.4844
  893MPD2    C513142   0.695   3.155   1.769 -0.7117  0.9567  0.5770
  893MPD2     H13143   0.816   3.057   1.419 -0.4927  0.7000 -0.7253
  893MPD2    H113144   0.587   2.971   1.761  0.0077  2.1327  2.3623
  893MPD2    H213145   0.785   3.337   1.743  0.5894  0.8320 -1.5422
  893MPD2    H313146   0.649   3.182   1.864  0.4125  0.1794  1.3379
  893MPD2     N13147   0.673   2.865   1.548  0.2522  0.0657 -0.2947
  893MPD2    H513148   0.636   2.803   1.619 -1.1213  1.2964  0.0685
  893MPD2    N113149   0.886   3.303   1.499 -0.5440 -0.0069 -0.3666
  893MPD2    H713150   0.900   3.392   1.547  0.4547 -0.7808  0.7982
  894MPD2     C13151   2.701   4.712   0.837 -0.2313  0.2090 -0.4060
  894MPD2    C113152   2.698   0.107   0.864 -0.3061 -0.4322 -0.4737
  894MPD2    C213153   2.821   0.166   0.890 -0.3169  0.3843  0.0725
  894MPD2    C313154   2.940   0.092   0.901 -0.2298  0.5203  0.4847
  894MPD2    C413155   2.936   4.693   0.874 -0.3774 -0.0986 -0.1941
  894MPD2    C513156   2.816   4.642   0.847 -0.6175 -0.0190 -0.4993
  894MPD2     H13157   2.828   0.273   0.904 -0.0800  0.4678 -0.7147
  894MPD2    H113158   3.022   4.628   0.890 -1.5773 -1.1430  1.9610
  894MPD2    H213159   2.612   4.657   0.809  0.9384 -2.3543  0.8485
  894MPD2    H313160   2.811   4.534   0.850 -3.1858  0.0774 -1.4559
  894MPD2     N13161   3.062   0.156   0.930  0.8024  0.7016  0.0754
  894MPD2    H513162   3.137   0.091   0.950 -0.5436 -1.1527 -0.8191
  894MPD2    N113163   2.571   0.184   0.866  0.1191 -0.6033  0.0058
  894MPD2    H713164   2.579   0.284   0.876  1.2615 -0.8132  1.1320
  895MPD2     C13165   2.812   3.112  13.749 -0.6724  0.3205  0.6021
  895MPD2    C113166   2.734   3.062  13.650 -0.4192  0.1925 -0.0604
  895MPD2    C213167   2.721   2.926  13.631 -0.0896  0.0331 -0.5131
  895MPD2    C313168   2.788   2.839  13.710  0.5766  0.6521 -0.2112
  895MPD2    C413169   2.862   2.894  13.817 -0.3009  0.2365 -0.2473
  895MPD2    C513170   2.868   3.029  13.844  0.4691 -0.3327  0.8379
  895MPD2     H13171   2.680   2.900  13.534  1.1056 -0.5967 -0.8558
  895MPD2    H113172   2.920   2.830  13.882 -0.2397 -0.5462 -1.0763
  895MPD2    H213173   2.823   3.219  13.761  0.5570  0.5402 -2.4531
  895MPD2    H313174   2.930   3.064  13.925  0.1267 -0.4333  1.1404
  895MPD2     N13175   2.785   2.706  13.683 -0.9127 -0.2622  0.2483
  895MPD2    H513176   2.722   2.681  13.607 -2.5588 -0.1464  1.5746
  895MPD2    N113177   2.655   3.147  13.564 -0.1434 -0.4504 -0.0688
  895MPD2    H713178   2.590   3.102  13.502  1.2951 -0.9617 -1.1966
  896MPD2     C13179   0.168   1.324   1.745 -0.0538  0.5484  1.4554
  896MPD2    C113180   0.167   1.301   1.607  0.1514 -0.3991 -0.1750
  896MPD2    C213181   0.056   1.243   1.553  0.4742 -0.0906 -0.6699
  896MPD2    C313182   4.694   1.200   1.634 -0.0330 -0.2502  0.5349
  896MPD2    C413183   4.693   1.234   1.767  0.5534 -0.5702 -0.5817
  896MPD2    C513184   0.058   1.298   1.821  1.1328 -0.4929  0.1780
  896MPD2     H13185   0.052   1.223   1.447 -1.7414 -2.5873 -0.0951
  896MPD2    H113186   4.614   1.210   1.838  1.3499 -0.4279  0.3403
  896MPD2    H213187   0.251   1.362   1.803  0.7780 -1.0988  1.3508
  896MPD2    H313188   0.053   1.309   1.929  1.4594  2.8117 -0.1257
  896MPD2     N13189   4.582   1.131   1.577  0.3759 -0.1009  0.3935
  896MPD2    H513190   4.585   1.111   1.478 -1.0547  4.6407 -0.6176
  896MPD2    N113191   0.285   1.339   1.529 -0.2692 -0.4397  0.6455
  896MPD2    H713192   0.360   1.382   1.583 -0.5482 -0.7773  1.3042
  897MPD2     C13193   1.655   2.943  10.795 -0.3007 -0.6527  0.4725
  897MPD2    C113194   1.578   2.954  10.688  0.7186  0.0283  0.6500
  897MPD2    C213195   1.445   2.900  10.686  0.0131 -0.2958  1.1671
  897MPD2    C313196   1.400   2.842  10.807 -0.3378 -0.2325  0.7129
  897MPD2    C413197   1.489   2.822  10.906  0.0025 -0.3495 -0.0137
  897MPD2    C513198   1.616   2.869  10.902 -0.2278 -0.5663  0.2937
  897MPD2     H13199   1.372   2.927  10.610  0.7153 -2.3947 -0.2607
  897MPD2    H113200   1.471   2.761  10.994 -1.0347  0.0754  0.0726
  897MPD2    H213201   1.759   2.973  10.786 -0.5653  0.4123  1.0214
  897MPD2    H313202   1.684   2.856  10.986 -1.5339 -0.9798  1.2896
  897MPD2     N13203   1.264   2.812  10.813 -0.5043  0.2504  0.2571
  897MPD2    H513204   1.205   2.828  10.732 -1.5115 -0.0371  0.9298
  897MPD2    N113205   1.625   3.032  10.584 -0.0591 -0.0501 -0.6239
  897MPD2    H713206   1.700   3.097  10.605 -1.0254  0.6148  0.8416
  898MPD2     C13207   3.976   4.143  17.475 -0.5694  0.0699  0.8648
  898MPD2    C113208   3.941   4.107  17.602  0.8071 -0.7148  0.5594
  898MPD2    C213209   3.808   4.117  17.626 -0.2379  0.3969 -0.5803
  898MPD2    C313210   3.715   4.155  17.528  0.0617  0.1043 -0.3289
  898MPD2    C413211   3.760   4.195  17.403  0.3324  0.2736  0.4646
  898MPD2    C513212   3.893   4.190  17.380  0.2411 -0.0663  0.4002
  898MPD2     H13213   3.767   4.089  17.722 -0.1544  0.0494 -0.6459
  898MPD2    H113214   3.690   4.219  17.323  0.0911 -0.7912  0.3586
  898MPD2    H213215   4.078   4.138  17.440 -0.4653 -0.4911  1.2401
  898MPD2    H313216   3.924   4.225  17.282 -1.5945  0.2029 -0.0814
  898MPD2     N13217   3.577   4.151  17.565 -0.3783 -0.1968 -0.2357
  898MPD2    H513218   3.548   4.086  17.637  1.2357  0.1827  0.7655
  898MPD2    N113219   4.032   4.064  17.696  0.2667  0.1844  0.2302
  898MPD2    H713220   3.993   4.054   0.036  1.5143 -0.9763  0.6300
  899MPD2     C13221   4.469   4.468  16.965  0.2913  0.5385  0.0053
  899MPD2    C113222   4.432   4.532  17.079 -0.3454 -0.3129  0.6761
  899MPD2    C213223   4.467   4.471  17.203  0.2877  0.1229  0.3470
  899MPD2    C313224   4.521   4.343  17.204  0.1910  0.2154  0.1739
  899MPD2    C413225   4.567   4.288  17.085 -0.7757  0.1396 -0.4335
  899MPD2    C513226   4.544   4.352  16.967 -0.3760  0.5400 -0.8089
  899MPD2     H13227   4.431   4.517  17.293 -0.5265 -0.2468  0.2094
  899MPD2    H113228   4.622   4.194  17.083 -1.9838 -0.5942  0.4804
  899MPD2    H213229   4.438   4.503  16.867 -0.3039 -0.3969 -0.1413
  899MPD2    H313230   4.572   4.302  16.874 -0.3457 -0.7878 -0.0913
  899MPD2     N13231   4.551   4.275  17.329 -0.2180 -0.1494 -0.3237
  899MPD2    H513232   4.629   4.211  17.334 -0.1723  0.0949  2.2597
  899MPD2    N113233   4.365   4.651  17.066 -0.8181 -0.0706 -0.0341
  899MPD2    H713234   4.342   4.680  16.971  1.9561 -0.5763 -0.8435
  900MPD2     C13235   2.787   0.929  12.603  0.7346  0.4587  0.4168
  900MPD2    C113236   2.790   0.841  12.499  0.3970  1.0335 -0.6324
  900MPD2    C213237   2.691   0.854  12.402 -0.0820 -0.2202  0.2735
  900MPD2    C313238   2.588   0.945  12.404 -0.2172 -0.8150  0.4718
  900MPD2    C413239   2.576   1.020  12.522 -0.0926  0.5344  0.5227
  900MPD2    C513240   2.678   1.014  12.612 -0.4012 -0.0531  0.0106
  900MPD2     H13241   2.704   0.803  12.307  0.5462  0.4884 -0.0265
  900MPD2    H113242   2.491   1.087  12.528  0.6120  1.5415 -0.7725
  900MPD2    H213243   2.866   0.936  12.676  3.0903  0.8705 -2.1364
  900MPD2    H313244   2.678   1.080  12.698 -1.6009 -0.8826  0.6470
  900MPD2     N13245   2.491   0.946  12.291 -0.6810  0.1317  0.1992
  900MPD2    H513246   2.508   0.869  12.227 -3.3905 -0.2900  0.0061
  900MPD2    N113247   2.895   0.751  12.484 -0.3301  0.3947  0.2533
  900MPD2    H713248   2.986   0.776  12.521 -0.6990 -0.3940  1.6733
  901MPD2     C13249   3.003   4.421  12.375  0.3344 -0.2408  0.3060
  901MPD2    C113250   3.135   4.457  12.388 -0.0528  0.5291 -0.2208
  901MPD2    C213251   3.162   4.597  12.390  0.6278  0.6807 -0.2646
  901MPD2    C313252   3.062   4.695  12.393 -0.3068  0.4062  0.1202
  901MPD2    C413253   2.930   4.652  12.398 -0.0320  0.9033 -0.4489
  901MPD2    C513254   2.903   4.517  12.383 -0.1122 -0.6659  0.9092
  901MPD2     H13255   3.265   4.627  12.408  1.4604 -2.1283 -0.1906
  901MPD2    H113256   2.853   4.728  12.401 -0.0814  0.7805  1.5580
  901MPD2    H213257   2.972   4.317  12.374  0.3329 -0.2368 -0.0840
  901MPD2    H313258   2.801   4.480  12.384 -0.4961  0.4348  1.6109
  901MPD2     N13259   3.090   0.097  12.409 -0.6039  0.2435 -0.2996
  901MPD2    H513260   3.186   0.129  12.421 -0.2202 -0.5009 -1.3356
  901MPD2    N113261   3.234   4.356  12.378 -0.6095 -0.1569 -0.1557
  901MPD2    H713262   3.208   4.263  12.348  2.2333 -0.5549 -1.4441
  902MPD2     C13263   2.181   3.400  12.531 -0.1673  0.3152  0.1710
  902MPD2    C113264   2.290   3.418  12.457 -0.0053 -0.0244 -0.2557
  902MPD2    C213265   2.386   3.314  12.452 -0.0196  0.1793 -0.5510
  902MPD2    C313266   2.362   3.200  12.525  0.5069  0.1693  0.0293
  902MPD2    C413267   2.251   3.184  12.604 -0.0122 -0.3983 -0.3301
  902MPD2    C513268   2.161   3.286  12.604 -0.0303  0.2966  0.1315
  902MPD2     H13269   2.472   3.312  12.387  1.0623 -1.1828  0.9034
  902MPD2    H113270   2.231   3.091  12.656  3.1226 -0.3881  0.9008
  902MPD2    H213271   2.106   3.478  12.544 -0.7954 -0.0768 -1.0618
  902MPD2    H313272   2.078   3.277  12.673 -1.2747 -1.5632 -1.6099
  902MPD2     N13273   2.460   3.097  12.523  0.2334 -0.2888 -0.5061
  902MPD2    H513274   2.448   3.009  12.572  2.8640 -0.1686  0.3869
  902MPD2    N113275   2.305   3.552  12.405 -0.1181  0.1177 -0.2508
  902MPD2    H713276   2.245   3.626  12.440 -0.8241 -2.1668  3.3522
  903MPD2     C13277   3.016   3.229  12.107  0.6237  0.5329 -0.6042
  903MPD2    C113278   2.911   3.231  12.190 -0.4997 -0.4499  0.8218
  903MPD2    C213279   2.796   3.303  12.158  0.5220  1.1331  0.2472
  903MPD2    C313280   2.791   3.380  12.047  0.9570  0.5829  0.0969
  903MPD2    C413281   2.897   3.373  11.959  0.3332 -0.4478  0.4636
  903MPD2    C513282   3.006   3.292  11.990  0.7987 -0.6357  0.9749
  903MPD2     H13283   2.710   3.304  12.224 -1.0596 -0.3706 -1.7763
  903MPD2    H113284   2.883   3.433  11.870  1.3952 -0.4349  0.2988
  903MPD2    H213285   3.101   3.163  12.121  0.9381  1.3203  1.1428
  903MPD2    H313286   3.084   3.291  11.916 -0.1585  1.7786 -0.0714
  903MPD2     N13287   2.663   3.431  12.016  0.2430 -0.3846  0.1309
  903MPD2    H513288   2.595   3.420  12.091 -0.4110  1.2536 -0.2139
  903MPD2    N113289   2.898   3.154  12.305 -0.1874  1.0362  0.3299
  903MPD2    H713290   2.820   3.176  12.367  0.3089  2.4629  0.4515
  904MPD2     C13291   2.522   2.511  14.026  0.7889 -0.0486  0.3991
  904MPD2    C113292   2.546   2.648  14.036  0.8348 -0.7872  0.3848
  904MPD2    C213293   2.667   2.693  14.091  0.5255 -0.1972  0.9222
  904MPD2    C313294   2.766   2.608  14.133  0.4062 -0.1303  0.4662
  904MPD2    C413295   2.740   2.477  14.122  0.2671 -0.1683 -0.7800
  904MPD2    C513296   2.625   2.430  14.064 -0.5128 -0.5482  0.3597
  904MPD2     H13297   2.689   2.797  14.070  0.4440 -0.8313 -2.3981
  904MPD2    H113298   2.809   2.398  14.150  1.1422 -0.1776 -2.9717
  904MPD2    H213299   2.440   2.459  13.977 -1.2827  2.9300  0.7009
  904MPD2    H313300   2.618   2.322  14.052 -2.0801 -0.4529  0.4522
  904MPD2     N13301   2.877   2.664  14.196  0.2007  0.2394 -0.4153
  904MPD2    H513302   2.866   2.763  14.219 -3.5309 -0.1160 -0.6534
  904MPD2    N113303   2.448   2.743  13.997  0.0096 -0.2780 -0.3592
  904MPD2    H713304   2.465   2.834  14.038  3.3074 -1.4284  0.7662
  905MPD2     C13305   2.083   2.680  13.397 -0.4640 -0.1680 -0.0805
  905MPD2    C113306   2.192   2.742  13.443 -0.6906  0.2492  0.1509
  905MPD2    C213307   2.308   2.673  13.459 -0.2777  0.1471 -0.2831
  905MPD2    C313308   2.330   2.556  13.390  0.2335 -0.6051 -0.5180
  905MPD2    C413309   2.217   2.493  13.334 -0.1923  0.1264  0.0875
  905MPD2    C513310   2.094   2.562  13.328 -0.2334 -0.6366  0.7037
  905MPD2     H13311   2.380   2.711  13.531  0.8852 -0.0360 -1.3602
  905MPD2    H113312   2.230   2.392  13.295 -1.8720  1.4389 -3.8485
  905MPD2    H213313   1.988   2.732  13.389  0.5827  1.6050 -0.7392
  905MPD2    H313314   2.003   2.519  13.289 -0.7780  1.8966 -0.8639
  905MPD2     N13315   2.449   2.477  13.406  0.7425 -0.3509 -0.6082
  905MPD2    H513316   2.446   2.382  13.370  1.5347 -0.4754 -0.3481
  905MPD2    N113317   2.155   2.856  13.513  0.2208  0.2768 -0.3749
  905MPD2    H713318   2.060   2.864  13.548 -0.1548 -0.4925 -1.2198
  906MPD2     C13319   4.695   3.027  10.804 -0.5863  0.8475  0.3595
  906MPD2    C113320   4.667   2.909  10.732  0.6093  0.4820 -1.2203
  906MPD2    C213321   4.603   2.806  10.803 -0.4590 -0.1314 -1.1737
  906MPD2    C313322   4.579   2.810  10.943 -0.8598 -0.2329 -0.0384
  906MPD2    C413323   4.609   2.926  11.004 -0.0698  0.1693  0.3097
  906MPD2    C513324   4.662   3.037  10.936 -0.0920  0.6218  0.0773
  906MPD2     H13325   4.599   2.710  10.752  2.3902 -0.5470 -0.5959
  906MPD2    H113326   4.593   2.936  11.111  0.1096  0.8899  0.2713
  906MPD2    H213327   0.017   3.104  10.756  1.2112  0.6802  2.3711
  906MPD2    H313328   4.679   3.128  10.993  0.2076  1.4297 -1.2966
  906MPD2     N13329   4.517   2.709  11.020 -0.2131 -0.2891  0.3514
  906MPD2    H513330   4.498   2.735  11.117 -0.7541 -3.2215  1.0330
  906MPD2    N113331   4.700   2.878  10.598 -0.1339  0.6652 -0.2386
  906MPD2    H713332   4.682   2.783  10.569  0.9351  0.2669  0.4237
  907MPD2     C13333   2.895   2.249  15.638  0.0361 -0.2091 -0.2822
  907MPD2    C113334   2.964   2.135  15.610 -0.3771 -0.0117 -0.3880
  907MPD2    C213335   3.033   2.069  15.706 -0.0511 -0.4523 -0.1715
  907MPD2    C313336   3.049   2.130  15.829  0.2637 -0.0559  0.5592
  907MPD2    C413337   2.989   2.252  15.860 -0.0288  0.3460 -0.2658
  907MPD2    C513338   2.907   2.302  15.763  0.0086 -0.0919  0.0080
  907MPD2     H13339   3.090   1.981  15.678  1.3134  1.0598 -2.1636
  907MPD2    H113340   2.990   2.301  15.957  0.2252 -1.6601  0.7438
  907MPD2    H213341   2.818   2.295  15.578 -0.8812 -2.3061 -0.6882
  907MPD2    H313342   2.836   2.382  15.781  1.1570  0.5775  1.4922
  907MPD2     N13343   3.134   2.064  15.919  0.6945 -0.5541  0.4726
  907MPD2    H513344   3.171   1.975  15.889  0.9083 -0.9818  1.9752
  907MPD2    N113345   2.952   2.071  15.484  0.3589 -0.3331 -0.4292
  907MPD2    H713346   3.017   1.993  15.476 -0.8820 -1.3351 -0.7833
  908MPD2     C13347   1.338   3.219   9.633  0.1324  0.8573 -0.1089
  908MPD2    C113348   1.326   3.108   9.716  1.3094 -0.7392 -0.3036
  908MPD2    C213349   1.384   3.107   9.843  0.6217  0.3570  0.2329
  908MPD2    C313350   1.459   3.215   9.874 -0.3494 -0.0738 -0.2106
  908MPD2    C413351   1.480   3.315   9.784  0.2868  0.3357  0.2746
  908MPD2    C513352   1.417   3.325   9.665  0.8803 -0.1822 -0.2190
  908MPD2     H13353   1.363   3.039   9.925  0.5695 -0.7091 -0.6507
  908MPD2    H113354   1.547   3.396   9.813 -0.2202  1.4249 -1.5581
  908MPD2    H213355   1.286   3.214   9.538 -1.2925 -1.5566  0.7904
  908MPD2    H313356   1.422   3.410   9.597  1.1832  1.6403  2.0816
  908MPD2     N13357   1.508   3.214  10.010  0.2511 -0.1510 -0.0258
  908MPD2    H513358   1.509   3.123  10.055 -0.2899 -0.3372 -0.3831
  908MPD2    N113359   1.233   3.011   9.677  0.8392 -0.2813 -0.0860
  908MPD2    H713360   1.195   3.024   9.584 -1.2015 -0.5337  0.7105
  909MPD2     C13361   1.193   0.841  11.248 -0.0173 -0.2848  0.4479
  909MPD2    C113362   1.205   0.976  11.276 -0.5077 -0.4652  0.1816
  909MPD2    C213363   1.164   1.021  11.405 -0.0239  0.2149  0.6875
  909MPD2    C313364   1.128   0.923  11.501  0.1210  0.4918  0.3115
  909MPD2    C413365   1.127   0.785  11.468  0.2357  0.9837  0.8647
  909MPD2    C513366   1.149   0.747  11.338 -0.2679  0.2892 -0.4194
  909MPD2     H13367   1.170   1.124  11.437  0.1280  0.7335 -0.9962
  909MPD2    H113368   1.087   0.710  11.535  0.8366 -1.0776 -1.0856
  909MPD2    H213369   1.227   0.805  11.151  0.8755 -1.2925  1.1353
  909MPD2    H313370   1.147   0.643  11.308 -1.0957  0.0372  0.5020
  909MPD2     N13371   1.084   0.970  11.630 -0.2008  0.3772  0.3885
  909MPD2    H513372   1.063   1.069  11.632 -0.4078  0.3472 -0.6186
  909MPD2    N113373   1.270   1.072  11.191 -0.5040 -0.1988  0.0776
  909MPD2    H713374   1.312   1.153  11.235  1.7507 -0.3527 -1.7818
  910MPD2     C13375   2.530   2.657  16.279 -0.4803 -0.5441 -0.2761
  910MPD2    C113376   2.617   2.579  16.207  0.4446 -0.1921 -0.3110
  910MPD2    C213377   2.631   2.614  16.068  0.0644  0.0302 -0.6382
  910MPD2    C313378   2.561   2.723  16.014  0.0936 -0.2753 -0.4538
  910MPD2    C413379   2.478   2.793  16.098  0.8771  0.0508 -0.3879
  910MPD2    C513380   2.461   2.761  16.228  0.5087  0.4353  0.1016
  910MPD2     H13381   2.708   2.559  16.015  0.6571 -0.2940  0.5596
  910MPD2    H113382   2.428   2.881  16.057 -0.3006 -0.7135 -0.5821
  910MPD2    H213383   2.504   2.628  16.381 -2.9444 -0.4732 -0.8906
  910MPD2    H313384   2.405   2.825  16.295 -0.9163 -1.9210  1.1605
  910MPD2     N13385   2.562   2.762  15.880 -0.2170 -0.1682  0.3406
  910MPD2    H513386   2.509   2.845  15.855 -0.6800 -0.6783 -0.3632
  910MPD2    N113387   2.680   2.462  16.263 -0.1329  0.0079  0.0944
  910MPD2    H713388   2.741   2.410  16.201  0.1559  2.9971 -2.1595
  911MPD2     C13389   0.308   2.798  16.000  0.1529 -0.2249 -0.0917
  911MPD2    C113390   0.303   2.797  16.139 -0.4357  0.0952  0.0178
  911MPD2    C213391   0.240   2.904  16.205  1.0900 -0.0921 -0.1506
  911MPD2    C313392   0.194   3.018  16.138  0.5085 -0.3874 -0.0791
  911MPD2    C413393   0.205   3.017  15.997  0.8744 -0.4982 -0.4835
  911MPD2    C513394   0.257   2.910  15.933  0.3374 -0.0315 -0.2475
  911MPD2     H13395   0.222   2.904  16.312  2.2492  0.0729  0.0441
  911MPD2    H113396   0.165   3.098  15.938  2.3529  0.3692 -0.3212
  911MPD2    H213397   0.348   2.715  15.943 -2.9643 -2.5265  1.0650
  911MPD2    H313398   0.261   2.909  15.825  1.4690  0.0891 -0.2084
  911MPD2     N13399   0.130   3.134  16.189 -0.4312 -0.3425  0.5116
  911MPD2    H513400   0.092   3.198  16.119  1.5689 -1.1798 -1.3500
  911MPD2    N113401   0.376   2.690  16.193  0.0410  0.0492  0.2486
  911MPD2    H713402   0.438   2.636  16.134  2.0779  1.0102  1.5171
  912MPD2     C13403   4.541   3.137  15.866  0.2637  0.6218  0.0146
  912MPD2    C113404   4.508   3.138  15.999 -0.7715  0.4574 -0.0468
  912MPD2    C213405   4.537   3.025  16.076  0.7576 -0.2415 -0.0770
  912MPD2    C313406   4.606   2.913  16.017 -0.3954 -0.2901 -0.4189
  912MPD2    C413407   4.640   2.925  15.885 -0.7926  0.1664 -0.1796
  912MPD2    C513408   4.605   3.032  15.810  0.1854  0.3090 -0.4042
  912MPD2     H13409   4.506   3.008  16.179  0.4233  2.7560  0.2992
  912MPD2    H113410   4.700   2.854  15.828 -1.0718  0.1408 -0.4412
  912MPD2    H213411   4.521   3.219  15.797 -0.3690  0.0708 -0.4511
  912MPD2    H313412   4.642   3.038  15.709  0.5159  1.2753 -0.2222
  912MPD2     N13413   4.646   2.807  16.102 -0.0968  0.1247  0.1488
  912MPD2    H513414   4.645   2.819  16.203 -2.8644  1.0272  0.0052
  912MPD2    N113415   4.468   3.256  16.062 -0.0159  0.5231 -0.6161
  912MPD2    H713416   4.440   3.334  16.002 -0.5889  1.3785  0.7745
  913MPD2     C13417   0.085   3.937  10.705  0.4527  0.9375  0.2550
  913MPD2    C113418   0.200   3.943  10.629  0.2869  0.2497 -0.4668
  913MPD2    C213419   0.260   4.065  10.606 -0.1534  0.0125  0.3596
  913MPD2    C313420   0.199   4.185  10.631  0.4948  0.9388  0.1521
  913MPD2    C413421   0.082   4.173  10.702  0.3287 -0.4210 -0.5156
  913MPD2    C513422   0.032   4.057  10.747  1.0185 -0.8545  0.7301
  913MPD2     H13423   0.362   4.065  10.572 -0.1151  1.1740  0.4771
  913MPD2    H113424   0.024   4.262  10.725  0.2318 -0.6280  0.0433
  913MPD2    H213425   0.041   3.841  10.732 -0.9937  1.5793  0.1566
  913MPD2    H313426   4.679   4.054  10.805 -0.3519 -2.0499 -1.4747
  913MPD2     N13427   0.262   4.310  10.602 -0.0486 -0.7944 -0.3121
  913MPD2    H513428   0.218   4.388  10.650  0.6592 -0.4790 -0.1764
  913MPD2    N113429   0.269   3.822  10.595 -0.6156 -0.4605 -0.8940
  913MPD2    H713430   0.217   3.740  10.624  0.3585 -0.9395 -0.4773
  914MPD2     C13431   3.156   3.806  11.755  0.1637  0.2881  0.1852
  914MPD2    C113432   3.114   3.931  11.803  0.3035 -0.2004  0.6086
  914MPD2    C213433   3.184   3.986  11.909  0.3171 -0.2167  0.0750
  914MPD2    C313434   3.280   3.917  11.981 -0.1067 -0.6148  0.0923
  914MPD2    C413435   3.311   3.790  11.945 -0.2385 -0.3082  0.1254
  914MPD2    C513436   3.254   3.741  11.828  0.6639  0.7225 -0.3177
  914MPD2     H13437   3.164   4.086  11.945  1.4686  0.2525 -0.5637
  914MPD2    H113438   3.385   3.726  11.992 -1.0484 -0.3183  1.3919
  914MPD2    H213439   3.112   3.767  11.663  0.6619 -1.7228  0.8029
  914MPD2    H313440   3.292   3.652  11.780 -0.5258  0.2597 -0.3870
  914MPD2     N13441   3.337   3.982  12.092 -0.4506  0.1769  0.4066
  914MPD2    H513442   3.314   4.080  12.106  0.1637  0.3794  0.0042
  914MPD2    N113443   3.006   4.002  11.734  0.6793  0.1570  0.2163
  914MPD2    H713444   2.952   3.960  11.659  1.3948  0.2001 -0.3219
  915MPD2     C13445   1.774   4.626  15.902  0.1373 -0.1629  0.4870
  915MPD2    C113446   1.638   4.642  15.890 -0.6993  0.2831 -0.2854
  915MPD2    C213447   1.572   4.704  15.993 -0.6936 -0.3112  0.0487
  915MPD2    C313448   1.643   0.022  16.099 -0.4975 -0.5476 -0.2663
  915MPD2    C413449   1.781   0.011  16.098 -0.6672 -0.2771 -0.0728
  915MPD2    C513450   1.845   4.698  15.995  0.1487  0.2761  0.2315
  915MPD2     H13451   1.464   4.710  15.999 -0.6968 -0.8191  0.4638
  915MPD2    H113452   1.839   0.045  16.184  0.5507  1.7502 -1.6705
  915MPD2    H213453   1.830   4.565  15.833  2.8988  2.5413  0.3189
  915MPD2    H313454   1.953   4.695  15.991  0.1638 -0.0591  0.8940
  915MPD2     N13455   1.574   0.096  16.191  0.1701 -0.1690 -0.1588
  915MPD2    H513456   1.472   0.091  16.197 -0.0013  2.3806 -1.0775
  915MPD2    N113457   1.576   4.575  15.783  0.0369 -0.2267  0.1288
  915MPD2    H713458   1.632   4.515  15.724  1.8078  1.2298  0.3533
  916MPD2     C13459   4.210   2.893  16.111  0.0066 -0.6211 -0.2976
  916MPD2    C113460   4.232   2.794  16.199 -0.4359 -0.1529 -0.2117
  916MPD2    C213461   4.289   2.673  16.152  0.4103 -0.8301 -0.3226
  916MPD2    C313462   4.327   2.655  16.019 -0.0292 -0.1595 -0.8035
  916MPD2    C413463   4.285   2.751  15.932  0.9016 -0.3703 -0.2675
  916MPD2    C513464   4.233   2.866  15.977 -0.4076 -0.5166 -0.6387
  916MPD2     H13465   4.302   2.592  16.222  2.6106 -0.4036 -0.2368
  916MPD2    H113466   4.316   2.745  15.828 -3.2290 -2.9354 -1.3533
  916MPD2    H213467   4.169   2.989  16.141  2.5044 -0.0153  1.1392
  916MPD2    H313468   4.207   2.938  15.900  1.4142 -2.0344 -2.6882
  916MPD2     N13469   4.386   2.542  15.962  0.3989 -0.0320  0.1106
  916MPD2    H513470   4.426   2.558  15.870 -1.1465 -0.3345 -0.6256
  916MPD2    N113471   4.196   2.818  16.331 -0.4180  0.0951  0.8493
  916MPD2    H713472   4.160   2.913  16.342  0.2326  0.7851 -3.1934
  917MPD2     C13473   4.524   0.810  11.523  0.4907  0.0363 -0.3940
  917MPD2    C113474   4.618   0.804  11.624  0.3888 -0.9687 -0.0864
  917MPD2    C213475   0.013   0.788  11.586  0.0043  0.6056 -0.2632
  917MPD2    C313476   0.043   0.814  11.454  0.6348  0.3333  0.5377
  917MPD2    C413477   4.684   0.839  11.361 -0.0485  0.1468 -0.0773
  917MPD2    C513478   4.551   0.839  11.399 -0.0037  0.0004 -0.6189
  917MPD2     H13479   0.089   0.767  11.661  0.4290  0.1712 -0.8110
  917MPD2    H113480   4.709   0.862  11.258 -0.8574 -0.7062 -0.4639
  917MPD2    H213481   4.420   0.802  11.552  0.2856  1.3731 -0.7516
  917MPD2    H313482   4.472   0.842  11.325  0.7236  0.9875 -1.3572
  917MPD2     N13483   0.181   0.808  11.415  0.0738 -0.4781  0.0776
  917MPD2    H513484   0.210   0.854  11.329 -0.9960  2.3649  1.2472
  917MPD2    N113485   4.566   0.794  11.754  0.3968  0.0102  0.3934
  917MPD2    H713486   4.465   0.789  11.766  0.4623  1.6204  1.6052
  918MPD2     C13487   0.300   0.619  12.625  0.7945  0.5282 -0.6639
  918MPD2    C113488   0.338   0.597  12.489  0.2233  0.2055  0.3107
  918MPD2    C213489   0.237   0.626  12.401 -0.2720  0.3229  0.3823
  918MPD2    C313490   0.112   0.675  12.433 -1.5424  0.1659  0.5389
  918MPD2    C413491   0.084   0.707  12.563  0.3275  0.0900 -1.2852
  918MPD2    C513492   0.184   0.676  12.655  0.4462  1.1136  0.0063
  918MPD2     H13493   0.255   0.624  12.294 -1.1126 -1.5430  0.2689
  918MPD2    H113494   4.734   0.759  12.596  0.6632 -1.8289  2.7127
  918MPD2    H213495   0.376   0.614  12.702  0.2038 -1.1029 -0.1876
  918MPD2    H313496   0.162   0.684  12.761 -1.3103  1.8020 -0.3994
  918MPD2     N13497   0.018   0.695  12.328 -0.5466  0.9764  0.7879
  918MPD2    H513498   0.060   0.689  12.235  1.5339 -0.4812  1.8384
  918MPD2    N113499   0.464   0.560  12.441 -0.1354 -0.4562 -0.2567
  918MPD2    H713500   0.484   0.558  12.341  0.7631 -3.1656 -0.0049
  919MPD2     C13501   0.593   4.125  11.836 -0.1105 -0.9305 -0.3769
  919MPD2    C113502   0.661   4.042  11.752  0.4674 -0.3219 -0.2492
  919MPD2    C213503   0.740   4.086  11.650 -0.0069 -0.5499 -0.0633
  919MPD2    C313504   0.762   4.219  11.621 -0.3838 -0.3143  0.0874
  919MPD2    C413505   0.692   4.305  11.698 -0.3482 -0.0766  0.6539
  919MPD2    C513506   0.617   4.260  11.807 -0.6052 -0.1267 -0.0330
  919MPD2     H13507   0.780   4.010  11.584 -0.5875 -0.6093 -0.3486
  919MPD2    H113508   0.689   4.412  11.681 -1.6195 -0.1641  0.3723
  919MPD2    H213509   0.522   4.099  11.913 -0.3542 -4.1393 -1.7108
  919MPD2    H313510   0.552   4.336  11.848  0.4748 -0.8901  3.0631
  919MPD2     N13511   0.838   4.273  11.518  0.0728 -0.1086 -0.8621
  919MPD2    H513512   0.836   4.374  11.518 -0.6017 -0.1221 -0.7297
  919MPD2    N113513   0.642   3.899  11.748  1.5430  0.3850 -0.5302
  919MPD2    H713514   0.694   3.842  11.682  0.5474 -2.3531  1.0321
  920MPD2     C13515   0.893   0.178  10.765  0.2434 -0.1730  0.0732
  920MPD2    C113516   0.794   0.095  10.805 -0.1377  0.2248  0.1609
  920MPD2    C213517   0.829   4.730  10.886  0.2927  0.4847  0.0404
  920MPD2    C313518   0.962   4.700  10.909  0.6991  0.4267  0.2146
  920MPD2    C413519   1.064   0.042  10.856 -1.3412 -0.3046  0.6058
  920MPD2    C513520   1.027   0.148  10.780 -0.0591  0.0704  0.1540
  920MPD2     H13521   0.757   4.655  10.916  1.7011 -1.5025 -1.5502
  920MPD2    H113522   1.169   0.018  10.866 -0.7609  1.1208 -1.9229
  920MPD2    H213523   0.863   0.263  10.705 -0.1007 -0.8157 -0.6665
  920MPD2    H313524   1.097   0.220  10.738  0.8834 -1.7952 -1.4730
  920MPD2     N13525   1.000   4.588  10.986  0.1386  0.1245 -0.2073
  920MPD2    H513526   1.096   4.555  10.979 -0.2671 -0.9645 -0.5397
  920MPD2    N113527   0.657   0.119  10.779  0.4187  0.6838  0.4078
  920MPD2    H713528   0.590   0.048  10.805  1.3540  0.4793  2.2238
  921MPD2     C13529   1.120   2.952  16.652  0.1253  0.0321  0.3799
  921MPD2    C113530   1.142   2.879  16.535  0.4728 -0.6859 -0.1169
  921MPD2    C213531   1.050   2.780  16.497  0.2586 -0.2674  0.3139
  921MPD2    C313532   0.944   2.760  16.576  0.4692 -0.3932  0.1973
  921MPD2    C413533   0.931   2.828  16.694 -0.3180  0.2604 -0.0273
  921MPD2    C513534   1.009   2.930  16.726 -0.4099 -0.2457  0.3939
  921MPD2     H13535   1.062   2.720  16.408 -0.5775  0.9531 -0.6323
  921MPD2    H113536   0.861   2.796  16.770  1.5194  0.6740  1.8578
  921MPD2    H213537   1.188   3.030  16.684  1.0771 -0.5666 -0.1669
  921MPD2    H313538   1.003   2.977  16.823 -0.7402 -1.0219  0.7439
  921MPD2     N13539   0.854   2.656  16.544  0.2887  0.8256  0.3384
  921MPD2    H513540   0.876   2.604  16.460  0.7852  1.7208 -0.0732
  921MPD2    N113541   1.256   2.914  16.458  0.5557 -0.0736  0.1284
  921MPD2    H713542   1.313   2.992  16.491 -0.7091 -0.0009  2.1321
  922MPD2     C13543   2.558   2.295   0.303  0.0728 -0.1373 -0.0892
  922MPD2    C113544   2.491   2.185   0.354 -0.1146  0.7637  0.2322
  922MPD2    C213545   2.429   2.092   0.265 -0.4254 -0.2069 -0.3429
  922MPD2    C313546   2.432   2.117   0.128  0.3847  0.0917 -0.7229
  922MPD2    C413547   2.516   2.215   0.078 -0.0193 -0.4629 -0.1101
  922MPD2    C513548   2.573   2.300   0.167 -0.5473  0.4214 -0.3383
  922MPD2     H13549   2.372   2.013   0.313 -0.7562 -0.3506 -0.9783
  922MPD2    H113550   2.522   2.241  17.726  0.6186  0.4919  0.1658
  922MPD2    H213551   2.611   2.367   0.364 -1.3080  0.5707  0.2501
  922MPD2    H313552   2.626   2.388   0.133 -0.4741  1.2645  1.9380
  922MPD2     N13553   2.352   2.043   0.038 -0.0378 -0.4433 -0.4311
  922MPD2    H513554   2.269   1.999   0.075  0.5887 -1.2806 -0.0373
  922MPD2    N113555   2.475   2.173   0.494  0.1093 -0.2244 -0.0788
  922MPD2    H713556   2.426   2.094   0.536 -0.5532  1.7217  2.8122
  923MPD2     C13557   3.801   3.556   9.308 -0.2389 -0.3965  0.1070
  923MPD2    C113558   3.683   3.559   9.379  0.2444  0.6478  0.5995
  923MPD2    C213559   3.684   3.559   9.521  0.6597 -0.0043 -0.0891
  923MPD2    C313560   3.808   3.565   9.580 -0.4394 -1.4948 -0.5717
  923MPD2    C413561   3.927   3.568   9.507 -0.4705 -0.4451 -0.1171
  923MPD2    C513562   3.919   3.551   9.370 -0.0638  0.1863  0.2559
  923MPD2     H13563   3.594   3.563   9.580  0.3935 -1.4195 -0.4186
  923MPD2    H113564   4.027   3.593   9.542 -0.7800 -0.7396  1.0037
  923MPD2    H213565   3.805   3.554   9.199 -1.0037  1.8444  0.0313
  923MPD2    H313566   4.007   3.552   9.305  1.0593  0.1641  1.7673
  923MPD2     N13567   3.821   3.550   9.720  0.2166 -0.5115 -0.2150
  923MPD2    H513568   3.914   3.531   9.755  0.7639  0.4756 -1.1085
  923MPD2    N113569   3.566   3.549   9.300  0.1743 -0.0368 -0.1349
  923MPD2    H713570   3.572   3.553   9.199 -0.6392  0.4532 -0.1660
  924MPD2     C13571   3.417   1.360  15.849  0.8455 -0.0834  0.3591
  924MPD2    C113572   3.407   1.369  15.981 -0.0859 -0.0806 -0.2057
  924MPD2    C213573   3.428   1.493  16.041 -0.3386 -0.4316 -1.2806
  924MPD2    C313574   3.431   1.607  15.959 -0.3578 -0.0028 -0.3606
  924MPD2    C413575   3.418   1.598  15.820 -0.1096  1.0751  0.5360
  924MPD2    C513576   3.412   1.469  15.769  0.9458 -0.0554  0.7776
  924MPD2     H13577   3.424   1.493  16.150 -0.6398 -1.5420 -1.2955
  924MPD2    H113578   3.408   1.686  15.758  1.3132  0.3094 -0.7951
  924MPD2    H213579   3.410   1.263  15.801  0.3722 -0.7139  1.7086
  924MPD2    H313580   3.409   1.448  15.663  1.7096 -1.4328  1.0238
  924MPD2     N13581   3.438   1.733  16.014  0.0081  0.7460  0.0762
  924MPD2    H513582   3.448   1.816  15.956 -0.0775 -0.0861 -1.1176
  924MPD2    N113583   3.383   1.252  16.052  0.3460 -0.4865  0.3039
  924MPD2    H713584   3.360   1.164  16.006 -0.4148 -0.1870  0.1141
  925MPD2     C13585   2.096   4.014  14.690  0.3513 -0.5076  0.1569
  925MPD2    C113586   2.109   3.881  14.664  0.7832 -0.1127 -0.3983
  925MPD2    C213587   2.085   3.791  14.764 -0.1828 -1.0076 -0.6154
  925MPD2    C313588   2.036   3.832  14.887 -0.4235 -0.4610 -0.0391
  925MPD2    C413589   1.994   3.966  14.903 -0.3734  0.0605 -1.2612
  925MPD2    C513590   2.040   4.056  14.809 -0.6719 -0.7845 -0.1603
  925MPD2     H13591   2.105   3.686  14.745  0.7464 -1.0945  0.9015
  925MPD2    H113592   1.941   4.000  14.991  0.4185 -2.8408  0.3193
  925MPD2    H213593   2.104   4.084  14.608  0.2750  0.3401  0.8867
  925MPD2    H313594   2.038   4.163  14.829 -0.2238 -0.7519 -0.2733
  925MPD2     N13595   1.970   3.738  14.967 -0.1571 -0.2431 -1.2864
  925MPD2    H513596   1.906   3.778  15.035  0.1145 -0.4811 -0.8854
  925MPD2    N113597   2.144   3.823  14.538 -0.0366  0.2505  0.3757
  925MPD2    H713598   2.143   3.722  14.528 -1.3275  0.3104 -0.1354
  926MPD2     C13599   0.933   1.815  13.531 -0.1362  0.0960 -0.2183
  926MPD2    C113600   0.896   1.936  13.470  0.7906 -0.0859  0.6702
  926MPD2    C213601   0.994   2.028  13.440 -0.2668  0.2294  0.2515
  926MPD2    C313602   1.134   1.994  13.450  0.3471 -0.1480  0.2099
  926MPD2    C413603   1.170   1.878  13.508 -0.0628 -0.4402  0.6216
  926MPD2    C513604   1.073   1.792  13.542 -0.3929 -0.7069 -0.1763
  926MPD2     H13605   0.960   2.117  13.388 -0.1268  0.7738  1.0972
  926MPD2    H113606   1.272   1.844  13.526  0.2117  0.6131  1.0835
  926MPD2    H213607   0.858   1.746  13.569  0.8311 -1.5583 -1.2850
  926MPD2    H313608   1.101   1.694  13.581  0.9102 -0.0872  0.4441
  926MPD2     N13609   1.237   2.076  13.396 -0.2929 -0.3241  0.1291
  926MPD2    H513610   1.326   2.071  13.445 -0.4523 -0.9267  0.3561
  926MPD2    N113611   0.762   1.961  13.440 -0.1737  0.1522 -0.3670
  926MPD2    H713612   0.753   2.044  13.383  1.9643 -0.5007 -1.6604
  927MPD2     C13613   1.486   4.437   0.009  0.1473  0.4894  0.0673
  927MPD2    C113614   1.363   4.492  17.723  0.6290  0.0990  0.0003
  927MPD2    C213615   1.358   4.540  17.596  0.8893  0.2808  0.3606
  927MPD2    C313616   1.463   4.525  17.509  0.8900 -0.1318 -0.1389
  927MPD2    C413617   1.573   4.464  17.549 -0.2341  0.1460 -0.0539
  927MPD2    C513618   1.594   4.428  17.684  0.1833  0.2247  0.6635
  927MPD2     H13619   1.259   4.571  17.564  0.7016  0.4965  1.1488
  927MPD2    H113620   1.663   4.448  17.489 -0.5739 -1.7850 -0.0267
  927MPD2    H213621   1.503   4.420   0.115 -0.7506 -1.2430 -0.0645
  927MPD2    H313622   1.692   4.403  17.723  1.1098  1.3060 -0.9989
  927MPD2     N13623   1.448   4.577  17.380 -0.1013  0.4186 -0.3071
  927MPD2    H513624   1.361   4.626  17.364 -1.2738 -1.1973  1.1251
  927MPD2    N113625   1.267   4.517   0.072  0.2502  0.1961  0.0708
  927MPD2    H713626   1.266   4.478   0.166 -0.4914 -1.2343 -0.5320
  928MPD2     C13627   3.587   3.728   1.008 -0.4868  0.9410 -0.3741
  928MPD2    C113628   3.708   3.703   1.070  0.4313 -0.1350 -0.6355
  928MPD2    C213629   3.813   3.669   0.986  1.1418  0.1789 -0.0734
  928MPD2    C313630   3.797   3.649   0.852 -0.8272  0.2492  0.4404
  928MPD2    C413631   3.679   3.683   0.795 -0.0528  0.0023  0.1147
  928MPD2    C513632   3.577   3.730   0.873  0.2821 -0.4372  1.1942
  928MPD2     H13633   3.911   3.651   1.029  1.0568  1.2115  0.5604
  928MPD2    H113634   3.666   3.676   0.687 -2.0118 -0.0206  0.3616
  928MPD2    H213635   3.501   3.759   1.067 -0.3477 -0.6299  0.6473
  928MPD2    H313636   3.480   3.751   0.829  0.0135 -0.8154  1.6059
  928MPD2     N13637   3.897   3.604   0.771 -0.0026 -0.1652  0.3618
  928MPD2    H513638   3.875   3.591   0.673 -1.9500 -0.0778  0.7898
  928MPD2    N113639   3.710   3.710   1.217 -0.1154  0.6851  0.3527
  928MPD2    H713640   3.620   3.732   1.258 -0.3917 -1.2500  0.8166
  929MPD2     C13641   3.805   3.068   9.701  0.1607 -0.3558 -0.0386
  929MPD2    C113642   3.752   2.989   9.797 -0.2393  0.4918  0.3018
  929MPD2    C213643   3.621   3.021   9.833  0.4214  0.2680 -0.2731
  929MPD2    C313644   3.547   3.127   9.786  0.3188  0.8499  0.8368
  929MPD2    C413645   3.607   3.199   9.688 -0.4085 -0.2140  0.3829
  929MPD2    C513646   3.731   3.167   9.646  0.2806 -0.1798 -0.1861
  929MPD2     H13647   3.579   2.966   9.917  2.0282 -1.2479 -0.4709
  929MPD2    H113648   3.547   3.277   9.643 -0.2476  0.3168  1.0956
  929MPD2    H213649   3.906   3.054   9.664 -0.4407  1.2687 -2.2521
  929MPD2    H313650   3.772   3.239   9.577 -1.1847  1.3249  0.5128
  929MPD2     N13651   3.405   3.140   9.799  0.4269 -0.5345  0.3221
  929MPD2    H513652   3.362   3.225   9.763  1.7753  0.3192  0.7708
  929MPD2    N113653   3.831   2.884   9.854  0.9291 -0.6253  0.4983
  929MPD2    H713654   3.930   2.895   9.835  0.5065  0.2474 -1.1223
  930MPD2     C13655   0.533   4.646  14.400 -0.6509  0.1277  0.0633
  930MPD2    C113656   0.635   4.706  14.328 -0.4062 -0.3878 -0.5301
  930MPD2    C213657   0.648   4.698  14.191  0.3786  0.1983  0.1855
  930MPD2    C313658   0.571   4.611  14.123  0.5261  0.1346  0.2893
  930MPD2    C413659   0.461   4.555  14.190  0.5798  0.2102  0.5031
  930MPD2    C513660   0.446   4.569  14.324 -0.0030  0.4384  0.4798
  930MPD2     H13661   0.717   0.028  14.143  0.8571  0.9764  1.9785
  930MPD2    H113662   0.387   4.493  14.141 -0.0026  2.1345 -1.0512
  930MPD2    H213663   0.527   4.664  14.506 -0.3723  2.5775 -0.3465
  930MPD2    H313664   0.373   4.513  14.382  0.1296  0.1613  0.3772
  930MPD2     N13665   0.581   4.608  13.978  0.2619 -0.3636 -0.3432
  930MPD2    H513666   0.499   4.578  13.926  1.7571  0.2186 -2.9993
  930MPD2    N113667   0.721   0.070  14.386 -0.4476 -0.9977 -0.6629
  930MPD2    H713668   0.783   0.123  14.326  0.6399 -0.8062  0.6151
  931MPD2     C13669   1.186   0.321   0.723 -1.1105  0.6900 -0.6479
  931MPD2    C113670   1.208   0.188   0.676  0.1216  0.0329 -0.7949
  931MPD2    C213671   1.268   0.097   0.763 -0.0737 -1.2526 -0.1131
  931MPD2    C313672   1.292   0.133   0.900 -0.0721  0.1597 -0.3056
  931MPD2    C413673   1.268   0.265   0.943  0.2843  0.3052 -0.2677
  931MPD2    C513674   1.214   0.358   0.854  0.3454 -0.3113 -0.1670
  931MPD2     H13675   1.280   4.731   0.739 -1.0259 -0.9770 -1.8067
  931MPD2    H113676   1.281   0.286   1.049 -0.8356  1.9396 -0.4429
  931MPD2    H213677   1.122   0.392   0.672  0.5969  1.3496 -1.8718
  931MPD2    H313678   1.184   0.456   0.888  1.3659 -0.2369  0.5279
  931MPD2     N13679   1.335   0.040   0.996 -0.5001 -0.0606 -0.2290
  931MPD2    H513680   1.352   0.079   1.088  1.1016 -0.2133 -0.4447
  931MPD2    N113681   1.157   0.144   0.552  0.7397 -0.1534  0.6792
  931MPD2    H713682   1.114   0.217   0.496 -1.2892  0.3640  2.9193
  932MPD2     C13683   2.381   3.587  11.278 -0.2765 -0.3979 -0.5516
  932MPD2    C113684   2.486   3.667  11.315  0.8804  0.9949 -0.0029
  932MPD2    C213685   2.594   3.614  11.379 -0.1926  1.1950 -1.0235
  932MPD2    C313686   2.600   3.483  11.408 -0.3659 -0.0000  0.0707
  932MPD2    C413687   2.487   3.402  11.391 -0.9151 -0.2537 -0.2226
  932MPD2    C513688   2.382   3.456  11.324  0.3668  0.0231  0.6168
  932MPD2     H13689   2.677   3.681  11.399  0.3673  0.2538 -0.2567
  932MPD2    H113690   2.488   3.298  11.421  0.6450 -0.2390 -0.2172
  932MPD2    H213691   2.291   3.619  11.227 -1.6960 -1.7383  1.1062
  932MPD2    H313692   2.291   3.402  11.299 -0.5785  1.6531  0.5226
  932MPD2     N13693   2.716   3.424  11.459  0.1276  0.0832 -0.1293
  932MPD2    H513694   2.715   3.331  11.501 -0.2386  0.7159  1.2607
  932MPD2    N113695   2.484   3.807  11.292  0.1670 -0.5095  1.0293
  932MPD2    H713696   2.557   3.864  11.334 -1.6244  1.7526  1.0377
  933MPD2     C13697   3.389   4.051   1.935 -0.0116  0.1278  0.7416
  933MPD2    C113698   3.377   3.991   1.810 -0.5037 -0.2097  0.5029
  933MPD2    C213699   3.252   3.997   1.744 -0.7660  0.2639 -0.1639
  933MPD2    C313700   3.154   4.072   1.799 -0.2621  0.2778  0.8436
  933MPD2    C413701   3.166   4.135   1.917  0.6587  0.3463 -0.5772
  933MPD2    C513702   3.285   4.123   1.989 -0.5238  0.2953 -0.3129
  933MPD2     H13703   3.227   3.938   1.656 -2.0797 -0.4010  0.6651
  933MPD2    H113704   3.084   4.187   1.966  0.1688 -0.1088 -0.9175
  933MPD2    H213705   3.475   4.057   2.001  0.1203  0.8886  0.5000
  933MPD2    H313706   3.302   4.179   2.080  1.0122 -1.6126  0.5725
  933MPD2     N13707   3.030   4.097   1.726  0.5113 -0.2887 -0.2334
  933MPD2    H513708   2.955   4.149   1.770  1.6552  1.6047 -0.5132
  933MPD2    N113709   3.501   3.936   1.751  0.4909 -0.3521 -0.3317
  933MPD2    H713710   3.581   3.943   1.813  0.4195  1.4965 -0.4336
  934MPD2     C13711   4.436   0.798   1.862  0.0810 -0.6261 -0.2064
  934MPD2    C113712   4.545   0.762   1.787 -0.0241 -0.0779 -0.2744
  934MPD2    C213713   4.526   0.664   1.693 -0.9373  0.2090 -0.0571
  934MPD2    C313714   4.407   0.593   1.675  0.1302 -0.1260  0.7102
  934MPD2    C413715   4.300   0.642   1.744  0.7988 -0.0859  0.6255
  934MPD2    C513716   4.316   0.737   1.843 -0.0172  0.2840 -0.0509
  934MPD2     H13717   4.619   0.650   1.638 -1.7414 -2.7942 -0.6451
  934MPD2    H113718   4.199   0.626   1.710  1.1216  0.7667 -0.7186
  934MPD2    H213719   4.439   0.873   1.940  0.2083  0.4898 -1.2687
  934MPD2    H313720   4.229   0.780   1.892 -1.5261  1.0308 -3.4003
  934MPD2     N13721   4.394   0.502   1.572 -0.4385 -0.1973  0.3131
  934MPD2    H513722   4.299   0.472   1.555 -1.0966  2.2923 -0.4388
  934MPD2    N113723   4.672   0.820   1.802 -0.0044  0.0088 -0.0091
  934MPD2    H713724   0.001   0.783   1.737 -0.2883 -0.9661  0.2492
  935MPD2     C13725   0.325   4.675   1.035  0.4322  0.1184  0.2904
  935MPD2    C113726   0.201   4.653   0.977  0.3580  0.6010  0.3585
  935MPD2    C213727   0.096   4.716   1.031 -0.5964 -0.8484  0.2345
  935MPD2    C313728   0.109   0.075   1.132  0.0591 -1.2114 -0.2536
  935MPD2    C413729   0.241   0.106   1.173  0.2964 -0.7261 -0.1736
  935MPD2    C513730   0.347   0.034   1.133 -0.1307 -0.1004  1.1470
  935MPD2     H13731   4.738   4.674   1.004 -0.5211 -0.8483 -0.0340
  935MPD2    H113732   0.262   0.183   1.247 -1.0327 -0.2926 -0.2597
  935MPD2    H213733   0.408   4.620   0.992  1.8678  1.3413  1.4901
  935MPD2    H313734   0.446   0.046   1.175  0.9501  1.0152 -1.6899
  935MPD2     N13735   4.734   0.136   1.192  0.3769 -0.6807 -0.1330
  935MPD2    H513736   0.013   0.205   1.264  0.2952 -1.3068  0.4839
  935MPD2    N113737   0.174   4.558   0.874 -1.0032 -0.2998  0.2061
  935MPD2    H713738   0.080   4.564   0.835 -1.0761 -0.6810  0.3280
  936MPD2     C13739   2.656   2.192  12.449  0.0977 -0.3717  0.5940
  936MPD2    C113740   2.704   2.233  12.572  0.6184 -0.4226 -0.3372
  936MPD2    C213741   2.804   2.332  12.577  1.0259 -0.6594  0.0869
  936MPD2    C313742   2.860   2.375  12.456 -0.3680 -0.4389  0.1137
  936MPD2    C413743   2.821   2.327  12.332 -0.0383 -0.3411  0.1071
  936MPD2    C513744   2.715   2.241  12.332  0.5543  0.7409 -0.5612
  936MPD2     H13745   2.850   2.361  12.671  0.5258  3.1793 -0.8345
  936MPD2    H113746   2.859   2.369  12.240 -0.4328 -1.8554 -0.7442
  936MPD2    H213747   2.572   2.124  12.443  0.2311 -0.4567 -0.2279
  936MPD2    H313748   2.674   2.198  12.241  1.5172  0.8599 -1.0448
  936MPD2     N13749   2.962   2.476  12.448 -0.0121 -0.4730  0.1508
  936MPD2    H513750   2.998   2.487  12.353 -1.1119 -0.8793 -0.3216
  936MPD2    N113751   2.668   2.177  12.698 -0.4003 -0.0758  0.2802
  936MPD2    H713752   2.694   2.222  12.785 -0.8342  1.6834 -0.4967
  937MPD2     C13753   0.932   3.289  11.525 -0.4269  0.8847  0.2443
  937MPD2    C113754   0.896   3.421  11.506 -0.6598  0.6333 -0.3455
  937MPD2    C213755   1.001   3.513  11.483 -1.1246 -0.2720  0.5976
  937MPD2    C313756   1.132   3.479  11.449 -0.3556 -0.0297 -0.4322
  937MPD2    C413757   1.155   3.347  11.455  0.2990  0.5830  0.9479
  937MPD2    C513758   1.061   3.251  11.491 -0.4126  0.4393 -0.2392
  937MPD2     H13759   0.982   3.619  11.477 -0.4959 -0.2179 -0.3630
  937MPD2    H113760   1.254   3.308  11.433 -0.7692 -0.9124 -1.1701
  937MPD2    H213761   0.866   3.209  11.555  0.9036  0.1744  1.3326
  937MPD2    H313762   1.100   3.150  11.491  0.1139  0.6503  1.4715
  937MPD2     N13763   1.227   3.585  11.424 -0.1645  0.1956  0.2844
  937MPD2    H513764   1.204   3.683  11.435  1.2327  0.6940 -1.0797
  937MPD2    N113765   0.777   3.474  11.559 -0.0643 -0.0992 -0.3739
  937MPD2    H713766   0.773   3.576  11.559  0.0688 -0.0941  2.1760
  938MPD2     C13767   3.715   0.133   0.478  0.8270 -0.3540 -0.1584
  938MPD2    C113768   3.740   0.210   0.593 -0.9220 -0.0112 -0.0315
  938MPD2    C213769   3.748   0.135   0.715 -0.1299 -0.3372  0.1760
  938MPD2    C313770   3.721   4.738   0.713 -0.5393  0.6833 -0.4767
  938MPD2    C413771   3.681   4.669   0.602  0.1229  0.3577  0.0840
  938MPD2    C513772   3.679   4.735   0.479  0.4037  0.0152  0.1513
  938MPD2     H13773   3.770   0.188   0.807 -0.1376 -0.3669  0.1952
  938MPD2    H113774   3.665   4.562   0.605  0.4109  0.3366  0.7733
  938MPD2    H213775   3.712   0.182   0.381  0.7227  1.1645  0.6118
  938MPD2    H313776   3.645   4.682   0.391  1.1005  1.3253 -0.8936
  938MPD2     N13777   3.727   4.663   0.836  0.2029 -0.0531 -0.4218
  938MPD2    H513778   3.707   4.564   0.824 -1.1694  0.1239  0.4877
  938MPD2    N113779   3.771   0.348   0.593  0.2788  0.2253 -0.1385
  938MPD2    H713780   3.802   0.374   0.685 -1.1485  1.1578  0.0754
  939MPD2     C13781   0.271   1.074   1.130  0.2289  0.3625 -0.5254
  939MPD2    C113782   0.197   1.134   1.029  0.6337  0.5603 -0.1851
  939MPD2    C213783   0.219   1.096   0.893  0.2402 -0.1699  0.1830
  939MPD2    C313784   0.308   0.998   0.870 -0.1189 -0.3544 -0.2898
  939MPD2    C413785   0.376   0.936   0.968  0.2620  0.0574  0.2886
  939MPD2    C513786   0.359   0.972   1.098  0.6303  0.6128 -0.3170
  939MPD2     H13787   0.160   1.138   0.812 -1.3676  1.8535  2.3997
  939MPD2    H113788   0.437   0.849   0.947  0.0894 -0.1454  0.6406
  939MPD2    H213789   0.251   1.088   1.235  1.7106 -0.3926 -0.1436
  939MPD2    H313790   0.409   0.909   1.170  0.0583  0.1478 -0.3274
  939MPD2     N13791   0.328   0.970   0.734 -0.6055 -0.0841  0.3097
  939MPD2    H513792   0.264   1.005   0.664 -0.3289 -1.7159 -0.7450
  939MPD2    N113793   0.086   1.209   1.073  0.1993  0.3520  0.4508
  939MPD2    H713794   0.080   1.236   1.171  1.3722  1.8699  0.1210
  940MPD2     C13795   4.033   2.042  13.296  0.0551  0.1067 -0.1150
  940MPD2    C113796   3.904   2.021  13.341  0.5824  0.6285  0.1734
  940MPD2    C213797   3.818   1.970  13.249  0.1022  0.3771 -0.4714
  940MPD2    C313798   3.863   1.927  13.123  0.6944  0.0607 -0.2629
  940MPD2    C413799   3.991   1.952  13.083 -0.7702  0.8415  0.0022
  940MPD2    C513800   4.079   2.004  13.173  0.4873  0.6012  0.0926
  940MPD2     H13801   3.716   1.946  13.278 -0.0971 -0.6341 -1.9917
  940MPD2    H113802   4.028   1.927  12.984 -2.2721 -0.5268 -0.2095
  940MPD2    H213803   4.091   2.100  13.366  1.7000 -1.4956 -0.1517
  940MPD2    H313804   4.183   2.019  13.148  0.1059  0.7132 -1.4488
  940MPD2     N13805   3.770   1.879  13.030 -0.2327 -0.0321  0.4318
  940MPD2    H513806   3.806   1.869  12.935  2.7283  6.4686  0.8299
  940MPD2    N113807   3.851   2.049  13.470 -0.2409 -0.1648 -0.6542
  940MPD2    H713808   3.752   2.030  13.478 -0.0559 -1.4548 -1.3074
  941MPD2     C13809   2.848   1.894   9.833  0.2499 -0.2322 -0.8099
  941MPD2    C113810   2.974   1.871   9.893  0.6403  0.6357  0.0051
  941MPD2    C213811   2.999   1.747   9.949  0.0927 -0.6992 -0.2872
  941MPD2    C313812   2.908   1.648   9.940  0.6297 -0.2351 -0.2499
  941MPD2    C413813   2.786   1.670   9.869 -0.4786 -0.0336  0.0649
  941MPD2    C513814   2.760   1.796   9.819  0.2674 -0.5758  0.4273
  941MPD2     H13815   3.085   1.731  10.014 -0.2219  2.1262  0.8287
  941MPD2    H113816   2.713   1.591   9.853  1.0160 -1.6191  1.1590
  941MPD2    H213817   2.830   1.987   9.780  1.4789  0.4073 -0.1072
  941MPD2    H313818   2.670   1.805   9.759  0.4188  2.5337  0.6845
  941MPD2     N13819   2.937   1.510   9.984  0.1323  0.0303  0.0331
  941MPD2    H513820   2.854   1.452   9.987  0.0690  0.2831  2.8516
  941MPD2    N113821   3.078   1.966   9.900  0.0879  0.4900 -0.2906
  941MPD2    H713822   3.164   1.941   9.947  0.7475  0.6297 -1.4448
  942MPD2     C13823   2.145   3.155   9.726  0.7571 -0.3778  0.1681
  942MPD2    C113824   2.137   3.225   9.608  0.1431  0.0103  0.0733
  942MPD2    C213825   2.230   3.212   9.509 -1.2197 -0.7098 -0.1066
  942MPD2    C313826   2.344   3.135   9.533 -0.4995 -0.3675 -0.0567
  942MPD2    C413827   2.360   3.070   9.652 -0.2229  0.6816 -0.1190
  942MPD2    C513828   2.255   3.076   9.745 -0.3322  0.1991  0.4737
  942MPD2     H13829   2.208   3.253   9.412  1.0677  2.2993  0.6651
  942MPD2    H113830   2.456   3.025   9.675 -0.7288  0.6936  1.9748
  942MPD2    H213831   2.073   3.169   9.805  0.2625 -0.7000 -0.2260
  942MPD2    H313832   2.269   3.014   9.832 -3.1104 -1.8718 -0.5384
  942MPD2     N13833   2.458   3.122   9.445 -0.0336  0.2650  0.0013
  942MPD2    H513834   2.530   3.056   9.472 -0.4309 -0.5131 -0.8176
  942MPD2    N113835   2.031   3.321   9.579 -0.2539 -0.2453  0.3178
  942MPD2    H713836   2.062   3.381   9.503 -0.9936 -0.0086  0.2045
  943MPD2     C13837   1.116   0.661  10.019  0.6517 -0.1898  0.5328
  943MPD2    C113838   1.241   0.608  10.014 -0.0112  0.1553 -0.3136
  943MPD2    C213839   1.319   0.638   9.897  0.0834 -0.1739  0.2880
  943MPD2    C313840   1.265   0.712   9.792  0.4749  0.1389  0.3479
  943MPD2    C413841   1.134   0.761   9.793 -0.0653  0.0165 -0.1617
  943MPD2    C513842   1.060   0.731   9.912  0.3004  0.1046 -0.7125
  943MPD2     H13843   1.419   0.597   9.890 -0.0246 -0.7858  2.3408
  943MPD2    H113844   1.087   0.832   9.725  3.3663  0.3287 -2.2131
  943MPD2    H213845   1.048   0.640  10.100 -0.5228 -0.0735 -0.4129
  943MPD2    H313846   0.961   0.774   9.912  0.6595  0.8606  4.2195
  943MPD2     N13847   1.354   0.752   9.684  0.5123 -0.5715  0.4090
  943MPD2    H513848   1.316   0.807   9.607  1.6245  1.1766  1.1103
  943MPD2    N113849   1.279   0.510  10.116 -0.8867 -0.4596  0.4761
  943MPD2    H713850   1.212   0.499  10.191 -0.6788  0.4533  0.7935
  944MPD2     C13851   1.413   4.354  11.175 -0.1733 -0.4833  0.2281
  944MPD2    C113852   1.413   4.452  11.075 -0.7324 -0.0084  0.3272
  944MPD2    C213853   1.338   4.565  11.100 -0.7452 -0.6401  0.5158
  944MPD2    C313854   1.258   4.585  11.214 -0.1855  0.8530 -0.9159
  944MPD2    C413855   1.264   4.483  11.312  0.6611 -0.4488  0.2748
  944MPD2    C513856   1.328   4.370  11.283  0.3989 -0.0030  0.5317
  944MPD2     H13857   1.319   4.642  11.027  0.0895  0.3852  1.3730
  944MPD2    H113858   1.222   4.488  11.412  0.1702  2.4004 -0.0559
  944MPD2    H213859   1.465   4.259  11.166 -0.3879 -0.2924 -3.0540
  944MPD2    H313860   1.340   4.289  11.354  1.8973 -0.7220 -0.5293
  944MPD2     N13861   1.185   4.710  11.242  0.2094  0.1609  0.2535
  944MPD2    H513862   1.199   0.052  11.183 -0.2829 -1.0249 -1.4885
  944MPD2    N113863   1.484   4.425  10.956  0.7175 -0.3297 -0.1303
  944MPD2    H713864   1.535   4.337  10.957  0.6621 -0.3798 -1.5043
    1TMC1    C113865   4.636   0.524  14.331  0.0913 -0.5833  0.1370
    1TMC1    C213866   4.672   0.410  14.399  0.0133 -0.1217 -0.6016
    1TMC1    C313867   4.675   0.292  14.332 -0.3366  0.3175  0.0433
    1TMC1    C413868   4.599   0.525  14.202  0.0170  0.6106 -0.0227
    1TMC1    C513869   4.605   0.408  14.140 -0.8596  0.0959 -0.0046
    1TMC1    C613870   4.641   0.287  14.197 -0.7386 -0.4777 -0.0230
    1TMC1     C13871   4.628   0.643  14.405  0.0088  0.4151 -0.3872
    1TMC1     O13872   4.699   0.642  14.505 -0.3543  1.4633 -0.2123
    1TMC1     H13873   4.701   0.418  14.503  0.2398  0.0363 -0.6775
    1TMC1    H113874   4.550   0.610  14.155 -0.0786  0.6308  0.1121
    1TMC1    H213875   4.658   0.196  14.140  0.5624  0.7240 -1.5728
    1TMC1    C713876   4.535   0.404  14.015 -0.1052  0.0928  0.0642
    1TMC1    C813877   4.726   0.167  14.392  0.0841  0.5497 -0.2983
    1TMC1    O113878   4.422   0.444  13.989  0.1717  0.5204 -0.0747
    1TMC1    O213879   4.727   0.063  14.331 -0.0241 -0.3979  0.0162
    1TMC1    O313880   4.639   0.398  13.930  0.3081 -0.3242  0.0101
    1TMC1    H313881   4.727   0.374  13.966 -0.1217  0.3254  1.4975
    1TMC1    O513882   0.007   0.174  14.525  0.1902 -0.4227  0.1529
    1TMC1    H513883   0.039   0.262  14.554 -1.0690  0.3404 -0.8037
    2MPD2     C13884   4.428   1.088  14.544 -0.0933 -0.3386 -0.3100
    2MPD2    C113885   4.386   1.064  14.415 -0.0669 -0.5695 -0.1348
    2MPD2    C213886   4.417   0.942  14.356 -0.0206 -1.0751 -0.0118
    2MPD2    C313887   4.502   0.854  14.424  0.1549 -0.1525 -0.3500
    2MPD2    C413888   4.557   0.885  14.547  0.0224  0.8215  0.3851
    2MPD2    C513889   4.514   1.002  14.602  0.1303  0.1752  0.3745
    2MPD2     H13890   4.356   0.912  14.271 -0.1941  1.1103 -0.6598
    2MPD2    H113891   4.628   0.824  14.602  1.1224  0.7706 -1.1000
    2MPD2    H213892   4.400   1.177  14.599 -0.1907 -0.8887  0.5312
    2MPD2    H313893   4.550   1.012  14.703  2.1922  1.0199 -0.4428
    2MPD2     N13894   4.531   0.726  14.364 -0.2411 -0.0305 -0.0593
    2MPD2    H513895   4.475   0.712  14.280  1.2463  2.5586 -1.4551
    2MPD2    N113896   4.301   1.158  14.356 -0.7198  0.1745  0.7049
    2MPD2    H713897   4.290   1.236  14.419 -1.3664  1.4086 -0.9492
    3TMC2    C113898   4.164   1.282  14.203  0.1214  0.4897 -0.2215
    3TMC2    C213899   4.110   1.344  14.312 -0.1294 -1.1355  0.3377
    3TMC2    C313900   4.032   1.453  14.296  0.5580 -0.2292  0.0314
    3TMC2    C413901   4.146   1.323  14.072  0.3804 -0.1154 -0.1204
    3TMC2    C513902   4.068   1.440  14.067 -0.5159 -0.0279 -0.5383
    3TMC2    C613903   4.002   1.502  14.173 -0.9850 -0.5538 -0.2475
    3TMC2     C13904   4.251   1.167  14.227 -0.3113  0.2405 -0.1241
    3TMC2     O13905   4.262   1.087  14.135 -0.8046 -0.2953 -0.0786
    3TMC2     H13906   4.136   1.323  14.415  2.3177  1.1866  0.1872
    3TMC2    H113907   4.193   1.282  13.984  1.2294 -0.3450  0.4370
    3TMC2    H213908   3.942   1.590  14.156 -0.3518  0.2160  1.5274
    3TMC2    C713909   4.075   1.505  13.941  0.3926 -0.5593 -0.2150
    3TMC2    C813910   3.986   1.513  14.419  0.8424  0.8930 -0.6235
    3TMC2    O113911   4.020   1.449  13.843 -0.1150  0.0198 -0.2280
    3TMC2    O213912   3.975   1.453  14.523  0.1015 -0.2666 -0.0512
    3TMC2    O513913   3.949   1.635  14.388 -0.2999 -0.1525  0.2148
    3TMC2    H513914   3.987   1.655  14.299 -0.2367  3.7611  1.1411
    4TMC2    C113915   4.519   2.404  13.704  0.6780  0.7215 -1.0283
    4TMC2    C213916   4.630   2.416  13.785  0.6388  0.6895 -0.2293
    4TMC2    C313917   4.653   2.326  13.886  0.3907  0.2657  0.3133
    4TMC2    C413918   4.427   2.299  13.730  0.1483  0.2950  0.6532
    4TMC2    C513919   4.453   2.216  13.837 -0.0932 -0.3225  0.4625
    4TMC2    C613920   4.558   2.232  13.925 -0.6051 -0.3955 -0.5083
    4TMC2     C13921   4.514   2.483  13.588 -0.2495 -0.2963  0.5355
    4TMC2     O13922   4.592   2.581  13.577 -0.4422  0.2152 -0.2588
    4TMC2     H13923   4.712   2.474  13.742  0.4916  0.6146 -0.6116
    4TMC2    H113924   4.328   2.296  13.685  0.2372  0.2580  0.4594
    4TMC2    H213925   4.583   2.162  14.004 -2.2416  0.9443  1.2032
    4TMC2    C713926   4.370   2.106  13.868 -0.3784 -0.1815  0.1057
    4TMC2    C813927   0.045   2.281  13.922  0.0079  0.1905  0.0118
    4TMC2    O113928   4.378   2.064  13.982 -0.9768  0.2652 -0.3019
    4TMC2    O213929   0.079   2.253  14.037 -0.3057  0.0215 -0.6445
    4TMC2    O513930   0.124   2.295  13.809  0.2229  0.0105  0.5488
    4TMC2    H513931   0.080   2.297  13.722  1.6067  1.2006 -0.1197
    5MPD2     C13932   4.336   2.549  13.106  0.5970  1.0324  0.4526
    5MPD2    C113933   4.250   2.463  13.173 -0.6763 -0.0665  0.3249
    5MPD2    C213934   4.281   2.429  13.299  0.1212  0.2940 -0.3636
    5MPD2    C313935   4.391   2.484  13.368 -0.6078  0.2670  0.3394
    5MPD2    C413936   4.469   2.584  13.305  0.7792 -0.3592  0.2624
    5MPD2    C513937   4.442   2.610  13.168 -0.2068  1.0218 -0.2446
    5MPD2     H13938   4.219   2.352  13.342  0.3320 -0.5433 -1.5618
    5MPD2    H113939   4.563   2.622  13.344  1.3775 -2.6105  1.0092
    5MPD2    H213940   4.299   2.590  13.013  0.4146 -1.4713 -0.5527
    5MPD2    H313941   4.502   2.677  13.108  2.3766 -2.1746 -1.2444
    5MPD2     N13942   4.415   2.440  13.501  0.0327 -0.2539  0.3784
    5MPD2    H513943   4.345   2.376  13.538 -0.4386  0.1324  0.1494
    5MPD2    N113944   4.119   2.438  13.123  0.7780 -0.0334  0.8795
    5MPD2    H713945   4.104   2.464  13.026  2.0897 -2.2016  0.0893
    6MPD1     C13946   2.716   3.535  12.546 -0.2764  0.3724  0.0693
    6MPD1    C113947   2.691   3.446  12.651 -0.5547 -0.5125 -0.3606
    6MPD1    C213948   2.795   3.376  12.720 -0.8042 -0.0842 -0.1515
    6MPD1    C313949   2.926   3.382  12.674 -0.7411 -0.1954  0.2982
    6MPD1    C413950   2.942   3.451  12.551  0.0279 -0.0953  0.2640
    6MPD1    C513951   2.842   3.522  12.493  0.6682 -0.3129  0.9102
    6MPD1     H13952   2.773   3.315  12.807 -2.0428  1.0713  0.3391
    6MPD1    H113953   3.034   3.449  12.493  1.0127  3.2315  1.7249
    6MPD1    H213954   2.643   3.594  12.492  0.3583  1.1612  0.0620
    6MPD1    H313955   2.880   3.570  12.403  0.6462 -0.6468  0.7249
    6MPD1     N13956   3.036   3.296  12.714 -0.5745 -0.3795 -0.1680
    6MPD1    H513957   3.117   3.298  12.653 -1.4064 -1.3922 -1.3119
    6MPD1    N113958   2.557   3.436  12.688  0.5912 -0.2746  0.5812
    6MPD1    H613959   2.512   3.391  12.609  0.3216 -0.6310  0.9385
    6MPD1    H713960   2.544   3.378  12.771  0.6799  0.6419  1.2365
    7MPD2     C13961   3.392   2.781  13.349 -0.1562 -0.1482 -0.7688
    7MPD2    C113962   3.396   2.754  13.214  0.3002  0.3844 -0.7444
    7MPD2    C213963   3.446   2.633  13.176 -0.3991  0.3585  0.9625
    7MPD2    C313964   3.494   2.539  13.268  0.4419 -0.3149  0.3382
    7MPD2    C413965   3.483   2.567  13.400  0.1190  0.3437  0.0572
    7MPD2    C513966   3.428   2.681  13.437  0.0252  0.4885  0.4951
    7MPD2     H13967   3.452   2.610  13.071 -1.2134  1.0410  0.7669
    7MPD2    H113968   3.517   2.493  13.471 -0.5984  0.7669  0.8430
    7MPD2    H213969   3.360   2.878  13.385  1.6983  0.5124 -0.9284
    7MPD2    H313970   3.418   2.705  13.542 -1.5961  0.6151  0.3192
    7MPD2     N13971   3.558   2.422  13.233  0.3255 -0.5696 -0.7741
    7MPD2    H513972   3.599   2.362  13.304  1.4143 -1.9557 -2.5746
    7MPD2    N113973   3.378   2.849  13.112  0.1669  0.6556 -0.0421
    7MPD2    H713974   3.391   2.816  13.016 -1.4222  0.9673 -0.3684
    8TMC3    C113975   3.682   2.289  13.082 -0.2247  0.4445 -0.3982
    8TMC3    C213976   3.782   2.316  13.161  0.9819 -0.0273 -0.2199
    8TMC3    C313977   3.898   2.351  13.108  0.5977  0.0607 -0.5603
    8TMC3    C413978   3.701   2.273  12.946  0.2345  0.1093  0.3462
    8TMC3    C513979   3.819   2.294  12.889  0.0313  0.0058  0.3007
    8TMC3    C613980   3.919   2.345  12.971  0.1300  0.2878  0.0355
    8TMC3     C13981   3.563   2.371  13.108  0.3871 -0.2632 -0.0946
    8TMC3     O13982   3.503   2.405  13.010 -0.0285 -0.7226  0.4832
    8TMC3     H13983   3.774   2.320  13.269 -0.6048  1.2628 -0.3809
    8TMC3    H113984   3.613   2.246  12.889 -0.0300  3.1002 -0.6377
    8TMC3    H213985   4.014   2.363  12.922  1.5480  0.6086  2.8654
    8TMC3    C713986   3.814   2.374  12.774  0.1795 -0.4890  0.1317
    8TMC3    C813987   4.012   2.379  13.195 -0.0638 -0.3387 -0.2867
    8TMC3    O113988   3.918   2.385  12.718  0.5385 -0.1689 -0.1428
    8TMC3    O213989   3.996   2.382  13.315  0.3371  0.4912 -0.1830
    9TMC3    C113990   3.170   3.157  12.857  0.3558 -0.2859  0.0972
    9TMC3    C213991   3.231   3.102  12.744 -0.4326 -0.6371  0.4744
    9TMC3    C313992   3.336   3.015  12.758  0.4596 -0.1970  0.6487
    9TMC3    C413993   3.203   3.117  12.976  0.1583 -0.4466  0.0898
    9TMC3    C513994   3.313   3.040  12.989 -0.1118 -0.8699  0.3112
    9TMC3    C613995   3.380   2.982  12.883 -0.4525 -0.6112  0.5695
    9TMC3     C13996   3.051   3.252  12.843 -0.2052  0.9747  0.6266
    9TMC3     O13997   2.977   3.270  12.939 -0.3957 -0.1717  0.4034
    9TMC3     H13998   3.196   3.118  12.643  0.0633  1.0698  0.5816
    9TMC3    H113999   3.139   3.146  13.058  2.1368  0.4805  1.2945
    9TMC3    H214000   3.470   2.925  12.900  0.4782 -0.5836 -4.3307
    9TMC3    C714001   3.322   2.974  13.116  0.7996 -0.1026  0.7650
    9TMC3    C814002   3.368   2.936  12.640 -0.0353  0.1962  0.6056
    9TMC3    O114003   3.250   3.010  13.205 -0.3003 -0.2107 -0.1739
    9TMC3    O214004   3.376   2.989  12.533  0.1287  0.6183 -0.0431
   10MPD2     C14005   3.762   2.603  12.594  0.7111 -0.3297  0.1736
   10MPD2    C114006   3.678   2.563  12.694 -0.5236 -0.1474  0.3732
   10MPD2    C214007   3.567   2.636  12.716 -0.0993 -0.7254 -0.0625
   10MPD2    C314008   3.541   2.751  12.643  0.4770 -0.0462  0.5447
   10MPD2    C414009   3.621   2.784  12.541 -0.0648 -0.5062  0.2569
   10MPD2    C514010   3.735   2.715  12.514  0.1296 -0.4275  0.5719
   10MPD2     H14011   3.508   2.615  12.805 -2.5478 -0.8918 -1.7351
   10MPD2    H114012   3.603   2.878  12.491  0.5840 -0.1365  0.7217
   10MPD2    H214013   3.855   2.554  12.566  1.1106 -1.2090  3.0671
   10MPD2    H314014   3.806   2.751  12.441 -0.7900  2.0147  0.8981
   10MPD2     N14015   3.426   2.819  12.681 -0.2903  0.0256 -0.1872
   10MPD2    H514016   3.379   2.785  12.764 -0.1517  0.1590 -0.0547
   10MPD2    N114017   3.708   2.459  12.786  0.4695 -0.2728  0.2129
   10MPD2    H714018   3.644   2.454  12.864  2.7783 -0.8694  2.0625
   11MPD2     C14019   4.050   1.725  13.723  0.2426 -0.2162  0.1364
   11MPD2    C114020   4.125   1.738  13.842  0.3481 -0.3803 -0.6272
   11MPD2    C214021   4.219   1.842  13.851 -0.7813  0.1253 -0.3548
   11MPD2    C314022   4.234   1.932  13.745 -0.3404  0.4772 -0.2311
   11MPD2    C414023   4.167   1.909  13.625  0.3332  0.0784 -0.0195
   11MPD2    C514024   4.073   1.813  13.618 -0.0409  0.7689  0.0321
   11MPD2     H14025   4.279   1.856  13.941 -1.2505  0.0859 -0.0388
   11MPD2    H114026   4.177   1.984  13.547 -1.9043 -1.2820 -1.5902
   11MPD2    H214027   3.977   1.647  13.705  2.7172 -2.3198 -0.7473
   11MPD2    H314028   4.020   1.800  13.525  3.6392 -0.2399 -1.9021
   11MPD2     N14029   4.310   2.054  13.755  0.1460 -0.0849 -0.0147
   11MPD2    H514030   4.315   2.113  13.673 -1.5901 -0.4762 -0.4036
   11MPD2    N114031   4.119   1.636  13.947  0.4989 -0.5443 -0.5800
   11MPD2    H714032   4.165   1.659  14.034  1.9749 -2.6151 -0.8100
    1MPD1     C14033   1.656   3.066  17.527  0.5366  0.1882  0.3382
    1MPD1    C114034   1.762   2.990  17.573  0.4840 -0.4842  0.5545
    1MPD1    C214035   1.885   3.047  17.564  0.0650 -0.0040  0.7582
    1MPD1    C314036   1.914   3.164  17.501 -0.3909 -0.4022 -0.7986
    1MPD1    C414037   1.807   3.239  17.459 -0.1764 -0.0849 -0.3092
    1MPD1    C514038   1.680   3.187  17.472  0.0305  0.5559 -0.2434
    1MPD1     H14039   1.971   3.001  17.610 -0.4111 -2.4543 -0.8230
    1MPD1    H114040   1.813   3.331  17.402  0.0835  1.0531  1.5548
    1MPD1    H214041   1.552   3.034  17.527  1.4229 -2.7191  2.8223
    1MPD1    H314042   1.594   3.245  17.442  1.6734  1.6949 -2.7472
    1MPD1     N14043   2.044   3.222  17.500  0.3568  0.3799 -0.7147
    1MPD1    H514044   2.045   3.320  17.477  0.2616  0.4919 -0.2514
    1MPD1    N114045   1.726   2.874  17.649  0.1672  0.2653  0.5784
    1MPD1    H614046   1.643   2.836  17.603  0.7165  1.5554 -1.5099
    1MPD1    H714047   1.802   2.807  17.654  0.7232  0.8078 -0.4770
    2MPD1     C14048   3.061   3.089   0.159 -0.0187 -0.2627  0.0139
    2MPD1    C114049   3.061   3.207   0.088  0.0478 -0.3645 -0.5689
    2MPD1    C214050   2.940   3.234   0.023 -0.1715 -0.4533 -0.2822
    2MPD1    C314051   2.827   3.157   0.043 -0.0012  0.3886 -0.8243
    2MPD1    C414052   2.830   3.048   0.126 -0.0143  0.2064  0.1852
    2MPD1    C514053   2.950   3.015   0.190 -0.5866  0.5858  0.9386
    2MPD1     H14054   2.934   3.310  17.699  0.5750  1.2428  1.3556
    2MPD1    H114055   2.752   2.983   0.163  1.5729 -1.0946  1.2699
    2MPD1    H214056   3.154   3.061   0.206  1.4076  0.9402 -2.1076
    2MPD1    H314057   2.959   2.933   0.260 -1.8061 -1.3125 -1.0875
    2MPD1     N14058   2.710   3.200  17.726 -0.1563  0.2032 -0.1237
    2MPD1    H514059   2.711   3.291  17.681  0.3536  0.6354  0.7458
    2MPD1    N114060   3.183   3.265   0.048  0.2715  0.1070  0.8433
    2MPD1    H614061   3.183   3.364   0.025  0.7082 -0.0393  0.2164
    2MPD1    H714062   3.261   3.251   0.112  0.1865 -0.4385  0.8253
    3TMC3    C114063   2.490   3.219  17.647 -0.2637  0.5983 -0.2208
    3TMC3    C214064   2.500   3.359  17.661  0.2059 -0.1042 -0.0632
    3TMC3    C314065   2.397   3.425  17.604 -0.4351  0.2488  0.4789
    3TMC3    C414066   2.382   3.158  17.589  0.6171  0.3327  0.9571
    3TMC3    C514067   2.282   3.227  17.535  1.0788  0.0189  0.0749
    3TMC3    C614068   2.289   3.367  17.540  0.1029  0.3483  0.0981
    3TMC3     C14069   2.592   3.133  17.711  0.1926 -0.2506  0.3735
    3TMC3     O14070   2.565   3.015  17.711 -0.2450 -0.0332  0.4301
    3TMC3     H14071   2.589   3.408  17.700 -0.3281 -0.2624  1.3584
    3TMC3    H114072   2.398   3.053  17.569 -3.0805  0.0303 -0.3346
    3TMC3    H214073   2.210   3.429  17.499  0.3152  1.7527  1.8169
    3TMC3    C714074   2.166   3.154  17.507 -0.1042  0.3671 -0.2987
    3TMC3    C814075   2.407   3.570  17.624  0.0072 -1.1028  0.4714
    3TMC3    O114076   2.181   3.031  17.522 -0.3946  0.5728  0.2453
    3TMC3    O214077   2.520   3.617  17.640  0.9999 -0.4289 -0.7016
    4MPD1     C14078   2.235   4.072  17.643  0.5612  0.3567  0.8135
    4MPD1    C114079   2.129   3.987  17.629  0.1372 -0.2687 -0.2104
    4MPD1    C214080   2.148   3.847  17.630 -0.2575  0.5568 -0.4258
    4MPD1    C314081   2.276   3.793  17.629  0.6562 -0.1748 -0.2613
    4MPD1    C414082   2.378   3.880  17.659  0.6813 -0.2006 -0.4021
    4MPD1    C514083   2.353   4.015  17.673 -0.2036  0.0939  0.3764
    4MPD1     H14084   2.061   3.782  17.636  0.9170 -0.9418  0.2995
    4MPD1    H114085   2.479   3.842  17.662  0.8454  0.0311 -2.8581
    4MPD1    H214086   2.224   4.179  17.655  1.7604  0.3056  2.3216
    4MPD1    H314087   2.434   4.082  17.700 -0.4411  0.6426 -0.2739
    4MPD1     N14088   2.291   3.648  17.616  0.9310 -0.4586 -0.0703
    4MPD1    H514089   2.202   3.606  17.593  0.3464  0.6477  0.2032
    4MPD1    N114090   2.002   4.040  17.648  0.2327  0.3186  0.2649
    4MPD1    H614091   1.939   3.988  17.588  0.1521  0.1406  0.5017
    4MPD1    H714092   1.997   4.139  17.624  0.0405  0.1128 -0.5219
    1TCq1    O114093   0.694   2.999   9.630  0.5088 -0.0697 -0.0865
    1TCq1    C114094   0.711   3.123   9.615 -0.0042 -0.0171 -0.1306
    1TCq1    O214095   0.804   3.177   9.556 -0.4639  0.2528 -0.5498
    1TCq1    C214096   0.582   3.188   9.655  0.0807 -0.3314 -0.5101
    1TCq1    C314097   0.457   3.127   9.648 -0.4760  0.4305  0.1896
    1TCq1    C414098   0.352   3.196   9.697  0.5604  0.3990  0.0688
    1TCq1    C514099   0.362   3.332   9.716 -0.1675 -0.6549  0.3414
    1TCq1    C614100   0.483   3.394   9.712  0.6239 -0.4107 -0.1191
    1TCq1    C714101   0.594   3.325   9.686 -0.6681  0.0843  0.0923
    1TCq1    C814102   0.488   3.535   9.679  0.0542  0.4104  0.1850
    1TCq1    O414103   0.594   3.574   9.629 -0.1557 -0.0430 -0.0053
    1TCq1    C914104   0.221   3.149   9.657  0.2548  0.4161 -0.4132
    1TCq1    O514105   0.209   3.024   9.634 -0.1810  0.0005 -0.5314
    1TCq1    O614106   0.140   3.231   9.602  0.5789  0.2045  0.1669
    1TCq1    H114107   0.628   2.988   9.702 -1.1342  3.8233 -1.0010
    1TCq1    H214108   0.454   3.023   9.621  0.8931  0.1224  1.2631
    1TCq1    H314109   0.269   3.384   9.694 -0.3509 -2.4425 -3.0344
    1TCq1    H414110   0.690   3.372   9.667  1.0879 -3.7707 -0.5209
    2MPD1     C14111   0.339   4.023   9.676 -0.0805  1.1502  0.1874
    2MPD1    C114112   0.265   3.955   9.774  0.2426 -0.6701  0.1759
    2MPD1    C214113   0.283   3.817   9.775  0.0525  0.8187  0.3295
    2MPD1    C314114   0.365   3.740   9.694  0.1211 -0.3063  0.8421
    2MPD1    C414115   0.426   3.815   9.593 -0.5071 -0.1893 -0.3509
    2MPD1    C514116   0.408   3.953   9.589  0.8374 -0.6887 -0.4601
    2MPD1     H14117   0.230   3.763   9.853  1.5613  0.1613  0.8971
    2MPD1    H114118   0.499   3.771   9.527 -0.2523 -0.8680  0.3903
    2MPD1    H214119   0.334   4.131   9.671 -0.7499  1.1550  0.9870
    2MPD1    H314120   0.463   4.012   9.516 -2.3388  0.8550 -1.6289
    2MPD1     N14121   0.386   3.603   9.720 -0.1872  0.4939 -0.7616
    2MPD1    H514122   0.325   3.559   9.788 -0.0454  0.8568 -0.4016
    2MPD1    N114123   0.180   4.027   9.860  0.0450  0.3105 -0.1160
    2MPD1    H614124   0.125   3.969   9.923 -2.3589  1.7874 -0.8539
    2MPD1    H714125   0.136   4.101   9.806 -0.3075  0.8460  0.9093
    1TMC1    C114126   1.273   2.557   0.900  0.1503 -0.5461  0.3393
    1TMC1    C214127   1.170   2.551   0.987 -1.0340 -0.4174  0.3222
    1TMC1    C314128   1.155   2.436   1.056 -0.6320 -0.7109 -0.7167
    1TMC1    C414129   1.348   2.452   0.875  0.2815 -0.6348  0.4783
    1TMC1    C514130   1.324   2.334   0.946 -1.0306 -0.3695  0.7170
    1TMC1    C614131   1.227   2.320   1.047 -0.7873 -0.6778 -0.8027
    1TMC1     C14132   1.292   2.679   0.817 -0.0985  0.2618  0.3391
    1TMC1     O14133   1.207   2.765   0.833  0.2663 -0.0440  0.6652
    1TMC1     H14134   1.097   2.631   0.997 -0.8881 -0.3464  0.8336
    1TMC1    H114135   1.429   2.446   0.803 -0.4513 -0.0802 -0.3855
    1TMC1    H214136   1.218   2.234   1.111 -0.3388 -1.3110 -1.5843
    1TMC1    C714137   1.411   2.215   0.925  0.6314 -0.3761 -0.5249
    1TMC1    C814138   1.079   2.455   1.179  0.3135 -0.3265 -0.2487
    1TMC1    O114139   1.448   2.142   1.016 -0.0178 -0.5784  0.1408
    1TMC1    O214140   1.071   2.559   1.237  0.2375 -0.3730  1.0945
    1TMC1    O314141   1.384   2.166   0.800 -0.0965 -0.9094 -0.2844
    1TMC1    H314142   1.338   2.239   0.753  0.3927 -0.0783  0.5294
    1TMC1    O514143   1.038   2.332   1.226 -0.0414  0.2094  0.1899
    1TMC1    H514144   1.038   2.263   1.156 -0.5451 -0.2317  0.6292
    2MPD1     C14145   1.467   2.972   0.429 -0.6226  0.0728  0.8678
    2MPD1    C114146   1.550   2.864   0.442  0.5278  0.5914  0.2127
    2MPD1    C214147   1.532   2.786   0.550 -0.3615  0.1969  0.6844
    2MPD1    C314148   1.419   2.794   0.638 -0.6218 -0.1709  0.0475
    2MPD1    C414149   1.343   2.904   0.628  0.2853  0.2253  0.4789
    2MPD1    C514150   1.368   2.989   0.526  0.1444  0.1661  0.4779
    2MPD1     H14151   1.599   2.701   0.554 -2.0281 -1.1482  0.4191
    2MPD1    H114152   1.268   2.940   0.698 -2.1788 -2.3904 -0.7954
    2MPD1    H214153   1.485   3.044   0.350 -1.5044 -1.0705 -0.3794
    2MPD1    H314154   1.294   3.066   0.507  1.0412  1.1412  0.9341
    2MPD1     N14155   1.401   2.691   0.728 -0.0938 -0.0480  0.6430
    2MPD1    H514156   1.463   2.611   0.724 -1.4974 -0.9703 -2.7621
    2MPD1    N114157   1.658   2.846   0.347  0.2224 -0.3110  0.3034
    2MPD1    H614158   1.669   2.931   0.293  1.1852  0.0446  1.0703
    2MPD1    H714159   1.661   2.762   0.291  0.4915  1.0297 -1.6753
    1MPD1     C14160   4.291   4.267  11.111  0.4237  0.0418  0.5258
    1MPD1    C114161   4.346   4.361  11.194  0.5545 -0.3667 -0.0878
    1MPD1    C214162   4.481   4.348  11.229 -0.2912  0.0157  1.4993
    1MPD1    C314163   4.560   4.234  11.203 -0.5582 -0.2018  0.3785
    1MPD1    C414164   4.501   4.139  11.126 -0.4913  0.3712  0.2304
    1MPD1    C514165   4.371   4.160  11.075  0.7436  0.0404 -0.1557
    1MPD1     H14166   4.525   4.428  11.286  0.1699  0.7803  0.0549
    1MPD1    H114167   4.558   4.053  11.095 -0.0266  0.5558  0.5746
    1MPD1    H214168   4.197   4.269  11.057  2.2894 -1.0339 -2.8044
    1MPD1    H314169   4.324   4.096  11.001 -1.9135  1.3073  0.4070
    1MPD1     N14170   4.694   4.225  11.250  0.2135 -0.0225 -0.1698
    1MPD1    H514171   4.733   4.298  11.309 -1.5429  1.2017 -0.5041
    1MPD1    N114172   4.275   4.492  11.194  1.0571 -0.9070  0.2970
    1MPD1    H614173   4.279   4.550  11.278  1.2618 -2.0766  1.0947
    1MPD1    H714174   4.174   4.477  11.187  0.5125  2.3960  1.3105
    2MPD1     C14175   4.484   3.592  11.517 -1.0701 -0.0059 -0.9490
    2MPD1    C114176   4.403   3.642  11.421  0.1761  0.0991  0.2606
    2MPD1    C214177   4.429   3.595  11.291  0.2934 -0.0054 -0.0085
    2MPD1    C314178   4.541   3.530  11.254 -0.2363 -0.0353  0.0680
    2MPD1    C414179   4.630   3.498  11.351  0.4408  0.2320 -0.2506
    2MPD1    C514180   4.597   3.526  11.482  0.6326  0.3179 -0.5299
    2MPD1     H14181   4.358   3.625  11.214  1.2046  0.4679 -0.6658
    2MPD1    H114182   4.716   3.440  11.320  0.5668 -0.2702  1.0553
    2MPD1    H214183   4.463   3.607  11.622 -0.3150  0.0657 -0.8016
    2MPD1    H314184   4.667   3.481  11.552 -1.7047 -0.1898  1.4559
    2MPD1     N14185   4.569   3.494  11.113 -0.1070 -0.3939 -0.1443
    2MPD1    H514186   4.655   3.444  11.092  0.5930  0.7052  0.1014
    2MPD1    N114187   4.287   3.712  11.455  0.8048  0.6146 -0.3317
    2MPD1    H614188   4.302   3.764  11.541 -2.1606  1.1194 -0.1350
    2MPD1    H714189   4.253   3.773  11.381  0.2586 -0.9928 -1.4153
    3MPD1     C14190   4.296   2.916  10.264 -0.8763 -0.2333  0.1685
    3MPD1    C114191   4.341   3.028  10.199  0.4251  0.3365 -0.1355
    3MPD1    C214192   4.386   3.130  10.274  1.0462 -0.9496 -0.6592
    3MPD1    C314193   4.401   3.122  10.413  0.2222  0.9007  0.2286
    3MPD1    C414194   4.373   3.003  10.475 -0.1848 -0.3333  0.0166
    3MPD1    C514195   4.316   2.907  10.396 -0.2697  0.4938  0.2849
    3MPD1     H14196   4.422   3.224  10.234 -0.4432 -0.6145 -1.2034
    3MPD1    H114197   4.385   2.996  10.583 -1.5414 -1.7258  0.0718
    3MPD1    H214198   4.256   2.825  10.221 -1.2802  0.4994 -1.0355
    3MPD1    H314199   4.279   2.815  10.441 -1.1208  1.0636  0.7488
    3MPD1     N14200   4.452   3.235  10.480 -0.0088 -0.3343 -0.3936
    3MPD1    H514201   4.500   3.303  10.421 -1.8736  1.4118  0.0810
    3MPD1    N114202   4.289   3.048  10.071 -0.3197  0.2021  0.0765
    3MPD1    H614203   4.279   2.959  10.022  2.5574 -0.3621  0.5078
    3MPD1    H714204   4.341   3.116  10.015 -2.0729  0.0313 -1.7511
    4MPD2     C14205   0.651   4.269  11.075  0.1685 -0.0183 -0.0881
    4MPD2    C114206   0.648   4.171  11.174 -0.2102  0.1426 -0.0032
    4MPD2    C214207   0.714   4.050  11.163  0.0571  0.1796  0.4478
    4MPD2    C314208   0.791   4.027  11.050  0.4008  0.3382 -0.4706
    4MPD2    C414209   0.810   4.127  10.957 -0.2291  0.5820  1.1243
    4MPD2    C514210   0.734   4.241  10.968 -0.1768 -0.6332  0.2370
    4MPD2     H14211   0.700   3.974  11.238 -0.9038 -0.1897 -0.0946
    4MPD2    H114212   0.873   4.117  10.869 -1.0189 -0.9536  0.7335
    4MPD2    H214213   0.602   4.366  11.084 -1.8231 -1.0810  0.3984
    4MPD2    H314214   0.738   4.316  10.890  0.3155  0.3244  1.1810
    4MPD2     N14215   0.853   3.909  11.023 -0.2155 -0.5253  0.1099
    4MPD2    H514216   0.897   3.904  10.932  0.9084  1.1301  0.5653
    4MPD2    N114217   0.562   4.185  11.285 -0.2332  0.1877 -0.0044
    4MPD2    H714218   0.563   4.101  11.342 -1.4961 -0.1030 -0.4060
    5TMC3    C114219   0.358   4.233  11.393 -0.1861  0.8033 -0.0199
    5TMC3    C214220   0.238   4.237  11.322 -0.1465  0.2721 -0.1506
    5TMC3    C314221   0.151   4.131  11.343 -0.0617  0.3097  0.3891
    5TMC3    C414222   0.396   4.126  11.468 -0.0565  0.7295 -0.1287
    5TMC3    C514223   0.314   4.017  11.472 -0.5450  0.0672 -0.3094
    5TMC3    C614224   0.188   4.016  11.413  0.7191  1.1428  0.0068
    5TMC3     C14225   0.459   4.276  11.299 -0.1200  0.0953 -0.3044
    5TMC3     O14226   0.420   4.365  11.225 -0.1324  0.5379  0.2050
    5TMC3     H14227   0.212   4.326  11.266  0.3927  0.4210 -0.1681
    5TMC3    H114228   0.492   4.131  11.519 -0.8674 -0.0148  1.4516
    5TMC3    H214229   0.113   3.939  11.425  3.1483 -0.6607  3.6692
    5TMC3    C714230   0.398   3.901  11.449 -0.0917 -0.4480 -0.1690
    5TMC3    C814231   0.036   4.113  11.255 -0.3345 -0.3644 -0.1292
    5TMC3    O114232   0.516   3.924  11.427  0.3015 -0.3101  0.3591
    5TMC3    O214233   4.735   3.998  11.225 -0.2339  0.0417  0.1368
    6TMC3    C114234   4.542   3.456  10.885 -0.2000  0.7535 -0.0795
    6TMC3    C214235   4.464   3.397  10.797 -0.9721 -0.3887  0.9074
    6TMC3    C314236   4.512   3.358  10.675 -0.0851 -0.1639  0.4082
    6TMC3    C414237   4.673   3.488  10.854 -0.2754 -0.8924  0.4525
    6TMC3    C514238   4.720   3.437  10.740  0.6059 -0.2555  0.1749
    6TMC3    C614239   4.647   3.360  10.651  0.8537  0.2360  0.0030
    6TMC3     C14240   4.485   3.499  11.010 -0.0122  0.2779  0.1230
    6TMC3     O14241   4.368   3.540  11.008  0.4761  0.0318 -0.0573
    6TMC3     H14242   4.359   3.386  10.818 -1.0716 -0.6658  0.2723
    6TMC3    H114243   4.738   3.538  10.926  3.7160 -0.6853 -3.2747
    6TMC3    H214244   4.675   3.324  10.552 -1.3612  0.5359 -0.7426
    6TMC3    C714245   0.126   3.441  10.719 -0.0082 -0.2071  0.2110
    6TMC3    C814246   4.429   3.252  10.613  0.4647  0.5991  0.7047
    6TMC3    O114247   0.186   3.540  10.757 -0.1153 -0.0402 -0.2754
    6TMC3    O214248   4.338   3.203  10.679  0.3872  0.3416  0.1849
    7MPD2     C14249   0.475   3.413  11.333  1.0492  0.6265  0.1187
    7MPD2    C114250   0.555   3.525  11.311  0.2662 -0.7602 -0.3482
    7MPD2    C214251   0.504   3.647  11.339 -0.6725 -0.4306  0.0473
    7MPD2    C314252   0.382   3.663  11.404  0.1196  0.1925 -0.5433
    7MPD2    C414253   0.305   3.549  11.421 -0.2268  0.2729  0.4367
    7MPD2    C514254   0.353   3.432  11.391  0.4733  0.0053  0.0001
    7MPD2     H14255   0.565   3.731  11.305 -2.8028  1.4952  0.9903
    7MPD2    H114256   0.213   3.562  11.478  0.1610 -1.5274  1.4922
    7MPD2    H214257   0.512   3.311  11.334 -1.7914 -0.4065  0.5712
    7MPD2    H314258   0.279   3.353  11.404  0.1217  0.2590 -0.4496
    7MPD2     N14259   0.329   3.785  11.446 -0.9255 -0.6655 -0.0461
    7MPD2    H514260   0.237   3.787  11.489 -1.5991 -0.7942 -1.4472
    7MPD2    N114261   0.679   3.523  11.241 -0.0519  0.5216  0.1364
    7MPD2    H714262   0.722   3.612  11.217  2.2881 -0.5721  0.2764
    8TMC3    C114263   0.837   3.446  11.097  0.5636  0.0342  0.7402
    8TMC3    C214264   0.790   3.421  10.973 -0.2407 -0.9344 -0.0746
    8TMC3    C314265   0.771   3.528  10.890 -0.0999 -0.0229  0.7490
    8TMC3    C414266   0.886   3.563  11.135  0.7165 -0.3788  0.1574
    8TMC3    C514267   0.878   3.667  11.046 -0.9735  0.7638  0.1486
    8TMC3    C614268   0.820   3.649  10.927  0.5669 -0.0311  0.0355
    8TMC3     C14269   0.736   3.406  11.190 -0.3055  0.0524  0.1892
    8TMC3     O14270   0.701   3.291  11.199 -0.8055  0.4202 -0.3370
    8TMC3     H14271   0.742   3.327  10.951 -1.0358 -1.4915  3.9245
    8TMC3    H114272   0.942   3.569  11.227 -1.1719  0.9017  1.2051
    8TMC3    H214273   0.787   3.735  10.870  1.6096  1.0819  1.1312
    8TMC3    C714274   0.863   3.799  11.105 -0.1337 -0.8655  0.7650
    8TMC3    C814275   0.661   3.525  10.795 -0.2295  0.0405  0.2223
    8TMC3    O114276   0.846   3.790  11.223  0.7301  0.1411 -0.0845
    8TMC3    O214277   0.571   3.607  10.786  0.2066 -0.1364  0.2300
    9MPD2     C14278   0.571   3.193  10.672 -0.1683 -0.6252 -0.5109
    9MPD2    C114279   0.541   3.319  10.721 -0.1992 -0.1507  0.0797
    9MPD2    C214280   0.412   3.358  10.725 -0.2241  0.2386 -0.4097
    9MPD2    C314281   0.308   3.279  10.683  0.0243  0.3150  0.2866
    9MPD2    C414282   0.342   3.152  10.654  0.4250  0.4156  0.5320
    9MPD2    C514283   0.469   3.104  10.652  0.0809 -0.0570  0.3093
    9MPD2     H14284   0.390   3.462  10.748  0.8097  0.1098  1.0838
    9MPD2    H114285   0.263   3.078  10.640 -0.6676  2.1768 -2.6444
    9MPD2    H214286   0.672   3.154  10.658  0.7575  1.1183  1.3266
    9MPD2    H314287   0.492   3.001  10.627 -0.8929 -0.6418  1.8506
    9MPD2     N14288   0.171   3.321  10.675 -0.0633  0.3898 -0.6626
    9MPD2    H514289   0.104   3.251  10.647  1.4085 -0.9017 -0.9329
    9MPD2    N114290   0.654   3.399  10.746  0.4620  0.1495 -0.3390
    9MPD2    H714291   0.741   3.348  10.731  0.4992 -0.1622  0.9112
    1MPD1     C14292   4.461   0.769  15.808 -0.9986  0.0067 -0.1132
    1MPD1    C114293   4.555   0.675  15.773  0.6417  0.0030  0.1097
    1MPD1    C214294   4.669   0.658  15.849  0.9170  0.6744 -0.1349
    1MPD1    C314295   4.701   0.747  15.945 -0.6443  0.1527  0.4531
    1MPD1    C414296   4.609   0.848  15.976  0.4176  0.2501  0.1854
    1MPD1    C514297   4.491   0.852  15.909 -0.0649  0.3528  0.7311
    1MPD1     H14298   4.735   0.575  15.827 -0.2878 -0.7446  1.5880
    1MPD1    H114299   4.627   0.933  16.042  0.9067  2.0604 -2.2839
    1MPD1    H214300   4.375   0.786  15.743 -0.0798  1.3031 -0.9810
    1MPD1    H314301   4.423   0.934  15.927  0.2308  0.9961 -1.0818
    1MPD1     N14302   0.089   0.735  16.011 -0.0028 -0.1604 -0.1574
    1MPD1    H514303   0.154   0.665  15.976  0.8400  0.7003 -0.3185
    1MPD1    N114304   4.525   0.597  15.661 -0.6097  0.5575  0.8507
    1MPD1    H614305   4.470   0.652  15.595 -0.3592  0.4268  0.5354
    1MPD1    H714306   4.608   0.557  15.617 -0.6651 -0.1339  1.3757
    2TMC2    C114307   0.465   0.690  16.178  0.9331  0.7842 -0.5803
    2TMC2    C214308   0.526   0.800  16.242 -0.1680  0.3696  0.3763
    2TMC2    C314309   0.458   0.917  16.249  0.5839  0.6181  0.1178
    2TMC2    C414310   0.337   0.692  16.128 -0.1891 -0.0193 -0.3036
    2TMC2    C514311   0.272   0.809  16.151  0.1597  0.1398  0.2885
    2TMC2    C614312   0.332   0.925  16.195  0.7831  0.5877  0.2180
    2TMC2     C14313   0.563   0.599  16.119 -0.5908 -0.4795 -0.0045
    2TMC2     O14314   0.667   0.595  16.175  0.1799  0.2508 -0.2173
    2TMC2     H14315   0.629   0.784  16.273  0.3179 -0.3406 -1.6505
    2TMC2    H114316   0.293   0.599  16.094  1.3316 -1.4851  1.8174
    2TMC2    H214317   0.283   1.021  16.203  2.2080  1.2661  0.9061
    2TMC2    C714318   0.136   0.827  16.108  0.2657  0.4824  0.3826
    2TMC2    C814319   0.517   1.037  16.312 -0.2099  0.3552 -0.0440
    2TMC2    O114320   0.085   0.934  16.141 -0.1260 -0.0008 -0.6620
    2TMC2    O214321   0.450   1.137  16.341  0.2031  0.4613  0.5746
    2TMC2    O514322   0.640   1.027  16.356 -0.3046  0.0772  0.0641
    2TMC2    H514323   0.697   0.957  16.318 -0.0298  0.5458 -0.3833
    3MPD1     C14324   0.747   0.364  15.696  0.5076  0.1535 -0.2758
    3MPD1    C114325   0.610   0.369  15.689  0.1161  0.5452 -0.3936
    3MPD1    C214326   0.542   0.436  15.792  1.1103  0.2083  0.1932
    3MPD1    C314327   0.604   0.486  15.907 -0.4811  0.6278 -0.9089
    3MPD1    C414328   0.741   0.476  15.911 -0.4252  0.1237 -0.7325
    3MPD1    C514329   0.810   0.419  15.811 -0.5198 -0.0342 -0.5592
    3MPD1     H14330   0.434   0.445  15.798  1.1090  0.6725 -0.5255
    3MPD1    H114331   0.799   0.520  15.991  1.5930 -2.5142 -0.7712
    3MPD1    H214332   0.816   0.323  15.623  1.4580  1.9326 -0.3669
    3MPD1    H314333   0.918   0.415  15.817 -0.5596  1.5310  0.9952
    3MPD1     N14334   0.526   0.554  15.998  0.4856  0.3596  0.0131
    3MPD1    H514335   0.428   0.561  15.974  0.8910  2.4300 -1.0383
    3MPD1    N114336   0.545   0.330  15.574  0.2748 -0.1805  0.1930
    3MPD1    H614337   0.453   0.289  15.590 -0.1880  0.1749 -1.5175
    3MPD1    H714338   0.590   0.267  15.508  1.1203  0.2871  0.3239
    1TMC1    C114339   2.563   0.831  13.597 -0.0859  0.0540 -0.1337
    1TMC1    C214340   2.671   0.742  13.595  1.1516  0.5249 -0.6258
    1TMC1    C314341   2.639   0.618  13.648 -0.3031  0.1329 -0.5227
    1TMC1    C414342   2.440   0.808  13.648  0.4293 -0.3352 -0.1002
    1TMC1    C514343   2.424   0.676  13.691 -0.1896  0.5287 -0.4186
    1TMC1    C614344   2.516   0.578  13.694 -0.8131  0.1525 -0.0601
    1TMC1     C14345   2.598   0.968  13.581 -0.2403 -0.0553  0.3928
    1TMC1     O14346   2.509   1.042  13.535 -0.4875 -0.2522 -0.1967
    1TMC1     H14347   2.762   0.760  13.539  0.1072  0.2680 -2.3704
    1TMC1    H114348   2.366   0.878  13.686 -0.0836 -0.2911 -1.1934
    1TMC1    H214349   2.489   0.476  13.716  2.2615 -0.4681  0.9133
    1TMC1    C714350   2.305   0.646  13.773  0.1776  0.1816 -0.2718
    1TMC1    C814351   2.740   0.514  13.626 -0.7177 -0.8038  0.1917
    1TMC1    O114352   2.233   0.738  13.813  0.0576  0.8230 -0.6521
    1TMC1    O214353   2.802   0.507  13.525  0.4602 -0.0552  0.1977
    1TMC1    O314354   2.253   0.544  13.703  0.0358 -0.3986  0.8405
    1TMC1    H314355   2.313   0.482  13.657  0.8863  0.1025  1.2787
    1TMC1    O514356   2.714   0.417  13.716  0.1141 -0.5291  0.9265
    1TMC1    H514357   2.677   0.440  13.804  0.4818  1.5387  0.5278
    2MPD2     C14358   2.725   1.244  13.599 -0.0847  0.0810 -0.6410
    2MPD2    C114359   2.780   1.125  13.647 -0.5976 -0.2874  0.2014
    2MPD2    C214360   2.905   1.127  13.705  0.0551 -0.5297 -0.1468
    2MPD2    C314361   2.977   1.242  13.727 -0.7285 -0.6986 -0.7568
    2MPD2    C414362   2.919   1.360  13.682 -0.0457 -0.0005 -0.4274
    2MPD2    C514363   2.796   1.356  13.617 -0.3382  0.3662 -0.4393
    2MPD2     H14364   2.942   1.030  13.736 -1.1317 -0.7415  0.6072
    2MPD2    H114365   2.962   1.459  13.692  0.0074  0.1439 -2.0381
    2MPD2    H214366   2.636   1.251  13.538  0.0012  1.9738 -0.5251
    2MPD2    H314367   2.773   1.447  13.563 -2.7655 -0.3319 -0.6102
    2MPD2     N14368   3.099   1.244  13.791 -0.5132  0.3340  0.4312
    2MPD2    H514369   3.136   1.155  13.823 -0.3556  0.5080  0.7385
    2MPD2    N114370   2.729   0.998  13.626  0.0311  0.5075  0.2234
    2MPD2    H714371   2.780   0.921  13.669  0.6728  0.4982 -0.5733
    3TCq1    O114372   3.217   1.103  14.196  0.0865 -0.0553 -0.1139
    3TCq1    C114373   3.338   1.157  14.212  0.6984 -0.4894  0.1642
    3TCq1    O214374   3.426   1.100  14.270 -0.6343 -0.0505  0.3200
    3TCq1    C214375   3.361   1.202  14.076 -1.0016 -0.4584 -0.2262
    3TCq1    C314376   3.446   1.130  13.997 -0.5342  0.4344  0.3976
    3TCq1    C414377   3.454   1.145  13.867 -0.5716 -0.3047  1.0035
    3TCq1    C514378   3.368   1.231  13.815 -0.2262 -0.8349 -0.0014
    3TCq1    C614379   3.280   1.302  13.898 -0.0618  0.4329 -0.8199
    3TCq1    C714380   3.264   1.283  14.027 -0.1403  0.1601  0.5475
    3TCq1    C814381   3.167   1.356  13.834  0.4815  0.3374 -0.0783
    3TCq1    O414382   3.176   1.462  13.775 -0.0536 -0.9434 -0.0316
    3TCq1    C914383   3.555   1.073  13.792 -0.5222  0.2512 -0.2583
    3TCq1    O514384   3.542   1.078  13.663  0.1513  0.1797  0.1638
    3TCq1    O614385   3.655   1.021  13.848  0.5592 -0.5181 -0.7564
    3TCq1    H114386   3.169   1.157  14.130  0.0764  0.2952  0.1806
    3TCq1    H214387   3.510   1.053  14.039 -0.7056  0.5427  0.8559
    3TCq1    H314388   3.368   1.257  13.710  2.5669  1.0726  0.4724
    3TCq1    H414389   3.201   1.349  14.086 -1.9657  0.0893 -1.3324
    1MPD2     C14390   2.339   2.638  14.663 -0.0890 -0.2507  0.7837
    1MPD2    C114391   2.241   2.561  14.612 -0.1876  0.9631 -0.4121
    1MPD2    C214392   2.236   2.429  14.641  0.5689  0.6891 -0.2740
    1MPD2    C314393   2.324   2.378  14.736 -0.3139 -0.2810  0.1401
    1MPD2    C414394   2.425   2.458  14.785 -0.1835  0.2646 -0.5638
    1MPD2    C514395   2.432   2.586  14.740 -0.6531 -0.1447 -0.2546
    1MPD2     H14396   2.162   2.366  14.592 -0.5698  1.5268  0.3666
    1MPD2    H114397   2.499   2.417  14.853  0.2875  1.7275 -0.1937
    1MPD2    H214398   2.343   2.746  14.650 -0.0528 -0.4872 -1.1494
    1MPD2    H314399   2.521   2.639  14.772 -0.3277 -0.6451 -0.3291
    1MPD2     N14400   2.313   2.238  14.761  0.3184  0.7378 -0.0145
    1MPD2    H514401   2.237   2.189  14.714  0.3458 -0.7392  1.4838
    1MPD2    N114402   2.137   2.628  14.537  0.6415 -0.5942  0.8480
    1MPD2    H714403   2.155   2.725  14.512 -0.3172 -0.5872  0.1468
    2TMC3    C114404   1.935   2.651  14.415 -0.8420  0.3156  0.4996
    2TMC3    C214405   1.820   2.585  14.401  0.3355  0.2747  0.2099
    2TMC3    C314406   1.770   2.567  14.275  0.9492 -0.2264  0.1472
    2TMC3    C414407   1.992   2.720  14.313  0.2464  0.3139  0.5936
    2TMC3    C514408   1.933   2.720  14.192  0.3099 -0.3459  0.1119
    2TMC3    C614409   1.823   2.639  14.165  0.0619 -0.7967  0.5398
    2TMC3     C14410   2.019   2.568  14.496  0.3493 -0.8383  0.2787
    2TMC3     O14411   1.982   2.452  14.524 -0.2887 -0.2853 -0.4412
    2TMC3     H14412   1.786   2.523  14.483  3.3036 -3.0615 -1.0761
    2TMC3    H114413   2.094   2.755  14.310  0.2898  0.0745 -0.5104
    2TMC3    H214414   1.777   2.627  14.068  1.6692  1.7139 -0.5571
    2TMC3    C714415   1.969   2.828  14.098 -0.5064  0.8235 -0.0212
    2TMC3    C814416   1.737   2.429  14.239  0.2809 -0.5983 -0.0356
    2TMC3    O114417   1.924   2.828  13.989  0.2732 -0.5469 -0.3386
    2TMC3    O214418   1.665   2.398  14.148  0.0453  0.4040 -0.0703
    3TCq1    O114419   2.674   3.824  14.142  0.6103  0.7462 -0.3203
    3TCq1    C114420   2.724   3.754  14.246 -0.0104 -0.3917 -0.9295
    3TCq1    O214421   2.826   3.776  14.306 -0.7039 -0.3433 -0.0128
    3TCq1    C214422   2.617   3.671  14.297  0.6894  0.4643 -0.5957
    3TCq1    C314423   2.611   3.655  14.429 -0.7045 -0.6451  0.2738
    3TCq1    C414424   2.499   3.582  14.475 -0.5579  0.0504 -0.2260
    3TCq1    C514425   2.412   3.519  14.395 -0.4848  0.0014  0.3122
    3TCq1    C614426   2.432   3.530  14.258 -0.0434  0.3250 -1.0509
    3TCq1    C714427   2.532   3.610  14.209 -1.0325  0.2612  0.1640
    3TCq1    C814428   2.335   3.469  14.168  0.5613 -0.1462  0.2690
    3TCq1    O414429   2.334   3.514  14.054  0.1903  0.2717 -0.4618
    3TCq1    C914430   2.493   3.558  14.619 -1.0387 -0.2538  0.3100
    3TCq1    O514431   2.580   3.616  14.686 -0.2078 -0.0149 -0.2713
    3TCq1    O614432   2.396   3.493  14.661  0.1340 -0.2968 -0.4406
    3TCq1    H114433   2.582   3.828  14.108  0.2266 -1.7031  0.4086
    3TCq1    H214434   2.675   3.710  14.496 -1.1573  0.5440 -0.2656
    3TCq1    H314435   2.332   3.457  14.433 -1.5929  1.8500  0.9476
    3TCq1    H414436   2.537   3.619  14.102  0.7384  1.8201  0.3707
    4MPD2     C14437   2.114   3.318  14.036 -0.8183 -0.9383  0.1455
    4MPD2    C114438   2.180   3.274  14.148 -0.3299 -0.8761 -0.5459
    4MPD2    C214439   2.142   3.150  14.196 -0.1921 -0.2298 -0.2180
    4MPD2    C314440   2.069   3.063  14.116  0.8929 -0.6938 -0.3953
    4MPD2    C414441   2.030   3.103  13.990 -0.2287 -0.4299 -0.2208
    4MPD2    C514442   2.040   3.232  13.954 -0.4645 -0.3095 -0.0126
    4MPD2     H14443   2.181   3.124  14.293 -0.1832 -2.4029 -0.8099
    4MPD2    H114444   1.987   3.031  13.922  0.4119  0.6856 -1.8089
    4MPD2    H214445   2.121   3.422  14.005 -1.8188 -1.1482 -0.7797
    4MPD2    H314446   1.995   3.268  13.863 -0.5517 -0.6817 -0.1163
    4MPD2     N14447   2.035   2.934  14.166  0.0076 -0.1595  0.0895
    4MPD2    H514448   2.071   2.921  14.260  0.2057 -2.2328 -0.2757
    4MPD2    N114449   2.277   3.354  14.221  0.6943  0.4755  0.2029
    4MPD2    H714450   2.331   3.328  14.303  2.3506 -1.6480 -1.5626
    5TMC2    C114451   2.177   1.922  14.670 -0.4540 -0.2467  1.1757
    5TMC2    C214452   2.111   1.859  14.775 -0.5105 -0.8787 -0.6554
    5TMC2    C314453   2.170   1.881  14.899 -0.2499 -0.3657 -0.5044
    5TMC2    C414454   2.290   1.994  14.693 -0.4044  0.3256 -0.2966
    5TMC2    C514455   2.342   2.017  14.812  0.5362  0.2097  0.1251
    5TMC2    C614456   2.276   1.965  14.923  0.6710 -0.1103 -0.9653
    5TMC2     C14457   2.096   2.003  14.588  0.3094  0.6894 -0.2831
    5TMC2     O14458   2.130   2.117  14.595  0.2215  0.2911 -0.7932
    5TMC2     H14459   2.010   1.820  14.768 -0.9352 -0.1282  1.3799
    5TMC2    H114460   2.337   2.026  14.600 -2.6491  0.4652 -1.3719
    5TMC2    H214461   2.320   1.972  15.022 -0.1202 -1.9617 -0.4917
    5TMC2    C714462   2.402   2.150  14.820 -0.1227 -0.4529  0.0184
    5TMC2    C814463   2.104   1.843  15.027  0.3507  0.4583  0.7950
    5TMC2    O114464   2.482   2.170  14.903 -0.2575  0.2519  0.3200
    5TMC2    O214465   2.117   1.897  15.135 -0.3077 -0.6451  0.0511
    5TMC2    O514466   2.083   1.707  15.019  0.0889 -0.1205 -0.0957
    5TMC2    H514467   2.106   1.668  14.932 -0.0691  0.8455 -0.5688
    6MPD2     C14468   1.696   2.145  14.295 -0.1486 -0.7330  0.4846
    6MPD2    C114469   1.802   2.217  14.337 -0.3469 -0.4870 -0.3691
    6MPD2    C214470   1.893   2.160  14.421  0.2467  0.1006  0.6018
    6MPD2    C314471   1.891   2.023  14.455 -0.0645 -1.2156 -0.4595
    6MPD2    C414472   1.784   1.953  14.407 -0.0846 -0.2759 -0.2955
    6MPD2    C514473   1.682   2.015  14.337 -0.3065  0.6394  0.6079
    6MPD2     H14474   1.971   2.222  14.465  0.1818  1.3848 -1.0959
    6MPD2    H114475   1.778   1.847  14.431 -2.0565 -0.1366 -0.1249
    6MPD2    H214476   1.615   2.181  14.233 -0.4203 -0.0968  1.2075
    6MPD2    H314477   1.596   1.957  14.305 -0.3082  0.4128  1.0352
    6MPD2     N14478   1.982   1.952  14.536  0.2099  0.2138  0.1140
    6MPD2    H514479   1.971   1.853  14.556  1.1925 -0.4189 -2.4508
    6MPD2    N114480   1.817   2.355  14.320  0.3358 -0.2931 -0.2320
    6MPD2    H714481   1.889   2.404  14.371  1.5492 -1.7024 -0.6004
  945NH3     N114482   3.295   2.139  11.712  0.4865 -0.0161  0.4634
  945NH3     H214483   3.341   2.210  11.656 -1.2146  0.4183 -0.3673
  945NH3     H314484   3.374   2.082  11.740 -0.3051 -2.1756 -1.7597
  945NH3     H414485   3.248   2.092  11.636  1.3632  0.7399 -0.5438
  946SOD     NA14486   0.510   1.203  15.744  0.4712  0.1567  0.2163
  947SOD     NA14487   1.032   2.438  11.317  0.1713  0.3217  0.0742
  948SOD     NA14488   4.419   2.155  16.827  0.2488  0.2290 -0.0178
  949SOD     NA14489   3.858   1.229  17.432  0.2159  0.3020  0.5702
  950SOD     NA14490   1.806   3.047   6.252 -0.4318 -0.3684 -0.3600
  951SOD     NA14491   2.210   1.689   4.353 -0.0222 -0.1051 -0.2704
  952SOD     NA14492   2.585   1.229   4.464 -0.3041  0.0865  0.3190
  953SOD     NA14493   2.492   3.547  14.881  0.3565 -0.6478  0.1648
  954SOL     OW14494   4.233   1.853  15.054 -0.0187  0.2935 -0.0083
  954SOL    HW114495   4.223   1.826  14.962 -0.1716  2.2338 -0.5523
  954SOL    HW214496   4.225   1.771  15.102 -2.0995 -1.2067 -2.9015
  955SOL     OW14497   4.699   1.454   6.751 -0.1496  0.0751  0.0770
  955SOL    HW114498   0.027   1.412   6.697 -0.2014 -0.6009  0.5405
  955SOL    HW214499   4.704   1.412   6.837 -0.1271  0.1932  0.1333
  956SOL     OW14500   2.234   3.877  15.592  0.1661 -0.0157 -0.2452
  956SOL    HW114501   2.282   3.795  15.580  1.6582  0.4674  2.4259
  956SOL    HW214502   2.285   3.912  15.666 -0.5998 -0.9628  0.7349
  957SOL     OW14503   1.948   1.721  10.140  0.2041  0.0646  0.1569
  957SOL    HW114504   2.018   1.684  10.193  0.4925  0.2043 -0.1264
  957SOL    HW214505   1.868   1.714  10.192  0.6479  0.9907  0.9710
  958SOL     OW14506   0.280   2.221   6.555 -0.6965  0.2403 -0.1925
  958SOL    HW114507   0.223   2.184   6.622 -0.5803  0.1446 -0.1463
  958SOL    HW214508   0.355   2.164   6.572 -0.6608  0.7120  1.1984
  959SOL     OW14509   3.468   1.284   7.415  0.2101 -0.5257  0.1983
  959SOL    HW114510   3.473   1.193   7.387  1.4740 -0.2575 -0.4213
  959SOL    HW214511   3.527   1.324   7.352 -0.1266 -2.2251 -1.1958
  960SOL     OW14512   1.876   3.806  11.875 -0.1641  0.6195 -0.2303
  960SOL    HW114513   1.844   3.888  11.911  0.5845  1.1489 -0.7547
  960SOL    HW214514   1.866   3.822  11.781 -0.6427 -0.0228 -0.2840
  961SOL     OW14515   0.538   1.142   2.569 -0.0864  0.3564 -0.4248
  961SOL    HW114516   0.499   1.193   2.499 -3.2127 -0.7182  0.5618
  961SOL    HW214517   0.622   1.187   2.581 -0.3810  0.7130  0.3026
  962SOL     OW14518   2.341   0.244   8.039  0.0281 -0.0426 -0.0886
  962SOL    HW114519   2.418   0.300   8.046  0.7817 -1.3531  2.1798
  962SOL    HW214520   2.364   0.215   7.951  0.9606  1.4718 -0.3330
  963SOL     OW14521   3.756   1.915   3.108  0.6541 -0.2710  0.2350
  963SOL    HW114522   3.798   1.972   3.173  0.4255  1.4248 -1.0921
  963SOL    HW214523   3.713   1.855   3.168  2.3410 -3.5780 -1.8859
  964SOL     OW14524   2.738   3.374   1.638  0.0553  0.2397  0.1786
  964SOL    HW114525   2.733   3.454   1.691  0.4116  1.0622 -1.0202
  964SOL    HW214526   2.658   3.327   1.662  0.9371 -1.8009 -0.8627
  965SOL     OW14527   3.544   1.412   2.491 -0.2654  0.4396  0.0003
  965SOL    HW114528   3.480   1.444   2.427 -1.3458  0.5009  1.0930
  965SOL    HW214529   3.627   1.405   2.445 -0.4495 -0.0391 -0.2635
  966SOL     OW14530   0.105   1.759   1.151 -0.7682  0.5033 -0.0518
  966SOL    HW114531   0.147   1.844   1.159  0.3372 -0.1995  1.6133
  966SOL    HW214532   0.116   1.725   1.240  0.7653 -0.7588 -0.7211
  967SOL     OW14533   2.502   2.835   7.939  0.3213 -0.5271  0.0134
  967SOL    HW114534   2.580   2.816   7.991  1.1891  0.1193 -1.0476
  967SOL    HW214535   2.525   2.823   7.847  0.6353 -1.4523  0.2199
  968SOL     OW14536   0.534   4.455   2.270 -0.3224 -0.5153  0.6850
  968SOL    HW114537   0.576   4.376   2.237  1.8521  0.4893  1.0200
  968SOL    HW214538   0.608   4.516   2.279  0.8597 -1.5801 -1.9201
  969SOL     OW14539   4.225   2.211   5.324  0.2409 -0.6020 -0.1720
  969SOL    HW114540   4.314   2.182   5.301 -0.0182  1.0375 -3.2541
  969SOL    HW214541   4.202   2.257   5.243 -0.2381 -0.6332 -0.0533
  970SOL     OW14542   1.031   1.079   4.137  0.2338  0.3075  0.5374
  970SOL    HW114543   1.086   1.142   4.089 -2.6828  2.4575  0.0058
  970SOL    HW214544   0.978   1.143   4.186  1.5238  0.7297  1.3646
  971SOL     OW14545   3.549   0.973  17.175  0.2038 -0.4617  0.3444
  971SOL    HW114546   3.457   0.951  17.188 -0.1271  1.8903  1.9252
  971SOL    HW214547   3.565   0.946  17.085 -1.2560 -0.3222  0.0381
  972SOL     OW14548   3.441   0.666   0.284  0.0800 -0.2489 -0.1843
  972SOL    HW114549   3.352   0.654   0.252  0.8403  1.3400 -2.8376
  972SOL    HW214550   3.417   0.720   0.360 -0.9241 -0.4965 -0.3382
  973SOL     OW14551   1.307   3.117   3.506  0.2257  0.7211 -0.2152
  973SOL    HW114552   1.331   3.172   3.432 -0.2251  1.9647  0.5730
  973SOL    HW214553   1.347   3.035   3.475 -0.4723 -0.0351  0.8502
  974SOL     OW14554   2.754   1.596   5.588  0.9400 -0.0190  0.0627
  974SOL    HW114555   2.782   1.526   5.529  0.3662 -0.8759  0.7855
  974SOL    HW214556   2.693   1.652   5.541  0.0570 -3.0255 -2.4175
  975SOL     OW14557   4.650   3.950  15.435  0.0587 -0.4076 -0.5609
  975SOL    HW114558   4.666   3.888  15.364 -0.2466 -0.1020 -0.9003
  975SOL    HW214559   4.732   3.950  15.484 -0.1256 -2.3671 -0.2440
  976SOL     OW14560   2.496   2.659   5.221  0.5010 -0.4001  0.3546
  976SOL    HW114561   2.582   2.647   5.182 -0.4065 -1.8503 -1.2051
  976SOL    HW214562   2.483   2.568   5.248 -1.0648 -0.7225 -1.4922
  977SOL     OW14563   1.579   3.460   7.315  0.0039  0.4231 -0.3730
  977SOL    HW114564   1.572   3.414   7.232  0.7187 -0.8715  0.2770
  977SOL    HW214565   1.535   3.403   7.378  0.6624  0.4502  0.1124
  978SOL     OW14566   4.401   2.074   3.416  0.2595 -0.0361  0.1259
  978SOL    HW114567   4.327   2.120   3.455  0.5136  1.4528 -1.1531
  978SOL    HW214568   4.360   2.045   3.334  3.1211 -1.9835 -0.6204
  979SOL     OW14569   4.176   2.619   8.488  0.3643  0.1287 -0.2285
  979SOL    HW114570   4.089   2.587   8.463  0.3195 -0.1749  0.3082
  979SOL    HW214571   4.217   2.533   8.501  1.8763  0.6788 -1.3886
  980SOL     OW14572   3.023   4.195   2.759 -0.5156 -0.5925  0.4067
  980SOL    HW114573   2.967   4.175   2.834 -3.0199 -1.0639 -1.5861
  980SOL    HW214574   3.099   4.138   2.768  0.1972  0.3664  0.5078
  981SOL     OW14575   4.020   2.227  12.517  0.0800  0.0054 -0.0940
  981SOL    HW114576   3.937   2.200  12.480  0.1164 -0.9751  0.5516
  981SOL    HW214577   3.992   2.301  12.572  0.6418  0.5245 -0.4993
  982SOL     OW14578   1.504   3.458  16.027  0.6392  0.1559  0.2840
  982SOL    HW114579   1.506   3.549  15.996  1.5605 -0.2138 -0.7326
  982SOL    HW214580   1.424   3.419  15.993  0.3990  0.5151  0.4393
  983SOL     OW14581   1.955   1.371  14.833  0.0406  0.7159 -0.1033
  983SOL    HW114582   2.041   1.410  14.848  0.7129 -0.7942  0.0331
  983SOL    HW214583   1.915   1.360  14.919 -0.8756  2.8840 -0.2676
  984SOL     OW14584   2.519   3.144   1.925 -0.5729  0.2872 -0.4254
  984SOL    HW114585   2.587   3.080   1.904 -2.0001 -0.8372 -1.6369
  984SOL    HW214586   2.472   3.105   1.999  3.4001  0.4066  2.1765
  985SOL     OW14587   3.802   2.888   2.091  0.7509  0.3343  0.3891
  985SOL    HW114588   3.722   2.845   2.122  1.4475 -1.6221 -0.4933
  985SOL    HW214589   3.868   2.824   2.118  0.9882  0.3225 -0.2238
  986SOL     OW14590   1.730   4.425   2.164  0.6507  0.1860 -0.2714
  986SOL    HW114591   1.812   4.426   2.213  0.8921 -0.7896 -0.6412
  986SOL    HW214592   1.711   4.517   2.147 -1.1234 -0.0933  0.1193
  987SOL     OW14593   4.443   0.077   6.296 -0.2817 -0.6195  0.3228
  987SOL    HW114594   4.513   0.063   6.359  0.4271 -2.0076 -0.7691
  987SOL    HW214595   4.462   0.169   6.276 -0.5757 -0.6670 -0.1892
  988SOL     OW14596   1.136   4.593   7.240  0.0013  0.5005 -0.0415
  988SOL    HW114597   1.064   4.549   7.196 -1.6693  1.6867  1.5274
  988SOL    HW214598   1.159   4.661   7.176 -1.7029  0.3622 -0.7872
  989SOL     OW14599   2.405   3.086  16.224  0.4740  0.3133  0.6072
  989SOL    HW114600   2.416   3.061  16.316 -2.5828  1.4338  1.2891
  989SOL    HW214601   2.310   3.091  16.213  0.4181 -1.0744  0.5339
  990SOL     OW14602   4.544   2.873  16.404  0.1686  0.2497  0.2018
  990SOL    HW114603   4.452   2.879  16.380 -0.1100 -1.4509  0.8697
  990SOL    HW214604   4.538   2.893  16.497 -1.7891 -1.3285  0.3954
  991SOL     OW14605   1.206   1.273   7.602  0.5565 -0.3719 -0.3939
  991SOL    HW114606   1.191   1.185   7.637  0.3331  0.1823  0.9061
  991SOL    HW214607   1.301   1.282   7.617  0.9578 -1.1994 -2.5022
  992SOL     OW14608   3.493   1.972   5.690 -0.0973  0.1643  0.3880
  992SOL    HW114609   3.436   2.041   5.725 -0.9859  0.0277 -0.7871
  992SOL    HW214610   3.535   1.959   5.775  1.2209  1.7367 -0.0009
  993SOL     OW14611   1.855   2.673   7.998  0.0255  0.1666 -0.2477
  993SOL    HW114612   1.896   2.690   8.083  0.1107  3.9081 -1.0580
  993SOL    HW214613   1.840   2.579   7.987 -1.4893  0.3246  0.5810
  994SOL     OW14614   3.892   0.617  12.565  0.0988  0.6749 -0.1151
  994SOL    HW114615   3.881   0.703  12.606 -0.3398  0.1598  0.8546
  994SOL    HW214616   3.804   0.612  12.528 -0.1788  0.4954  0.5546
  995SOL     OW14617   2.116   0.205   7.612 -0.4593  0.3902  0.0554
  995SOL    HW114618   2.036   0.154   7.628 -1.0567  0.7629 -1.7577
  995SOL    HW214619   2.111   0.193   7.517 -2.1010  1.4773  0.0015
  996SOL     OW14620   1.721   4.467   2.721  0.1668 -0.3758 -0.0875
  996SOL    HW114621   1.660   4.449   2.649  0.7280 -3.3900  0.2005
  996SOL    HW214622   1.794   4.414   2.688  1.1894  0.5535  0.6822
  997SOL     OW14623   1.056   4.286  17.679 -0.2819  0.1463 -0.0432
  997SOL    HW114624   1.097   4.371  17.695  1.5888 -0.6138 -0.8515
  997SOL    HW214625   1.038   4.255   0.016 -0.0506  0.2469  0.0379
  998SOL     OW14626   0.555   2.610   5.893 -0.0733  0.2432  0.2091
  998SOL    HW114627   0.480   2.669   5.888 -0.2847  0.1256  1.7546
  998SOL    HW214628   0.612   2.663   5.950 -0.9625 -0.1893  1.4968
  999SOL     OW14629   3.774   0.129   4.435 -0.6144 -0.8933  0.2649
  999SOL    HW114630   3.859   0.113   4.475  0.6144  0.3752 -1.8902
  999SOL    HW214631   3.779   0.061   4.368  0.9888  1.1142 -1.6428
 1000SOL     OW14632   2.783   1.024  17.233  0.4343  0.6316 -1.0316
 1000SOL    HW114633   2.729   0.977  17.170  2.3162 -2.7947 -0.1286
 1000SOL    HW214634   2.804   0.952  17.293 -0.0755  1.1879 -0.1879
 1001SOL     OW14635   1.323   1.363   3.411  0.5219  0.3483 -0.2797
 1001SOL    HW114636   1.301   1.445   3.455 -0.6005 -1.3878  2.3945
 1001SOL    HW214637   1.240   1.336   3.373  0.3222  0.5253  0.0314
 1002SOL     OW14638   2.129   4.337   0.922  0.2705  0.4002 -0.6702
 1002SOL    HW114639   2.206   4.393   0.916  0.2795  0.4021 -0.5460
 1002SOL    HW214640   2.057   4.398   0.941 -0.5693 -0.2884 -1.6423
 1003SOL     OW14641   3.899   1.103  11.598 -0.7073  0.3680  0.3461
 1003SOL    HW114642   3.887   1.077  11.689  1.6579  0.3952  0.6796
 1003SOL    HW214643   3.987   1.064  11.593  0.4556  3.0857 -0.8176
 1004SOL     OW14644   1.984   2.671   8.256  0.5464 -0.6465 -0.4530
 1004SOL    HW114645   2.073   2.646   8.233  0.8515 -1.6832  1.7819
 1004SOL    HW214646   1.990   2.708   8.344 -0.3144 -0.2108 -0.5730
 1005SOL     OW14647   1.487   4.645   9.774 -0.3304  0.4580  0.0588
 1005SOL    HW114648   1.511   4.670   9.685  4.1632  0.1426  1.1658
 1005SOL    HW214649   1.401   4.608   9.756  0.9025 -1.6186 -1.4504
 1006SOL     OW14650   1.401   2.601   5.372 -0.6893  0.0060  0.1964
 1006SOL    HW114651   1.336   2.640   5.313 -0.1795 -1.9343 -1.6537
 1006SOL    HW214652   1.401   2.508   5.348  1.4455 -0.5795  2.5231
 1007SOL     OW14653   3.970   4.415   8.979  0.0649 -0.3274 -0.0755
 1007SOL    HW114654   4.047   4.420   8.922 -0.7570  1.6192 -1.0086
 1007SOL    HW214655   4.000   4.412   9.070 -0.9130 -1.0539  0.2224
 1008SOL     OW14656   0.417   4.533  11.766  0.5086 -0.0277  0.3150
 1008SOL    HW114657   0.361   4.469  11.722 -0.1825 -0.3845  1.6885
 1008SOL    HW214658   0.374   4.537  11.852  0.9293  0.4300  0.5006
 1009SOL     OW14659   1.828   1.407   7.950 -0.2196 -0.4586 -0.4118
 1009SOL    HW114660   1.837   1.503   7.951  1.7978 -0.6402 -0.5940
 1009SOL    HW214661   1.739   1.399   7.915 -0.1930  2.6211 -1.2271
 1010SOL     OW14662   1.854   1.608   6.741  0.1964  0.4700 -0.5120
 1010SOL    HW114663   1.945   1.580   6.727 -0.2805 -1.6615  0.6109
 1010SOL    HW214664   1.820   1.535   6.793 -3.2032  1.4259 -1.4102
 1011SOL     OW14665   4.378   2.555   1.430 -0.1035 -0.2998 -0.6977
 1011SOL    HW114666   4.311   2.619   1.407  0.6315  1.0730  0.9996
 1011SOL    HW214667   4.331   2.481   1.468 -0.7589  0.4533 -0.0327
 1012SOL     OW14668   1.897   0.029   7.972  0.1371  0.0350 -0.3883
 1012SOL    HW114669   1.914   0.058   8.062  2.0677  0.7268 -0.9869
 1012SOL    HW214670   1.982   4.727   7.958 -0.5297 -1.1159 -1.1317
 1013SOL     OW14671   3.275   4.409   5.215 -0.5328  0.2865  0.0784
 1013SOL    HW114672   3.208   4.455   5.266  1.1698  2.2496  0.5222
 1013SOL    HW214673   3.218   4.364   5.153  0.7272 -1.6810  0.3534
 1014SOL     OW14674   2.282   0.525   3.810  0.0368 -0.1512 -0.1365
 1014SOL    HW114675   2.205   0.574   3.840  0.7936  1.3820 -0.6751
 1014SOL    HW214676   2.253   0.436   3.830 -0.0916 -0.0820 -0.0165
 1015SOL     OW14677   2.940   2.187   2.314  0.3718  0.0191 -0.0571
 1015SOL    HW114678   2.978   2.162   2.229 -0.2822 -0.8331 -0.0957
 1015SOL    HW214679   3.018   2.188   2.370  1.5020  3.3624 -1.6666
 1016SOL     OW14680   2.181   0.855   6.785  0.6045  0.1194 -0.2316
 1016SOL    HW114681   2.168   0.768   6.747 -2.7758  0.6895 -0.3966
 1016SOL    HW214682   2.256   0.884   6.734 -0.1825  1.6883 -0.4990
 1017SOL     OW14683   0.665   2.735   2.097  0.8463  0.0956  0.6934
 1017SOL    HW114684   0.670   2.651   2.142  1.4132 -0.3883 -0.2771
 1017SOL    HW214685   0.755   2.766   2.103  0.9395  0.1081 -0.6060
 1018SOL     OW14686   2.623   2.315   6.970 -0.7369 -0.3652 -0.5706
 1018SOL    HW114687   2.624   2.407   6.944  0.5773  0.1208  1.2018
 1018SOL    HW214688   2.615   2.270   6.886 -1.5597 -0.5513 -0.3958
 1019SOL     OW14689   0.880   1.276   7.638  0.3331  0.1863 -0.4736
 1019SOL    HW114690   0.879   1.181   7.639  3.1097  0.1522 -0.1099
 1019SOL    HW214691   0.854   1.297   7.728 -0.6416  0.1447 -0.7489
 1020SOL     OW14692   4.561   3.860   7.229 -0.4475 -0.2584  0.2033
 1020SOL    HW114693   4.544   3.933   7.170 -0.5771  0.9836  1.7487
 1020SOL    HW214694   4.612   3.913   7.292  0.5330  0.8819 -1.5521
 1021SOL     OW14695   3.868   1.251   8.594  0.1283  0.8343  0.1286
 1021SOL    HW114696   3.840   1.244   8.503  0.5073  2.1237 -0.0868
 1021SOL    HW214697   3.790   1.228   8.646  0.6468 -2.0916 -0.3688
 1022SOL     OW14698   1.773   1.005   6.685 -0.2695  0.5181  0.2014
 1022SOL    HW114699   1.789   1.095   6.658  3.1689 -0.2059 -0.1028
 1022SOL    HW214700   1.825   1.000   6.766 -0.7782  0.5786  0.5357
 1023SOL     OW14701   3.598   4.464   9.154 -0.3450  0.0801 -0.2404
 1023SOL    HW114702   3.645   4.536   9.196 -0.5474  1.3909 -2.2619
 1023SOL    HW214703   3.507   4.496   9.157 -0.3965 -0.0105 -0.7952
 1024SOL     OW14704   0.624   3.905   0.711 -0.1706  0.4047  0.6251
 1024SOL    HW114705   0.542   3.877   0.754  0.7773 -1.8827  0.9504
 1024SOL    HW214706   0.696   3.865   0.759  1.4772  0.2480 -1.9686
 1025SOL     OW14707   2.989   4.730   6.124  0.2370 -0.0235  0.0306
 1025SOL    HW114708   3.040   4.671   6.068 -0.3025 -1.6434  1.2457
 1025SOL    HW214709   3.012   4.698   6.212 -2.0591 -0.5359  0.4427
 1026SOL     OW14710   4.369   0.032   8.418 -0.1379 -0.0690  0.4228
 1026SOL    HW114711   4.457   0.053   8.389 -0.4838  0.4027 -0.2919
 1026SOL    HW214712   4.391   0.013   8.509 -0.1586 -0.3348  0.3708
 1027SOL     OW14713   2.331   1.222  13.551  0.3858 -0.0098 -0.1830
 1027SOL    HW114714   2.394   1.151  13.540  0.8211  0.3911 -0.3213
 1027SOL    HW214715   2.315   1.224  13.456  1.0667 -1.3562 -0.3270
 1028SOL     OW14716   0.620   1.351   2.062  0.2848 -0.0162  0.1344
 1028SOL    HW114717   0.547   1.290   2.068 -0.8197  1.2605 -0.6483
 1028SOL    HW214718   0.571   1.415   2.012 -1.3065 -1.2813  0.0782
 1029SOL     OW14719   4.580   2.598  12.783 -0.0687  0.8543  0.2259
 1029SOL    HW114720   4.536   2.518  12.812  1.5669 -0.5355 -1.0776
 1029SOL    HW214721   4.665   2.583  12.824 -0.2811 -2.5555 -0.5992
 1030SOL     OW14722   2.102   1.663   0.601  0.4150 -0.2368 -0.0197
 1030SOL    HW114723   2.007   1.663   0.588  0.5955 -0.2679 -1.3151
 1030SOL    HW214724   2.111   1.597   0.670  2.1754 -2.0471 -1.9951
 1031SOL     OW14725   2.515   3.731  12.666  0.3171  0.0183 -0.3175
 1031SOL    HW114726   2.558   3.649  12.645 -1.1271 -0.7894 -0.1410
 1031SOL    HW214727   2.537   3.754  12.756 -2.8601 -1.3722  0.8401
 1032SOL     OW14728   4.597   4.105  14.537  0.4368  0.1740 -0.1301
 1032SOL    HW114729   4.541   4.060  14.473  1.0218  0.4717 -0.8606
 1032SOL    HW214730   4.537   4.168  14.575 -1.0731 -0.0744 -2.0743
 1033SOL     OW14731   0.364   4.072   3.182 -0.2205 -0.2795 -0.4163
 1033SOL    HW114732   0.286   4.090   3.130 -0.8895  1.2654  1.1515
 1033SOL    HW214733   0.358   3.976   3.186  1.2870 -0.2461  2.6761
 1034SOL     OW14734   1.470   1.814   5.822 -0.0970 -0.0733 -0.0861
 1034SOL    HW114735   1.426   1.731   5.803 -0.9529  0.3036  0.2261
 1034SOL    HW214736   1.559   1.781   5.812  0.2465  0.9249 -0.2994
 1035SOL     OW14737   1.108   1.448   4.778 -0.6650 -0.0910  0.2821
 1035SOL    HW114738   1.185   1.407   4.738  0.4862  1.5787  0.8037
 1035SOL    HW214739   1.036   1.391   4.749  0.2543 -1.3624  0.5063
 1036SOL     OW14740   1.057   0.843   1.490 -0.3533 -0.1654  0.6929
 1036SOL    HW114741   1.030   0.832   1.582  1.1248  0.8305  1.2524
 1036SOL    HW214742   1.118   0.769   1.486  0.7353  0.7935 -0.3554
 1037SOL     OW14743   1.491   4.627   2.306  0.0717 -0.4914 -0.1477
 1037SOL    HW114744   1.553   4.692   2.338 -2.0915  1.7911 -0.5975
 1037SOL    HW214745   1.410   4.655   2.350 -0.9390 -3.5941  0.0240
 1038SOL     OW14746   3.114   0.816   8.091 -0.0775 -0.8131  0.0449
 1038SOL    HW114747   3.027   0.845   8.063  0.3578 -0.4487 -0.9240
 1038SOL    HW214748   3.100   0.781   8.179  0.2403 -1.5197 -0.1876
 1039SOL     OW14749   3.726   4.376  16.262 -0.6382  0.2690  0.0118
 1039SOL    HW114750   3.696   4.391  16.352  0.1281 -1.0395  0.4933
 1039SOL    HW214751   3.716   4.462  16.221 -0.2803 -0.4417 -1.5791
 1040SOL     OW14752   3.383   3.426   8.603 -0.1603 -0.6822 -0.2622
 1040SOL    HW114753   3.293   3.403   8.624  0.1269  0.9176  2.7007
 1040SOL    HW214754   3.396   3.495   8.667  4.3484 -0.5125 -1.3414
 1041SOL     OW14755   0.414   1.848   6.801 -0.0604 -0.2761  0.2660
 1041SOL    HW114756   0.503   1.837   6.766  0.6991 -0.3983  2.2340
 1041SOL    HW214757   0.390   1.758   6.776  1.7104 -0.5117 -0.6275
 1042SOL     OW14758   1.201   4.349   3.241 -0.2053 -0.5418 -0.3780
 1042SOL    HW114759   1.183   4.413   3.310  0.8069  0.0194 -0.6287
 1042SOL    HW214760   1.185   4.413   3.171 -0.9386 -1.6972 -1.2567
 1043SOL     OW14761   1.754   4.449  10.035  0.1580  0.2047  0.0404
 1043SOL    HW114762   1.757   4.433  10.129 -3.0710 -3.3736 -0.4833
 1043SOL    HW214763   1.818   4.520  10.047  0.0461  0.1032  1.2283
 1044SOL     OW14764   0.963   2.894   8.940  0.1435  0.2322  0.0087
 1044SOL    HW114765   0.982   2.944   8.861  1.4905 -0.7578 -0.3073
 1044SOL    HW214766   0.947   2.803   8.911  1.4826 -0.8139  2.5764
 1045SOL     OW14767   4.615   3.590   3.485 -0.2042 -0.3905 -0.7405
 1045SOL    HW114768   4.556   3.595   3.560  0.7171  0.6026 -0.0820
 1045SOL    HW214769   4.572   3.648   3.421 -1.2074 -0.2059  0.1004
 1046SOL     OW14770   2.320   2.929   8.242 -0.3136 -0.1345 -0.4007
 1046SOL    HW114771   2.317   3.019   8.209  2.5874  0.3918  0.8365
 1046SOL    HW214772   2.381   2.945   8.314  1.2993  0.6033 -1.9250
 1047SOL     OW14773   4.695   2.051   7.062 -0.5052 -0.6344  0.7134
 1047SOL    HW114774   4.664   2.107   6.990 -0.5607 -2.4675 -0.6822
 1047SOL    HW214775   4.612   2.012   7.089  0.0398 -0.8042  2.1254
 1048SOL     OW14776   4.510   1.382  12.719 -0.3716  0.1915 -0.7399
 1048SOL    HW114777   4.577   1.333  12.766  0.7895  1.3056 -1.2416
 1048SOL    HW214778   4.476   1.317  12.658  2.0515 -2.6769  0.9648
 1049SOL     OW14779   1.778   1.085   8.781  0.1657 -0.2770 -0.1613
 1049SOL    HW114780   1.763   1.123   8.694 -1.8666 -2.3321 -0.7326
 1049SOL    HW214781   1.759   0.992   8.764 -4.4420  1.0037 -2.1367
 1050SOL     OW14782   2.000   0.554   9.862  0.5968  0.9538  0.3746
 1050SOL    HW114783   2.049   0.554   9.780  0.6411  2.3292  0.3939
 1050SOL    HW214784   1.922   0.526   9.814  1.5292 -2.7263  1.0026
 1051SOL     OW14785   2.271   3.352  16.263 -0.0340  0.9352  0.0451
 1051SOL    HW114786   2.178   3.369  16.279 -0.1173  0.5648 -0.0546
 1051SOL    HW214787   2.272   3.266  16.221 -0.9687  0.7875  0.3157
 1052SOL     OW14788   4.245   3.226   1.806 -0.0255 -0.0084  0.1518
 1052SOL    HW114789   4.262   3.236   1.713 -0.5275 -2.3657 -0.2130
 1052SOL    HW214790   4.251   3.130   1.814  1.5041  0.3190  2.8964
 1053SOL     OW14791   4.641   1.030  12.483 -0.0584  0.6120  0.6107
 1053SOL    HW114792   4.727   1.071  12.496  0.6306  0.0154 -1.9664
 1053SOL    HW214793   4.589   1.068  12.554 -3.0157 -1.1996 -0.6008
 1054SOL     OW14794   3.437   3.935   8.856 -0.4451  0.2274  0.1402
 1054SOL    HW114795   3.402   3.929   8.946 -0.1146 -0.2648  0.2379
 1054SOL    HW214796   3.360   3.938   8.799  0.0928 -1.0005 -0.6484
 1055SOL     OW14797   4.492   1.971  15.082 -0.0205 -0.0133 -0.4287
 1055SOL    HW114798   4.401   1.943  15.092  0.5993 -1.5799  0.8289
 1055SOL    HW214799   4.485   2.064  15.061 -2.5241 -0.0623  0.1511
 1056SOL     OW14800   3.304   0.791   5.695  0.3337  0.1945  0.3081
 1056SOL    HW114801   3.397   0.788   5.673  0.5102 -2.6873  1.3990
 1056SOL    HW214802   3.305   0.719   5.758 -2.1016 -0.6668 -0.6588
 1057SOL     OW14803   0.944   3.081   3.860  0.0182 -0.1408  0.1290
 1057SOL    HW114804   0.944   3.147   3.791 -1.4941 -0.6948 -0.4143
 1057SOL    HW214805   0.865   3.029   3.845 -1.4365  1.8873  0.8431
 1058SOL     OW14806   1.980   4.093  13.480  0.0440 -0.1337  0.2752
 1058SOL    HW114807   1.903   4.120  13.530  1.3110  0.9542  1.6656
 1058SOL    HW214808   1.962   4.000  13.464 -3.3581  0.8765 -1.6799
 1059SOL     OW14809   4.069   4.585   5.294 -0.3120 -0.2291  0.0282
 1059SOL    HW114810   4.071   4.490   5.285 -0.7609 -0.0613 -1.7772
 1059SOL    HW214811   4.109   4.602   5.380  3.0038 -1.7795 -1.1814
 1060SOL     OW14812   2.830   1.691   5.818  0.0862  0.3361 -0.5867
 1060SOL    HW114813   2.906   1.642   5.850  1.1958  0.8322 -2.4451
 1060SOL    HW214814   2.815   1.640   5.739 -0.4518  1.7681 -1.4134
 1061SOL     OW14815   3.841   2.527   8.702 -0.3166 -0.2042  0.2003
 1061SOL    HW114816   3.911   2.463   8.717 -1.3551 -1.2507  0.6691
 1061SOL    HW214817   3.892   2.597   8.661  1.5998 -2.4579 -1.2918
 1062SOL     OW14818   1.692   0.222   5.948 -0.4434  0.6200  0.4242
 1062SOL    HW114819   1.636   0.219   6.025  2.0905 -0.7346  2.2167
 1062SOL    HW214820   1.627   0.270   5.898 -0.4235 -0.1810 -0.3579
 1063SOL     OW14821   0.524   2.867   5.013  0.7307  0.6190 -0.6642
 1063SOL    HW114822   0.463   2.844   4.943  3.1431 -0.3477 -2.4698
 1063SOL    HW214823   0.467   2.853   5.088  0.3158  2.0911 -0.7046
 1064SOL     OW14824   1.849   2.442  10.284 -0.3595  0.4285 -0.4079
 1064SOL    HW114825   1.819   2.532  10.296  0.8309  0.4623  2.1492
 1064SOL    HW214826   1.767   2.392  10.287  0.0822 -0.2704  0.0776
 1065SOL     OW14827   0.958   2.416   4.527  0.0414 -0.7471 -0.0686
 1065SOL    HW114828   1.052   2.422   4.543  0.0229  1.6457 -0.8159
 1065SOL    HW214829   0.924   2.505   4.534  1.7369 -0.1406  0.4978
 1066SOL     OW14830   2.031   2.006   3.733 -0.4902 -0.0473 -0.2729
 1066SOL    HW114831   1.988   1.922   3.751  0.5913 -0.6065 -0.2899
 1066SOL    HW214832   1.963   2.072   3.731  0.4582  0.9717  1.0834
 1067SOL     OW14833   0.802   2.921   7.747 -0.6344  0.1588 -0.8727
 1067SOL    HW114834   0.768   2.997   7.699 -0.5690  0.6049 -0.2120
 1067SOL    HW214835   0.857   2.955   7.818  0.9951  0.8229 -2.4870
 1068SOL     OW14836   2.911   0.874   7.109 -0.4453  0.6156  0.6330
 1068SOL    HW114837   2.889   0.854   7.018 -1.7275 -1.3670  1.4048
 1068SOL    HW214838   2.980   0.809   7.123 -1.0151  0.6739  3.7904
 1069SOL     OW14839   4.212   0.563   9.038 -0.4390  0.0457  0.4252
 1069SOL    HW114840   4.290   0.616   9.055 -0.6806  0.1445  1.2133
 1069SOL    HW214841   4.146   0.632   9.049  0.7545  1.2305  0.2678
 1070SOL     OW14842   3.435   1.058   4.511 -0.0066 -0.6735  0.0303
 1070SOL    HW114843   3.382   0.978   4.505  0.2603 -0.5617 -4.0177
 1070SOL    HW214844   3.410   1.100   4.429 -2.3664 -3.2324 -0.5783
 1071SOL     OW14845   3.894   3.712   4.863  0.6800  0.5755  0.1796
 1071SOL    HW114846   3.825   3.702   4.798  0.4412 -0.4348  0.5736
 1071SOL    HW214847   3.955   3.644   4.833  1.1557  0.7772  0.6923
 1072SOL     OW14848   1.304   4.224  16.068  0.8086 -0.2854 -0.1426
 1072SOL    HW114849   1.304   4.316  16.096  1.2475 -0.1363 -0.6356
 1072SOL    HW214850   1.258   4.175  16.136 -0.4448  0.4888 -0.4250
 1073SOL     OW14851   0.084   3.157   6.843  0.7794  0.2255 -0.1188
 1073SOL    HW114852   0.014   3.112   6.891 -2.8719  1.3607 -4.4183
 1073SOL    HW214853   0.056   3.248   6.844  1.1405  0.3261  1.0685
 1074SOL     OW14854   1.448   0.222   6.417  0.6596 -0.4915 -0.1400
 1074SOL    HW114855   1.429   0.289   6.483  3.3923  0.4552 -0.3044
 1074SOL    HW214856   1.405   0.141   6.444 -0.1420 -0.1524 -0.4158
 1075SOL     OW14857   2.609   3.907   9.248 -0.0242  0.4173  0.6977
 1075SOL    HW114858   2.701   3.906   9.275  0.6125 -0.3966 -1.5519
 1075SOL    HW214859   2.579   3.821   9.277  1.7930 -0.6822 -0.7180
 1076SOL     OW14860   4.381   3.215   6.864 -0.1558 -0.0271 -0.0689
 1076SOL    HW114861   4.368   3.129   6.824 -2.9704 -0.2784  1.4417
 1076SOL    HW214862   4.310   3.219   6.928 -0.7359 -2.0855 -0.5918
 1077SOL     OW14863   2.920   1.719   6.285 -0.5204 -0.4392 -0.2567
 1077SOL    HW114864   2.882   1.682   6.364  0.3879 -0.8072  0.0124
 1077SOL    HW214865   2.849   1.714   6.220  0.8853  1.8088 -1.9457
 1078SOL     OW14866   3.663   2.526   7.690  0.2319  0.5235  0.5508
 1078SOL    HW114867   3.607   2.452   7.713  0.1217  1.6567  3.9333
 1078SOL    HW214868   3.597   2.591   7.669 -0.9093  0.2473  3.3472
 1079SOL     OW14869   2.237   0.883   9.336  0.1655 -0.2168  0.0166
 1079SOL    HW114870   2.199   0.896   9.423  0.7322  0.6557  0.1263
 1079SOL    HW214871   2.328   0.883   9.364  0.3841  2.5342 -0.6732
 1080SOL     OW14872   2.070   2.247  13.958 -0.1669 -0.2365  0.6456
 1080SOL    HW114873   2.075   2.193  13.879  0.9534 -0.1620  0.6746
 1080SOL    HW214874   1.985   2.289  13.941  0.3303  0.1588 -0.8393
 1081SOL     OW14875   2.951   3.785   1.786  0.4756  0.0806  0.4694
 1081SOL    HW114876   3.013   3.812   1.853 -0.9262  0.2232  1.7190
 1081SOL    HW214877   2.886   3.854   1.804 -0.9827 -0.8142 -1.3222
 1082SOL     OW14878   0.576   1.942   8.458 -0.9013 -0.1682 -0.1261
 1082SOL    HW114879   0.499   1.955   8.513 -0.8010  0.5044 -0.1491
 1082SOL    HW214880   0.541   1.964   8.371 -0.4808  1.9353  0.2579
 1083SOL     OW14881   1.370   0.383   3.075 -0.2235  0.5623  0.2320
 1083SOL    HW114882   1.452   0.404   3.121  1.0484 -2.7624 -0.5469
 1083SOL    HW214883   1.315   0.364   3.151 -1.1916  1.3142 -0.2796
 1084SOL     OW14884   4.478   3.578   3.711  0.0183 -0.1356 -0.0773
 1084SOL    HW114885   4.455   3.485   3.707  0.0974 -0.2129  1.1929
 1084SOL    HW214886   4.392   3.614   3.734 -1.9096 -3.0057 -2.8612
 1085SOL     OW14887   0.491   3.628   2.353 -0.4104  0.3313  0.3430
 1085SOL    HW114888   0.521   3.548   2.395 -0.8491  1.3808  2.6251
 1085SOL    HW214889   0.552   3.638   2.279 -2.5315  0.0793 -1.4521
 1086SOL     OW14890   2.693   1.913   8.477 -0.1680  0.6417 -0.1215
 1086SOL    HW114891   2.764   1.971   8.451 -0.5398  0.7713 -0.8620
 1086SOL    HW214892   2.750   1.836   8.473 -1.4552 -0.3202  0.1848
 1087SOL     OW14893   1.823   0.053   4.493  0.2383 -0.0911  0.2587
 1087SOL    HW114894   1.914   0.025   4.487  0.1188 -0.3191 -0.3683
 1087SOL    HW214895   1.824   0.120   4.425 -2.7129  0.7319  1.0160
 1088SOL     OW14896   1.346   2.025   8.498 -0.1050  0.0187  0.4776
 1088SOL    HW114897   1.379   2.031   8.587 -0.1967 -0.3671  0.5388
 1088SOL    HW214898   1.375   2.107   8.459  1.4862 -1.0836 -0.6559
 1089SOL     OW14899   0.590   0.285  11.683 -0.1523  0.4866  0.3035
 1089SOL    HW114900   0.659   0.343  11.651  0.4554  0.1350  0.9779
 1089SOL    HW214901   0.566   0.243  11.600  1.6366  0.1250 -0.0226
 1090SOL     OW14902   3.106   3.633   3.237  0.5437  0.1917  0.2465
 1090SOL    HW114903   3.180   3.635   3.177  0.0342 -1.8457 -0.4518
 1090SOL    HW214904   3.107   3.545   3.276 -1.6283  0.4331  0.8619
 1091SOL     OW14905   4.611   2.305   8.581  0.1475 -0.3482 -0.3161
 1091SOL    HW114906   4.542   2.344   8.634 -0.5122  1.2043 -2.3309
 1091SOL    HW214907   4.677   2.290   8.649 -0.1567 -1.1376 -0.1888
 1092SOL     OW14908   3.481   2.416   0.503  0.4482  0.3883  0.0869
 1092SOL    HW114909   3.463   2.505   0.535  0.1691  1.0770 -2.0030
 1092SOL    HW214910   3.416   2.410   0.433  0.5019  0.9628 -0.0153
 1093SOL     OW14911   1.382   3.992   5.967  0.2443  0.5841  0.1440
 1093SOL    HW114912   1.384   3.908   6.013 -0.3236  0.2775 -0.3971
 1093SOL    HW214913   1.437   4.042   6.028  2.4568  0.5039 -1.8157
 1094SOL     OW14914   0.731   4.379   2.568 -0.4641  0.1800 -0.4511
 1094SOL    HW114915   0.748   4.288   2.591 -1.1379  0.1094 -0.2259
 1094SOL    HW214916   0.640   4.369   2.542  0.0874 -0.4050 -2.1658
 1095SOL     OW14917   1.684   0.405   4.907 -0.5936 -0.0941 -0.0790
 1095SOL    HW114918   1.627   0.393   4.831  0.2266 -1.4996 -0.4717
 1095SOL    HW214919   1.730   0.321   4.907  0.4729  0.4940 -1.6579
 1096SOL     OW14920   4.615   2.513   3.984 -0.0240  0.4219 -0.5482
 1096SOL    HW114921   4.685   2.449   3.972  0.2398  0.7745 -0.8912
 1096SOL    HW214922   4.652   2.577   4.045 -0.9836  0.4866 -0.0408
 1097SOL     OW14923   0.013   0.851  10.764  0.0894 -0.6919  0.2148
 1097SOL    HW114924   0.093   0.825  10.720 -0.9248  0.1934 -2.1654
 1097SOL    HW214925   0.045   0.856  10.854 -0.2748 -1.4775  0.3858
 1098SOL     OW14926   2.401   4.191   7.800 -0.5528 -0.0963 -0.1166
 1098SOL    HW114927   2.445   4.212   7.717  0.0217 -0.9588 -0.0326
 1098SOL    HW214928   2.479   4.167   7.850 -0.6960 -0.4389 -0.0548
 1099SOL     OW14929   2.706   4.574   2.381  0.0737 -0.4439 -0.1652
 1099SOL    HW114930   2.698   4.598   2.289  0.5815 -2.0750 -0.6404
 1099SOL    HW214931   2.615   4.559   2.407 -1.4213  4.3131 -2.6999
 1100SOL     OW14932   1.083   3.358  16.787 -0.0032 -0.1779  0.8270
 1100SOL    HW114933   1.173   3.371  16.816  0.6877  0.8127 -1.7671
 1100SOL    HW214934   1.075   3.358  16.691  0.7573  0.1521  0.7629
 1101SOL     OW14935   3.112   3.156   2.791 -0.0811 -0.0538 -0.0293
 1101SOL    HW114936   3.132   3.199   2.873 -1.1592 -2.6484  1.6033
 1101SOL    HW214937   3.028   3.115   2.812  0.6725 -1.9228 -0.6741
 1102SOL     OW14938   1.505   0.331   5.745  0.1217  0.1520 -0.2627
 1102SOL    HW114939   1.418   0.325   5.784  0.2366 -2.1117 -0.3488
 1102SOL    HW214940   1.486   0.286   5.662 -0.1962 -0.5027  0.1739
 1103SOL     OW14941   0.838   0.127   5.019 -0.3743  0.7398  0.0762
 1103SOL    HW114942   0.884   0.112   4.936  0.6534  1.3008  0.5461
 1103SOL    HW214943   0.754   0.081   5.027  1.3897 -2.4706 -0.1474
 1104SOL     OW14944   3.680   2.707  11.932 -0.0793 -0.4574 -0.0310
 1104SOL    HW114945   3.600   2.734  11.976 -1.0964  0.7175 -2.6385
 1104SOL    HW214946   3.746   2.710  12.002 -0.3920  0.8119  0.2086
 1105SOL     OW14947   1.347   2.027   4.506  0.2482  0.1700 -0.3605
 1105SOL    HW114948   1.311   2.104   4.463 -0.0780 -0.5776 -1.4165
 1105SOL    HW214949   1.294   2.016   4.586 -1.8727  1.9085 -1.5124
 1106SOL     OW14950   3.394   4.662  12.145  0.0766 -0.8585  0.0068
 1106SOL    HW114951   3.321   4.669  12.206  0.7836  3.3561  0.3463
 1106SOL    HW214952   3.369   4.582  12.099  1.1533 -1.5647  0.6362
 1107SOL     OW14953   3.520   1.411   8.063  0.3640 -0.4907 -0.4350
 1107SOL    HW114954   3.515   1.394   7.969  0.1835  1.7153 -0.8176
 1107SOL    HW214955   3.503   1.323   8.097 -0.1109  0.3406  1.4974
 1108SOL     OW14956   2.095   2.411   2.080  0.0466 -0.3839  0.3820
 1108SOL    HW114957   2.182   2.389   2.113 -0.4623 -0.3396  1.7304
 1108SOL    HW214958   2.112   2.396   1.987  1.1256  2.0280  0.1663
 1109SOL     OW14959   2.819   0.026   7.240  0.6324  0.3984 -0.2335
 1109SOL    HW114960   2.778   0.053   7.158  3.0088  0.3979 -1.4373
 1109SOL    HW214961   2.895   0.085   7.239  0.9729 -0.0758 -1.7053
 1110SOL     OW14962   4.635   4.505   7.618 -0.8529  0.6124 -0.0755
 1110SOL    HW114963   4.719   4.543   7.644  0.2702 -2.0463  0.1874
 1110SOL    HW214964   4.671   4.438   7.559  1.6479  1.7053  0.2134
 1111SOL     OW14965   0.300   4.065   9.114  0.3744  0.1087  0.0475
 1111SOL    HW114966   0.348   4.012   9.050  2.3533  1.5951  0.2928
 1111SOL    HW214967   0.364   4.073   9.185 -1.9670 -0.7447  2.2653
 1112SOL     OW14968   4.735   1.977   6.406 -0.0207  0.7090  0.1528
 1112SOL    HW114969   4.708   2.069   6.407  1.3182  1.0838  1.6723
 1112SOL    HW214970   0.051   1.974   6.327 -2.2633 -2.0402 -1.2965
 1113SOL     OW14971   2.954   4.202  17.207 -0.0931 -0.4143  0.3167
 1113SOL    HW114972   2.867   4.232  17.182  0.4907 -1.5610 -3.1564
 1113SOL    HW214973   2.998   4.287  17.202 -1.6358  0.1446 -4.0556
 1114SOL     OW14974   1.491   1.491   8.509 -0.1967 -0.1261 -0.0939
 1114SOL    HW114975   1.414   1.545   8.497 -0.9444 -1.2363 -0.2873
 1114SOL    HW214976   1.546   1.548   8.563  0.8442  0.0049 -1.2969
 1115SOL     OW14977   3.579   0.358   7.529 -0.6062  0.3244  0.5949
 1115SOL    HW114978   3.643   0.291   7.505 -0.3613  1.6262 -2.4311
 1115SOL    HW214979   3.496   0.325   7.495 -0.5237 -0.6569  1.3620
 1116SOL     OW14980   0.791   4.308   6.163  0.3124  0.4535 -0.0685
 1116SOL    HW114981   0.759   4.349   6.243 -4.1723  0.3139 -1.7714
 1116SOL    HW214982   0.755   4.219   6.167 -0.5417  0.8258  0.5184
 1117SOL     OW14983   2.045   1.451   2.479 -0.4187  0.2163 -0.2670
 1117SOL    HW114984   2.034   1.516   2.549 -1.5128  1.3013 -1.4315
 1117SOL    HW214985   2.095   1.500   2.414  2.0026 -1.9333  0.0066
 1118SOL     OW14986   4.068   0.771   2.212 -0.7799 -0.1620 -0.4640
 1118SOL    HW114987   4.137   0.710   2.236 -1.2303 -0.7915 -0.7538
 1118SOL    HW214988   4.013   0.711   2.161 -1.5472  0.6767 -0.6269
 1119SOL     OW14989   3.560   1.795   5.209 -0.1118 -0.1897  0.3806
 1119SOL    HW114990   3.583   1.879   5.171 -1.2410 -0.6848 -1.3845
 1119SOL    HW214991   3.616   1.793   5.287 -0.0338 -0.7169  0.3135
 1120SOL     OW14992   4.478   4.021  11.467  0.0546 -0.0503 -0.0574
 1120SOL    HW114993   4.439   4.103  11.499 -2.1460 -1.7584  1.6134
 1120SOL    HW214994   4.530   4.039  11.389  1.8336 -0.6960  0.9726
 1121SOL     OW14995   4.382   4.412  13.079 -0.0860 -0.2100 -0.4713
 1121SOL    HW114996   4.345   4.342  13.025 -2.1640 -1.0165  2.0201
 1121SOL    HW214997   4.470   4.377  13.092  0.4802  1.4552  0.2165
 1122SOL     OW14998   2.291   0.042   1.432  0.0205  0.2803 -0.2721
 1122SOL    HW114999   2.258   0.018   1.518  0.2572 -0.7738 -0.4759
 1122SOL    HW215000   2.212   0.053   1.379  0.6610  1.1060 -1.0537
 1123SOL     OW15001   2.246   4.042  12.623 -0.2394 -0.0803 -0.4517
 1123SOL    HW115002   2.174   3.997  12.580 -0.8017  0.0692  0.3329
 1123SOL    HW215003   2.223   4.135  12.627  0.8335  0.2180 -1.1499
 1124SOL     OW15004   2.363   3.698   1.284 -0.3775 -0.0553  0.5422
 1124SOL    HW115005   2.440   3.675   1.231 -1.4938  0.2911 -1.2362
 1124SOL    HW215006   2.397   3.683   1.372 -3.4536  1.1272  1.9500
 1125SOL     OW15007   2.291   0.991   4.321  0.4086  0.1126  0.5027
 1125SOL    HW115008   2.311   1.037   4.403  0.8533  0.2056  0.3390
 1125SOL    HW215009   2.305   0.899   4.339 -0.0632  0.0920  0.7733
 1126SOL     OW15010   0.022   0.126   4.175 -0.0650  0.4376 -0.6493
 1126SOL    HW115011   0.034   0.087   4.088 -1.3340  2.1561 -1.6134
 1126SOL    HW215012   0.049   0.217   4.160  1.7729  0.0201  0.1559
 1127SOL     OW15013   1.489   4.595   3.399 -0.6279 -0.0672 -0.1718
 1127SOL    HW115014   1.520   4.529   3.460  0.8870  0.4690 -0.3680
 1127SOL    HW215015   1.397   4.569   3.389  0.0931 -2.7404  0.3066
 1128SOL     OW15016   0.682   2.461  17.020  0.2106  0.0462  0.0449
 1128SOL    HW115017   0.711   2.401  16.951 -0.9766  0.7737 -1.0935
 1128SOL    HW215018   0.742   2.450  17.094 -0.2549  1.0263  0.5706
 1129SOL     OW15019   3.626   0.536   8.933  0.0673  0.0444 -0.0109
 1129SOL    HW115020   3.604   0.608   8.874 -0.6270  0.0803  0.2951
 1129SOL    HW215021   3.580   0.555   9.015  2.6664  2.8646  0.8052
 1130SOL     OW15022   3.817   2.122   2.333 -0.1733  0.0653  0.0663
 1130SOL    HW115023   3.904   2.133   2.371 -1.2678 -2.1221  3.2069
 1130SOL    HW215024   3.824   2.192   2.268 -2.2976 -0.0905 -0.3411
 1131SOL     OW15025   3.173   3.501   8.080  0.1993  0.4332 -0.3661
 1131SOL    HW115026   3.163   3.478   8.172  1.0919 -0.0433 -0.3835
 1131SOL    HW215027   3.268   3.487   8.072  0.2223 -0.5240  1.5234
 1132SOL     OW15028   2.555   4.677   4.865 -0.1849 -0.3478 -0.5182
 1132SOL    HW115029   2.547   4.583   4.876  1.2792 -0.2131  1.6259
 1132SOL    HW215030   2.570   4.708   4.954  2.5584  0.3217 -1.1963
 1133SOL     OW15031   2.461   2.489  16.949 -0.5376  0.0508 -0.5231
 1133SOL    HW115032   2.431   2.419  17.008 -1.3738  0.1360 -0.8522
 1133SOL    HW215033   2.527   2.450  16.892 -0.5700 -0.3964 -0.2594
 1134SOL     OW15034   3.937   4.116   9.313  0.1030 -0.2130 -0.2762
 1134SOL    HW115035   3.868   4.181   9.300 -0.5113 -0.4769  1.6441
 1134SOL    HW215036   3.872   4.055   9.347  1.5631 -1.2343  0.7180
 1135SOL     OW15037   2.934   4.498   2.470  0.1360  0.0131  0.5249
 1135SOL    HW115038   2.891   4.426   2.516  1.7835 -0.1613  1.7807
 1135SOL    HW215039   2.856   4.531   2.425  0.1555 -1.7921 -0.8238
 1136SOL     OW15040   4.157   4.276  17.032  0.0102 -0.0565 -0.0324
 1136SOL    HW115041   4.199   4.327  17.101  1.4920 -2.0301  0.5334
 1136SOL    HW215042   4.099   4.218  17.082  0.1306  0.2915  0.5009
 1137SOL     OW15043   3.410   0.689   4.291  0.0690  0.2569 -0.3626
 1137SOL    HW115044   3.439   0.598   4.293  0.7016  0.4357 -1.3272
 1137SOL    HW215045   3.416   0.717   4.200  0.8862 -1.4020 -0.8075
 1138SOL     OW15046   1.941   4.440   4.922  0.0989  0.0550 -0.7282
 1138SOL    HW115047   1.976   4.529   4.923 -0.1343  0.1488 -0.7697
 1138SOL    HW215048   1.933   4.428   5.017  0.6806  2.4862 -0.3864
 1139SOL     OW15049   1.637   4.195   7.220  0.0469 -0.2885 -0.1967
 1139SOL    HW115050   1.731   4.211   7.227  0.2317 -0.8904 -1.3126
 1139SOL    HW215051   1.629   4.151   7.135 -0.8291 -2.0226  0.7763
 1140SOL     OW15052   3.732   0.837   2.223 -0.1817  0.0526  0.3936
 1140SOL    HW115053   3.717   0.754   2.268 -1.3229  1.0842  1.9013
 1140SOL    HW215054   3.826   0.826   2.207 -0.5648  0.1557 -1.9427
 1141SOL     OW15055   2.129   3.231   5.972  0.3697  0.1784 -0.1478
 1141SOL    HW115056   2.125   3.290   5.897 -1.6581 -0.2166 -0.3536
 1141SOL    HW215057   2.217   3.195   5.959  0.4478  0.4761 -0.4620
 1142SOL     OW15058   0.094   4.492   9.316 -0.3991  0.6410 -0.0552
 1142SOL    HW115059   0.102   4.587   9.301  2.4688  0.1212 -1.9664
 1142SOL    HW215060   0.098   4.461   9.225 -1.6443 -0.6581  0.3499
 1143SOL     OW15061   4.189   2.416  13.912 -0.6988 -0.2131  0.5659
 1143SOL    HW115062   4.220   2.505  13.930  2.7944 -1.8074  2.4034
 1143SOL    HW215063   4.187   2.426  13.817 -0.4520  0.5597  0.6401
 1144SOL     OW15064   2.897   4.196  12.187 -0.0119  0.4935 -0.2053
 1144SOL    HW115065   2.821   4.246  12.218 -0.8656 -0.7882 -0.2232
 1144SOL    HW215066   2.873   4.152  12.106  1.9426 -0.8196 -0.0718
 1145SOL     OW15067   2.975   4.666   1.494 -0.2221 -0.1116 -0.3111
 1145SOL    HW115068   2.987   4.572   1.498 -0.5077 -0.1394 -0.0807
 1145SOL    HW215069   2.882   4.681   1.509 -0.1218  1.8483 -1.5173
 1146SOL     OW15070   2.655   1.419  10.058 -0.9383 -0.7411  0.8182
 1146SOL    HW115071   2.592   1.489  10.039  0.1488  0.8650  3.2206
 1146SOL    HW215072   2.604   1.353  10.103 -0.3199 -1.8104 -0.0511
 1147SOL     OW15073   2.022   2.202  17.033  0.0431  0.1176 -0.1825
 1147SOL    HW115074   2.107   2.171  17.000  0.5724 -1.2096  2.3743
 1147SOL    HW215075   2.028   2.288  16.992 -0.6996  0.1053 -0.3183
 1148SOL     OW15076   3.855   3.406  13.138  0.1469  0.3635  0.2817
 1148SOL    HW115077   3.916   3.383  13.068  0.4757  0.3992  0.5530
 1148SOL    HW215078   3.897   3.484  13.176  2.9342 -0.4541 -1.1583
 1149SOL     OW15079   0.764   1.518   5.549 -0.5970  0.1118  0.2420
 1149SOL    HW115080   0.848   1.479   5.522 -1.3788 -1.3554 -0.0738
 1149SOL    HW215081   0.798   1.584   5.610 -1.2668 -0.9324  1.7372
 1150SOL     OW15082   4.395   4.212   2.836 -0.4460  0.5671 -0.5043
 1150SOL    HW115083   4.378   4.265   2.758 -0.3940  0.4348 -0.6054
 1150SOL    HW215084   4.464   4.257   2.885 -1.3714  2.4164 -0.8751
 1151SOL     OW15085   4.721   0.305   3.362 -0.1761  0.1722 -0.1036
 1151SOL    HW115086   4.644   0.360   3.376  0.6433  0.5708  2.7900
 1151SOL    HW215087   0.053   0.367   3.379 -0.3861 -0.0341  1.4887
 1152SOL     OW15088   4.183   3.609  14.550  0.5614 -0.4501 -0.5705
 1152SOL    HW115089   4.255   3.629  14.491  1.1757  3.1603  1.3858
 1152SOL    HW215090   4.148   3.525  14.519 -0.0860  0.2031 -1.6163
 1153SOL     OW15091   4.168   1.557   9.426  0.3103 -0.0719 -0.2032
 1153SOL    HW115092   4.236   1.625   9.432 -1.3777  1.6192 -0.1227
 1153SOL    HW215093   4.112   1.581   9.500  0.5228 -1.9122  0.5363
 1154SOL     OW15094   4.643   1.082   6.603 -0.1038  0.1263 -0.2255
 1154SOL    HW115095   4.613   0.996   6.632  0.8179 -0.3011 -0.5669
 1154SOL    HW215096   4.728   1.084   6.646 -0.2410  2.6503 -0.0255
 1155SOL     OW15097   2.399   4.415   7.029  0.0825  0.4499 -1.0262
 1155SOL    HW115098   2.381   4.505   7.003  0.0867  1.0394  0.9854
 1155SOL    HW215099   2.349   4.359   6.971 -0.0487  0.6964 -1.1512
 1156SOL     OW15100   3.485   3.985   2.999 -0.0890 -0.0964  0.1384
 1156SOL    HW115101   3.464   4.012   3.088 -0.1218  0.5388 -0.0667
 1156SOL    HW215102   3.524   3.899   3.014 -0.0161  0.2474  1.9023
 1157SOL     OW15103   0.182   0.497  16.304 -0.1332  0.5362 -0.0671
 1157SOL    HW115104   0.225   0.552  16.370 -0.0632  1.8449 -1.2129
 1157SOL    HW215105   0.138   0.444  16.371  1.1467  2.1439  2.0476
 1158SOL     OW15106   4.059   1.743   6.640 -0.2274  0.0199 -0.2025
 1158SOL    HW115107   4.077   1.726   6.548 -1.1541 -0.2680 -0.3272
 1158SOL    HW215108   4.080   1.657   6.678 -0.7814 -1.5623 -3.4923
 1159SOL     OW15109   2.061   4.277   1.367 -0.0350 -0.3081 -0.1243
 1159SOL    HW115110   2.101   4.215   1.428  0.2829  1.8869  1.9017
 1159SOL    HW215111   1.995   4.221   1.326 -1.1531  0.3344  0.8006
 1160SOL     OW15112   1.257   4.708   2.785  0.6056 -1.0218  0.0489
 1160SOL    HW115113   1.257   0.054   2.830  1.4496 -0.2092 -1.4846
 1160SOL    HW215114   1.348   4.683   2.798  0.6516 -1.0480 -0.3238
 1161SOL     OW15115   2.673   0.643   7.781 -0.4060  0.2529 -0.7064
 1161SOL    HW115116   2.600   0.592   7.817 -0.3093  1.0737  0.6470
 1161SOL    HW215117   2.743   0.594   7.825 -2.0535 -1.0670  0.4756
 1162SOL     OW15118   0.302   1.621   1.003  1.0617  0.3026 -0.4014
 1162SOL    HW115119   0.227   1.648   1.056  2.0209 -0.5495  1.3871
 1162SOL    HW215120   0.335   1.701   0.963 -1.0625  1.8338  0.8964
 1163SOL     OW15121   4.600   1.013   0.133 -0.0609  0.3933 -0.1240
 1163SOL    HW115122   4.685   1.007   0.177  1.3540 -0.7963 -3.0192
 1163SOL    HW215123   4.570   1.099   0.164  2.9702  1.0126  1.0252
 1164SOL     OW15124   0.923   2.171   8.354  0.7088  0.8803 -0.4347
 1164SOL    HW115125   0.985   2.142   8.421 -1.5712  0.8608  1.6775
 1164SOL    HW215126   0.947   2.120   8.277  2.1042  0.2508  0.3991
 1165SOL     OW15127   0.127   4.532  10.747 -0.2764  0.9033  0.0488
 1165SOL    HW115128   0.080   4.504  10.826 -0.4023 -1.9206 -1.0459
 1165SOL    HW215129   0.179   4.598  10.793  0.1423  1.0102 -0.5817
 1166SOL     OW15130   2.409   1.697   0.124  0.1815  0.9871  0.0380
 1166SOL    HW115131   2.345   1.640   0.082 -0.9271  2.7598 -0.6583
 1166SOL    HW215132   2.362   1.761   0.177  0.1729  1.7266 -0.8697
 1167SOL     OW15133   3.360   3.969   5.705  0.1228 -0.3608  0.7196
 1167SOL    HW115134   3.310   3.996   5.782  0.2412  0.6124  0.4564
 1167SOL    HW215135   3.293   3.977   5.637 -0.6215 -0.2899  1.4672
 1168SOL     OW15136   2.068   1.571   6.055 -0.0201  0.1697  0.5279
 1168SOL    HW115137   2.031   1.607   6.135  0.8816  2.1763  0.0378
 1168SOL    HW215138   2.027   1.619   5.983  1.4762  1.7667  0.7328
 1169SOL     OW15139   4.211   0.558   3.613  0.0133  0.5900 -0.4065
 1169SOL    HW115140   4.288   0.615   3.608 -0.5568  1.5404  1.6362
 1169SOL    HW215141   4.215   0.501   3.537 -1.3949 -3.1785  2.2944
 1170SOL     OW15142   3.965   0.957   2.018  0.2895 -0.0090  0.5277
 1170SOL    HW115143   4.028   1.029   2.015 -0.4935  0.6925  0.8963
 1170SOL    HW215144   4.009   0.905   2.085  0.2224  0.0337  0.6054
 1171SOL     OW15145   2.722   2.833   4.626  0.2299  0.3355  0.2026
 1171SOL    HW115146   2.693   2.853   4.715 -1.7383 -0.8549 -0.1573
 1171SOL    HW215147   2.639   2.828   4.578  0.2859 -0.1742  0.1615
 1172SOL     OW15148   3.840   2.838   5.416  0.2934 -0.2431  0.0477
 1172SOL    HW115149   3.920   2.832   5.469  0.6914  0.2962 -0.5014
 1172SOL    HW215150   3.780   2.782   5.466  0.4373 -0.1706  0.3025
 1173SOL     OW15151   1.169   3.577  12.191 -0.4615 -0.2748  0.2207
 1173SOL    HW115152   1.083   3.586  12.231 -0.8775 -2.0969 -0.2731
 1173SOL    HW215153   1.213   3.625  12.261  0.1112  1.3232 -1.2348
 1174SOL     OW15154   0.557   1.606  12.333 -0.0214 -0.1551 -0.0549
 1174SOL    HW115155   0.618   1.679  12.346  0.2618  0.0863 -2.7622
 1174SOL    HW215156   0.618   1.535  12.312  1.3865  1.7909 -2.4736
 1175SOL     OW15157   3.195   1.024  15.803  0.4352  0.4897 -0.0859
 1175SOL    HW115158   3.181   0.941  15.757 -1.9491  0.0818  1.3685
 1175SOL    HW215159   3.251   0.992  15.875  2.4284 -0.7044 -2.1456
 1176SOL     OW15160   1.046   2.893  11.335  0.2506  0.6695  0.3367
 1176SOL    HW115161   0.989   2.876  11.410 -0.5997  0.1419 -0.4130
 1176SOL    HW215162   1.001   2.967  11.294 -2.8294 -1.9372 -0.9932
 1177SOL     OW15163   0.230   4.395  11.645 -0.1252 -0.0005 -0.3296
 1177SOL    HW115164   0.260   4.422  11.558  0.4195 -1.4806 -0.5976
 1177SOL    HW215165   0.139   4.381  11.621 -0.1401  0.1385 -0.3524
 1178SOL     OW15166   3.853   2.335   4.680 -0.1783  0.1541 -0.0015
 1178SOL    HW115167   3.911   2.411   4.678 -1.7474  1.2938 -1.8772
 1178SOL    HW215168   3.805   2.353   4.599  2.1664 -0.9484 -1.6346
 1179SOL     OW15169   0.001   3.850   9.959  0.0008 -0.0849 -0.1180
 1179SOL    HW115170   0.033   3.805  10.037  0.8802  1.9320  0.6787
 1179SOL    HW215171   4.648   3.825   9.952 -0.3720  0.4397  2.6878
 1180SOL     OW15172   4.564   1.408   8.982 -0.1924 -0.1142  0.1651
 1180SOL    HW115173   4.549   1.498   8.951 -1.5989 -0.7678 -1.0223
 1180SOL    HW215174   4.638   1.420   9.042  0.1332 -0.9961 -0.0743
 1181SOL     OW15175   1.298   4.635   4.322  0.3542  0.0047  0.3199
 1181SOL    HW115176   1.362   4.659   4.256 -1.4904 -0.7272 -1.7241
 1181SOL    HW215177   1.254   4.556   4.290  2.0182 -0.5849 -0.4881
 1182SOL     OW15178   0.447   1.870  16.543  0.5015 -0.7398 -0.0648
 1182SOL    HW115179   0.398   1.886  16.463 -0.7395  0.2605  0.8977
 1182SOL    HW215180   0.491   1.786  16.528  1.7847 -0.3178  1.2575
 1183SOL     OW15181   2.849   2.739   8.610 -0.0700 -0.0540  0.0488
 1183SOL    HW115182   2.813   2.664   8.563  0.5178  0.2885 -0.9466
 1183SOL    HW215183   2.789   2.748   8.684 -0.2129 -0.5530 -0.0054
 1184SOL     OW15184   3.419   0.096   1.997 -0.1677  0.2018  0.4471
 1184SOL    HW115185   3.408   0.002   2.010 -2.6153  0.7019  2.0061
 1184SOL    HW215186   3.460   0.130   2.077 -1.9009  0.8872  1.0366
 1185SOL     OW15187   3.409   1.558  12.066 -0.2444 -0.8177  0.5265
 1185SOL    HW115188   3.359   1.524  12.139  0.9489  1.7161  2.5497
 1185SOL    HW215189   3.400   1.486  12.004 -0.1322  0.3564 -0.8657
 1186SOL     OW15190   0.329   3.041   3.119  0.0067 -0.6848 -0.0864
 1186SOL    HW115191   0.248   3.031   3.168 -0.4634  0.3780 -0.6477
 1186SOL    HW215192   0.327   3.133   3.091  0.2396  0.3814  3.4497
 1187SOL     OW15193   3.220   0.218   5.119  0.2060  0.2490  0.4088
 1187SOL    HW115194   3.241   0.271   5.196 -0.0809 -0.9058  1.2777
 1187SOL    HW215195   3.258   0.132   5.137  1.1763  0.7575  0.7678
 1188SOL     OW15196   1.775   4.410   8.445 -0.5920  0.1124  0.3126
 1188SOL    HW115197   1.865   4.408   8.477 -0.8438 -2.0786  0.8963
 1188SOL    HW215198   1.727   4.381   8.523  0.5879 -0.7512  0.7097
 1189SOL     OW15199   2.015   0.387  17.448 -0.0968  0.2292 -0.3247
 1189SOL    HW115200   1.951   0.419  17.512  2.3478  1.3921  1.5426
 1189SOL    HW215201   2.089   0.389  17.508  0.7101 -0.4807 -1.3037
 1190SOL     OW15202   4.351   3.603   3.980  0.1752  0.3147 -0.3401
 1190SOL    HW115203   4.339   3.531   4.042  0.3926  0.5996  0.0389
 1190SOL    HW215204   4.305   3.563   3.907 -0.6835  0.6830 -0.0048
 1191SOL     OW15205   0.763   1.304   2.622 -0.4037  0.7943  0.5290
 1191SOL    HW115206   0.844   1.311   2.570 -0.1648 -0.1132  0.7769
 1191SOL    HW215207   0.754   1.394   2.655  2.2223  0.7532  1.3440
 1192SOL     OW15208   3.169   1.820   4.586 -0.4199  1.0599  0.0687
 1192SOL    HW115209   3.248   1.766   4.594  0.5005  2.3389 -0.4420
 1192SOL    HW215210   3.099   1.756   4.599  1.3321 -1.2383 -1.7412
 1193SOL     OW15211   1.779   0.942  17.512 -0.2742 -0.2888 -0.4591
 1193SOL    HW115212   1.821   0.917  17.594  0.7879 -0.6732 -1.1287
 1193SOL    HW215213   1.742   1.027  17.534 -0.4573 -0.1495 -1.3188
 1194SOL     OW15214   3.466   1.138   3.251  0.2707  0.2446  0.4130
 1194SOL    HW115215   3.539   1.162   3.193 -0.1051  1.2422  0.3586
 1194SOL    HW215216   3.442   1.050   3.222  0.3282  0.0342  1.0147
 1195SOL     OW15217   2.023   4.608  17.530 -0.1177 -0.0559 -0.1252
 1195SOL    HW115218   2.009   4.614  17.624 -1.7259  0.2634 -0.3793
 1195SOL    HW215219   2.095   4.669  17.515  0.7301 -1.1623 -0.5183
 1196SOL     OW15220   0.644   3.430  12.424 -0.7741 -0.1649  0.0190
 1196SOL    HW115221   0.681   3.459  12.507  0.1271  1.3258 -0.9068
 1196SOL    HW215222   0.591   3.504  12.394  0.4180  0.2225 -1.1343
 1197SOL     OW15223   0.581   3.261  15.896 -0.6714 -0.0717  0.1306
 1197SOL    HW115224   0.547   3.310  15.970 -3.0548  0.4674 -1.3179
 1197SOL    HW215225   0.674   3.283  15.907 -0.5216 -1.5312  1.7109
 1198SOL     OW15226   1.016   2.349  12.020 -0.5050 -0.2560  0.5947
 1198SOL    HW115227   1.006   2.374  12.112  0.8071 -0.0728  0.7001
 1198SOL    HW215228   1.106   2.316  12.011 -0.1097  0.6846  1.1270
 1199SOL     OW15229   1.009   4.311   8.666 -0.7283 -0.3166 -0.1381
 1199SOL    HW115230   1.019   4.272   8.579  0.5340 -0.3209  0.0133
 1199SOL    HW215231   1.061   4.390   8.655  0.2546 -0.4637  3.4493
 1200SOL     OW15232   4.528   2.753   5.514  0.1537 -0.0116  0.1946
 1200SOL    HW115233   4.595   2.724   5.452 -0.1522 -0.8979  0.2738
 1200SOL    HW215234   4.581   2.798   5.579 -2.8318  1.9998  1.2440
 1201SOL     OW15235   3.780   3.086  12.406 -0.5840 -0.5849  0.2746
 1201SOL    HW115236   3.862   3.052  12.371  0.0118 -2.7373  3.7029
 1201SOL    HW215237   3.718   3.028  12.361  0.7410 -1.3096 -0.5996
 1202SOL     OW15238   3.964   3.607  17.408  0.0602  0.0536 -0.1240
 1202SOL    HW115239   4.040   3.573  17.360  1.3726  1.3656  1.0198
 1202SOL    HW215240   3.952   3.550  17.483  1.3100 -1.4562 -1.0561
 1203SOL     OW15241   3.292   0.302   7.052 -0.1146  0.2046  0.7546
 1203SOL    HW115242   3.315   0.365   6.983 -0.6369 -1.7112 -1.1669
 1203SOL    HW215243   3.274   0.360   7.126  0.4822 -1.9402  2.5784
 1204SOL     OW15244   0.716   4.298   9.133 -0.1424 -0.3891 -0.6828
 1204SOL    HW115245   0.748   4.223   9.083  3.0427 -0.0286  0.8514
 1204SOL    HW215246   0.688   4.356   9.062 -2.1539 -0.3199  0.1379
 1205SOL     OW15247   1.303   0.114   8.780 -0.4238 -0.1005  0.2833
 1205SOL    HW115248   1.212   0.117   8.751 -0.4041  3.3936  0.6160
 1205SOL    HW215249   1.291   0.151   8.868  1.5236 -0.8695  0.8900
 1206SOL     OW15250   2.957   1.732   1.900  0.2020 -0.7954  0.3286
 1206SOL    HW115251   2.979   1.691   1.983 -3.7452 -0.9313  1.2855
 1206SOL    HW215252   2.872   1.692   1.882  0.9718 -2.0995 -0.3498
 1207SOL     OW15253   4.057   0.084   4.570 -0.0439  0.1967 -0.1154
 1207SOL    HW115254   4.022   0.110   4.655 -0.1976  0.3144 -0.2123
 1207SOL    HW215255   4.112   0.007   4.579 -0.5795 -0.1270  0.4129
 1208SOL     OW15256   1.001   1.287   3.884  0.1635  0.0291 -0.6241
 1208SOL    HW115257   0.918   1.241   3.877 -0.3403  0.9446 -0.6432
 1208SOL    HW215258   1.041   1.260   3.801 -0.1689 -0.4760 -0.6216
 1209SOL     OW15259   1.383   2.254   6.036  0.1964  0.4647 -0.1264
 1209SOL    HW115260   1.466   2.254   5.988 -1.1504  4.4785 -2.4574
 1209SOL    HW215261   1.338   2.325   5.990  1.3047  1.0938 -0.2315
 1210SOL     OW15262   1.938   3.492  13.652  0.2772 -0.2500  0.1699
 1210SOL    HW115263   2.013   3.435  13.636  0.4922 -0.2171  1.0894
 1210SOL    HW215264   1.975   3.561  13.597  2.4283 -2.2063 -0.8369
 1211SOL     OW15265   3.282   4.217  13.960 -0.5913  0.5058  0.4112
 1211SOL    HW115266   3.266   4.230  14.054  0.4810  0.1547  0.6406
 1211SOL    HW215267   3.233   4.135  13.954  0.5194 -0.0501 -0.6942
 1212SOL     OW15268   4.593   3.681   4.704 -0.6039 -0.0407 -0.1324
 1212SOL    HW115269   4.579   3.756   4.647 -1.3072  1.0713  1.5127
 1212SOL    HW215270   4.667   3.712   4.755 -0.6098  1.9657 -1.3415
 1213SOL     OW15271   3.746   1.470   9.188 -0.3794  0.0741 -0.1657
 1213SOL    HW115272   3.811   1.537   9.207 -3.6716  2.4488  2.7994
 1213SOL    HW215273   3.804   1.414   9.136 -0.7455 -0.0355 -0.4641
 1214SOL     OW15274   1.121   0.268   2.320  0.2338  0.2255 -0.7585
 1214SOL    HW115275   1.151   0.239   2.233 -0.2229 -0.4038 -0.7058
 1214SOL    HW215276   1.203   0.286   2.366  0.6817  0.8266 -1.7774
 1215SOL     OW15277   4.254   2.769   6.421 -0.0114 -0.1774 -0.6298
 1215SOL    HW115278   4.333   2.821   6.437 -0.4066  0.5291 -0.9508
 1215SOL    HW215279   4.296   2.684   6.413 -1.7537 -0.9724 -1.2606
 1216SOL     OW15280   3.859   3.373   1.826 -0.0594  0.1927  0.3014
 1216SOL    HW115281   3.881   3.320   1.750 -0.1154  0.3798  0.1544
 1216SOL    HW215282   3.934   3.433   1.826 -0.2916  0.4783  0.1586
 1217SOL     OW15283   2.806   3.136   8.068 -0.1099 -0.1273 -0.7445
 1217SOL    HW115284   2.750   3.185   8.008  0.1637  1.4043  0.2388
 1217SOL    HW215285   2.891   3.150   8.025 -0.1211 -1.7102 -1.2850
 1218SOL     OW15286   3.680   0.460   1.650 -0.1852  0.6847  0.0139
 1218SOL    HW115287   3.687   0.441   1.557  1.6496  0.1506  0.2560
 1218SOL    HW215288   3.648   0.550   1.657 -1.8494  0.0329  0.7420
 1219SOL     OW15289   2.350   0.302   1.567  0.4553  0.1572 -0.2216
 1219SOL    HW115290   2.415   0.331   1.502  0.1761  1.8748  0.2524
 1219SOL    HW215291   2.331   0.212   1.539  0.2143  0.4837 -1.1379
 1220SOL     OW15292   0.356   2.125  16.302  0.6750 -0.0181  0.0677
 1220SOL    HW115293   0.353   2.167  16.388  0.4897  0.4915 -0.1840
 1220SOL    HW215294   0.375   2.034  16.325  1.6715  0.2379  0.2797
 1221SOL     OW15295   1.585   0.202   3.502 -0.6230  0.2572  0.1638
 1221SOL    HW115296   1.494   0.173   3.508 -0.9413  0.6930 -2.3828
 1221SOL    HW215297   1.588   0.274   3.439  0.0620 -0.0442 -0.1415
 1222SOL     OW15298   4.101   2.388   3.274 -0.6051  0.3459 -1.0337
 1222SOL    HW115299   4.152   2.432   3.206 -0.0972  1.2972 -0.0464
 1222SOL    HW215300   4.082   2.461   3.332 -3.4728  0.4599 -2.1178
 1223SOL     OW15301   1.227   4.083  10.024 -0.2625 -0.2995 -0.0910
 1223SOL    HW115302   1.306   4.090   9.971 -1.8860  0.4482 -2.4304
 1223SOL    HW215303   1.198   4.174  10.022 -0.1073 -0.2727 -1.0396
 1224SOL     OW15304   3.146   4.483  13.163  0.0213 -0.1729 -0.2772
 1224SOL    HW115305   3.099   4.476  13.246  0.4368 -0.1608 -0.0370
 1224SOL    HW215306   3.111   4.565  13.129 -1.2772 -1.1803 -1.3415
 1225SOL     OW15307   2.812   2.826   9.412 -0.0241 -0.5545 -0.1425
 1225SOL    HW115308   2.859   2.886   9.470 -1.3379 -0.5809  0.9635
 1225SOL    HW215309   2.726   2.830   9.454 -0.8598  2.3231 -2.1391
 1226SOL     OW15310   1.307   2.149   2.870 -0.0422  0.4851 -0.1998
 1226SOL    HW115311   1.294   2.110   2.784  1.0267 -2.0494  0.7929
 1226SOL    HW215312   1.240   2.217   2.862 -2.7634 -2.0417  0.7607
 1227SOL     OW15313   4.316   2.085   2.239 -0.8639  0.1018 -0.9917
 1227SOL    HW115314   4.287   1.994   2.246  3.1509 -1.0523  0.6779
 1227SOL    HW215315   4.341   2.078   2.147  2.5904 -0.2272 -0.0164
 1228SOL     OW15316   2.271   2.700   8.084 -0.0255  0.7963  0.5421
 1228SOL    HW115317   2.273   2.775   8.144 -0.9119 -0.1722  1.7972
 1228SOL    HW215318   2.364   2.678   8.083 -0.6141 -1.4970 -1.6969
 1229SOL     OW15319   4.458   4.042  10.086  0.3262 -0.0033  0.4174
 1229SOL    HW115320   4.472   3.948  10.084  0.3301  0.0426 -1.1320
 1229SOL    HW215321   4.540   4.072  10.125  0.5840 -0.7964  0.4727
 1230SOL     OW15322   2.477   0.913  10.762  0.0039  0.0738 -0.0974
 1230SOL    HW115323   2.512   1.002  10.753 -0.4639  0.2264 -0.3973
 1230SOL    HW215324   2.538   0.875  10.700 -0.3436 -0.5169 -0.0803
 1231SOL     OW15325   2.201   2.860  16.701  0.0447 -0.1329  0.0974
 1231SOL    HW115326   2.245   2.820  16.776 -0.6872 -1.6317 -0.2778
 1231SOL    HW215327   2.129   2.911  16.737 -0.8331 -0.1467 -1.6665
 1232SOL     OW15328   0.482   0.435  13.084  0.6054  0.7217  0.1466
 1232SOL    HW115329   0.489   0.363  13.020  1.7160  0.1075  0.9522
 1232SOL    HW215330   0.513   0.393  13.164  1.2863  1.9556  0.5289
 1233SOL     OW15331   2.289   4.189  16.988  0.3994  0.1286  0.0601
 1233SOL    HW115332   2.376   4.181  16.948  0.4218  4.3667 -0.7270
 1233SOL    HW215333   2.301   4.220  17.078  0.8358  0.2492 -0.0385
 1234SOL     OW15334   2.935   4.018  14.210 -0.7514 -0.2971  0.3195
 1234SOL    HW115335   2.894   4.081  14.269 -0.8063 -2.2936  2.3996
 1234SOL    HW215336   2.900   3.937  14.247 -0.5556  0.2499  1.7209
 1235SOL     OW15337   3.133   2.288   5.118  0.7322  0.0899  0.0638
 1235SOL    HW115338   3.046   2.249   5.129  1.2853 -0.3916  2.5482
 1235SOL    HW215339   3.189   2.221   5.157  0.7835  0.3773  0.4749
 1236SOL     OW15340   4.649   1.486   4.670  0.7971  0.1841 -0.4611
 1236SOL    HW115341   4.614   1.405   4.634  4.0707 -0.5370 -2.0579
 1236SOL    HW215342   4.576   1.543   4.646  1.0542 -0.8185 -3.7087
 1237SOL     OW15343   0.766   1.410  10.182  0.3654  0.5504  0.5755
 1237SOL    HW115344   0.820   1.332  10.187 -0.1623 -0.0119 -2.2293
 1237SOL    HW215345   0.750   1.432  10.274 -1.4538  1.0356  0.1411
 1238SOL     OW15346   1.688   0.518   5.671  0.0257 -1.1328 -0.0670
 1238SOL    HW115347   1.621   0.460   5.707 -0.8379  0.2886  0.6177
 1238SOL    HW215348   1.725   0.551   5.753 -0.1722 -1.3274  0.0987
 1239SOL     OW15349   0.610   3.222  12.240  0.7035 -0.1273 -0.0180
 1239SOL    HW115350   0.649   3.281  12.305 -0.4142 -3.9258  4.1031
 1239SOL    HW215351   0.522   3.259  12.236  0.7477 -0.0432 -0.2440
 1240SOL     OW15352   2.372   2.700   6.900  0.0380 -0.6625  0.1551
 1240SOL    HW115353   2.386   2.785   6.941  0.4047 -0.2690 -0.7867
 1240SOL    HW215354   2.431   2.651   6.958 -0.4358 -1.9000 -0.4164
 1241SOL     OW15355   4.382   3.306   3.624  0.1785  0.4564 -0.0890
 1241SOL    HW115356   4.295   3.343   3.608  0.5408  0.4449 -1.9740
 1241SOL    HW215357   4.351   3.243   3.690  0.6597  0.9946  0.6525
 1242SOL     OW15358   4.360   2.853   8.230 -0.1637  0.2847 -0.1244
 1242SOL    HW115359   4.295   2.783   8.218  1.2923 -1.0250 -0.3991
 1242SOL    HW215360   4.424   2.823   8.166  0.1993 -1.8539  1.2308
 1243SOL     OW15361   2.485   1.249   6.755 -0.2764  0.4121  0.1015
 1243SOL    HW115362   2.535   1.205   6.687 -1.2740  1.1694 -1.1272
 1243SOL    HW215363   2.538   1.259   6.834  0.0292  2.1783 -0.3302
 1244SOL     OW15364   1.983   4.177   7.013  0.0363 -0.7998 -0.4193
 1244SOL    HW115365   1.932   4.106   6.974  0.8042 -2.0512  0.8610
 1244SOL    HW215366   1.938   4.199   7.094  2.4234  1.3526  0.3260
 1245SOL     OW15367   3.948   3.033  15.002  0.1891  0.3297 -0.3243
 1245SOL    HW115368   3.987   3.112  15.038  1.4276 -0.3239 -0.2293
 1245SOL    HW215369   3.927   3.060  14.912  0.8916 -0.3268 -0.6866
 1246SOL     OW15370   0.611   0.351   5.873  0.4429  0.8131 -0.3844
 1246SOL    HW115371   0.612   0.271   5.925  1.7474  0.9866 -0.1354
 1246SOL    HW215372   0.585   0.413   5.942  0.1814 -0.2752  0.4826
 1247SOL     OW15373   2.243   3.295   2.337 -0.2110  1.0033 -0.2907
 1247SOL    HW115374   2.321   3.337   2.373  0.4690 -0.8489  0.4411
 1247SOL    HW215375   2.183   3.312   2.409  1.7540  0.4871  1.5085
 1248SOL     OW15376   1.649   4.411  12.286 -0.1614 -0.1715  0.1915
 1248SOL    HW115377   1.620   4.456  12.366 -1.0626  1.1803 -0.9026
 1248SOL    HW215378   1.575   4.437  12.231 -0.2392 -2.1061 -0.5852
 1249SOL     OW15379   2.913   4.488  16.923 -0.2639  0.3944  0.1117
 1249SOL    HW115380   2.856   4.419  16.888 -1.2910  0.4717  1.6615
 1249SOL    HW215381   2.961   4.441  16.991  1.6052 -1.6831 -2.6034
 1250SOL     OW15382   3.518   2.378   0.877 -0.5666 -0.3256 -0.0871
 1250SOL    HW115383   3.575   2.446   0.841 -0.8067  0.0478  0.2430
 1250SOL    HW215384   3.504   2.310   0.811  2.3501 -2.0052  1.0214
 1251SOL     OW15385   4.210   2.324   5.071  0.3683  0.2132 -0.1457
 1251SOL    HW115386   4.254   2.248   5.031  0.8272  0.8061 -0.7671
 1251SOL    HW215387   4.206   2.390   5.002 -1.1288  1.1595  0.8511
 1252SOL     OW15388   2.598   1.491   3.133 -0.4503 -0.2627  0.0295
 1252SOL    HW115389   2.661   1.427   3.165  0.0970 -0.8012 -2.1516
 1252SOL    HW215390   2.605   1.475   3.039 -1.5347 -2.8177  0.3793
 1253SOL     OW15391   2.421   3.360   8.164 -0.1539 -0.2909  0.1957
 1253SOL    HW115392   2.493   3.374   8.225  0.2328 -1.8804  0.1125
 1253SOL    HW215393   2.383   3.282   8.204 -2.0037 -0.2970 -1.5156
 1254SOL     OW15394   2.998   1.605   1.148  0.1177 -0.3716  0.3346
 1254SOL    HW115395   2.934   1.599   1.219  1.0380 -0.0451  1.1950
 1254SOL    HW215396   2.948   1.659   1.087  0.2724  1.2218  1.6007
 1255SOL     OW15397   0.505   0.762   3.203  0.2674 -0.6841  0.1570
 1255SOL    HW115398   0.462   0.769   3.118 -1.2892  0.4289  1.0115
 1255SOL    HW215399   0.591   0.797   3.180  0.0529  0.1755  0.6308
 1256SOL     OW15400   0.505   0.199  15.308  1.0477 -0.2378 -0.7060
 1256SOL    HW115401   0.410   0.201  15.296  1.1715  0.5977 -1.5278
 1256SOL    HW215402   0.526   0.164  15.222 -0.9959  1.0466 -1.7215
 1257SOL     OW15403   4.410   1.640   5.466  0.2356  0.2381 -0.1767
 1257SOL    HW115404   4.421   1.676   5.554 -2.5389  0.9909 -0.1268
 1257SOL    HW215405   4.411   1.725   5.424  1.2956  0.7632  0.9200
 1258SOL     OW15406   0.314   2.729  14.336 -0.2703 -0.1589 -0.2993
 1258SOL    HW115407   0.244   2.739  14.400  0.3248 -1.9464  0.6274
 1258SOL    HW215408   0.274   2.776  14.263 -0.2964  1.7219  0.9173
 1259SOL     OW15409   3.188   3.435   0.502  0.0760  0.5893  0.3772
 1259SOL    HW115410   3.181   3.340   0.508  0.3722  0.5715  0.4516
 1259SOL    HW215411   3.270   3.445   0.453 -0.4516  0.7452 -0.4834
 1260SOL     OW15412   4.277   4.675  11.454  0.3563 -0.0919  0.2454
 1260SOL    HW115413   4.197   4.644  11.499 -0.0275 -1.2119 -1.2223
 1260SOL    HW215414   4.331   4.699  11.530  0.7830 -0.0360 -0.0785
 1261SOL     OW15415   1.947   0.218   5.482 -0.5231  1.0103  0.0634
 1261SOL    HW115416   1.869   0.203   5.430  0.3501  1.2715 -1.3289
 1261SOL    HW215417   1.967   0.142   5.537  0.5027  1.5470  0.4371
 1262SOL     OW15418   3.117   4.501   2.975  0.1062 -0.3778 -0.0293
 1262SOL    HW115419   3.166   4.559   2.916 -0.4515 -0.3214 -0.4364
 1262SOL    HW215420   3.123   4.420   2.925  1.7879  0.4193 -1.1555
 1263SOL     OW15421   1.070   2.277   0.434 -0.1291 -0.0796 -0.3658
 1263SOL    HW115422   1.002   2.314   0.379 -1.6546 -0.7733  1.0258
 1263SOL    HW215423   1.034   2.303   0.519 -0.3708  1.5004 -0.9594
 1264SOL     OW15424   4.418   0.403   3.198  0.1032 -0.0316  1.0480
 1264SOL    HW115425   4.412   0.435   3.107 -1.1128  2.0329  1.8477
 1264SOL    HW215426   4.430   0.491   3.234 -0.9715 -0.2142  1.8586
 1265SOL     OW15427   0.716   1.571   7.766  0.5336 -0.1095 -0.1076
 1265SOL    HW115428   0.730   1.632   7.694  0.6739  0.6964  0.6049
 1265SOL    HW215429   0.665   1.514   7.708 -0.0335  1.1469 -0.8311
 1266SOL     OW15430   1.636   4.203   2.320  0.1363 -0.2712  0.1568
 1266SOL    HW115431   1.638   4.277   2.260 -0.3149 -1.7646 -1.7037
 1266SOL    HW215432   1.712   4.148   2.301 -0.2331 -0.3684 -1.0543
 1267SOL     OW15433   4.188   1.638   7.639  0.2907 -0.4695 -0.4410
 1267SOL    HW115434   4.095   1.660   7.637  0.2533 -0.8517 -3.5766
 1267SOL    HW215435   4.214   1.707   7.700 -2.5365 -0.3831  0.6752
 1268SOL     OW15436   3.207   3.816   4.734  0.0438  0.1094 -0.0925
 1268SOL    HW115437   3.185   3.747   4.671  1.8360 -0.2403 -0.3314
 1268SOL    HW215438   3.179   3.775   4.816  3.3395  1.4478  1.6961
 1269SOL     OW15439   2.680   0.615  11.305  0.3669 -0.1247  0.1289
 1269SOL    HW115440   2.687   0.704  11.341  1.3844  0.4262 -1.4314
 1269SOL    HW215441   2.594   0.590  11.337 -0.1852  0.6014 -0.8126
 1270SOL     OW15442   1.204   2.033  11.411  0.5809 -0.5270 -0.7217
 1270SOL    HW115443   1.297   2.050  11.424  0.5093  2.4706 -3.9132
 1270SOL    HW215444   1.161   2.118  11.420 -2.2043 -2.3484  3.1584
 1271SOL     OW15445   0.880   3.329  10.601 -0.4064  0.0080  0.1737
 1271SOL    HW115446   0.857   3.324  10.508 -1.4992  0.8049  0.3929
 1271SOL    HW215447   0.963   3.375  10.593 -0.5923 -0.0392 -2.2372
 1272SOL     OW15448   4.632   4.057   8.155  0.7382  0.1289 -0.5426
 1272SOL    HW115449   4.687   4.037   8.231  1.3766 -2.3792 -1.6864
 1272SOL    HW215450   4.655   4.148   8.138  3.3250 -0.3087  0.6107
 1273SOL     OW15451   4.070   2.418   2.919  0.0013  0.5218 -0.0607
 1273SOL    HW115452   4.095   2.510   2.913  2.0810 -0.0657 -0.5908
 1273SOL    HW215453   4.155   2.380   2.895 -1.1587 -1.8577 -0.4284
 1274SOL     OW15454   2.156   2.296   6.529  0.1162  0.0172  0.5154
 1274SOL    HW115455   2.195   2.323   6.611  0.4411  0.7607  0.1109
 1274SOL    HW215456   2.067   2.331   6.536 -0.2979 -0.5036 -2.1537
 1275SOL     OW15457   0.093   2.498   6.797 -0.3573 -0.0407  0.4468
 1275SOL    HW115458   0.143   2.509   6.878  0.7856 -1.1857 -0.0948
 1275SOL    HW215459   0.123   2.573   6.746 -0.6834 -0.9060 -1.0494
 1276SOL     OW15460   4.068   2.570   6.193  0.0039 -0.0287 -0.2764
 1276SOL    HW115461   4.120   2.557   6.273 -0.0680  0.8334 -0.0909
 1276SOL    HW215462   4.002   2.627   6.232  0.5631  0.8001 -0.5423
 1277SOL     OW15463   0.172   1.068   3.197  0.6751  0.2923  0.3745
 1277SOL    HW115464   0.143   1.075   3.106 -1.0372  0.5400  0.9604
 1277SOL    HW215465   0.265   1.048   3.184 -0.3677 -4.3190 -0.2015
 1278SOL     OW15466   1.790   1.300  15.828 -0.4437  0.5625 -0.1132
 1278SOL    HW115467   1.809   1.213  15.863  0.3726  0.2414 -1.3749
 1278SOL    HW215468   1.756   1.276  15.741  0.5980  1.0199 -0.6425
 1279SOL     OW15469   3.516   4.311   7.380  0.7297  0.3847 -0.3880
 1279SOL    HW115470   3.602   4.280   7.409  1.2957  1.3107 -1.0828
 1279SOL    HW215471   3.469   4.344   7.456  0.2939  3.1092 -1.8690
 1280SOL     OW15472   0.997   0.357   4.303 -0.3061  0.0666  0.3052
 1280SOL    HW115473   0.956   0.420   4.244  0.3483  0.6253  0.4529
 1280SOL    HW215474   1.021   0.416   4.374 -0.4118 -1.7465  1.8631
 1281SOL     OW15475   4.055   2.863   4.658  0.7750 -0.4036 -0.3248
 1281SOL    HW115476   4.061   2.801   4.586  0.0089 -0.4240 -0.3765
 1281SOL    HW215477   4.148   2.885   4.666  0.4703  1.3318 -1.3658
 1282SOL     OW15478   1.832   2.166   7.055  0.0722 -0.3118  0.3458
 1282SOL    HW115479   1.767   2.107   7.092 -1.2220  0.5477 -0.5629
 1282SOL    HW215480   1.887   2.098   7.015 -1.6161 -2.7216  2.0982
 1283SOL     OW15481   2.286   4.714   3.395 -0.1357  0.3405  0.3254
 1283SOL    HW115482   2.353   4.676   3.452 -0.3600 -0.4464  0.0592
 1283SOL    HW215483   2.343   0.029   3.339 -0.6945  1.3455  0.7171
 1284SOL     OW15484   1.420   1.698   7.729  0.2434  0.3564  0.0847
 1284SOL    HW115485   1.364   1.722   7.654  2.8407  0.2308 -1.8881
 1284SOL    HW215486   1.504   1.739   7.709 -0.5485  1.4894 -0.9015
 1285SOL     OW15487   1.024   1.497   2.516  0.0138  0.2649 -0.3056
 1285SOL    HW115488   1.115   1.479   2.541  0.0520  2.5206  1.1598
 1285SOL    HW215489   1.001   1.420   2.463  1.1614 -1.0735  1.1507
 1286SOL     OW15490   2.705   2.620  12.663  0.4042 -0.1241  0.2286
 1286SOL    HW115491   2.777   2.567  12.628 -0.2583 -0.1360 -1.1254
 1286SOL    HW215492   2.721   2.620  12.757 -0.4009  3.0546  0.3602
 1287SOL     OW15493   4.345   2.587  10.331  0.2761 -0.4479 -0.1324
 1287SOL    HW115494   4.412   2.632  10.279 -0.0514 -0.0947 -0.2487
 1287SOL    HW215495   4.382   2.589  10.419 -1.4208  1.9467  0.5286
 1288SOL     OW15496   4.446   3.248   0.959  0.3471 -0.0938 -0.4029
 1288SOL    HW115497   4.361   3.268   0.996 -0.2687 -3.6401  0.1065
 1288SOL    HW215498   4.422   3.187   0.889 -1.5021  0.9322 -0.6455
 1289SOL     OW15499   1.989   1.409   4.057 -0.8763 -0.4075  0.3885
 1289SOL    HW115500   1.929   1.348   4.099  0.3565  0.9160  4.1104
 1289SOL    HW215501   2.030   1.344   4.000 -2.0682  1.0520 -2.1519
 1290SOL     OW15502   0.552   2.966   8.077  0.3153  0.2045 -0.2337
 1290SOL    HW115503   0.640   3.005   8.082  0.5089 -0.4084  0.9151
 1290SOL    HW215504   0.518   2.979   8.165  0.0739  1.2660 -0.4800
 1291SOL     OW15505   1.922   1.157   6.019  0.5544  0.5191  0.2225
 1291SOL    HW115506   1.992   1.141   5.955 -1.6490  1.5307 -2.4638
 1291SOL    HW215507   1.964   1.225   6.072  1.2069  0.0057  0.3642
 1292SOL     OW15508   4.202   4.484   4.018 -0.2275 -0.1442  0.2288
 1292SOL    HW115509   4.119   4.445   4.047 -0.5463 -0.7150 -1.4359
 1292SOL    HW215510   4.174   4.564   3.973 -0.4296  0.9314  2.2221
 1293SOL     OW15511   1.522   3.809  10.567 -0.2685 -0.5201  0.1103
 1293SOL    HW115512   1.448   3.751  10.546 -0.3319 -0.7277  0.9229
 1293SOL    HW215513   1.471   3.877  10.611 -0.0843 -1.4901  1.8136
 1294SOL     OW15514   4.589   1.324  17.524  0.2336 -0.4055  0.1432
 1294SOL    HW115515   4.595   1.243  17.576 -0.4505  0.4844  1.6367
 1294SOL    HW215516   4.621   1.293  17.440 -2.1018 -3.1693  0.2277
 1295SOL     OW15517   3.123   2.047   8.345  0.3596 -0.4568  0.4059
 1295SOL    HW115518   3.168   2.131   8.341  2.1618 -1.5775 -2.5864
 1295SOL    HW215519   3.199   1.988   8.341  0.9235  0.3904 -0.9585
 1296SOL     OW15520   0.329   3.345   4.325  0.2286  0.1456  0.0233
 1296SOL    HW115521   0.328   3.395   4.243  3.6195 -0.1507 -0.2218
 1296SOL    HW215522   0.421   3.356   4.350  0.2259  0.8972 -0.2966
 1297SOL     OW15523   3.752   4.111   7.872  0.0198  0.7523  0.0953
 1297SOL    HW115524   3.800   4.068   7.942 -1.4654 -2.6708 -0.9901
 1297SOL    HW215525   3.708   4.181   7.921 -2.1085 -1.8501  1.8951
 1298SOL     OW15526   2.001   0.783  11.437 -0.4359  0.2679  0.3279
 1298SOL    HW115527   1.985   0.752  11.348  0.7114 -3.4084  1.3981
 1298SOL    HW215528   2.005   0.697  11.479  0.1547 -0.4592 -1.2249
 1299SOL     OW15529   0.880   1.287  12.484  0.1534 -0.3076  0.3735
 1299SOL    HW115530   0.842   1.357  12.430  2.6978  1.0587  0.3350
 1299SOL    HW215531   0.934   1.338  12.544  0.5079 -0.3897  0.1233
 1300SOL     OW15532   1.477   1.438  13.421 -0.1387 -0.2127  0.3357
 1300SOL    HW115533   1.469   1.491  13.341  1.5314 -2.4309 -1.3068
 1300SOL    HW215534   1.480   1.506  13.488 -2.2330  0.5746 -0.3632
 1301SOL     OW15535   2.415   0.277  15.933 -0.0163  0.3322 -0.1612
 1301SOL    HW115536   2.442   0.352  15.987  0.3827  0.5581 -0.6749
 1301SOL    HW215537   2.410   0.317  15.846 -0.6263 -0.2388 -0.3839
 1302SOL     OW15538   1.348   3.860   3.179  0.1813  0.0043 -0.0159
 1302SOL    HW115539   1.283   3.930   3.179  1.4471  1.1881 -2.5992
 1302SOL    HW215540   1.313   3.822   3.098 -0.6143  0.7571 -0.0221
 1303SOL     OW15541   2.858   0.132   3.651 -0.3767 -0.1306  0.2059
 1303SOL    HW115542   2.789   0.191   3.681  0.7296  2.6510 -2.8130
 1303SOL    HW215543   2.869   0.072   3.725  0.3119  0.5233  0.6288
 1304SOL     OW15544   2.094   3.226   7.056  0.6121  0.3867 -0.3689
 1304SOL    HW115545   2.096   3.151   7.116  0.2778  1.2983  0.7764
 1304SOL    HW215546   2.035   3.286   7.102  0.2242 -0.1271 -0.1915
 1305SOL     OW15547   1.495   2.950  15.310  0.4386 -0.5053  0.0926
 1305SOL    HW115548   1.408   2.936  15.271  0.2447 -4.0339  1.7959
 1305SOL    HW215549   1.498   3.045  15.301 -1.5470 -0.2924  1.5554
 1306SOL     OW15550   0.416   4.143   9.981  0.5598 -0.0129 -0.7331
 1306SOL    HW115551   0.372   4.096   9.910 -0.3417  0.1018 -0.2507
 1306SOL    HW215552   0.456   4.215   9.933  2.5137  0.1539  1.1490
 1307SOL     OW15553   4.226   2.470  17.565 -0.1530  0.4006 -0.5858
 1307SOL    HW115554   4.314   2.445  17.593 -1.7614 -3.3711  1.0422
 1307SOL    HW215555   4.188   2.395  17.519  1.4684 -1.8976  1.8545
 1308SOL     OW15556   3.841   0.338  15.375 -0.2045 -0.0738  0.4982
 1308SOL    HW115557   3.861   0.384  15.456 -1.3679  2.3651 -0.5903
 1308SOL    HW215558   3.835   0.249  15.409 -0.2320 -0.4376 -0.4545
 1309SOL     OW15559   1.583   3.342  16.896  0.2841  0.1729 -0.3322
 1309SOL    HW115560   1.642   3.359  16.969 -0.6747  1.1672  0.2028
 1309SOL    HW215561   1.636   3.273  16.856  0.6884 -0.5439  1.4486
 1310SOL     OW15562   0.081   0.498  12.967 -0.2060 -0.3070 -0.0725
 1310SOL    HW115563   0.155   0.512  13.026  1.2600 -0.1170 -1.9516
 1310SOL    HW215564   0.126   0.441  12.905  0.9647 -0.9730  1.4077
 1311SOL     OW15565   2.486   3.279   1.692  0.0523 -0.2956 -0.6261
 1311SOL    HW115566   2.501   3.243   1.780 -1.4272  0.5604 -0.0384
 1311SOL    HW215567   2.481   3.202   1.635  0.1823 -0.2684 -0.6748
 1312SOL     OW15568   2.716   4.018   1.842 -0.3723 -0.0328  0.1412
 1312SOL    HW115569   2.706   3.950   1.908  0.8894  1.3647  1.7563
 1312SOL    HW215570   2.662   4.086   1.881 -1.1540 -2.0100  2.4772
 1313SOL     OW15571   1.610   3.808   3.176  0.2321  0.2809  0.1511
 1313SOL    HW115572   1.518   3.823   3.196 -0.0178  1.2451 -1.7251
 1313SOL    HW215573   1.621   3.714   3.162  4.4938  0.6676  0.8608
 1314SOL     OW15574   3.208   2.448   5.651 -0.0386  0.2754  0.3303
 1314SOL    HW115575   3.209   2.355   5.675 -1.8442  0.1944  0.1477
 1314SOL    HW215576   3.203   2.449   5.555 -0.1706 -0.5519  0.3223
 1315SOL     OW15577   2.460   0.047   2.555 -0.4702  0.7259 -0.4807
 1315SOL    HW115578   2.411   0.099   2.618  0.5146 -0.6944  1.4824
 1315SOL    HW215579   2.550   0.079   2.557 -0.8897  2.0334 -2.1315
 1316SOL     OW15580   3.763   1.294   8.306  0.1992 -0.3473  0.5107
 1316SOL    HW115581   3.685   1.261   8.262  0.8122 -1.7429  0.4466
 1316SOL    HW215582   3.754   1.389   8.295 -0.8654 -0.8098 -2.6197
 1317SOL     OW15583   3.167   2.535   5.051 -0.2381  0.1846  0.1390
 1317SOL    HW115584   3.170   2.439   5.055  1.3488  0.2488  0.5501
 1317SOL    HW215585   3.254   2.550   5.090  0.3292  0.0228 -1.0522
 1318SOL     OW15586   3.835   1.865   4.071 -0.1393  0.0381 -0.1008
 1318SOL    HW115587   3.908   1.927   4.076  0.2916 -0.4964  0.2517
 1318SOL    HW215588   3.883   1.792   4.109  0.2744 -0.4609 -1.5822
 1319SOL     OW15589   0.039   3.551  16.599 -0.7257  0.4419 -0.1365
 1319SOL    HW115590   0.090   3.481  16.558 -0.3763  0.6559 -0.0698
 1319SOL    HW215591   0.040   3.615  16.527 -2.1623 -1.3901 -1.8008
 1320SOL     OW15592   1.916   0.095  16.456 -0.0252  0.0080  0.2184
 1320SOL    HW115593   1.855   0.023  16.445  1.6381 -1.1334 -1.6957
 1320SOL    HW215594   1.864   0.154  16.401 -1.1146 -1.4555 -0.3122
 1321SOL     OW15595   1.509   1.854   2.755  0.5752 -0.2808  0.1017
 1321SOL    HW115596   1.592   1.852   2.802 -0.5919  1.2516  2.2385
 1321SOL    HW215597   1.456   1.789   2.802  0.3174  0.4597  0.8258
 1322SOL     OW15598   0.043   1.629  10.843 -0.0417  0.0390  0.9519
 1322SOL    HW115599   0.076   1.627  10.753 -0.8482 -0.9491  0.6772
 1322SOL    HW215600   0.061   1.543  10.880 -0.5393 -1.1296 -1.5380
 1323SOL     OW15601   2.004   0.227   3.692 -0.0089  0.9743 -0.0908
 1323SOL    HW115602   1.960   0.305   3.659 -1.8233 -0.2746 -0.6682
 1323SOL    HW215603   2.046   0.197   3.611  0.0681  1.7434 -0.3375
 1324SOL     OW15604   2.853   0.487   5.463  1.1725  0.2811 -0.3106
 1324SOL    HW115605   2.881   0.414   5.518  3.2016  1.2224 -0.0912
 1324SOL    HW215606   2.902   0.553   5.511  0.4737 -0.6689  1.6969
 1325SOL     OW15607   4.439   4.308  11.647 -0.8540  0.6711 -0.1212
 1325SOL    HW115608   4.393   4.290  11.565 -1.5107  1.6342  0.0396
 1325SOL    HW215609   4.363   4.336  11.698  0.3022  1.1262  1.3632
 1326SOL     OW15610   1.101   3.274   6.564  0.1966 -0.2938  0.0043
 1326SOL    HW115611   1.032   3.341   6.561 -1.3558 -1.8927 -0.1481
 1326SOL    HW215612   1.041   3.203   6.586 -1.1034  0.8997  0.3577
 1327SOL     OW15613   3.059   4.431  17.132 -0.0736 -0.1145  0.7212
 1327SOL    HW115614   3.132   4.426  17.070 -0.6457  0.4451  0.0056
 1327SOL    HW215615   3.079   4.501  17.195  0.2511  0.6463 -0.2218
 1328SOL     OW15616   0.905   4.268   1.835  0.8229  0.7928 -0.2741
 1328SOL    HW115617   0.954   4.195   1.797 -0.7498 -0.4368  0.0468
 1328SOL    HW215618   0.966   4.341   1.830  1.8719 -0.0955 -0.2812
 1329SOL     OW15619   0.527   3.281   2.406  0.0676  0.7666 -0.0756
 1329SOL    HW115620   0.488   3.271   2.319 -1.3133  0.0776  0.6086
 1329SOL    HW215621   0.615   3.309   2.381  0.8257 -0.7181  0.9509
 1330SOL     OW15622   0.451   0.465  11.859  0.0478 -0.5771 -0.0931
 1330SOL    HW115623   0.499   0.407  11.800  2.0550 -0.5077  1.4976
 1330SOL    HW215624   0.508   0.455  11.935  2.7353  0.2523 -2.0120
 1331SOL     OW15625   2.844   3.598  14.663 -0.7654  0.1343  0.4156
 1331SOL    HW115626   2.854   3.590  14.758  0.3431  0.7933  0.3449
 1331SOL    HW215627   2.750   3.618  14.655 -1.1428 -1.5575  0.6345
 1332SOL     OW15628   3.803   1.688  11.020  0.2568 -0.4117  0.1875
 1332SOL    HW115629   3.707   1.689  11.017  0.2653  0.7963  0.1903
 1332SOL    HW215630   3.817   1.614  11.079 -2.2385 -0.0684  1.2048
 1333SOL     OW15631   1.207   1.044  14.844  0.1718 -0.9533  0.1453
 1333SOL    HW115632   1.214   1.106  14.917 -0.9458 -0.2800 -0.3314
 1333SOL    HW215633   1.300   1.032  14.824 -0.0545 -0.8369 -0.9776
 1334SOL     OW15634   1.997   1.388   9.203 -0.1462  0.4486 -0.9846
 1334SOL    HW115635   2.026   1.339   9.280 -0.3876  0.4826 -0.8729
 1334SOL    HW215636   1.944   1.459   9.239 -0.5788 -0.0892 -0.5524
 1335SOL     OW15637   4.722   3.192   8.183  0.0166 -0.0335  0.6187
 1335SOL    HW115638   4.630   3.173   8.199 -0.0077  0.1176  0.6494
 1335SOL    HW215639   0.006   3.124   8.119 -0.0002  1.7449 -1.2835
 1336SOL     OW15640   2.187   3.958   9.659  0.4580 -0.7458  0.0343
 1336SOL    HW115641   2.148   4.045   9.665  1.6002 -0.2697  0.6149
 1336SOL    HW215642   2.194   3.924   9.749 -2.4509  1.7639  1.2040
 1337SOL     OW15643   3.569   0.654   5.681  0.1687  0.2161 -0.2623
 1337SOL    HW115644   3.520   0.576   5.654 -1.1448  1.3957 -1.3232
 1337SOL    HW215645   3.630   0.613   5.742  1.1074  1.8328 -0.1206
 1338SOL     OW15646   3.968   2.144   1.395  1.1008  0.3222 -0.6051
 1338SOL    HW115647   4.001   2.057   1.372  1.6322  0.6819 -1.1925
 1338SOL    HW215648   3.899   2.143   1.329  0.8182 -0.9625 -0.2947
 1339SOL     OW15649   2.548   4.569   4.301  0.0357  0.5210  0.6799
 1339SOL    HW115650   2.479   4.603   4.244 -0.0084  0.0114  0.4214
 1339SOL    HW215651   2.502   4.535   4.377  1.0704 -0.2564  0.9680
 1340SOL     OW15652   1.537   2.648   4.310 -0.0939  0.0025 -0.3090
 1340SOL    HW115653   1.587   2.706   4.253 -1.6281 -1.2262 -2.9018
 1340SOL    HW215654   1.592   2.607   4.377  0.2888  2.5357  0.9270
 1341SOL     OW15655   2.368   0.295   2.960 -0.1109  0.0730  0.0969
 1341SOL    HW115656   2.334   0.384   2.948  2.1066  0.9637  0.5043
 1341SOL    HW215657   2.461   0.305   2.942 -0.0133 -0.7429  0.1739
 1342SOL     OW15658   1.195   0.840   6.410  0.1760  0.7121 -0.1722
 1342SOL    HW115659   1.130   0.807   6.471  0.6036 -2.5820 -1.5112
 1342SOL    HW215660   1.194   0.775   6.339 -0.1478  0.6810 -0.1349
 1343SOL     OW15661   2.574   2.504  10.593 -0.0749 -0.1772  0.3423
 1343SOL    HW115662   2.481   2.516  10.574  0.2613  1.7954 -0.0458
 1343SOL    HW215663   2.599   2.596  10.581  1.3827 -0.6356 -0.1379
 1344SOL     OW15664   4.473   0.638   3.318 -0.5190 -0.5780  0.2495
 1344SOL    HW115665   4.544   0.682   3.272 -0.7163 -2.4886 -1.8735
 1344SOL    HW215666   4.441   0.724   3.344  1.8571 -0.5697  3.1359
 1345SOL     OW15667   3.936   2.776   6.825 -0.0148 -0.1425  0.1567
 1345SOL    HW115668   3.983   2.760   6.743 -2.5826  1.6610 -1.6604
 1345SOL    HW215669   3.949   2.689   6.863  0.8682  0.2064  0.6424
 1346SOL     OW15670   2.940   3.450  15.182  0.0101 -0.3527 -0.2749
 1346SOL    HW115671   2.899   3.364  15.188  0.2563 -0.2596  2.6825
 1346SOL    HW215672   3.033   3.428  15.183  0.1523  0.1785 -1.2145
 1347SOL     OW15673   3.230   3.226   1.054 -0.4429 -0.3287 -0.5894
 1347SOL    HW115674   3.308   3.180   1.024 -0.6886 -0.7762 -0.5345
 1347SOL    HW215675   3.164   3.164   1.022  0.4525 -0.1307 -2.8322
 1348SOL     OW15676   4.413   2.918   9.399 -0.7197  0.3113 -0.0275
 1348SOL    HW115677   4.495   2.959   9.372  0.3462  0.5868  3.6318
 1348SOL    HW215678   4.428   2.901   9.492  0.8387  1.6588 -0.0348
 1349SOL     OW15679   4.116   0.437  15.730  0.1001 -0.6931  0.5755
 1349SOL    HW115680   4.205   0.410  15.706  1.1119  1.8575  1.4015
 1349SOL    HW215681   4.138   0.459  15.820 -1.2395  3.5168 -0.1086
 1350SOL     OW15682   2.700   2.061   4.930 -0.0810  0.8252  0.1742
 1350SOL    HW115683   2.659   2.039   5.014  0.8574 -0.3458  0.3249
 1350SOL    HW215684   2.630   2.025   4.875  1.3389  0.1666 -1.1718
 1351SOL     OW15685   3.056   3.394  13.627  0.5678  0.0520 -0.3245
 1351SOL    HW115686   3.043   3.347  13.545 -2.1856 -0.1374  0.2071
 1351SOL    HW215687   2.989   3.355  13.683  0.8513  1.4132  0.9832
 1352SOL     OW15688   1.944   4.510   6.429 -0.5462 -0.1288  1.0526
 1352SOL    HW115689   1.941   4.486   6.522 -0.3607 -2.0557  0.5801
 1352SOL    HW215690   1.856   4.488   6.401  0.3558  0.2129 -2.0019
 1353SOL     OW15691   2.738   1.281   5.741  0.3622 -0.5602 -0.2421
 1353SOL    HW115692   2.676   1.226   5.692  2.3349 -2.1491 -0.9506
 1353SOL    HW215693   2.782   1.325   5.668  1.7834 -1.2928  0.1671
 1354SOL     OW15694   0.198   2.595  11.835  0.0120 -0.3382  0.6376
 1354SOL    HW115695   0.213   2.583  11.929  2.9292 -1.3821  0.0191
 1354SOL    HW215696   0.287   2.580  11.805 -0.2583  1.1534 -0.8504
 1355SOL     OW15697   0.510   3.134   0.391 -0.3319  0.4058 -0.5386
 1355SOL    HW115698   0.502   3.053   0.341 -1.1521  0.2080 -0.0879
 1355SOL    HW215699   0.593   3.122   0.437 -0.1149 -0.5047 -1.1809
 1356SOL     OW15700   1.996   0.199   2.141  0.2302 -0.0560 -0.0394
 1356SOL    HW115701   2.021   0.259   2.211  0.2087  0.6637 -0.6523
 1356SOL    HW215702   2.058   0.128   2.158  0.7575  0.2635 -0.6063
 1357SOL     OW15703   1.962   3.688  11.182 -0.3574  0.0234 -0.2862
 1357SOL    HW115704   1.917   3.680  11.098  0.5210 -2.3326 -0.5366
 1357SOL    HW215705   1.912   3.632  11.242 -2.4124  1.0673 -1.0095
 1358SOL     OW15706   1.123   2.047   3.342  0.4482  0.1358  0.0022
 1358SOL    HW115707   1.071   2.036   3.263 -1.3471  0.9429  1.0708
 1358SOL    HW215708   1.208   2.017   3.311  2.0024  1.6617  2.7791
 1359SOL     OW15709   2.351   2.482  11.909 -0.0323 -0.2307  0.4744
 1359SOL    HW115710   2.289   2.498  11.979 -1.2559  0.7813 -0.8462
 1359SOL    HW215711   2.433   2.479  11.958  0.8796  0.0555 -1.0136
 1360SOL     OW15712   4.141   0.862   5.575  0.2242  0.0209 -0.2268
 1360SOL    HW115713   4.099   0.946   5.558 -0.7132 -0.2061  0.9524
 1360SOL    HW215714   4.108   0.853   5.665  1.6566  0.7255  0.3721
 1361SOL     OW15715   2.110   2.306   8.304  0.4145  0.4160  0.1798
 1361SOL    HW115716   2.198   2.342   8.310  0.3465  0.7520 -0.9083
 1361SOL    HW215717   2.120   2.265   8.218  0.9930  0.4269  0.2459
 1362SOL     OW15718   2.961   3.194   4.819  0.1814  0.3117 -0.5484
 1362SOL    HW115719   2.921   3.149   4.894  1.3118 -0.3129 -0.3103
 1362SOL    HW215720   3.008   3.121   4.778  2.4914  0.8601  1.0913
 1363SOL     OW15721   0.768   4.589   2.718 -0.1645  0.6931  0.1987
 1363SOL    HW115722   0.767   4.525   2.647 -1.0799 -0.2492  1.0548
 1363SOL    HW215723   0.860   4.581   2.744  0.1376 -1.1396 -1.3723
 1364SOL     OW15724   4.066   2.684  17.614  0.3338  0.3183  0.2704
 1364SOL    HW115725   4.006   2.682  17.538 -0.3750 -3.7552  0.9738
 1364SOL    HW215726   4.120   2.607  17.601  2.8884  1.8474  1.8640
 1365SOL     OW15727   4.298   4.050  16.894 -0.2698  0.2062 -0.2087
 1365SOL    HW115728   4.282   4.144  16.905 -0.9548  0.2315 -1.4116
 1365SOL    HW215729   4.214   4.008  16.876 -0.6190  0.8511 -0.1197
 1366SOL     OW15730   2.182   0.795   4.637 -0.1107 -0.5879  0.0911
 1366SOL    HW115731   2.225   0.824   4.717  0.1687  2.4932 -1.1566
 1366SOL    HW215732   2.115   0.862   4.620 -0.8919 -1.0623  1.3268
 1367SOL     OW15733   2.610   2.080   5.212  0.0790 -0.6329  0.1513
 1367SOL    HW115734   2.515   2.066   5.204  0.4581 -1.7307 -2.1544
 1367SOL    HW215735   2.597   2.088   5.307 -1.3895  0.0820 -0.0975
 1368SOL     OW15736   3.986   0.640   3.314  0.0237  0.3452 -0.0263
 1368SOL    HW115737   4.006   0.548   3.298  4.1417  1.3213 -0.3488
 1368SOL    HW215738   4.018   0.677   3.232 -0.1657  2.3390  0.8020
 1369SOL     OW15739   4.541   0.782   0.305 -0.5345  0.2526  0.4296
 1369SOL    HW115740   4.507   0.831   0.230 -2.9903  0.3403  1.6208
 1369SOL    HW215741   4.627   0.824   0.318  1.7950 -2.9928 -4.4241
 1370SOL     OW15742   2.019   0.660   5.858 -0.0505 -0.5281 -0.2567
 1370SOL    HW115743   2.051   0.742   5.895  0.1503 -0.6920 -0.0678
 1370SOL    HW215744   1.962   0.631   5.930 -1.2421 -1.3731 -1.5630
 1371SOL     OW15745   4.426   0.212   5.815 -0.0546  0.6865  0.2996
 1371SOL    HW115746   4.489   0.209   5.743 -2.2279 -0.4875 -1.5273
 1371SOL    HW215747   4.481   0.193   5.892  0.6702  0.2394 -0.3342
 1372SOL     OW15748   0.361   3.316   7.012 -0.5104 -0.0967 -0.3971
 1372SOL    HW115749   0.348   3.364   6.930  0.3254 -1.0073 -1.0564
 1372SOL    HW215750   0.322   3.375   7.076 -0.3982 -0.7558  0.2767
 1373SOL     OW15751   3.114   4.258   5.048 -0.0956  0.1863 -0.4869
 1373SOL    HW115752   3.139   4.248   4.956 -2.7959  1.5904 -1.3646
 1373SOL    HW215753   3.033   4.208   5.048 -0.4253  0.7270 -1.1104
 1374SOL     OW15754   3.278   1.188   3.869 -0.3173  0.2577 -0.0559
 1374SOL    HW115755   3.346   1.149   3.924 -1.2681  0.1417  1.0365
 1374SOL    HW215756   3.254   1.267   3.916 -1.7911  0.4604 -1.1383
 1375SOL     OW15757   0.156   0.866   4.929  0.0864  0.4821 -0.3288
 1375SOL    HW115758   0.203   0.924   4.869 -0.1147  1.8713  0.8639
 1375SOL    HW215759   0.080   0.841   4.876 -0.1374 -0.4049  0.4114
 1376SOL     OW15760   0.826   0.927  11.412 -0.5288  0.6184  0.5700
 1376SOL    HW115761   0.832   1.010  11.364  0.6861 -0.6539 -1.5036
 1376SOL    HW215762   0.918   0.902  11.416 -0.6619 -0.2616 -1.9204
 1377SOL     OW15763   1.578   1.757   2.231  0.0876  0.6023 -0.2623
 1377SOL    HW115764   1.557   1.832   2.176 -0.5758  0.7218  0.1435
 1377SOL    HW215765   1.604   1.796   2.315  3.5003 -0.7801 -0.7040
 1378SOL     OW15766   1.098   3.678   3.327  0.1987  0.3024 -0.1338
 1378SOL    HW115767   1.178   3.692   3.377  0.3978  1.4330 -0.7466
 1378SOL    HW215768   1.070   3.599   3.372  2.0757  0.1907  0.8340
 1379SOL     OW15769   0.766   4.423   5.069 -0.2640 -0.5539  0.3695
 1379SOL    HW115770   0.832   4.468   5.016  1.0112 -1.1735  1.4404
 1379SOL    HW215771   0.710   4.497   5.091  1.8942  0.6961  1.7162
 1380SOL     OW15772   3.827   0.681   4.466 -0.0080  0.3631  0.1491
 1380SOL    HW115773   3.790   0.704   4.380  1.5469 -0.3084 -0.6975
 1380SOL    HW215774   3.753   0.705   4.522  2.3270  3.0414  2.0913
 1381SOL     OW15775   3.409   2.474   5.144 -0.0359 -0.3750 -0.1344
 1381SOL    HW115776   3.497   2.483   5.109 -0.4463 -0.8578 -1.2697
 1381SOL    HW215777   3.391   2.381   5.126 -0.9594 -0.3048  0.3871
 1382SOL     OW15778   4.206   3.384   9.122  0.1242 -0.4252  0.5333
 1382SOL    HW115779   4.272   3.332   9.167 -1.8444  0.0490  3.9409
 1382SOL    HW215780   4.227   3.465   9.168 -1.7370  1.8799 -2.6101
 1383SOL     OW15781   2.787   2.544   0.305  0.5449  0.2340 -0.4515
 1383SOL    HW115782   2.815   2.458   0.336  1.8282  1.0244  0.5513
 1383SOL    HW215783   2.726   2.580   0.369 -0.6862  2.3425 -2.8088
 1384SOL     OW15784   1.026   1.947   4.467  0.8631 -0.8645 -0.2937
 1384SOL    HW115785   1.012   1.865   4.514 -1.5870 -0.4124 -0.2693
 1384SOL    HW215786   0.949   1.942   4.410 -0.4743  2.4919  1.2061
 1385SOL     OW15787   3.736   3.258   7.483  0.2006 -0.1828 -0.5477
 1385SOL    HW115788   3.736   3.278   7.577  1.2771  1.7509 -0.9559
 1385SOL    HW215789   3.655   3.207   7.485  0.3401 -0.3698  0.4603
 1386SOL     OW15790   3.832   1.729   9.013 -0.3994  0.2454  0.1125
 1386SOL    HW115791   3.880   1.689   9.085  2.8742  0.0264 -2.1929
 1386SOL    HW215792   3.780   1.794   9.061  0.9294  1.3651  0.0450
 1387SOL     OW15793   1.064   4.231   7.074  0.1944  0.0433  0.6605
 1387SOL    HW115794   1.096   4.273   6.994  0.0747 -1.3352 -0.1076
 1387SOL    HW215795   1.007   4.306   7.092  0.9512  0.9569 -0.7353
 1388SOL     OW15796   2.363   1.235   5.531  0.2155  0.4403 -0.0828
 1388SOL    HW115797   2.399   1.239   5.620  1.7776 -1.2104 -0.6428
 1388SOL    HW215798   2.297   1.165   5.537  1.2103 -0.4868  0.1636
 1389SOL     OW15799   2.657   3.894   7.223 -0.2506 -0.7172 -0.1592
 1389SOL    HW115800   2.606   3.852   7.153 -0.5576 -2.1560  0.9361
 1389SOL    HW215801   2.587   3.939   7.271  0.6117  0.3582  0.1082
 1390SOL     OW15802   1.485   3.718   4.264  1.0102 -0.3427  0.1105
 1390SOL    HW115803   1.531   3.764   4.193 -1.1445  2.4217  0.5170
 1390SOL    HW215804   1.400   3.762   4.257  1.4860  0.1779 -2.4718
 1391SOL     OW15805   1.247   2.537  11.836 -0.6393  0.4884  0.5798
 1391SOL    HW115806   1.294   2.496  11.909 -0.4114  1.6918  1.1162
 1391SOL    HW215807   1.283   2.624  11.851 -0.5099  0.7393 -1.2027
 1392SOL     OW15808   4.462   1.096   6.252 -0.1820 -0.4747 -0.3093
 1392SOL    HW115809   4.419   1.089   6.167 -2.6803 -2.8392  1.1590
 1392SOL    HW215810   4.385   1.137   6.292  0.7548 -0.4453  1.4946
 1393SOL     OW15811   0.778   3.781  11.523 -0.0154  0.2522  0.2306
 1393SOL    HW115812   0.861   3.829  11.522 -0.1104  0.4418  1.7982
 1393SOL    HW215813   0.734   3.820  11.447 -1.8752  0.6405  1.4974
 1394SOL     OW15814   1.855   0.641  10.443 -0.3831 -0.2360  0.4071
 1394SOL    HW115815   1.937   0.633  10.492  0.3129  0.0008 -0.7199
 1394SOL    HW215816   1.856   0.578  10.370 -1.1272 -2.3997  2.2603
 1395SOL     OW15817   1.606   0.624  17.657 -0.2844 -0.3284 -0.6386
 1395SOL    HW115818   1.535   0.688  17.655  0.1152  0.1967  2.0663
 1395SOL    HW215819   1.633   0.645  17.746  1.4097 -0.6006 -1.0857
 1396SOL     OW15820   2.463   1.148  16.793  0.1347  0.3061  0.5456
 1396SOL    HW115821   2.397   1.081  16.808  0.9485 -0.6881 -0.2865
 1396SOL    HW215822   2.549   1.106  16.796  0.1501  0.5817  4.3898
 1397SOL     OW15823   2.027   2.928   4.034  0.2479  0.4924 -0.2188
 1397SOL    HW115824   1.967   2.911   4.106  1.7524 -1.1904  0.6517
 1397SOL    HW215825   2.096   2.865   4.057 -0.8014 -1.2169 -1.7998
 1398SOL     OW15826   2.958   0.272   4.399  0.2719  0.0532 -0.3818
 1398SOL    HW115827   2.948   0.181   4.370 -0.6419  0.6782 -2.0137
 1398SOL    HW215828   2.927   0.253   4.488 -0.8867 -1.2860 -1.0672
 1399SOL     OW15829   3.940   1.541   1.559  0.4947  0.4411  0.3216
 1399SOL    HW115830   3.872   1.607   1.546 -0.1441 -0.2099  0.4202
 1399SOL    HW215831   3.927   1.500   1.474  0.7052  0.7306  0.1487
 1400SOL     OW15832   0.250   0.437  12.083 -0.4768  0.4362  0.0247
 1400SOL    HW115833   0.206   0.522  12.088 -1.1887 -0.0723  2.4484
 1400SOL    HW215834   0.336   0.468  12.055 -0.1434  0.8084  1.4644
 1401SOL     OW15835   1.443   3.103   6.363 -0.6579 -0.0846 -0.1531
 1401SOL    HW115836   1.454   3.031   6.425  0.9976  1.1510  0.9822
 1401SOL    HW215837   1.479   3.061   6.285  3.1477 -1.4822  2.3611
 1402SOL     OW15838   4.707   0.951   0.614 -0.4433  0.0984 -0.4441
 1402SOL    HW115839   4.678   0.932   0.525  0.0597 -0.7380 -0.4352
 1402SOL    HW215840   4.672   1.040   0.611  1.2387  0.8987  2.9125
 1403SOL     OW15841   3.523   1.516  10.803 -0.2052 -0.2301 -0.4602
 1403SOL    HW115842   3.537   1.500  10.896 -1.4381  0.1981 -0.2044
 1403SOL    HW215843   3.541   1.609  10.793 -0.0431 -0.1201  0.9439
 1404SOL     OW15844   4.362   1.622  14.707  0.2466  0.2044 -0.0255
 1404SOL    HW115845   4.393   1.713  14.712  1.3566 -0.3606  3.1656
 1404SOL    HW215846   4.284   1.617  14.762 -0.2637 -0.8196 -0.8424
 1405SOL     OW15847   0.543   1.326  16.530  0.6643 -0.1461  0.6630
 1405SOL    HW115848   0.632   1.292  16.524  0.4382 -0.4640 -0.9025
 1405SOL    HW215849   0.494   1.264  16.476  1.0220  1.1222 -1.0951
 1406SOL     OW15850   3.677   1.614   2.734  0.0746 -0.3622  0.2643
 1406SOL    HW115851   3.683   1.709   2.746  2.0553 -0.3979 -0.3837
 1406SOL    HW215852   3.765   1.583   2.711  0.0734  1.2344 -1.8909
 1407SOL     OW15853   3.775   3.876   6.895  0.0693 -0.3756  0.1105
 1407SOL    HW115854   3.776   3.787   6.929  0.0910 -0.0436  1.0006
 1407SOL    HW215855   3.767   3.930   6.974 -0.1782 -0.4800  0.1554
 1408SOL     OW15856   1.156   1.155   5.942 -0.3409  0.0394 -0.6838
 1408SOL    HW115857   1.189   1.103   5.869 -0.6900 -2.4165  0.8947
 1408SOL    HW215858   1.190   1.109   6.020 -2.1622  1.2532  0.8267
 1409SOL     OW15859   1.469   2.212  15.026  0.7776  0.1597  0.2729
 1409SOL    HW115860   1.520   2.290  15.003 -1.7439  1.5553 -0.5494
 1409SOL    HW215861   1.525   2.183  15.098 -1.4681 -1.2801  1.4062
 1410SOL     OW15862   2.988   3.413   3.882 -0.0380  0.3796  0.5616
 1410SOL    HW115863   2.946   3.328   3.868  2.3748 -0.6607 -0.4068
 1410SOL    HW215864   3.080   3.395   3.858 -0.1758 -1.8433  1.6681
 1411SOL     OW15865   4.252   0.879  16.129 -0.1392  0.0908 -0.3340
 1411SOL    HW115866   4.280   0.969  16.113  1.4943 -0.0061  1.8790
 1411SOL    HW215867   4.328   0.839  16.173  1.0020  2.0498 -0.5202
 1412SOL     OW15868   2.335   4.229  13.184 -0.0154  0.7592  0.0728
 1412SOL    HW115869   2.343   4.259  13.094  0.5792 -0.7249 -0.3540
 1412SOL    HW215870   2.376   4.145  13.167 -0.0153  0.9956 -1.0756
 1413SOL     OW15871   3.771   0.474   1.055  0.2121 -0.2481  0.7429
 1413SOL    HW115872   3.737   0.517   0.977 -0.5517  0.1046  1.2668
 1413SOL    HW215873   3.853   0.439   1.019 -0.4121  0.8426 -1.7200
 1414SOL     OW15874   1.840   2.195   3.656  0.7636  0.3690  0.2236
 1414SOL    HW115875   1.861   2.268   3.714  2.1518  0.6029 -0.5779
 1414SOL    HW215876   1.881   2.220   3.573 -3.0820  1.4866 -1.3383
 1415SOL     OW15877   1.230   1.555   9.597  0.2402 -0.6058 -0.1552
 1415SOL    HW115878   1.187   1.562   9.512 -0.9425  0.9771  0.5853
 1415SOL    HW215879   1.318   1.536   9.563  0.8111  0.5753  0.6890
 1416SOL     OW15880   3.075   0.605   8.831  0.3043  0.3909 -0.0779
 1416SOL    HW115881   3.014   0.603   8.905 -0.0891  0.6395 -0.3937
 1416SOL    HW215882   3.029   0.539   8.779 -1.7590 -0.2623  2.5491
 1417SOL     OW15883   1.275   3.143   1.464  0.0053 -0.3249 -0.0645
 1417SOL    HW115884   1.348   3.196   1.496  0.9476 -1.0686 -0.9911
 1417SOL    HW215885   1.204   3.138   1.529  1.1063 -2.3214  0.9904
 1418SOL     OW15886   3.096   2.377  15.373  0.2970  0.8495 -0.3463
 1418SOL    HW115887   3.052   2.455  15.338  0.4160  0.6239 -0.9912
 1418SOL    HW215888   3.058   2.375  15.461 -1.3307  2.9202 -0.9952
 1419SOL     OW15889   2.250   3.625  13.645 -0.5432  0.7503  0.1808
 1419SOL    HW115890   2.318   3.604  13.708  0.1254 -2.2761 -1.5852
 1419SOL    HW215891   2.212   3.695  13.698  3.4272  2.2105  1.0840
 1420SOL     OW15892   0.877   0.411  10.183 -0.9981  0.4248 -0.1595
 1420SOL    HW115893   0.972   0.404  10.174 -1.1342  0.9553 -1.8444
 1420SOL    HW215894   0.865   0.355  10.260  2.2456  0.7292  0.5600
 1421SOL     OW15895   4.073   2.593  12.881  0.0194 -0.0743  0.0953
 1421SOL    HW115896   4.018   2.562  12.810  1.0370 -3.3887  0.7597
 1421SOL    HW215897   4.151   2.598  12.825  0.7101 -0.3856  1.0235
 1422SOL     OW15898   1.300   4.702   2.485  0.3687  0.0590 -0.2213
 1422SOL    HW115899   1.305   4.660   2.571  0.5573 -0.6579 -0.5784
 1422SOL    HW215900   1.328   0.049   2.518 -0.6376 -0.7931  2.8101
 1423SOL     OW15901   0.055   2.385  16.752  0.2385  0.3657 -0.1393
 1423SOL    HW115902   0.004   2.464  16.737  1.1348  0.7414 -1.2238
 1423SOL    HW215903   0.144   2.421  16.750  1.1259 -1.8984 -1.1886
 1424SOL     OW15904   1.811   4.374   4.167 -0.3832 -0.4402  0.0455
 1424SOL    HW115905   1.853   4.438   4.226  2.5046 -2.2296 -0.1005
 1424SOL    HW215906   1.725   4.412   4.149  0.4497  0.9469 -1.0018
 1425SOL     OW15907   2.882   0.751   4.227  0.5539 -0.1310  0.4225
 1425SOL    HW115908   2.880   0.787   4.315 -1.5779 -1.2185  0.8228
 1425SOL    HW215909   2.975   0.728   4.222  0.6920  0.6357 -0.3842
 1426SOL     OW15910   2.635   3.372  16.502  0.7251 -0.1560  0.5093
 1426SOL    HW115911   2.624   3.343  16.592  0.2756 -0.8546  0.2265
 1426SOL    HW215912   2.663   3.291  16.459 -2.7555 -0.2525 -1.5690
 1427SOL     OW15913   2.083   1.596  11.066 -0.3120  0.0397  0.2997
 1427SOL    HW115914   2.007   1.651  11.048 -1.8021 -2.2944 -0.4834
 1427SOL    HW215915   2.132   1.600  10.984  0.3092 -1.1741  0.6093
 1428SOL     OW15916   2.508   0.859   9.419 -0.6275  0.0189  0.5680
 1428SOL    HW115917   2.534   0.821   9.503  0.2923 -1.6078 -0.4532
 1428SOL    HW215918   2.565   0.936   9.415  1.5157 -1.5620  0.4472
 1429SOL     OW15919   1.597   4.240  11.998  0.5581 -0.0039  0.1782
 1429SOL    HW115920   1.533   4.305  12.025  0.9192  0.9855 -1.3590
 1429SOL    HW215921   1.587   4.239  11.903  3.1789 -1.7899 -0.0926
 1430SOL     OW15922   1.065   3.153   7.670 -0.2104 -0.1069 -0.3096
 1430SOL    HW115923   1.034   3.189   7.753  2.2000  1.1018  0.0785
 1430SOL    HW215924   1.025   3.213   7.607 -1.3423 -1.0520 -0.4814
 1431SOL     OW15925   0.708   4.518   9.549 -0.1118 -0.0800 -0.0081
 1431SOL    HW115926   0.672   4.525   9.461  1.0808  1.8539 -0.3610
 1431SOL    HW215927   0.699   4.424   9.564 -0.9552 -0.2316 -1.5432
 1432SOL     OW15928   0.669   2.723   3.673  0.2045 -0.2840  0.0686
 1432SOL    HW115929   0.752   2.679   3.693 -0.3468 -0.9915  0.8368
 1432SOL    HW215930   0.645   2.669   3.598  1.6436 -1.1954  0.2497
 1433SOL     OW15931   1.232   0.597   6.743  0.6033 -0.4191 -0.4514
 1433SOL    HW115932   1.216   0.630   6.832 -1.2031 -0.0357 -0.9196
 1433SOL    HW215933   1.168   0.653   6.700  2.7843  1.1204 -1.7354
 1434SOL     OW15934   2.753   2.807   6.895  0.0332  0.2219  0.1323
 1434SOL    HW115935   2.759   2.836   6.986 -0.6445 -1.8817  0.8441
 1434SOL    HW215936   2.708   2.878   6.848 -0.7261  1.4188  2.6723
 1435SOL     OW15937   1.123   1.696   9.800  0.3504  0.2132  0.6282
 1435SOL    HW115938   1.199   1.652   9.763  0.3271  0.3414  0.4282
 1435SOL    HW215939   1.045   1.641   9.791  0.0160  0.9532 -1.0965
 1436SOL     OW15940   2.121   0.185   5.035 -0.7569 -0.5412  0.0643
 1436SOL    HW115941   2.118   0.212   5.126 -1.2662  0.3418 -0.2137
 1436SOL    HW215942   2.176   0.254   4.998  2.4399 -3.3970 -0.4890
 1437SOL     OW15943   1.712   3.564  11.974 -0.6231 -0.2807 -0.7502
 1437SOL    HW115944   1.775   3.632  11.949  1.2420 -1.4166  0.9045
 1437SOL    HW215945   1.640   3.624  11.991  0.4242  0.1971  1.9607
 1438SOL     OW15946   4.396   1.121   3.477  0.2025 -0.2309 -0.8314
 1438SOL    HW115947   4.453   1.196   3.463 -2.0503  1.9925  1.9148
 1438SOL    HW215948   4.307   1.149   3.501 -0.1888 -2.1434  0.0027
 1439SOL     OW15949   0.551   4.659  11.343 -0.0584 -0.6492 -0.2110
 1439SOL    HW115950   0.494   4.712  11.288 -1.2625 -1.9618 -0.2215
 1439SOL    HW215951   0.598   4.606  11.279  0.1051  0.3958 -0.9535
 1440SOL     OW15952   4.308   3.633   6.722  0.3690 -0.5493  0.0212
 1440SOL    HW115953   4.371   3.560   6.724  2.5220  1.3455  2.1879
 1440SOL    HW215954   4.330   3.685   6.800 -2.1009 -2.8018  2.2417
 1441SOL     OW15955   1.310   1.990  15.529  0.3539 -0.1137 -0.0695
 1441SOL    HW115956   1.292   2.078  15.562 -1.1774 -1.0377  1.5034
 1441SOL    HW215957   1.378   2.031  15.474  0.3601 -0.7590 -0.5374
 1442SOL     OW15958   3.214   4.154   6.773  0.2890  0.4516 -0.5764
 1442SOL    HW115959   3.282   4.089   6.754 -0.2619  0.2944 -2.0029
 1442SOL    HW215960   3.202   4.138   6.867  3.3496  2.9388  0.2473
 1443SOL     OW15961   2.098   0.828   7.303  0.0011 -0.0612  0.1854
 1443SOL    HW115962   2.118   0.832   7.210  1.2712 -1.0546  0.4111
 1443SOL    HW215963   2.025   0.768   7.291 -0.5784  0.5279  0.8154
 1444SOL     OW15964   0.387   1.801   6.162 -0.1331 -0.1155 -0.5255
 1444SOL    HW115965   0.450   1.814   6.233  0.5429  1.8197 -1.4741
 1444SOL    HW215966   0.424   1.731   6.108 -0.1082  0.1883 -0.9053
 1445SOL     OW15967   0.135   1.119   7.874  0.1523 -0.0048  0.1509
 1445SOL    HW115968   0.190   1.049   7.910 -2.6154 -1.3518  1.8181
 1445SOL    HW215969   0.169   1.191   7.928  0.0956  1.9524 -2.4680
 1446SOL     OW15970   3.883   0.374  11.608 -0.4070  0.6827 -0.0788
 1446SOL    HW115971   3.878   0.281  11.585  1.8680  1.0500 -2.0779
 1446SOL    HW215972   3.804   0.373  11.661  0.2410  0.5584  0.8820
 1447SOL     OW15973   4.189   4.425   8.052  0.3274  0.9366  0.3438
 1447SOL    HW115974   4.197   4.460   8.141 -2.5455 -2.3493  1.9055
 1447SOL    HW215975   4.243   4.347   8.047 -1.3511 -0.3677  2.6070
 1448SOL     OW15976   3.701   2.238   7.521 -0.0308 -0.2219  0.2024
 1448SOL    HW115977   3.773   2.296   7.494 -2.8995  1.8197 -3.0535
 1448SOL    HW215978   3.623   2.293   7.522 -0.0226 -0.1947 -0.6761
 1449SOL     OW15979   3.089   0.064   8.818 -0.5307  0.1674 -0.2083
 1449SOL    HW115980   3.177   0.061   8.780 -1.1576  2.4030 -1.8212
 1449SOL    HW215981   3.105   0.000   8.888 -1.1383 -1.3710 -1.4790
 1450SOL     OW15982   1.192   2.118   7.683 -0.5059 -0.2513  0.0295
 1450SOL    HW115983   1.098   2.111   7.667 -0.5377 -0.6440  0.3701
 1450SOL    HW215984   1.198   2.214   7.686  1.9579 -0.3822 -1.0283
 1451SOL     OW15985   1.299   1.883   7.549  0.2662  0.1210  0.3651
 1451SOL    HW115986   1.226   1.869   7.488 -0.6415  0.2471  1.4150
 1451SOL    HW215987   1.269   1.961   7.595  0.1048 -0.9426  2.0824
 1452SOL     OW15988   3.264   4.541   7.376  0.1533  0.1545 -0.1088
 1452SOL    HW115989   3.183   4.517   7.423  0.5633 -0.3128  0.3562
 1452SOL    HW215990   3.234   4.582   7.295 -1.1150 -0.5666 -0.0191
 1453SOL     OW15991   1.831   3.077   1.591  0.0748  0.6159  0.1018
 1453SOL    HW115992   1.861   3.130   1.664 -0.2753  0.2249  0.5256
 1453SOL    HW215993   1.738   3.069   1.613  0.6141  0.9748  2.4337
 1454SOL     OW15994   2.714   2.037   6.550  0.2280  0.4019 -0.6015
 1454SOL    HW115995   2.774   1.972   6.588  0.3282  1.9221  1.8225
 1454SOL    HW215996   2.772   2.104   6.513 -0.3661  1.3352  0.1655
 1455SOL     OW15997   4.561   4.641   7.077  0.3912 -0.0874  0.0466
 1455SOL    HW115998   4.502   4.707   7.042 -0.2290 -0.6147  0.0941
 1455SOL    HW215999   4.523   4.622   7.163  2.0257 -1.8968  0.3873
 1456SOL     OW16000   3.179   1.652  17.210  0.3944 -0.3733  0.1633
 1456SOL    HW116001   3.183   1.727  17.269  2.6718  0.3292 -0.9196
 1456SOL    HW216002   3.086   1.631  17.219  0.9685 -2.3875  1.4084
 1457SOL     OW16003   0.952   3.138  11.197 -0.1697  0.2442 -0.0049
 1457SOL    HW116004   0.863   3.122  11.166 -0.3859 -0.8290  1.1621
 1457SOL    HW216005   0.942   3.220  11.246 -1.5171 -0.1155  0.3454
 1458SOL     OW16006   3.488   1.176   8.776 -0.5515 -0.1323  0.3465
 1458SOL    HW116007   3.541   1.102   8.747 -1.4880 -0.8157  0.3842
 1458SOL    HW216008   3.404   1.132   8.784  0.5861 -2.4436 -0.3526
 1459SOL     OW16009   3.690   3.668   4.681 -0.1718  0.2667  0.0100
 1459SOL    HW116010   3.642   3.594   4.642 -0.8404  2.2076 -2.8384
 1459SOL    HW216011   3.632   3.704   4.748  0.5058 -1.6045  1.6169
 1460SOL     OW16012   1.923   2.150  10.753  0.1588  0.4730  0.5448
 1460SOL    HW116013   1.914   2.221  10.690  0.0161 -0.3723 -0.3799
 1460SOL    HW216014   1.861   2.177  10.821  2.7769  0.4575  2.9511
 1461SOL     OW16015   3.058   2.061   4.560 -0.2065 -0.0893  0.3030
 1461SOL    HW116016   2.969   2.031   4.580 -0.6560  2.2351  1.7636
 1461SOL    HW216017   3.104   1.981   4.583  0.5155  1.1648  3.3178
 1462SOL     OW16018   0.778   0.850   3.779 -0.2221  0.3504 -0.2874
 1462SOL    HW116019   0.764   0.921   3.717  0.6364  0.2466 -0.6033
 1462SOL    HW216020   0.691   0.835   3.816  0.2219 -1.8848 -0.1288
 1463SOL     OW16021   2.740   4.551   7.375  0.0791 -0.0650 -0.2132
 1463SOL    HW116022   2.656   4.563   7.330  0.6072  1.6320 -0.7630
 1463SOL    HW216023   2.788   4.621   7.332 -0.2923  0.1617 -0.2587
 1464SOL     OW16024   1.726   0.227   7.912  0.2461  0.3397 -0.4056
 1464SOL    HW116025   1.770   0.244   7.829  2.0696  1.0373  0.7266
 1464SOL    HW216026   1.777   0.152   7.944  1.2761  1.2449  0.0675
 1465SOL     OW16027   4.111   0.347   8.483  1.1429 -0.0116 -0.5535
 1465SOL    HW116028   4.182   0.409   8.494  1.0529  0.2126 -1.2553
 1465SOL    HW216029   4.081   0.334   8.573  0.2836  1.2760 -0.6536
 1466SOL     OW16030   3.868   1.818   4.985 -0.2911  0.1654 -0.4233
 1466SOL    HW116031   3.826   1.859   5.061  0.4895  0.1926  0.0052
 1466SOL    HW216032   3.807   1.842   4.916 -0.3134  0.2928 -0.3601
 1467SOL     OW16033   0.861   4.489  14.612  0.0995  0.1042 -0.0613
 1467SOL    HW116034   0.800   4.416  14.629  0.3862 -0.1233 -0.0098
 1467SOL    HW216035   0.834   4.509  14.523  0.3752  0.0783 -0.1503
 1468SOL     OW16036   2.562   3.358   6.356  0.2422  0.1861  0.1244
 1468SOL    HW116037   2.549   3.357   6.451 -1.5989 -1.1878 -0.1521
 1468SOL    HW216038   2.473   3.385   6.333  0.1451  0.2902  0.6160
 1469SOL     OW16039   4.448   1.199   8.395 -0.4336 -0.1066 -0.0536
 1469SOL    HW116040   4.380   1.218   8.459 -0.4305 -2.1381  0.5448
 1469SOL    HW216041   4.521   1.173   8.451 -2.0178 -4.0423  0.1717
 1470SOL     OW16042   0.991   3.500   1.725  0.1854 -0.5086 -0.1802
 1470SOL    HW116043   0.987   3.595   1.738 -1.6077 -0.7084  0.7320
 1470SOL    HW216044   1.027   3.464   1.806 -0.0345  2.1436  1.1240
 1471SOL     OW16045   4.258   3.302   3.181  0.2837  0.7499  0.3232
 1471SOL    HW116046   4.304   3.349   3.250  1.8907  1.6968 -1.4145
 1471SOL    HW216047   4.327   3.249   3.142  0.4156  0.2856  1.1784
 1472SOL     OW16048   2.192   0.420  15.797 -0.3260  0.8590 -0.3407
 1472SOL    HW116049   2.131   0.487  15.766  1.3309  3.3908  1.9092
 1472SOL    HW216050   2.177   0.433  15.891  0.8516  0.7789 -0.1411
 1473SOL     OW16051   1.912   2.562   4.360  0.0236  0.0521  0.9494
 1473SOL    HW116052   1.936   2.530   4.447  1.8787  0.1537  0.4718
 1473SOL    HW216053   1.837   2.504   4.347  1.1004 -1.1286 -0.0372
 1474SOL     OW16054   3.618   2.959  11.154  0.8686 -0.3367  0.0403
 1474SOL    HW116055   3.703   2.962  11.112  0.5686  1.0983 -0.4517
 1474SOL    HW216056   3.578   3.036  11.114 -1.9465 -1.0128  1.5002
 1475SOL     OW16057   3.661   0.752   6.021 -0.1482  0.0016 -0.4687
 1475SOL    HW116058   3.713   0.826   5.988  1.3356 -1.2926 -1.0278
 1475SOL    HW216059   3.735   0.692   6.013  0.8912  1.6845 -3.5574
 1476SOL     OW16060   0.807   4.155   3.312  0.1792  0.4747 -0.0015
 1476SOL    HW116061   0.845   4.162   3.400 -0.3989  1.5039  0.1706
 1476SOL    HW216062   0.731   4.214   3.318 -0.0839  0.2021 -0.6243
 1477SOL     OW16063   4.720   1.786   6.021  0.4220 -0.0208 -0.3636
 1477SOL    HW116064   0.018   1.754   6.104 -1.2758  0.4586  0.5876
 1477SOL    HW216065   4.708   1.880   6.035  1.1849 -0.2834  2.0878
 1478SOL     OW16066   3.706   2.697   5.983  0.1890  0.3401  0.0876
 1478SOL    HW116067   3.764   2.641   6.033 -1.0136  0.2391  1.3574
 1478SOL    HW216068   3.620   2.692   6.026  0.3116  1.3077  0.4430
 1479SOL     OW16069   0.689   1.037  14.161 -0.3690  0.1308 -0.2374
 1479SOL    HW116070   0.657   0.949  14.139  0.3343 -0.2826  0.4025
 1479SOL    HW216071   0.763   1.022  14.221 -0.2826 -0.8193 -0.5870
 1480SOL     OW16072   2.101   1.198   0.659 -0.2593  0.0499 -0.4174
 1480SOL    HW116073   2.130   1.149   0.736 -0.1265 -0.4119 -0.7582
 1480SOL    HW216074   2.088   1.130   0.592 -2.2406  0.9689 -0.9616
 1481SOL     OW16075   0.661   2.717   1.799 -0.0419  0.5700  0.7982
 1481SOL    HW116076   0.755   2.701   1.813 -0.4796 -0.3155  2.6448
 1481SOL    HW216077   0.649   2.754   1.886 -2.8464  0.0859  0.6062
 1482SOL     OW16078   3.864   0.409   8.946 -0.0378  0.0349 -0.1920
 1482SOL    HW116079   3.780   0.455   8.946  0.9005  1.7320 -0.6372
 1482SOL    HW216080   3.913   0.481   8.907  0.8094  0.2387  1.2673
 1483SOL     OW16081   1.249   2.064   2.588 -0.7353  0.3153  0.3445
 1483SOL    HW116082   1.238   1.983   2.638  1.6810 -2.0896 -2.9404
 1483SOL    HW216083   1.164   2.072   2.544 -1.0917 -0.5983  0.8613
 1484SOL     OW16084   1.224   0.483  11.991  0.5088 -0.3180  0.2361
 1484SOL    HW116085   1.266   0.516  12.070 -1.0350  1.2471  0.3874
 1484SOL    HW216086   1.142   0.448  12.025 -0.0952  0.4979 -0.3863
 1485SOL     OW16087   0.245   1.532  16.672  0.5204 -0.2455 -0.0525
 1485SOL    HW116088   0.330   1.571  16.653  0.4612  0.6900  1.6366
 1485SOL    HW216089   0.284   1.456  16.717 -0.4040 -0.7196 -0.0452
 1486SOL     OW16090   3.628   3.610  13.913 -0.1766  0.2667 -0.3973
 1486SOL    HW116091   3.715   3.634  13.947 -0.7889 -0.5434  1.7029
 1486SOL    HW216092   3.573   3.664  13.969 -0.3038 -0.5600  0.2622
 1487SOL     OW16093   1.395   3.030   7.513 -0.3435 -0.4605  0.1869
 1487SOL    HW116094   1.387   2.948   7.464  2.0077 -0.9720  0.6596
 1487SOL    HW216095   1.473   3.007   7.565  1.6031  1.8890 -1.6961
 1488SOL     OW16096   1.193   1.250  15.027  0.0023  0.0629  0.4655
 1488SOL    HW116097   1.188   1.223  15.119 -1.3731  1.3170  0.7640
 1488SOL    HW216098   1.134   1.325  15.025 -1.6929 -1.2148  1.7176
 1489SOL     OW16099   0.841   3.992   9.648  0.5221 -0.4451  0.3414
 1489SOL    HW116100   0.849   3.954   9.735 -0.5300  0.8960  1.0269
 1489SOL    HW216101   0.881   3.927   9.590  1.1750  1.0506 -0.8781
 1490SOL     OW16102   1.720   4.464  14.197 -0.2345 -0.4956  0.4947
 1490SOL    HW116103   1.733   4.400  14.128  0.8289  1.8776 -1.5340
 1490SOL    HW216104   1.796   4.447  14.252  0.5862  0.4256 -0.3513
 1491SOL     OW16105   1.833   0.182   8.215 -0.2150  0.0732 -0.0725
 1491SOL    HW116106   1.746   0.144   8.228 -0.1859  0.4011  1.0920
 1491SOL    HW216107   1.875   0.180   8.301 -0.6156  0.6700  0.1389
 1492SOL     OW16108   3.751   3.324   5.109 -0.4240 -0.0760  0.7181
 1492SOL    HW116109   3.725   3.258   5.044  1.8114 -0.4652  0.2302
 1492SOL    HW216110   3.665   3.350   5.143  0.5156  0.2547  2.8439
 1493SOL     OW16111   3.583   4.080   9.126 -1.0666  0.0493 -0.3944
 1493SOL    HW116112   3.647   4.011   9.116  0.0958  0.9179  1.0643
 1493SOL    HW216113   3.620   4.138   9.192 -2.1332  0.7144 -0.3726
 1494SOL     OW16114   0.604   0.170  17.122  0.2370 -0.1251  0.0388
 1494SOL    HW116115   0.517   0.211  17.119  0.0033 -0.9359 -4.1266
 1494SOL    HW216116   0.643   0.219  17.194 -0.5563  0.4157  0.1079
 1495SOL     OW16117   2.595   3.226   2.258 -0.0151 -0.3630  0.2469
 1495SOL    HW116118   2.532   3.162   2.225 -0.1381 -0.5388  0.8197
 1495SOL    HW216119   2.673   3.205   2.207 -0.0652 -1.9143  0.8085
 1496SOL     OW16120   4.220   1.594   5.188 -0.3543  0.2407  0.1651
 1496SOL    HW116121   4.221   1.514   5.136  0.1990 -0.1556  0.7689
 1496SOL    HW216122   4.133   1.611   5.224 -1.2566 -0.1417 -1.8585
 1497SOL     OW16123   1.261   4.012   5.208 -0.6279 -0.2397 -0.5934
 1497SOL    HW116124   1.293   4.079   5.148 -0.5543  0.7167  0.5132
 1497SOL    HW216125   1.224   4.065   5.279 -0.8461 -0.0326 -0.8585
 1498SOL     OW16126   4.036   0.897   7.184 -0.2615 -0.1251 -0.2582
 1498SOL    HW116127   4.057   0.929   7.097  0.1000  0.7950  0.1687
 1498SOL    HW216128   3.959   0.844   7.164 -0.9951  1.4588 -1.5712
 1499SOL     OW16129   1.675   2.247   3.340  0.1847 -0.5499 -0.1332
 1499SOL    HW116130   1.648   2.272   3.428 -2.3841  1.1181 -1.3884
 1499SOL    HW216131   1.762   2.208   3.343  0.6381  0.4281 -0.6060
 1500SOL     OW16132   2.179   1.213   2.520 -0.3070  0.0671 -0.1718
 1500SOL    HW116133   2.166   1.307   2.536  0.9748  0.6337 -2.4327
 1500SOL    HW216134   2.089   1.183   2.504 -1.0693  0.9268  2.4444
 1501SOL     OW16135   3.253   0.862   7.848 -0.6160  0.1980 -0.3537
 1501SOL    HW116136   3.218   0.843   7.935 -1.6965  3.5876 -0.0537
 1501SOL    HW216137   3.311   0.787   7.835 -0.9166 -0.1025  0.0115
 1502SOL     OW16138   4.473   2.852  11.285  0.3781 -0.1854 -0.0316
 1502SOL    HW116139   4.383   2.883  11.293 -0.0244 -1.4838  0.4653
 1502SOL    HW216140   4.509   2.852  11.374 -1.0514 -0.1719  0.5479
 1503SOL     OW16141   0.468   2.227  17.733  0.1287  0.4464 -0.4702
 1503SOL    HW116142   0.537   2.177  17.688 -0.0975  0.0930 -0.4256
 1503SOL    HW216143   0.389   2.180  17.710  0.4148  0.9082 -2.4102
 1504SOL     OW16144   1.804   0.099   4.047 -0.4496 -0.5508  0.1776
 1504SOL    HW116145   1.797   0.174   3.988  2.7203  0.8136  1.5070
 1504SOL    HW216146   1.714   0.066   4.047 -0.2085 -1.2213  1.1753
 1505SOL     OW16147   4.231   3.226   7.297  0.3409 -0.2113  0.0540
 1505SOL    HW116148   4.183   3.171   7.358  1.4791 -2.5762 -1.1822
 1505SOL    HW216149   4.303   3.177   7.258 -0.9581 -2.0099 -0.1003
 1506SOL     OW16150   2.630   2.524   8.177 -0.5202 -0.6280 -0.3654
 1506SOL    HW116151   2.592   2.611   8.187  0.1640 -0.1328 -2.1641
 1506SOL    HW216152   2.626   2.498   8.269  0.3475 -0.8642 -0.3961
 1507SOL     OW16153   2.212   1.941   3.943  0.1274  0.5156  0.0715
 1507SOL    HW116154   2.136   1.955   3.886  0.2499 -1.4705 -0.5887
 1507SOL    HW216155   2.275   1.910   3.878 -2.3031 -1.5291 -1.3348
 1508SOL     OW16156   0.130   3.079   5.926 -0.1405 -0.2417  0.1178
 1508SOL    HW116157   0.206   3.113   5.973 -0.8570  1.1991  0.2288
 1508SOL    HW216158   0.061   3.145   5.928 -2.0777 -2.3001  0.7604
 1509SOL     OW16159   0.089   4.185  12.199  0.3207 -0.0398  0.0851
 1509SOL    HW116160   0.111   4.113  12.140  0.5098  0.4331 -0.4292
 1509SOL    HW216161   4.732   4.175  12.202  0.4963 -0.7776  2.4895
 1510SOL     OW16162   0.914   1.991   5.270  0.2327  0.3088  0.0565
 1510SOL    HW116163   0.952   1.914   5.314 -0.3426  1.1640  2.0793
 1510SOL    HW216164   0.850   1.948   5.213 -0.7769  1.2232  0.4912
 1511SOL     OW16165   0.423   1.523   1.984  0.3638  0.3335 -0.0042
 1511SOL    HW116166   0.359   1.539   2.053 -0.5455  0.3286 -0.8488
 1511SOL    HW216167   0.391   1.595   1.929 -0.6447 -0.8066 -0.8931
 1512SOL     OW16168   1.284   1.466   2.612 -0.1748  0.1257  0.3105
 1512SOL    HW116169   1.330   1.544   2.582  0.6054 -0.4608 -0.0117
 1512SOL    HW216170   1.352   1.400   2.601  0.1825  0.5106  0.2474
 1513SOL     OW16171   3.551   3.801   4.868 -0.2295  0.3485  0.7434
 1513SOL    HW116172   3.514   3.889   4.865  0.9826  0.7797 -1.5554
 1513SOL    HW216173   3.618   3.818   4.934 -0.1118 -1.0226  0.9760
 1514SOL     OW16174   4.644   1.623   3.052  0.0449 -0.1177 -0.3616
 1514SOL    HW116175   4.568   1.682   3.050 -2.1268 -2.9900 -2.0997
 1514SOL    HW216176   4.604   1.536   3.061 -0.6316  0.2368  0.0447
 1515SOL     OW16177   2.363   4.174   4.610 -0.5148 -0.1189 -0.8463
 1515SOL    HW116178   2.380   4.080   4.612  1.0482  0.1825  0.2166
 1515SOL    HW216179   2.337   4.192   4.700  0.0191  3.4292 -1.4113
 1516SOL     OW16180   2.088   4.053   3.379 -0.3296  0.5718 -0.1680
 1516SOL    HW116181   2.060   4.128   3.432  0.7772  0.1757  0.9652
 1516SOL    HW216182   2.028   4.058   3.304 -0.3587 -2.0114 -0.2882
 1517SOL     OW16183   1.754   3.459  11.198  0.0465 -0.0165 -0.7956
 1517SOL    HW116184   1.734   3.397  11.268 -2.0327 -1.3471 -2.5827
 1517SOL    HW216185   1.763   3.404  11.121 -1.1444  1.8771 -2.2811
 1518SOL     OW16186   3.860   0.700   6.988 -0.0279 -0.4781  0.3319
 1518SOL    HW116187   3.940   0.648   6.992 -0.0414 -0.5676 -0.4713
 1518SOL    HW216188   3.796   0.630   6.978  0.8640 -1.1206 -0.9114
 1519SOL     OW16189   2.582   2.930  14.495 -0.0810 -0.0017 -0.3674
 1519SOL    HW116190   2.630   3.012  14.511 -1.9629  0.9275  0.4565
 1519SOL    HW216191   2.524   2.942  14.570  1.0568  0.0976  0.5094
 1520SOL     OW16192   0.995   4.637   4.527  1.0124  0.3623  0.6273
 1520SOL    HW116193   1.086   4.655   4.506  0.7654  1.3596  0.4113
 1520SOL    HW216194   0.956   4.718   4.558  1.0616 -0.4689  2.8295
 1521SOL     OW16195   4.259   1.719   4.847 -0.0908 -0.1517  0.0673
 1521SOL    HW116196   4.331   1.778   4.822  0.5590 -2.0035 -2.4468
 1521SOL    HW216197   4.315   1.642   4.857  0.4739  0.5593  2.4958
 1522SOL     OW16198   3.661   4.233   9.324 -0.4293  0.1601 -0.1561
 1522SOL    HW116199   3.633   4.310   9.275  2.1349  2.2023  1.6238
 1522SOL    HW216200   3.633   4.260   9.412  2.7412  0.8428  0.6301
 1523SOL     OW16201   1.715   4.671   0.764 -0.0139 -0.1400  0.0174
 1523SOL    HW116202   1.705   0.027   0.757  0.1136 -0.1283  0.0041
 1523SOL    HW216203   1.638   4.637   0.718 -0.2828  0.2556  0.1729
 1524SOL     OW16204   2.963   1.036   3.092  0.9153 -0.5978 -0.3220
 1524SOL    HW116205   2.979   1.122   3.054 -1.2590  0.1792  0.5026
 1524SOL    HW216206   2.868   1.024   3.095  1.1152 -1.6749  1.9138
 1525SOL     OW16207   2.625   4.633   5.832 -0.2677  0.0176  0.1895
 1525SOL    HW116208   2.614   4.612   5.924 -0.8093 -2.0142 -0.3223
 1525SOL    HW216209   2.684   4.709   5.838 -2.1573  1.5278 -0.4434
 1526SOL     OW16210   1.909   3.525   6.433 -0.7518 -0.5886  0.0993
 1526SOL    HW116211   1.901   3.469   6.356 -1.7752 -1.0867  0.5576
 1526SOL    HW216212   1.981   3.495   6.488 -0.9107  0.1875  0.7254
 1527SOL     OW16213   1.320   4.509   5.050  0.4719  0.1770  0.2246
 1527SOL    HW116214   1.241   4.552   5.017  1.1893  1.1743 -0.1986
 1527SOL    HW216215   1.379   4.576   5.017  1.0083 -0.4215 -0.0415
 1528SOL     OW16216   2.417   4.501   1.976 -0.5452  1.3321 -0.6201
 1528SOL    HW116217   2.347   4.539   2.030  0.0939  0.4682  0.8268
 1528SOL    HW216218   2.492   4.536   2.024  0.5626 -1.1559 -0.5691
 1529SOL     OW16219   1.085   1.848   7.309 -0.2726 -0.5558 -1.1530
 1529SOL    HW116220   1.014   1.903   7.275 -0.3755 -0.4392 -0.7530
 1529SOL    HW216221   1.054   1.758   7.306  2.3841 -1.4208 -2.4998
 1530SOL     OW16222   4.241   1.895   4.399 -0.5408 -0.1905 -0.1081
 1530SOL    HW116223   4.178   1.865   4.465 -0.6096  2.3718  1.0053
 1530SOL    HW216224   4.296   1.817   4.394 -0.1464  0.1227 -0.6361
 1531SOL     OW16225   1.296   1.370   3.787  0.2150 -0.2314 -0.3360
 1531SOL    HW116226   1.246   1.450   3.771  0.8141  0.2281  0.0671
 1531SOL    HW216227   1.253   1.297   3.743 -1.4826  1.4544 -1.4929
 1532SOL     OW16228   0.988   3.813   2.187  0.7119 -0.4517  0.5414
 1532SOL    HW116229   1.059   3.775   2.237  0.7980 -1.2631 -0.2027
 1532SOL    HW216230   0.983   3.887   2.248  1.8090 -1.4829  1.8543
 1533SOL     OW16231   3.684   3.360  15.588 -0.1328 -0.0404 -0.0423
 1533SOL    HW116232   3.709   3.320  15.504  2.3292 -0.1078  0.7315
 1533SOL    HW216233   3.719   3.449  15.600 -0.2119 -0.2119  1.4298
 1534SOL     OW16234   4.193   2.019  14.179  0.2088  0.5258  0.2240
 1534SOL    HW116235   4.219   2.033  14.270  0.6515  0.8102  0.0530
 1534SOL    HW216236   4.267   2.041  14.122  0.0986 -1.5671 -0.7340
 1535SOL     OW16237   0.835   3.260   8.888  0.2628 -0.2338 -0.2170
 1535SOL    HW116238   0.798   3.347   8.869  0.1269 -0.2835 -0.1756
 1535SOL    HW216239   0.889   3.243   8.810 -0.1995 -2.1680 -0.1087
 1536SOL     OW16240   1.511   4.631   0.559 -0.3187 -0.6434  0.3836
 1536SOL    HW116241   1.417   4.651   0.564 -0.1053  0.5285 -0.2775
 1536SOL    HW216242   1.555   4.716   0.565 -1.3612  0.0214 -1.0842
 1537SOL     OW16243   4.706   0.441   9.212  0.2183  0.4092 -0.0360
 1537SOL    HW116244   4.690   0.350   9.238  0.1580  0.0563 -1.3203
 1537SOL    HW216245   0.008   0.478   9.291  1.5949 -2.3858  0.5454
 1538SOL     OW16246   1.634   1.982  10.334  0.2908  0.2053 -0.0291
 1538SOL    HW116247   1.614   2.065  10.291 -1.6099  0.3077  1.0628
 1538SOL    HW216248   1.568   1.986  10.403  2.3744  2.1435  1.8849
 1539SOL     OW16249   0.574   2.541   5.030  0.3713 -0.8784  0.0259
 1539SOL    HW116250   0.495   2.573   5.072  0.1608 -0.3366 -0.7886
 1539SOL    HW216251   0.622   2.505   5.105  1.9868 -0.3824 -0.7522
 1540SOL     OW16252   0.677   2.960   7.278 -0.1146  0.0253  0.4551
 1540SOL    HW116253   0.709   2.879   7.237  0.5384  0.5949 -0.1523
 1540SOL    HW216254   0.755   3.015   7.281  1.9194 -2.8730  0.2240
 1541SOL     OW16255   0.190   4.033  11.012 -0.5264  0.3054  0.4589
 1541SOL    HW116256   0.155   4.078  10.935  0.5312 -1.1664 -0.8818
 1541SOL    HW216257   0.115   3.995  11.058 -0.9275  0.5438  0.0051
 1542SOL     OW16258   2.617   0.288   4.640  0.0187 -0.2132  0.3855
 1542SOL    HW116259   2.708   0.314   4.654 -0.1029  0.4757 -0.0867
 1542SOL    HW216260   2.614   0.230   4.564  2.5255 -0.7062  0.6543
 1543SOL     OW16261   1.625   1.099   5.453 -0.2244  0.5554 -0.5002
 1543SOL    HW116262   1.642   1.024   5.510 -1.8142  0.6969  0.1437
 1543SOL    HW216263   1.675   1.168   5.496 -2.1211  0.5097  1.7493
 1544SOL     OW16264   2.712   3.030   3.059  0.1195  0.2150  0.2092
 1544SOL    HW116265   2.624   3.066   3.052  0.7798  1.6764 -0.5447
 1544SOL    HW216266   2.754   3.106   3.099 -0.4966  0.2088  0.8446
 1545SOL     OW16267   4.670   4.478   3.169  0.3244 -0.7924 -0.5404
 1545SOL    HW116268   4.609   4.408   3.192 -1.5190  1.2071  0.6684
 1545SOL    HW216269   0.003   4.458   3.228 -0.8730 -0.5498  0.9804
 1546SOL     OW16270   1.296   0.895  15.978  0.1229 -0.3260  0.2797
 1546SOL    HW116271   1.262   0.973  16.022 -2.2984 -0.8701 -0.5888
 1546SOL    HW216272   1.339   0.939  15.905  0.6077 -0.8462  0.2533
 1547SOL     OW16273   3.488   3.543  13.682  0.1248  0.0390 -0.1287
 1547SOL    HW116274   3.532   3.615  13.637  0.2870 -2.4914 -4.0888
 1547SOL    HW216275   3.535   3.547  13.765  0.6317  0.9699 -0.4572
 1548SOL     OW16276   0.551   4.343  10.752  0.1813  0.5865  0.0399
 1548SOL    HW116277   0.484   4.352  10.820 -0.6420  0.4137 -0.7582
 1548SOL    HW216278   0.522   4.262  10.711 -2.3564 -0.6431  4.2652
 1549SOL     OW16279   4.736   4.658   6.028  0.7664 -0.4471 -0.5337
 1549SOL    HW116280   0.022   0.001   6.073  1.2628 -1.3224  0.7848
 1549SOL    HW216281   0.062   4.595   6.058 -1.7881 -1.8201  2.0972
 1550SOL     OW16282   2.673   3.718   9.744 -0.3036 -0.6940  0.1547
 1550SOL    HW116283   2.692   3.791   9.685  0.1258 -0.9896 -0.0780
 1550SOL    HW216284   2.603   3.758   9.795 -0.2042 -1.2907  0.7568
 1551SOL     OW16285   4.469   1.909  15.592  0.7456 -0.2975  0.0596
 1551SOL    HW116286   4.388   1.921  15.542  0.3673 -1.7049  0.3435
 1551SOL    HW216287   4.514   1.857  15.525  0.3150 -3.1807  2.0297
 1552SOL     OW16288   1.430   1.454  17.312 -0.3447  0.0345 -0.0478
 1552SOL    HW116289   1.361   1.477  17.250 -1.5936 -0.8073  1.0208
 1552SOL    HW216290   1.455   1.372  17.270  2.2696 -0.4707  2.4563
 1553SOL     OW16291   0.942   2.757   2.342 -0.1953  0.8130 -0.5714
 1553SOL    HW116292   0.856   2.796   2.354 -0.0669  0.9764 -0.1879
 1553SOL    HW216293   0.943   2.688   2.408 -0.6604  1.8566  0.5254
 1554SOL     OW16294   2.681   1.772   0.093  0.3791 -0.0155  0.2452
 1554SOL    HW116295   2.589   1.748   0.105 -0.4504  2.8444 -0.2087
 1554SOL    HW216296   2.695   1.770   0.188  0.1591 -0.7711  0.2586
 1555SOL     OW16297   0.872   2.702   3.380 -0.1331 -0.7921 -0.6822
 1555SOL    HW116298   0.777   2.713   3.385  0.1253  0.4785  1.5361
 1555SOL    HW216299   0.892   2.728   3.290 -0.6285  1.0144 -0.2713
 1556SOL     OW16300   1.773   1.577  11.961  0.0217 -0.5412  0.2177
 1556SOL    HW116301   1.692   1.537  11.994 -0.9687  0.9225 -0.4407
 1556SOL    HW216302   1.813   1.596  12.047  0.9439  0.1546 -0.3673
 1557SOL     OW16303   4.315   3.269  17.174  0.5948  0.0164  0.7844
 1557SOL    HW116304   4.290   3.180  17.147  0.7288  0.5032 -0.9298
 1557SOL    HW216305   4.406   3.255  17.150  0.3460 -0.0111 -0.1210
 1558SOL     OW16306   4.646   4.399  15.870  0.6491 -0.5515 -0.3736
 1558SOL    HW116307   4.648   4.377  15.963 -2.3779 -0.6549 -0.3319
 1558SOL    HW216308   4.714   4.464  15.855  0.9422 -0.7677  0.0282
 1559SOL     OW16309   4.353   2.779  12.821  0.4184 -0.1474  0.6434
 1559SOL    HW116310   4.308   2.709  12.774  1.8402 -0.1374 -0.6996
 1559SOL    HW216311   4.444   2.751  12.820  0.0500 -1.4237  1.7338
 1560SOL     OW16312   3.697   3.904  11.014  0.6202 -0.0703 -0.5257
 1560SOL    HW116313   3.669   3.828  11.065 -0.2401 -0.4065 -1.4902
 1560SOL    HW216314   3.731   3.856  10.939 -2.0354 -0.7199 -1.3347
 1561SOL     OW16315   4.444   0.792  15.408  0.2850  0.3180 -0.2007
 1561SOL    HW116316   4.406   0.737  15.339  1.3525 -0.0213 -0.5239
 1561SOL    HW216317   4.532   0.754  15.412 -0.2332 -0.8414  0.2248
 1562SOL     OW16318   3.165   4.586   1.976 -0.1190  0.0006 -0.4977
 1562SOL    HW116319   3.244   4.614   1.929 -0.1167 -0.9169 -1.0418
 1562SOL    HW216320   3.207   4.562   2.059 -0.1799  0.8688 -0.2131
 1563SOL     OW16321   3.725   1.824   9.464 -0.4532 -0.4174 -0.0735
 1563SOL    HW116322   3.738   1.919   9.467  0.9851 -0.5928 -0.6814
 1563SOL    HW216323   3.810   1.793   9.496  0.5783  2.3255 -0.1238
 1564SOL     OW16324   4.059   3.279  15.059 -0.4127 -0.2679  0.4000
 1564SOL    HW116325   4.058   3.321  15.145 -0.1903 -2.6223  1.5583
 1564SOL    HW216326   4.150   3.255  15.043 -0.4052 -0.3853  0.6190
 1565SOL     OW16327   0.561   0.406   4.199 -0.5961  0.7232  0.4915
 1565SOL    HW116328   0.545   0.423   4.106 -1.2111  0.4640  0.5527
 1565SOL    HW216329   0.577   0.490   4.242 -0.1271 -0.5783  2.8939
 1566SOL     OW16330   2.177   3.177   7.593  0.8640  0.8892  0.0789
 1566SOL    HW116331   2.097   3.212   7.632  1.8112  0.6379  2.2899
 1566SOL    HW216332   2.204   3.253   7.541  0.1635  1.2616  0.2588
 1567SOL     OW16333   3.135   0.250  11.802 -0.5374  0.5604 -0.1866
 1567SOL    HW116334   3.107   0.235  11.892 -1.3899 -0.9147 -0.6902
 1567SOL    HW216335   3.086   0.186  11.749 -1.6447 -1.5871  3.4316
 1568SOL     OW16336   3.986   2.456   6.975 -0.3892 -0.1170 -0.4736
 1568SOL    HW116337   3.992   2.429   6.883 -0.5638  1.2241 -0.8877
 1568SOL    HW216338   4.070   2.500   6.986 -0.4587 -0.3854  1.0711
 1569SOL     OW16339   4.181   0.925   6.244  0.8461 -0.0475 -0.6886
 1569SOL    HW116340   4.188   0.991   6.313  0.7730  0.1120 -0.8348
 1569SOL    HW216341   4.178   0.977   6.164 -0.6819 -1.7300 -1.7237
 1570SOL     OW16342   1.801   0.984  11.353  0.6484  0.2438 -0.7086
 1570SOL    HW116343   1.871   1.013  11.295 -0.5466  1.7922 -1.3622
 1570SOL    HW216344   1.844   0.917  11.407  2.9731  3.8888  1.9722
 1571SOL     OW16345   2.755   4.307   4.147  0.1338  0.5036  0.5167
 1571SOL    HW116346   2.778   4.282   4.236 -0.8090  0.8621  0.8625
 1571SOL    HW216347   2.811   4.245   4.100 -0.5970 -1.3182  2.0965
 1572SOL     OW16348   3.906   3.131   2.723 -0.0055 -0.5832  0.5614
 1572SOL    HW116349   4.001   3.138   2.712  0.0775 -1.1663  0.9250
 1572SOL    HW216350   3.877   3.169   2.640 -1.7801 -3.2007 -0.0234
 1573SOL     OW16351   3.360   2.356   7.194 -0.2201  0.2439 -0.4200
 1573SOL    HW116352   3.398   2.335   7.109  0.2664 -1.8236  0.3225
 1573SOL    HW216353   3.303   2.430   7.170 -3.5817 -1.4903  2.2162
 1574SOL     OW16354   4.488   2.919   7.483 -0.3563 -0.3122 -0.0834
 1574SOL    HW116355   4.576   2.947   7.507 -0.1224 -1.1904  0.0865
 1574SOL    HW216356   4.435   2.935   7.561  0.5734  0.3251  0.4122
 1575SOL     OW16357   4.446   4.399   3.923  0.2661  0.1771  0.5001
 1575SOL    HW116358   4.510   4.448   3.975  1.6494 -0.1406 -0.9156
 1575SOL    HW216359   4.362   4.438   3.949  0.9715  1.0530  1.4478
 1576SOL     OW16360   0.967   4.482   7.072 -0.2271 -0.0129  0.0547
 1576SOL    HW116361   0.892   4.422   7.072 -2.8195  3.2256  0.5631
 1576SOL    HW216362   0.972   4.499   6.978 -1.9265  2.2794  0.3650
 1577SOL     OW16363   0.739   4.398  14.316  0.8289  0.1173  0.2678
 1577SOL    HW116364   0.670   4.439  14.264  1.7792 -1.7768 -2.5313
 1577SOL    HW216365   0.748   4.320  14.262  1.0276  0.3359 -0.0150
 1578SOL     OW16366   3.614   0.503   6.155 -0.0500  0.1089  0.0194
 1578SOL    HW116367   3.545   0.500   6.222 -0.3843  0.8736 -0.2829
 1578SOL    HW216368   3.615   0.598   6.142 -1.0116  0.2656  1.0510
 1579SOL     OW16369   0.174   0.699  12.063 -0.3419 -0.2169 -0.4057
 1579SOL    HW116370   0.230   0.702  11.985 -0.7491 -2.3157 -0.7738
 1579SOL    HW216371   0.119   0.771  12.032  1.6802  0.1293 -3.2177
 1580SOL     OW16372   1.208   2.756   2.814 -0.3559 -0.2751 -0.2606
 1580SOL    HW116373   1.267   2.711   2.754  1.1274  0.0120  1.0034
 1580SOL    HW216374   1.265   2.765   2.890 -0.8984 -0.8862  0.2213
 1581SOL     OW16375   2.255   0.898   8.447  0.1107  0.2709  0.5545
 1581SOL    HW116376   2.280   0.849   8.526 -1.1362 -2.0899 -0.5190
 1581SOL    HW216377   2.303   0.980   8.457  1.6113 -0.0597 -3.7246
 1582SOL     OW16378   2.141   2.291   4.188  0.2005  0.3768  0.0398
 1582SOL    HW116379   2.066   2.270   4.133  0.1251  2.4994 -0.6551
 1582SOL    HW216380   2.124   2.385   4.197 -2.0303 -0.0927  0.7042
 1583SOL     OW16381   3.083   0.339   1.763 -0.1212  0.0290  0.4158
 1583SOL    HW116382   3.086   0.400   1.689  0.8417  1.6904  1.8455
 1583SOL    HW216383   3.170   0.349   1.801 -0.0307 -0.1873  0.2634
 1584SOL     OW16384   2.016   3.171  14.551 -0.4063  0.6514 -0.2663
 1584SOL    HW116385   2.093   3.224  14.574 -1.3461  2.0178 -0.2914
 1584SOL    HW216386   1.973   3.175  14.637 -1.2913  1.4791 -0.7540
 1585SOL     OW16387   4.426   0.766   4.404 -0.3484  0.0827  0.1932
 1585SOL    HW116388   4.471   0.738   4.324 -0.6731  1.0590 -0.3352
 1585SOL    HW216389   4.347   0.713   4.406 -1.1381  1.3453  2.9861
 1586SOL     OW16390   3.234   2.461  17.110  0.3716 -0.2424  0.0243
 1586SOL    HW116391   3.253   2.367  17.121 -1.5339 -0.7908 -1.4414
 1586SOL    HW216392   3.175   2.477  17.183  0.7390  2.5712 -0.2983
 1587SOL     OW16393   0.954   0.304   1.368 -0.0871  0.3347 -0.4733
 1587SOL    HW116394   0.948   0.310   1.463 -0.6758 -0.8374 -0.4367
 1587SOL    HW216395   0.952   0.396   1.343  0.2085  0.8524  1.3943
 1588SOL     OW16396   4.305   0.138   9.479  0.6076  0.2245 -0.2367
 1588SOL    HW116397   4.386   0.092   9.501  0.5808 -0.1615 -0.9582
 1588SOL    HW216398   4.331   0.192   9.405  0.7183  2.8749  1.7713
 1589SOL     OW16399   0.046   4.190   2.887 -0.3606 -0.2869  0.9073
 1589SOL    HW116400   0.132   4.206   2.848 -0.7486 -1.3146 -0.3936
 1589SOL    HW216401   0.057   4.128   2.958 -0.6109 -0.9222  0.3936
 1590SOL     OW16402   4.442   1.863   5.316 -0.5420 -0.3521 -0.1731
 1590SOL    HW116403   4.413   1.836   5.229  2.2565 -0.4523 -1.0826
 1590SOL    HW216404   4.455   1.957   5.303  0.3880 -0.8632 -3.0346
 1591SOL     OW16405   2.786   3.839   5.118  0.2341 -0.2353  0.0331
 1591SOL    HW116406   2.706   3.791   5.141 -0.0136 -0.1513 -0.6459
 1591SOL    HW216407   2.798   3.811   5.027 -0.6851  2.4965 -0.9430
 1592SOL     OW16408   3.257   0.957  15.455 -0.0302  0.1128  0.4147
 1592SOL    HW116409   3.319   0.956  15.383 -0.4946 -0.6996  0.0159
 1592SOL    HW216410   3.318   0.935  15.526  0.4749  1.4023  0.3630
 1593SOL     OW16411   3.885   0.781   1.835 -0.0664  0.2490 -0.5057
 1593SOL    HW116412   3.948   0.731   1.887  1.5858  1.7438 -1.0579
 1593SOL    HW216413   3.898   0.874   1.854 -1.4334 -0.0520  1.9059
 1594SOL     OW16414   4.584   0.535   8.203 -0.0757 -0.3732 -1.0293
 1594SOL    HW116415   4.537   0.455   8.228  0.7773 -0.5034  0.1719
 1594SOL    HW216416   4.556   0.527   8.112 -0.5539  0.6798 -0.9769
 1595SOL     OW16417   1.992   0.332  10.587 -1.0189  0.0617 -0.0838
 1595SOL    HW116418   2.034   0.356  10.504  0.3269 -0.1163  0.5493
 1595SOL    HW216419   1.912   0.381  10.566  0.2255  1.8937 -0.5314
 1596SOL     OW16420   2.725   0.071  14.509  0.2204  0.6266 -0.0295
 1596SOL    HW116421   2.669   0.012  14.558  1.3349 -0.9857 -0.6936
 1596SOL    HW216422   2.771   0.107  14.585  1.2307 -0.1209 -0.2854
 1597SOL     OW16423   2.912   0.471  16.162  0.4172 -0.0233 -0.4271
 1597SOL    HW116424   2.945   0.470  16.251  0.7866 -0.0628 -0.5631
 1597SOL    HW216425   2.841   0.406  16.155 -1.9677  2.3548  1.7617
 1598SOL     OW16426   4.157   0.334   6.571 -0.3229 -0.1704 -0.2744
 1598SOL    HW116427   4.230   0.376   6.525  1.5102  0.3441  3.0628
 1598SOL    HW216428   4.103   0.404   6.609 -1.3793 -1.3430  0.3912
 1599SOL     OW16429   1.358   3.947   0.260 -0.0541 -0.2237  0.8131
 1599SOL    HW116430   1.275   3.916   0.227 -0.4079  1.7457 -0.1764
 1599SOL    HW216431   1.350   3.912   0.349 -2.9410 -1.5467  0.0172
 1600SOL     OW16432   3.573   2.392   1.916  0.4473 -0.1695 -0.0311
 1600SOL    HW116433   3.497   2.389   1.858  0.1120  2.1437  0.2891
 1600SOL    HW216434   3.589   2.486   1.913 -1.9566  0.2612  0.5358
 1601SOL     OW16435   3.265   1.881   7.007  0.3999  0.1469  0.2800
 1601SOL    HW116436   3.284   1.788   7.013 -1.1441 -0.0972  1.4373
 1601SOL    HW216437   3.353   1.919   7.011  0.0902  0.7498  1.6380
 1602SOL     OW16438   4.042   1.182   8.955  0.2736 -0.1255 -0.1485
 1602SOL    HW116439   3.971   1.245   8.970  0.3666 -0.3681  1.2484
 1602SOL    HW216440   4.088   1.179   9.038 -1.5913  2.0578  0.9802
 1603SOL     OW16441   3.294   2.343   6.543 -0.3595  0.4643 -0.5592
 1603SOL    HW116442   3.341   2.330   6.625  0.7156 -0.9460 -1.3926
 1603SOL    HW216443   3.212   2.295   6.555  0.8032 -1.0870  1.1712
 1604SOL     OW16444   3.619   1.905   6.216 -0.0933  0.1560  0.0297
 1604SOL    HW116445   3.603   1.992   6.253  0.5554  0.0595  0.5266
 1604SOL    HW216446   3.539   1.899   6.164  0.8293  0.4638 -1.4384
 1605SOL     OW16447   0.546   2.183   4.990  0.1992 -0.2930  0.5792
 1605SOL    HW116448   0.538   2.129   5.069  0.6582 -1.0146  0.1413
 1605SOL    HW216449   0.503   2.115   4.937  1.9761 -0.9651 -0.0185
 1606SOL     OW16450   0.811   2.773   7.089 -0.2348 -0.0798  0.2613
 1606SOL    HW116451   0.895   2.810   7.062  0.2478 -1.5593 -0.2294
 1606SOL    HW216452   0.832   2.680   7.097 -0.8272 -0.3619 -1.3922
 1607SOL     OW16453   2.882   4.130   5.497  0.5256  0.0391 -0.5711
 1607SOL    HW116454   2.885   4.040   5.529 -3.2425 -0.2315 -0.8811
 1607SOL    HW216455   2.844   4.114   5.411 -1.9176  1.2533  0.2813
 1608SOL     OW16456   2.792   2.705   0.109  0.2115 -0.3277 -0.1394
 1608SOL    HW116457   2.702   2.738   0.112  0.6344  0.3780  3.5941
 1608SOL    HW216458   2.795   2.641   0.180 -0.8771 -1.4541 -1.0945
 1609SOL     OW16459   1.763   2.889   8.431 -0.2114  0.6186  0.1170
 1609SOL    HW116460   1.847   2.924   8.402  1.1032 -0.9292  2.1180
 1609SOL    HW216461   1.703   2.949   8.386  2.2878  2.3116 -0.9612
 1610SOL     OW16462   2.011   0.133   2.502  0.6179  0.3746 -0.1540
 1610SOL    HW116463   2.096   0.176   2.514  1.0207 -1.0220  2.1681
 1610SOL    HW216464   2.017   0.060   2.564  0.6249  1.4288  1.0827
 1611SOL     OW16465   4.639   2.605   3.720 -0.3047  0.2310 -0.0677
 1611SOL    HW116466   4.728   2.622   3.750 -0.1300 -0.1955 -0.3461
 1611SOL    HW216467   4.608   2.549   3.791 -0.9606 -0.5422 -0.9576
 1612SOL     OW16468   3.155   2.187   1.549  0.3346  0.2226  0.1093
 1612SOL    HW116469   3.171   2.205   1.456  2.8922 -1.4679  0.2053
 1612SOL    HW216470   3.110   2.262   1.587 -1.3251  0.6702 -2.7817
 1613SOL     OW16471   3.093   4.045   6.402 -0.3234  0.0530 -0.5179
 1613SOL    HW116472   3.083   3.990   6.325  2.1372 -1.3445  0.1725
 1613SOL    HW216473   3.099   3.986   6.477 -0.1234  0.8576  0.0973
 1614SOL     OW16474   1.074   1.349   1.250  0.6946 -0.0764  0.4985
 1614SOL    HW116475   1.030   1.431   1.228 -0.4005 -0.8275 -0.1015
 1614SOL    HW216476   1.008   1.311   1.307 -1.8017  1.7176 -1.1793
 1615SOL     OW16477   4.410   4.093   4.221  0.6853  0.0789  0.0562
 1615SOL    HW116478   4.400   4.184   4.250  2.4171  0.4573 -0.5367
 1615SOL    HW216479   4.452   4.103   4.135  0.7907  1.7424  0.2945
 1616SOL     OW16480   0.264   3.701   8.039 -0.4827  0.0423  0.6994
 1616SOL    HW116481   0.172   3.703   8.066 -0.7264 -0.5098 -0.0799
 1616SOL    HW216482   0.254   3.736   7.950  0.4987 -1.5011 -0.0152
 1617SOL     OW16483   3.927   1.774   6.996  0.4549  0.0895  0.1849
 1617SOL    HW116484   3.935   1.853   7.050  1.5992  0.2895 -0.2681
 1617SOL    HW216485   3.843   1.732   7.014 -0.4284  0.6740 -2.5798
 1618SOL     OW16486   3.475   2.757   6.209  0.2468  0.4739  0.2818
 1618SOL    HW116487   3.440   2.840   6.176  1.9185  1.0715 -0.0124
 1618SOL    HW216488   3.425   2.694   6.159 -1.1587  1.7856  0.0418
 1619SOL     OW16489   3.725   2.546   7.206 -0.5377 -0.0667  0.6638
 1619SOL    HW116490   3.769   2.628   7.181  1.5299 -0.9979  1.3097
 1619SOL    HW216491   3.634   2.572   7.189  0.1154  1.5846 -0.3806
 1620SOL     OW16492   1.302   1.670   8.513  0.7308 -0.6986 -0.2890
 1620SOL    HW116493   1.289   1.731   8.440 -0.4474 -0.1480  0.3871
 1620SOL    HW216494   1.279   1.733   8.581 -1.4230 -1.3564 -0.4125
 1621SOL     OW16495   3.907   3.100   4.576  0.2381 -0.6940  0.5641
 1621SOL    HW116496   3.973   3.031   4.577  0.2170 -0.7299  0.0141
 1621SOL    HW216497   3.973   3.165   4.600  0.2045  0.5793 -2.6898
 1622SOL     OW16498   3.139   2.040   2.847 -0.4201 -0.5798  0.3135
 1622SOL    HW116499   3.187   2.059   2.928  1.3018 -0.8111 -0.6428
 1622SOL    HW216500   3.145   2.123   2.802 -2.5570 -0.0623  0.9722
 1623SOL     OW16501   3.206   2.977   8.510  0.3515  0.2663  0.1067
 1623SOL    HW116502   3.189   2.929   8.591  1.6459 -2.9156 -1.5039
 1623SOL    HW216503   3.293   3.011   8.534  1.1239 -1.5491 -0.1191
 1624SOL     OW16504   3.722   0.722  10.884  0.5112 -0.0736  0.1283
 1624SOL    HW116505   3.778   0.671  10.826  0.2385  0.8207 -0.9201
 1624SOL    HW216506   3.661   0.649  10.896 -3.0427  2.6296 -1.6868
 1625SOL     OW16507   1.962   0.815   7.868 -0.3913 -0.2420  0.2522
 1625SOL    HW116508   2.052   0.793   7.887 -0.4508 -0.5264  0.1998
 1625SOL    HW216509   1.961   0.828   7.773 -0.3348  1.4590  0.4810
 1626SOL     OW16510   1.318   3.897  17.613 -0.2070 -0.3038 -0.4762
 1626SOL    HW116511   1.301   3.967  17.676  1.8784 -1.7118  1.6940
 1626SOL    HW216512   1.258   3.826  17.638 -0.0599  1.1490  3.9570
 1627SOL     OW16513   4.546   1.888   6.571  0.2907  0.0148 -0.1639
 1627SOL    HW116514   4.578   1.932   6.492 -1.0537 -1.0853 -1.3159
 1627SOL    HW216515   4.633   1.883   6.611  0.7087 -2.0962 -1.3439
 1628SOL     OW16516   0.456   2.422   8.883 -0.5380 -0.4209  0.0718
 1628SOL    HW116517   0.538   2.449   8.924  0.0453 -1.7395 -0.2231
 1628SOL    HW216518   0.422   2.510   8.903 -0.0678 -0.1454 -0.3386
 1629SOL     OW16519   0.554   4.094   2.975  0.0357 -0.0942 -0.0710
 1629SOL    HW116520   0.521   4.180   2.951 -1.0392 -0.8889 -1.3993
 1629SOL    HW216521   0.477   4.050   3.009  0.8996 -1.6293 -0.0785
 1630SOL     OW16522   2.108   3.673   1.592 -0.2084  0.4543  0.0872
 1630SOL    HW116523   2.071   3.675   1.680  1.8662  0.9132  0.9438
 1630SOL    HW216524   2.173   3.607   1.613  0.3440  0.9787  0.0130
 1631SOL     OW16525   1.360   3.234  17.608 -0.3748 -0.1151  0.5477
 1631SOL    HW116526   1.366   3.239  17.703 -1.4194  3.2146  0.4362
 1631SOL    HW216527   1.400   3.318  17.586 -1.0336  0.1456  0.3326
 1632SOL     OW16528   2.308   0.688   1.707 -0.6017 -0.2218 -0.1368
 1632SOL    HW116529   2.394   0.649   1.690  0.0083  0.1796  2.0306
 1632SOL    HW216530   2.252   0.633   1.652  0.1151 -0.9363 -0.1568
 1633SOL     OW16531   0.527   2.466   6.553 -0.1541 -0.4837 -0.6262
 1633SOL    HW116532   0.575   2.389   6.522 -3.4221 -3.1121  0.8937
 1633SOL    HW216533   0.469   2.480   6.479 -0.9882  2.4131  0.5427
 1634SOL     OW16534   0.523   0.847   7.512  0.2735 -0.4277 -0.1517
 1634SOL    HW116535   0.596   0.861   7.452  0.5916  0.5835  0.4654
 1634SOL    HW216536   0.495   0.761   7.481 -0.3480 -0.9354  1.8139
 1635SOL     OW16537   2.519   0.146   1.903  0.1184 -0.0236  0.4037
 1635SOL    HW116538   2.559   0.060   1.892 -0.4816 -0.4842  1.9193
 1635SOL    HW216539   2.554   0.197   1.830  0.4593 -0.5266  0.2165
 1636SOL     OW16540   1.666   3.045   0.145  0.8006  0.3332  0.1052
 1636SOL    HW116541   1.705   3.021   0.062 -0.2229 -2.0080  0.2972
 1636SOL    HW216542   1.573   3.045   0.121  0.7461 -0.7949  0.3374
 1637SOL     OW16543   3.794   4.395   6.114 -0.1557 -0.5895  0.3942
 1637SOL    HW116544   3.699   4.400   6.101  0.2476 -0.4334 -2.5686
 1637SOL    HW216545   3.789   4.396   6.210 -0.6375  1.4297  0.3363
 1638SOL     OW16546   1.334   3.705   8.311 -0.2109  0.2784 -0.0638
 1638SOL    HW116547   1.427   3.685   8.324 -0.1627  0.3420 -0.3162
 1638SOL    HW216548   1.290   3.650   8.375 -0.9344 -0.2223 -0.9864
 1639SOL     OW16549   3.345   1.838   9.189  0.3555  0.6848  0.4278
 1639SOL    HW116550   3.430   1.874   9.165 -0.8237  3.1149 -0.0823
 1639SOL    HW216551   3.367   1.769   9.252 -3.0927  0.5214  1.4546
 1640SOL     OW16552   3.733   1.774   5.410 -0.4839 -0.3802 -0.2225
 1640SOL    HW116553   3.734   1.860   5.451 -0.4120 -1.4482  1.9887
 1640SOL    HW216554   3.758   1.710   5.477 -0.0220  0.2923  0.2409
 1641SOL     OW16555   0.846   0.607   1.746 -0.2604 -0.4522  0.2065
 1641SOL    HW116556   0.800   0.539   1.696 -0.4220  0.8206 -1.3760
 1641SOL    HW216557   0.772   0.663   1.768  0.6908  0.9570 -0.1720
 1642SOL     OW16558   0.706   4.652  17.181  0.3677  0.1636 -0.0275
 1642SOL    HW116559   0.792   4.687  17.201  0.8654 -0.8957 -0.3300
 1642SOL    HW216560   0.663   4.731  17.148 -2.4887 -1.3445  0.0425
 1643SOL     OW16561   1.631   3.526  13.084 -0.0982  0.1378  0.1090
 1643SOL    HW116562   1.569   3.457  13.059 -0.3369  0.9248 -1.4869
 1643SOL    HW216563   1.639   3.511  13.178 -3.8648 -2.2059  0.0779
 1644SOL     OW16564   1.379   3.809   4.763  0.1908  0.0310  0.3586
 1644SOL    HW116565   1.430   3.812   4.682 -1.1671 -2.9654 -0.6027
 1644SOL    HW216566   1.315   3.751   4.721  1.9099 -1.6779  0.1065
 1645SOL     OW16567   1.072   2.092   3.774  0.0327 -0.4989 -0.1858
 1645SOL    HW116568   1.054   2.151   3.701 -0.1771  0.4686  0.6446
 1645SOL    HW216569   1.108   2.145   3.845 -0.8298  1.4182 -1.1760
 1646SOL     OW16570   3.890   2.793   2.952 -0.1527  0.1717 -0.0884
 1646SOL    HW116571   3.808   2.747   2.931  0.1702 -0.4421 -0.0002
 1646SOL    HW216572   3.896   2.767   3.044 -0.3656  0.1052 -0.0926
 1647SOL     OW16573   1.572   2.704   8.730  0.3991  0.0152  0.4629
 1647SOL    HW116574   1.537   2.618   8.709  1.6379 -0.1222 -1.0406
 1647SOL    HW216575   1.525   2.762   8.670 -1.0566 -0.1460  1.4688
 1648SOL     OW16576   0.588   0.222  16.124  0.2916 -0.3904 -0.3463
 1648SOL    HW116577   0.508   0.270  16.102 -0.1749 -0.8675  0.3149
 1648SOL    HW216578   0.586   0.232  16.219  3.4660  1.3826 -0.4593
 1649SOL     OW16579   2.454   0.677   3.458 -0.4146 -0.0036  0.8163
 1649SOL    HW116580   2.365   0.698   3.484 -1.6804 -1.6119 -2.2302
 1649SOL    HW216581   2.479   0.628   3.536  2.1957 -2.8784 -1.8351
 1650SOL     OW16582   3.162   0.544   8.017 -0.5370 -0.3991  0.3294
 1650SOL    HW116583   3.135   0.634   8.030 -2.7684 -1.1874  1.0727
 1650SOL    HW216584   3.218   0.515   8.090 -1.3614  0.1728  1.1837
 1651SOL     OW16585   3.623   2.748  11.609 -0.3001 -0.0762 -0.1185
 1651SOL    HW116586   3.663   2.736  11.695  0.1113  1.6560 -0.0692
 1651SOL    HW216587   3.580   2.833  11.617 -0.4901 -0.1003 -0.8887
 1652SOL     OW16588   3.458   2.191   0.692 -0.2965 -0.4616 -0.4038
 1652SOL    HW116589   3.400   2.206   0.617  1.3408 -1.1851 -1.7982
 1652SOL    HW216590   3.507   2.113   0.666  0.3242 -0.4734  0.8248
 1653SOL     OW16591   1.513   1.560   3.219  0.4243  0.2385  0.2035
 1653SOL    HW116592   1.458   1.482   3.218  1.2315 -0.3287 -0.1991
 1653SOL    HW216593   1.454   1.630   3.191 -0.9656 -1.0211 -0.0186
 1654SOL     OW16594   2.448   2.210  15.170  0.4094  1.1475 -0.2775
 1654SOL    HW116595   2.518   2.212  15.105  0.5431 -0.8642 -0.1846
 1654SOL    HW216596   2.370   2.227  15.117 -1.2198  0.6541  1.9653
 1655SOL     OW16597   3.492   0.018   0.214  0.1787  0.2799 -0.4827
 1655SOL    HW116598   3.516   0.086   0.151  0.0548  2.5942  2.0053
 1655SOL    HW216599   3.579   4.733   0.245  0.5111  1.0579 -0.8437
 1656SOL     OW16600   0.641   0.332   8.424  0.4948  0.0850 -0.9230
 1656SOL    HW116601   0.731   0.301   8.432  0.8399  1.4297  0.2867
 1656SOL    HW216602   0.652   0.424   8.445 -0.6671  0.2079 -0.8486
 1657SOL     OW16603   1.202   0.157   6.783 -0.3157 -0.2587 -0.5004
 1657SOL    HW116604   1.144   0.232   6.766  0.2358 -0.3252 -2.6294
 1657SOL    HW216605   1.283   0.180   6.738  0.1255  0.5244  0.7077
 1658SOL     OW16606   4.110   3.018  11.744  0.1993 -0.0418  0.2385
 1658SOL    HW116607   4.174   3.004  11.674 -0.6445  0.4478 -0.6272
 1658SOL    HW216608   4.030   3.044  11.700 -0.8755 -2.5138  0.7520
 1659SOL     OW16609   1.621   0.066   7.159  0.2695 -0.0397  0.0528
 1659SOL    HW116610   1.549   0.020   7.203 -0.8511  0.0018 -1.7701
 1659SOL    HW216611   1.575   0.137   7.116 -1.1091  0.1825  1.9269
 1660SOL     OW16612   4.590   0.015   8.856 -0.6623 -0.6517  0.6216
 1660SOL    HW116613   4.668   4.698   8.852  1.2264  2.1940 -2.3459
 1660SOL    HW216614   4.605   0.083   8.921 -0.0166  0.9426 -1.1921
 1661SOL     OW16615   1.822   0.972  17.247 -0.5240 -0.2772  0.5785
 1661SOL    HW116616   1.804   0.960  17.340  0.4708 -1.0584  0.6700
 1661SOL    HW216617   1.790   1.061  17.235 -0.7614 -0.1869  1.9426
 1662SOL     OW16618   1.691   1.842   6.880  0.1312 -0.1630  0.1916
 1662SOL    HW116619   1.753   1.771   6.863 -0.7500 -1.0582  0.6683
 1662SOL    HW216620   1.613   1.788   6.866  1.2818 -1.7192 -0.1540
 1663SOL     OW16621   3.806   4.011   3.261  0.1841  0.7615 -0.3960
 1663SOL    HW116622   3.797   4.078   3.329 -0.1017  0.7056 -0.3784
 1663SOL    HW216623   3.778   4.056   3.182  2.3689 -1.4644 -2.4425
 1664SOL     OW16624   4.295   0.868   9.212  0.2397 -0.2070 -0.3927
 1664SOL    HW116625   4.323   0.938   9.270 -2.1146  1.8406 -1.7391
 1664SOL    HW216626   4.339   0.902   9.134  0.3564  0.4205 -0.0516
 1665SOL     OW16627   2.232   0.028   8.199  0.3899 -0.2641 -0.2986
 1665SOL    HW116628   2.268   0.086   8.133  0.1937  0.2132  0.0142
 1665SOL    HW216629   2.303   4.703   8.203 -2.5602 -3.6256 -1.4236
 1666SOL     OW16630   3.998   0.135  15.810  0.2716  0.1314 -0.3311
 1666SOL    HW116631   4.052   0.154  15.733 -0.2834 -1.5599 -1.1516
 1666SOL    HW216632   4.048   0.184  15.875 -2.6652 -0.4295  2.3097
 1667SOL     OW16633   4.679   2.172  15.039  0.1958  0.2772 -0.4994
 1667SOL    HW116634   4.682   2.182  15.134 -0.2077 -1.2780 -0.3281
 1667SOL    HW216635   0.018   2.117  15.029 -0.6664 -1.2472  1.3463
 1668SOL     OW16636   3.164   4.268   9.218 -0.1423  0.0380  0.1466
 1668SOL    HW116637   3.141   4.359   9.203 -1.0146  0.1442  2.0276
 1668SOL    HW216638   3.211   4.277   9.301 -0.4841 -2.1309  0.5875
 1669SOL     OW16639   2.548   2.728   2.391  0.6003  0.0201 -0.2346
 1669SOL    HW116640   2.643   2.742   2.391  0.5115  0.6755  1.1213
 1669SOL    HW216641   2.523   2.741   2.483 -0.3421 -0.8387 -0.3791
 1670SOL     OW16642   2.015   4.230   9.492  0.0050  0.2351 -0.6511
 1670SOL    HW116643   1.948   4.285   9.532 -0.5237 -0.6038 -0.3742
 1670SOL    HW216644   2.075   4.217   9.566  0.9602 -0.3742 -1.5332
 1671SOL     OW16645   0.128   3.133   1.220 -0.1282 -0.1303  0.2468
 1671SOL    HW116646   0.076   3.188   1.160  0.2306  1.4948  1.4338
 1671SOL    HW216647   0.198   3.104   1.162 -0.7811 -0.3187 -0.4561
 1672SOL     OW16648   4.632   0.926   4.478  0.4180  0.3501  0.2506
 1672SOL    HW116649   4.610   1.007   4.431 -1.3176 -1.4796 -2.1253
 1672SOL    HW216650   4.548   0.885   4.458  1.4673 -0.9807 -1.4795
 1673SOL     OW16651   0.541   3.171   4.014 -0.4127  0.5078  0.1153
 1673SOL    HW116652   0.509   3.260   3.997 -1.7925 -0.2813 -1.4165
 1673SOL    HW216653   0.541   3.163   4.109  3.1120 -0.6903  0.0132
 1674SOL     OW16654   1.742   3.465   3.822 -0.3355  0.9106 -0.6577
 1674SOL    HW116655   1.812   3.402   3.840 -0.1643  1.3154  0.0857
 1674SOL    HW216656   1.709   3.451   3.733  1.8882 -0.9506 -1.1924
 1675SOL     OW16657   1.121   1.207   8.426  0.2607  0.3208  0.4987
 1675SOL    HW116658   1.108   1.301   8.434 -0.5792  0.0989  1.6399
 1675SOL    HW216659   1.214   1.209   8.401  0.0942  0.7308 -0.0947
 1676SOL     OW16660   0.373   3.224   5.009  0.2707  0.4670 -0.3292
 1676SOL    HW116661   0.294   3.178   5.038  2.0898 -1.4351  1.5783
 1676SOL    HW216662   0.340   3.244   4.921  1.7984  0.8334 -0.8176
 1677SOL     OW16663   2.077   1.525  17.077  0.3101 -0.8031  0.4136
 1677SOL    HW116664   2.143   1.514  17.008 -0.9676  2.2277 -1.2746
 1677SOL    HW216665   2.111   1.595  17.132  1.5689  0.4043 -1.8893
 1678SOL     OW16666   0.447   0.788   8.485 -0.3953  0.2379 -0.1667
 1678SOL    HW116667   0.364   0.820   8.450  0.2751 -2.1401 -3.9707
 1678SOL    HW216668   0.467   0.732   8.409 -2.1351 -0.3610 -0.1865
 1679SOL     OW16669   0.421   3.821  14.515  0.1108 -0.1041 -0.2953
 1679SOL    HW116670   0.447   3.751  14.454  1.8405  0.5687 -0.3490
 1679SOL    HW216671   0.498   3.848  14.565  1.7510 -1.7236 -1.9112
 1680SOL     OW16672   1.514   2.694  11.311 -0.2987 -0.0582  0.7494
 1680SOL    HW116673   1.496   2.647  11.392  0.6705  1.1061  1.6267
 1680SOL    HW216674   1.480   2.779  11.338  0.7512  1.2037 -1.8969
 1681SOL     OW16675   0.076   4.551   8.798  0.3763  0.3840  0.2372
 1681SOL    HW116676   0.107   4.637   8.770 -0.7189  0.4462 -0.7865
 1681SOL    HW216677   0.048   4.512   8.715  0.1884  1.5144 -0.2290
 1682SOL     OW16678   2.987   2.856   5.627 -0.1004 -0.2617 -0.7219
 1682SOL    HW116679   2.978   2.770   5.670 -0.6838  0.2494  0.1645
 1682SOL    HW216680   3.083   2.855   5.619 -0.1528  1.2495 -1.3950
 1683SOL     OW16681   3.482   4.020  17.189 -0.2344 -0.4253  0.1408
 1683SOL    HW116682   3.390   4.009  17.164 -0.0557 -1.2118 -0.1564
 1683SOL    HW216683   3.512   4.047  17.103  0.8737 -1.5072  0.1957
 1684SOL     OW16684   1.132   2.900   8.565 -0.1190  0.1041  0.9389
 1684SOL    HW116685   1.145   2.919   8.472  0.8593 -0.7639  0.9051
 1684SOL    HW216686   1.058   2.840   8.558  0.6133 -0.3256 -2.6837
 1685SOL     OW16687   3.947   4.078   3.625  0.1369 -0.3752 -0.2719
 1685SOL    HW116688   4.034   4.073   3.585  0.1022  2.8084 -0.7385
 1685SOL    HW216689   3.909   4.120   3.548  1.8453  0.4305 -0.6678
 1686SOL     OW16690   3.519   0.173   5.732  0.5398  0.1268  0.2960
 1686SOL    HW116691   3.528   0.241   5.799  0.9041 -0.6954  1.0655
 1686SOL    HW216692   3.596   0.195   5.678 -1.1406  0.1688 -2.1001
 1687SOL     OW16693   2.146   3.855   1.392 -0.1267 -0.3331  0.2151
 1687SOL    HW116694   2.138   3.801   1.470 -1.2589  1.1012  1.0885
 1687SOL    HW216695   2.235   3.828   1.372 -0.4504 -1.2645  0.0425
 1688SOL     OW16696   4.523   2.430  11.581  0.2034  0.0832  0.1210
 1688SOL    HW116697   4.454   2.437  11.515 -2.0946 -0.3135  2.4706
 1688SOL    HW216698   4.474   2.418  11.663 -0.1670 -0.8353 -0.2327
 1689SOL     OW16699   0.014   3.614   9.740 -0.5470  0.3529  0.1380
 1689SOL    HW116700   0.094   3.586   9.785  0.0462  2.2914  0.2914
 1689SOL    HW216701   4.706   3.664   9.807 -2.4913 -1.1719 -0.0830
 1690SOL     OW16702   3.733   4.383  15.218  0.0459  0.3161  0.0869
 1690SOL    HW116703   3.749   4.385  15.312  0.1883  0.3154  0.0635
 1690SOL    HW216704   3.820   4.357  15.188  0.4642 -0.1175  1.7104
 1691SOL     OW16705   3.437   3.514   2.825  0.3224 -0.1369  0.0865
 1691SOL    HW116706   3.482   3.509   2.741  0.5638  1.6620  0.1127
 1691SOL    HW216707   3.358   3.551   2.787 -0.6173  0.0671  2.2047
 1692SOL     OW16708   3.675   4.387  11.304  0.2385  0.3058  0.3845
 1692SOL    HW116709   3.740   4.320  11.321  0.1041 -0.2051 -1.0772
 1692SOL    HW216710   3.690   4.413  11.213  0.5238 -0.1561  0.3024
 1693SOL     OW16711   0.782   2.731   5.266  0.3364  0.4823 -0.3998
 1693SOL    HW116712   0.866   2.689   5.280 -0.5719 -1.3920 -0.5417
 1693SOL    HW216713   0.781   2.739   5.171  0.0953 -0.5070 -0.4811
 1694SOL     OW16714   3.840   0.312   4.233 -0.2589 -0.0282 -0.9792
 1694SOL    HW116715   3.764   0.302   4.291 -0.2310  1.4019 -0.6917
 1694SOL    HW216716   3.900   0.349   4.298 -1.7345  1.8660 -0.6925
 1695SOL     OW16717   4.194   2.774  13.323 -0.3016 -0.2734 -0.5828
 1695SOL    HW116718   4.136   2.788  13.248 -0.3163 -0.1200 -0.5440
 1695SOL    HW216719   4.234   2.692  13.296  1.8893  1.5578 -2.9271
 1696SOL     OW16720   4.288   4.667  14.759  0.0779 -0.3468  0.3819
 1696SOL    HW116721   4.211   4.695  14.808 -0.6411 -0.9650 -0.4168
 1696SOL    HW216722   4.254   4.588  14.718 -2.4128  1.0585 -0.2269
 1697SOL     OW16723   2.642   2.493  16.740  0.3853 -0.3655 -0.1546
 1697SOL    HW116724   2.582   2.482  16.666 -0.1158  3.2483 -0.2622
 1697SOL    HW216725   2.680   2.580  16.732 -0.1258 -0.2169 -0.9460
 1698SOL     OW16726   3.433   0.906   1.463  0.4542 -0.6365 -0.1253
 1698SOL    HW116727   3.441   0.994   1.498 -1.1116  0.1990 -1.8337
 1698SOL    HW216728   3.424   0.933   1.371  1.4389 -2.6123 -0.8068
 1699SOL     OW16729   2.798   1.601   2.811 -0.3608 -0.1505 -0.1897
 1699SOL    HW116730   2.871   1.627   2.866 -0.5247 -0.6584  0.2709
 1699SOL    HW216731   2.745   1.681   2.815  2.1266  1.3810  1.6238
 1700SOL     OW16732   0.358   4.624   5.611 -0.8985  0.1789 -0.0348
 1700SOL    HW116733   0.314   4.569   5.677 -1.0351  0.7078  0.3188
 1700SOL    HW216734   0.361   4.715   5.640  2.5348 -0.4766  1.6468
 1701SOL     OW16735   4.386   0.982  13.497  0.0690  0.4935 -0.1967
 1701SOL    HW116736   4.354   0.905  13.543 -2.2853  2.3624  1.3223
 1701SOL    HW216737   4.480   0.965  13.484 -0.1197  0.2376 -1.1782
 1702SOL     OW16738   3.247   4.244   5.619  0.0659 -0.2507 -0.0186
 1702SOL    HW116739   3.180   4.300   5.579 -0.6336 -0.0108  1.4763
 1702SOL    HW216740   3.261   4.189   5.542 -0.7459 -3.2661  1.9842
 1703SOL     OW16741   2.440   4.343   6.019  0.4176  0.5166  0.1739
 1703SOL    HW116742   2.411   4.271   6.075  0.2293  0.4393 -0.0237
 1703SOL    HW216743   2.507   4.297   5.969 -0.2246 -1.6143  1.2672
 1704SOL     OW16744   3.764   4.728   2.767  0.4502 -0.0243 -0.6343
 1704SOL    HW116745   3.802   0.064   2.812  2.0511 -0.8653 -0.6069
 1704SOL    HW216746   3.745   4.675   2.844  0.4474  0.0617 -0.5758
 1705SOL     OW16747   0.498   0.199   6.185  0.2614 -0.1301  0.2237
 1705SOL    HW116748   0.507   0.290   6.212  0.2426 -0.2965  0.7879
 1705SOL    HW216749   0.580   0.185   6.137  0.0581 -0.5794  0.0090
 1706SOL     OW16750   1.639   4.313   5.753  1.1376 -0.2374  0.5068
 1706SOL    HW116751   1.585   4.391   5.762 -0.0663 -0.7935 -2.0266
 1706SOL    HW216752   1.693   4.314   5.833  3.1800 -3.2007 -0.8559
 1707SOL     OW16753   1.685   4.731   3.252 -0.6822  0.3666 -0.7283
 1707SOL    HW116754   1.726   0.046   3.320 -1.3279  1.0902 -0.9170
 1707SOL    HW216755   1.610   4.696   3.300  0.3999 -0.9768 -0.0053
 1708SOL     OW16756   1.421   4.342   4.814 -0.5400 -0.2737 -0.4099
 1708SOL    HW116757   1.494   4.322   4.873 -1.2694 -0.3304  0.4689
 1708SOL    HW216758   1.418   4.264   4.758  0.9053 -0.3888 -0.3195
 1709SOL     OW16759   2.976   2.950  17.587  0.5905  0.2398 -0.1298
 1709SOL    HW116760   3.053   3.007  17.582  0.6663  0.2428  1.0657
 1709SOL    HW216761   2.919   3.008  17.638  2.5303  1.4904  0.6083
 1710SOL     OW16762   3.747   3.205  15.333  0.2100  0.5639  0.3360
 1710SOL    HW116763   3.816   3.139  15.326 -0.8724 -0.3064 -2.3157
 1710SOL    HW216764   3.730   3.243  15.247 -2.6084  3.0497  1.9631
 1711SOL     OW16765   0.237   3.551   5.088 -0.5221  1.1445 -0.7326
 1711SOL    HW116766   0.247   3.563   4.993  0.4144 -2.0322 -1.0220
 1711SOL    HW216767   0.175   3.620   5.113 -1.4795  0.9018 -2.4058
 1712SOL     OW16768   1.369   3.282  10.939 -0.3698 -0.3436 -0.0566
 1712SOL    HW116769   1.320   3.204  10.964 -2.4670  0.5299 -1.4865
 1712SOL    HW216770   1.452   3.277  10.987 -0.7812 -1.4801  0.5456
 1713SOL     OW16771   4.605   2.413   6.623 -0.1956 -0.1824 -0.0618
 1713SOL    HW116772   4.661   2.384   6.551  1.1629 -0.3693  1.0756
 1713SOL    HW216773   4.674   2.456   6.674 -1.0782  0.9098  0.2090
 1714SOL     OW16774   1.388   2.302   2.553 -0.0572 -0.0546 -0.1070
 1714SOL    HW116775   1.469   2.283   2.599 -0.2343  0.1883  0.2998
 1714SOL    HW216776   1.341   2.219   2.556  1.2223 -0.7652  0.0268
 1715SOL     OW16777   3.467   0.121   7.099 -1.0882  0.2087 -0.2637
 1715SOL    HW116778   3.410   0.197   7.088  0.2911  1.3201  0.3297
 1715SOL    HW216779   3.484   0.129   7.193 -2.0291 -1.9950  0.1043
 1716SOL     OW16780   2.680   0.842   7.293  0.4949 -0.6627  0.3444
 1716SOL    HW116781   2.673   0.755   7.333 -0.0756 -1.0621 -0.6255
 1716SOL    HW216782   2.751   0.831   7.230 -1.0220 -0.1774 -1.4400
 1717SOL     OW16783   1.157   2.937   5.441  0.2439  0.2349 -0.5627
 1717SOL    HW116784   1.160   2.879   5.365 -0.1329 -1.0800  0.4079
 1717SOL    HW216785   1.145   3.021   5.396 -0.3190  1.0116  1.0211
 1718SOL     OW16786   1.126   1.034  10.376 -0.2518 -0.1014  0.3018
 1718SOL    HW116787   1.150   1.079  10.457  1.0728  0.8314 -0.6048
 1718SOL    HW216788   1.180   0.955  10.384 -0.6051 -0.3358  0.3341
 1719SOL     OW16789   0.608   4.490   1.074  0.3830 -0.2201  0.4279
 1719SOL    HW116790   0.646   4.571   1.040  0.5502  0.2485  1.7310
 1719SOL    HW216791   0.627   4.436   0.997 -3.7003 -1.1553  0.0581
 1720SOL     OW16792   0.952   1.320  13.290 -0.3932  0.2877 -0.1277
 1720SOL    HW116793   1.044   1.325  13.315 -0.2333 -2.4232 -0.1569
 1720SOL    HW216794   0.906   1.279  13.364  1.2206  0.6749  1.0893
 1721SOL     OW16795   3.874   0.249   2.879 -0.6875 -0.4155  0.0786
 1721SOL    HW116796   3.965   0.274   2.894 -0.8826  0.9039 -0.9335
 1721SOL    HW216797   3.823   0.316   2.925 -0.1525  0.2618 -0.3218
 1722SOL     OW16798   3.687   2.842   1.180  0.1109 -0.4463  0.1010
 1722SOL    HW116799   3.708   2.804   1.265  2.4423  1.7835  0.5311
 1722SOL    HW216800   3.596   2.813   1.174 -0.5756  1.6715  0.1187
 1723SOL     OW16801   3.867   1.209   0.216  0.2876  0.3137 -0.6932
 1723SOL    HW116802   3.846   1.119   0.241  0.9682  1.3318  3.5355
 1723SOL    HW216803   3.914   1.239   0.294  1.1688 -1.5702 -0.5023
 1724SOL     OW16804   0.673   2.001  14.956 -0.2792 -0.0748 -0.2289
 1724SOL    HW116805   0.684   1.935  15.025  0.4423 -0.8316 -1.0688
 1724SOL    HW216806   0.740   1.971  14.895 -1.9682 -0.2004 -2.0196
 1725SOL     OW16807   0.292   0.765   6.096 -0.5322  0.5626 -0.2542
 1725SOL    HW116808   0.270   0.850   6.133 -0.1399  0.6612 -0.2433
 1725SOL    HW216809   0.225   0.707   6.132  0.0739  0.5224  0.8160
 1726SOL     OW16810   3.728   0.872  12.426 -0.2329 -0.3937 -0.2487
 1726SOL    HW116811   3.802   0.837  12.377 -0.5792  0.6390 -1.5087
 1726SOL    HW216812   3.770   0.914  12.501  0.7332  0.0255 -1.0303
 1727SOL     OW16813   0.666   0.235   8.912  0.3751  0.0876 -0.0221
 1727SOL    HW116814   0.618   0.317   8.924 -0.8496 -0.5448 -0.6110
 1727SOL    HW216815   0.605   0.173   8.951 -0.2320  0.9821  0.4619
 1728SOL     OW16816   4.089   2.243   6.590  0.0400  0.2327  0.4298
 1728SOL    HW116817   4.162   2.298   6.619  0.5433 -0.7067  0.9128
 1728SOL    HW216818   4.049   2.237   6.677 -0.7393  3.2192  0.2847
 1729SOL     OW16819   3.782   1.942  14.396  0.1600 -0.7702 -0.3645
 1729SOL    HW116820   3.721   1.954  14.469 -0.7823  1.5714 -1.5765
 1729SOL    HW216821   3.769   1.847  14.397 -1.0703 -0.6069 -2.0099
 1730SOL     OW16822   1.636   1.139  17.616  0.1946 -0.1920  0.4617
 1730SOL    HW116823   1.567   1.130  17.681  0.1560 -1.8704  0.1934
 1730SOL    HW216824   1.614   1.217  17.564  0.1128  1.0957  2.4311
 1731SOL     OW16825   4.635   1.995   0.928  0.1029 -0.5279 -0.6136
 1731SOL    HW116826   4.693   2.052   0.977  0.4670 -2.2903  1.0100
 1731SOL    HW216827   4.688   1.967   0.853  1.1842 -0.6109  0.1848
 1732SOL     OW16828   4.548   1.900   3.564  0.7408  0.8533 -0.1107
 1732SOL    HW116829   4.500   1.947   3.496 -0.8769  2.0985  1.8965
 1732SOL    HW216830   4.525   1.810   3.541 -0.6389  0.6870  1.8348
 1733SOL     OW16831   2.212   1.682   6.450  0.1731  0.0957 -0.1303
 1733SOL    HW116832   2.277   1.705   6.516  1.0031  1.6689 -1.4738
 1733SOL    HW216833   2.192   1.765   6.406 -0.3187  0.7518  1.3250
 1734SOL     OW16834   3.443   3.680  17.399  0.7010 -0.1040 -0.4219
 1734SOL    HW116835   3.478   3.646  17.482 -1.0390  0.7367  0.6417
 1734SOL    HW216836   3.357   3.707  17.431  0.8811 -1.5982  1.3776
 1735SOL     OW16837   3.188   2.909  11.106  0.3142  0.4111 -0.3520
 1735SOL    HW116838   3.096   2.890  11.124  0.2870 -2.0677 -3.0659
 1735SOL    HW216839   3.202   2.835  11.048  0.3468  0.3148 -0.2223
 1736SOL     OW16840   1.566   1.007   3.103 -0.2396 -0.1294  0.5861
 1736SOL    HW116841   1.495   0.957   3.143 -1.0895  2.7261  2.6635
 1736SOL    HW216842   1.549   1.098   3.130  3.0082  0.5049  0.4041
 1737SOL     OW16843   0.851   1.389   6.816  0.1987 -0.4777 -0.6091
 1737SOL    HW116844   0.765   1.381   6.775 -0.2376  0.4965  0.1065
 1737SOL    HW216845   0.898   1.342   6.747  3.1466  0.1618  0.9822
 1738SOL     OW16846   1.342   0.051   8.504  0.0113 -0.1121  0.3732
 1738SOL    HW116847   1.306   0.056   8.593 -1.4812  1.8053 -0.3587
 1738SOL    HW216848   1.407   4.719   8.509  1.2030  0.9905  0.4658
 1739SOL     OW16849   0.315   0.233   2.832 -0.3594  0.3205  0.5505
 1739SOL    HW116850   0.400   0.225   2.789 -1.5373 -0.8319 -1.5574
 1739SOL    HW216851   0.263   0.170   2.782  1.4575 -1.1045  0.4371
 1740SOL     OW16852   2.418   2.312   6.068  1.0433  0.4449 -0.8352
 1740SOL    HW116853   2.385   2.225   6.089  0.7885  0.7088 -0.1522
 1740SOL    HW216854   2.496   2.282   6.022 -0.5305 -1.3434 -2.3289
 1741SOL     OW16855   1.329   1.202   0.934  0.3579 -0.3577  0.3470
 1741SOL    HW116856   1.274   1.280   0.936  0.8561  0.0543 -1.9269
 1741SOL    HW216857   1.379   1.213   1.015  1.3864 -2.1151 -0.0399
 1742SOL     OW16858   2.836   3.077   5.540  0.1492 -0.4637 -0.1728
 1742SOL    HW116859   2.900   3.008   5.556 -0.6038 -0.9435  0.7649
 1742SOL    HW216860   2.880   3.114   5.463 -0.5369  1.1614  0.2017
 1743SOL     OW16861   2.829   2.025   6.242 -0.5679  0.1913  0.1714
 1743SOL    HW116862   2.829   2.095   6.308  0.8016  0.9887 -0.6680
 1743SOL    HW216863   2.857   1.956   6.302 -1.1336 -2.5524 -2.7601
 1744SOL     OW16864   0.941   2.645   1.533 -0.1959 -0.4427  0.7225
 1744SOL    HW116865   0.979   2.731   1.519  1.1363 -1.2286 -0.5443
 1744SOL    HW216866   0.982   2.602   1.457 -0.5895  0.5908 -0.0574
 1745SOL     OW16867   3.790   2.178  12.424 -0.0184  0.1310 -0.0203
 1745SOL    HW116868   3.821   2.097  12.384  0.2048  1.1046 -1.8118
 1745SOL    HW216869   3.727   2.141  12.486  1.1987 -1.8488  0.0292
 1746SOL     OW16870   3.785   0.761  16.091  0.1344  0.0880  0.5436
 1746SOL    HW116871   3.855   0.815  16.128 -0.0717  0.0024  1.0441
 1746SOL    HW216872   3.712   0.814  16.123 -0.6860 -2.1957  2.3489
 1747SOL     OW16873   3.301   0.136   3.062  0.3695  0.0790 -0.8515
 1747SOL    HW116874   3.207   0.114   3.057  0.9369 -2.1093 -1.9969
 1747SOL    HW216875   3.293   0.231   3.067 -1.5758 -0.1197 -0.1685
 1748SOL     OW16876   3.095   2.951   6.275  0.4007  0.2195 -0.8428
 1748SOL    HW116877   3.089   3.036   6.232  0.0020  0.0516 -1.1162
 1748SOL    HW216878   3.097   2.980   6.367  1.4142  1.1508 -1.1609
 1749SOL     OW16879   1.740   3.538   2.800 -0.4247 -0.2306 -0.4783
 1749SOL    HW116880   1.687   3.597   2.852 -0.2178 -0.3834 -0.0915
 1749SOL    HW216881   1.713   3.559   2.711  2.2530  2.3288 -0.7028
 1750SOL     OW16882   2.214   1.675   9.277 -0.2777 -0.1650 -0.0726
 1750SOL    HW116883   2.210   1.671   9.182 -0.3851 -2.7052  0.0355
 1750SOL    HW216884   2.188   1.767   9.285 -0.3936 -0.1893 -0.1618
 1751SOL     OW16885   2.209   3.995   8.163 -0.9663 -0.3988  0.1405
 1751SOL    HW116886   2.184   4.087   8.168  1.4676  0.1198  2.6074
 1751SOL    HW216887   2.202   3.973   8.256  2.7695 -2.5072 -0.0747
 1752SOL     OW16888   2.654   3.668   6.987  0.4577  1.0058 -0.1169
 1752SOL    HW116889   2.646   3.707   6.900 -1.3343 -1.1416 -0.9048
 1752SOL    HW216890   2.748   3.650   6.987 -0.1728 -2.3846 -0.2068
 1753SOL     OW16891   1.668   3.129   9.023 -0.0699 -0.1498 -0.1268
 1753SOL    HW116892   1.739   3.082   8.979  1.6830  4.1006 -1.8623
 1753SOL    HW216893   1.595   3.073   8.998  0.3912 -1.0552  0.5669
 1754SOL     OW16894   2.502   3.915   6.897  0.1918  0.4805 -0.5050
 1754SOL    HW116895   2.565   3.933   6.827  1.3265  0.8392  0.5990
 1754SOL    HW216896   2.419   3.934   6.853  0.5790  1.1549 -0.9532
 1755SOL     OW16897   1.152   0.122  15.235 -0.0000  0.1473  0.3996
 1755SOL    HW116898   1.161   0.074  15.153 -1.3890 -0.1659  0.4296
 1755SOL    HW216899   1.163   0.047  15.294  2.8710 -0.7527 -1.2880
 1756SOL     OW16900   1.735   2.358   4.374 -0.1684 -0.3989  0.2188
 1756SOL    HW116901   1.686   2.282   4.405 -0.3591 -0.4572 -0.2244
 1756SOL    HW216902   1.729   2.345   4.280  0.4834  0.2166  0.0923
 1757SOL     OW16903   1.469   1.859  16.412  0.2407  0.1588 -0.4856
 1757SOL    HW116904   1.379   1.891  16.410  0.2486  0.2462  1.0684
 1757SOL    HW216905   1.521   1.921  16.464  0.4689  0.3909 -0.9860
 1758SOL     OW16906   2.051   0.817  10.263 -0.3979 -0.0803  0.3815
 1758SOL    HW116907   2.127   0.762  10.243 -0.8578 -0.9498  1.0352
 1758SOL    HW216908   1.992   0.756  10.308 -0.0631 -1.3112 -0.8358
 1759SOL     OW16909   3.495   2.590  11.447 -0.1567 -0.0160 -0.6936
 1759SOL    HW116910   3.523   2.630  11.365  1.6141  0.1353 -0.0020
 1759SOL    HW216911   3.551   2.643  11.503  0.6215  0.9352 -2.3572
 1760SOL     OW16912   3.932   4.121   7.623 -0.0120 -0.2891 -0.3790
 1760SOL    HW116913   3.926   4.028   7.603 -0.7925 -0.5462  1.0683
 1760SOL    HW216914   3.897   4.118   7.712  0.6287 -1.0537 -0.1595
 1761SOL     OW16915   2.072   4.539   3.521  0.0241 -0.3145 -0.2751
 1761SOL    HW116916   2.041   4.579   3.603 -2.1447 -0.9036 -0.7915
 1761SOL    HW216917   2.126   4.610   3.487  0.4279 -0.4049  0.1842
 1762SOL     OW16918   3.024   3.577   2.181  0.1097  0.3583 -0.3130
 1762SOL    HW116919   2.948   3.534   2.141  0.2276  0.3542 -0.5310
 1762SOL    HW216920   3.051   3.651   2.127 -0.3863  1.4833  0.9718
 1763SOL     OW16921   3.172   0.701  13.090  0.6854 -0.6069 -0.3711
 1763SOL    HW116922   3.164   0.744  13.175  1.1900 -2.5144  0.6378
 1763SOL    HW216923   3.267   0.692  13.095  0.9339  0.7577 -2.3616
 1764SOL     OW16924   4.560   0.060  15.080  0.3976 -0.0474  0.0196
 1764SOL    HW116925   4.568   0.077  15.174  0.3566 -0.3858  0.0841
 1764SOL    HW216926   4.471   0.090  15.060 -0.0130 -0.9101  0.5433
 1765SOL     OW16927   3.581   3.737  13.527 -0.1242 -0.1440 -0.5574
 1765SOL    HW116928   3.591   3.701  13.439 -3.0067  0.1936 -1.0383
 1765SOL    HW216929   3.500   3.788  13.517  0.8917  1.8142  1.1378
 1766SOL     OW16930   0.928   3.960   5.431 -0.6128 -0.2283  0.1481
 1766SOL    HW116931   0.931   3.962   5.335 -0.6948 -0.2199  0.1464
 1766SOL    HW216932   0.846   3.999   5.459 -0.6119 -0.3542  0.3281
 1767SOL     OW16933   3.075   2.852   2.496  0.2015  1.2822 -0.1624
 1767SOL    HW116934   3.014   2.925   2.512  2.5254  3.1114  0.4375
 1767SOL    HW216935   3.097   2.817   2.582 -1.2235 -1.4232 -0.9075
 1768SOL     OW16936   3.122   2.514  17.729  0.0917  0.0723 -0.0046
 1768SOL    HW116937   3.096   2.603   0.001  0.5054  0.2343 -0.1524
 1768SOL    HW216938   3.054   2.496  17.663 -0.3720 -1.3343  0.8599
 1769SOL     OW16939   3.318   0.533   2.716 -0.3301  0.1406  0.5306
 1769SOL    HW116940   3.281   0.539   2.629  0.8938  0.3517  0.0167
 1769SOL    HW216941   3.331   0.625   2.740  0.2089 -0.0703  1.0663
 1770SOL     OW16942   1.976   1.959   6.808 -0.0424  0.1575 -0.5886
 1770SOL    HW116943   1.942   1.871   6.794 -1.4688  0.8351 -1.4014
 1770SOL    HW216944   2.052   1.949   6.866  0.0653  0.7297 -0.6291
 1771SOL     OW16945   0.509   2.517   9.413  0.0912  0.1146  0.0465
 1771SOL    HW116946   0.452   2.468   9.472 -2.3595  2.8703 -0.0412
 1771SOL    HW216947   0.468   2.484   9.333 -3.7545 -0.5826  2.2861
 1772SOL     OW16948   4.267   2.490   6.370 -0.1589 -0.5639  0.1126
 1772SOL    HW116949   4.295   2.445   6.449 -0.9246 -0.1500  0.6213
 1772SOL    HW216950   4.345   2.487   6.315  0.8306  2.1699  1.3926
 1773SOL     OW16951   3.929   0.833  12.251  0.0679 -0.0255 -0.2085
 1773SOL    HW116952   3.895   0.767  12.190  1.2306 -1.6389  0.8764
 1773SOL    HW216953   4.017   0.796  12.246  0.5755  1.2337 -0.4837
 1774SOL     OW16954   1.304   0.728   8.438  0.3333 -0.2106 -0.0193
 1774SOL    HW116955   1.273   0.720   8.528  0.7835  1.8440  0.3371
 1774SOL    HW216956   1.394   0.698   8.454  0.1042 -0.8565  0.0200
 1775SOL     OW16957   3.650   2.681   4.920 -0.5294  0.2055  0.1978
 1775SOL    HW116958   3.557   2.696   4.938 -0.8578  1.1509 -2.2931
 1775SOL    HW216959   3.666   2.589   4.942 -0.2853  0.5329  1.3943
 1776SOL     OW16960   2.674   4.625   4.600  0.0109 -0.2842  0.1083
 1776SOL    HW116961   2.655   4.666   4.685 -1.5030  1.4554 -1.0676
 1776SOL    HW216962   2.586   4.596   4.579 -0.7029  0.1806  2.4020
 1777SOL     OW16963   1.487   3.744   6.115  0.1723  0.0351  0.1271
 1777SOL    HW116964   1.476   3.685   6.041  1.6942 -0.8886  0.6378
 1777SOL    HW216965   1.583   3.747   6.115  0.1355  1.0406 -0.3055
 1778SOL     OW16966   2.660   1.433  14.395  0.1412  0.9791 -0.2820
 1778SOL    HW116967   2.754   1.443  14.406  0.0931  1.1106  0.0037
 1778SOL    HW216968   2.619   1.483  14.465  0.0102 -1.1289  1.1617
 1779SOL     OW16969   4.468   2.570   9.392 -0.3712 -0.0407  0.1820
 1779SOL    HW116970   4.417   2.638   9.437 -0.1169 -1.0340  1.9606
 1779SOL    HW216971   4.479   2.612   9.307 -1.5227  4.1867  2.0864
 1780SOL     OW16972   3.181   2.668   7.454 -0.3747  1.0873 -0.2511
 1780SOL    HW116973   3.273   2.642   7.465 -0.3841  1.4081  0.5449
 1780SOL    HW216974   3.194   2.754   7.414  2.1906  0.3320 -1.0562
 1781SOL     OW16975   2.129   0.342   8.698  0.0339 -0.8021 -0.1603
 1781SOL    HW116976   2.104   0.279   8.766  0.6426 -1.2600 -0.3608
 1781SOL    HW216977   2.083   0.418   8.732  1.4546  1.3112 -2.9481
 1782SOL     OW16978   0.680   3.566   6.687 -0.1464 -0.2181  0.3120
 1782SOL    HW116979   0.688   3.493   6.748 -0.0768  0.4554  1.1139
 1782SOL    HW216980   0.639   3.630   6.745 -1.3779 -0.1943 -0.5830
 1783SOL     OW16981   3.941   0.890  16.807  0.3632 -0.2441  0.1622
 1783SOL    HW116982   4.011   0.828  16.785  1.6051  1.5092 -0.8672
 1783SOL    HW216983   3.997   0.957  16.846  0.2359 -0.1989  0.2669
 1784SOL     OW16984   3.707   2.015  15.366 -0.0142  0.1285  0.0468
 1784SOL    HW116985   3.748   2.091  15.409 -0.9327 -0.2877  1.6703
 1784SOL    HW216986   3.749   2.017  15.280 -3.7329  0.3622 -1.7458
 1785SOL     OW16987   2.882   0.142  13.072 -0.2044  0.1040 -0.1244
 1785SOL    HW116988   2.951   0.194  13.112 -0.6399 -0.6159  1.5580
 1785SOL    HW216989   2.924   0.057  13.054  0.6358  0.1484  1.6316
 1786SOL     OW16990   0.531   4.014   3.854  0.1534  0.4521 -0.9362
 1786SOL    HW116991   0.598   4.063   3.903 -0.3647  1.1312 -0.9025
 1786SOL    HW216992   0.590   3.944   3.827  1.2326  1.9163 -2.3781
 1787SOL     OW16993   1.610   3.554   6.308  0.3575 -0.0699 -0.7273
 1787SOL    HW116994   1.661   3.599   6.241 -0.2303  0.6373 -0.6974
 1787SOL    HW216995   1.526   3.589   6.277 -0.8923 -0.7858  1.8306
 1788SOL     OW16996   2.227   3.168  10.575 -0.4880  0.0248 -0.0788
 1788SOL    HW116997   2.317   3.201  10.568  0.0361 -1.0507  1.7237
 1788SOL    HW216998   2.185   3.244  10.614 -2.4455 -2.4528  2.6127
 1789SOL     OW16999   2.572   4.527  14.240 -1.4669 -0.0256  0.0371
 1789SOL    HW117000   2.644   4.503  14.181 -1.3524 -0.7931  0.4821
 1789SOL    HW217001   2.508   4.458  14.223  0.5296 -1.3021 -2.4055
 1790SOL     OW17002   4.662   3.357   5.179 -0.5267  0.3749 -0.0528
 1790SOL    HW117003   0.006   3.319   5.207 -1.3074 -1.5745 -0.4172
 1790SOL    HW217004   4.596   3.299   5.217  1.5656  0.1723  3.2658
 1791SOL     OW17005   1.963   0.997   6.900  0.1917  0.1567  0.1198
 1791SOL    HW117006   2.034   0.938   6.875 -1.2012 -1.7365  0.6859
 1791SOL    HW217007   1.915   0.948   6.967  1.0708 -1.0082 -0.1089
 1792SOL     OW17008   4.243   3.226   9.715 -0.0034  0.1242  0.1670
 1792SOL    HW117009   4.309   3.217   9.784 -0.4363 -1.5593  0.3652
 1792SOL    HW217010   4.176   3.268   9.769  1.1880 -0.0021  1.7455
 1793SOL     OW17011   1.331   3.773   3.443  0.3911 -0.5922 -0.7028
 1793SOL    HW117012   1.422   3.745   3.452  0.6448 -0.4148 -2.7370
 1793SOL    HW217013   1.345   3.836   3.372 -2.4199 -0.4781 -1.1620
 1794SOL     OW17014   0.638   4.452   4.355 -0.0304 -0.0419  0.2433
 1794SOL    HW117015   0.719   4.419   4.394 -1.4591 -0.5045  2.8334
 1794SOL    HW217016   0.630   4.540   4.392  1.4919  0.8081 -1.4574
 1795SOL     OW17017   3.702   2.413   4.476 -0.0094 -0.3173 -0.3520
 1795SOL    HW117018   3.702   2.444   4.385  1.4132 -0.5195 -0.4235
 1795SOL    HW217019   3.703   2.497   4.523  0.3600 -0.6033  0.1458
 1796SOL     OW17020   1.948   0.771  17.121  0.3553 -0.2948  0.1380
 1796SOL    HW117021   1.917   0.853  17.159  0.4838 -0.0792 -0.2219
 1796SOL    HW217022   1.938   0.715  17.198 -0.7591  0.6478  0.6811
 1797SOL     OW17023   3.670   3.122   6.659  0.0439  0.4576 -0.4207
 1797SOL    HW117024   3.750   3.134   6.609  0.3310  0.4630  0.0380
 1797SOL    HW217025   3.657   3.028   6.646 -1.7807  0.6234  0.1676
 1798SOL     OW17026   1.730   1.192  16.191  0.1155 -0.0550  0.1451
 1798SOL    HW117027   1.673   1.266  16.171  1.0078  1.1148  1.9131
 1798SOL    HW217028   1.686   1.155  16.268 -1.4369  1.2353 -0.1340
 1799SOL     OW17029   3.025   4.439  10.053 -0.3469  0.0785  0.4702
 1799SOL    HW117030   3.060   4.488   9.977 -2.1089  1.9427  0.8520
 1799SOL    HW217031   2.964   4.507  10.083 -0.5036  1.6879 -3.3559
 1800SOL     OW17032   2.340   2.382   3.165  0.3939 -0.0269  0.1299
 1800SOL    HW117033   2.394   2.429   3.229 -1.5917  1.3429  0.7929
 1800SOL    HW217034   2.358   2.296   3.203 -0.5437 -0.3914 -0.2578
 1801SOL     OW17035   0.253   2.443   5.913 -0.2634 -0.1959 -0.3802
 1801SOL    HW117036   0.347   2.460   5.909  0.2452 -3.3961 -2.0910
 1801SOL    HW217037   0.207   2.500   5.852  2.6653  1.2746 -1.1901
 1802SOL     OW17038   3.444   4.249  11.983  0.2224  0.8012 -0.3046
 1802SOL    HW117039   3.460   4.172  11.929 -1.0875  0.6799 -0.5210
 1802SOL    HW217040   3.533   4.266  12.015 -0.3630  0.9032  1.3044
 1803SOL     OW17041   2.337   1.328   1.559  0.3280  0.3539 -0.3626
 1803SOL    HW117042   2.287   1.393   1.608 -1.3262 -1.3901  0.2817
 1803SOL    HW217043   2.339   1.258   1.625  2.3295 -0.6009 -1.4431
 1804SOL     OW17044   0.685   1.056   8.203  0.0726 -0.3386  0.1751
 1804SOL    HW117045   0.751   1.121   8.228  0.1296 -1.1044  2.0286
 1804SOL    HW217046   0.695   0.999   8.279 -0.9341  0.6230  1.0476
 1805SOL     OW17047   4.343   4.066   4.514  0.0575 -0.7339 -0.7040
 1805SOL    HW117048   4.371   4.019   4.435  2.1508  2.0034 -1.6000
 1805SOL    HW217049   4.400   4.018   4.574 -1.4558 -2.3133 -0.5357
 1806SOL     OW17050   3.291   2.810   0.488 -0.5079  0.0970 -0.2386
 1806SOL    HW117051   3.287   2.744   0.419 -1.4630  0.4760 -0.5540
 1806SOL    HW217052   3.314   2.889   0.438  0.6553 -0.9365 -1.3349
 1807SOL     OW17053   3.748   3.733   7.938 -0.2431  0.0428  0.0828
 1807SOL    HW117054   3.669   3.702   7.983  0.9487 -0.2677  1.9409
 1807SOL    HW217055   3.754   3.822   7.971 -1.4205 -0.1568  0.8398
 1808SOL     OW17056   3.784   0.787   7.807  0.6537 -0.1178 -0.1233
 1808SOL    HW117057   3.798   0.876   7.775  0.3206  0.4651  1.3477
 1808SOL    HW217058   3.861   0.780   7.864 -0.5855 -0.4281  1.5239
 1809SOL     OW17059   3.946   4.639  17.709  0.0502  0.3492  0.5966
 1809SOL    HW117060   3.997   4.595   0.025  2.1125  1.5859 -0.1489
 1809SOL    HW217061   3.876   4.576  17.692  0.7638 -0.4052  0.4858
 1810SOL     OW17062   3.399   1.790   6.131 -0.5205  0.1281 -0.4087
 1810SOL    HW117063   3.311   1.828   6.135 -0.2205  1.0887 -2.6748
 1810SOL    HW217064   3.373   1.702   6.104 -0.3343  0.2962 -1.1334
 1811SOL     OW17065   3.250   3.917   2.365 -0.2802 -0.1196  0.0683
 1811SOL    HW117066   3.168   3.883   2.403  0.1167  0.4852  1.4434
 1811SOL    HW217067   3.229   4.010   2.362 -2.7422 -0.6830 -0.4403
 1812SOL     OW17068   1.236   4.063   6.952 -0.0779 -0.0193  0.4485
 1812SOL    HW117069   1.170   4.094   7.015  0.3125 -0.2138  0.9577
 1812SOL    HW217070   1.291   4.005   7.006 -0.8971 -1.6304 -0.4799
 1813SOL     OW17071   4.438   3.576   5.696 -0.3935  0.1147  0.6087
 1813SOL    HW117072   4.410   3.663   5.665  1.4812 -0.4481 -2.6897
 1813SOL    HW217073   4.520   3.562   5.649 -0.2975  1.0020  0.5034
 1814SOL     OW17074   0.099   1.059   7.417 -0.1193  0.1833 -0.4292
 1814SOL    HW117075   0.060   1.000   7.480 -1.0307  2.5083  1.1881
 1814SOL    HW217076   0.160   1.104   7.475 -0.9593  1.0661 -0.2258
 1815SOL     OW17077   3.301   4.339   5.877 -0.8261  0.5368 -0.1814
 1815SOL    HW117078   3.224   4.395   5.870 -0.9202  0.0604 -2.8562
 1815SOL    HW217079   3.303   4.305   5.788 -1.8883 -1.9378  0.7394
 1816SOL     OW17080   3.824   2.951  17.128 -0.3038  0.0646  0.0776
 1816SOL    HW117081   3.736   2.927  17.156 -0.8326  0.1914 -1.4633
 1816SOL    HW217082   3.876   2.879  17.166 -1.2299 -0.8960 -0.4632
 1817SOL     OW17083   2.611   2.110   6.799 -0.2378  0.4196 -0.3820
 1817SOL    HW117084   2.526   2.067   6.793 -1.4611  2.2948  3.2238
 1817SOL    HW217085   2.646   2.103   6.710 -1.1235 -1.7639 -0.5444
 1818SOL     OW17086   2.967   3.849   3.223  0.8724  0.2682 -0.3135
 1818SOL    HW117087   3.017   3.768   3.227 -0.1199 -0.3470 -0.3311
 1818SOL    HW217088   2.940   3.845   3.131 -2.2364 -1.3846  0.6891
 1819SOL     OW17089   4.099   2.106   4.759 -0.4358  0.7167 -0.4875
 1819SOL    HW117090   4.184   2.092   4.800 -0.1819  1.3194 -0.8153
 1819SOL    HW217091   4.078   2.012   4.758  1.5093  0.2382  1.5951
 1820SOL     OW17092   1.556   3.115   3.133 -0.7052  0.5513 -0.1883
 1820SOL    HW117093   1.596   3.181   3.190  0.2976  0.7234 -1.0941
 1820SOL    HW217094   1.534   3.042   3.191 -3.1442  1.5875  0.1861
 1821SOL     OW17095   1.477   4.277   9.278  0.3156 -0.3931 -0.0048
 1821SOL    HW117096   1.502   4.245   9.191 -0.9124 -0.4300 -0.3468
 1821SOL    HW217097   1.478   4.205   9.341  0.0441 -1.1219 -0.8251
 1822SOL     OW17098   3.340   1.733   5.383 -0.3924  0.3336  0.1947
 1822SOL    HW117099   3.332   1.643   5.351  0.0258  0.2272  0.3811
 1822SOL    HW217100   3.414   1.757   5.327 -0.9600 -0.4394 -0.8770
 1823SOL     OW17101   1.895   0.775  12.883 -0.5839 -0.2559 -0.0134
 1823SOL    HW117102   1.922   0.819  12.803  0.3557  1.5773  1.3243
 1823SOL    HW217103   1.975   0.790  12.934  0.0736  0.3526 -1.2334
 1824SOL     OW17104   0.539   1.553  13.572  0.9169 -0.3069  0.2030
 1824SOL    HW117105   0.589   1.633  13.584  1.6027 -0.6829 -0.1361
 1824SOL    HW217106   0.457   1.567  13.620 -0.1753 -0.4352 -1.6099
 1825SOL     OW17107   3.366   0.352   4.910  0.2810  0.0766 -0.0733
 1825SOL    HW117108   3.334   0.292   4.977  0.3509  0.2599  0.1229
 1825SOL    HW217109   3.355   0.301   4.830  2.6120 -1.7837  0.7960
 1826SOL     OW17110   1.715   1.621   2.653  0.4831 -0.9023  0.4070
 1826SOL    HW117111   1.699   1.567   2.730  0.0243 -1.3378  0.0076
 1826SOL    HW217112   1.733   1.549   2.592 -0.6066  1.2408 -2.4423
 1827SOL     OW17113   2.368   2.924   5.272  0.8850  0.5157 -0.4636
 1827SOL    HW117114   2.369   2.848   5.214  0.1464  0.5739 -0.5561
 1827SOL    HW217115   2.275   2.939   5.291  1.2566 -1.6659  3.1118
 1828SOL     OW17116   0.866   2.044  11.153 -0.1333 -0.0992  0.3058
 1828SOL    HW117117   0.854   1.965  11.206 -2.9754 -0.2252 -0.5217
 1828SOL    HW217118   0.777   2.080  11.157 -1.1889 -2.5216 -0.8647
 1829SOL     OW17119   4.686   3.939   6.312  0.3860 -0.4015  0.1782
 1829SOL    HW117120   4.664   4.020   6.359  0.4283  0.4502 -1.2700
 1829SOL    HW217121   4.606   3.922   6.262  0.0246  0.3186  0.5089
 1830SOL     OW17122   2.585   3.746   7.850  0.4344 -0.4246 -0.3290
 1830SOL    HW117123   2.610   3.700   7.769 -0.2959  1.0562 -1.3980
 1830SOL    HW217124   2.668   3.773   7.890  0.4518  0.7172 -1.1494
 1831SOL     OW17125   3.865   2.385  12.225 -0.5240  0.1538 -0.2862
 1831SOL    HW117126   3.913   2.330  12.163 -2.1907  0.5051 -1.8868
 1831SOL    HW217127   3.829   2.317  12.281 -2.0207  0.5041 -0.8270
 1832SOL     OW17128   1.285   1.165  16.036 -0.6171 -0.2572 -0.2189
 1832SOL    HW117129   1.199   1.200  16.060  0.1886  0.9334  0.9473
 1832SOL    HW217130   1.312   1.234  15.975  2.3657  0.0738  1.4259
 1833SOL     OW17131   3.372   4.227   9.044 -0.0080 -0.4049  1.1437
 1833SOL    HW117132   3.461   4.209   9.073  0.3877  2.7782  1.8152
 1833SOL    HW217133   3.320   4.259   9.118 -1.2244 -2.4803  1.2141
 1834SOL     OW17134   4.059   0.614   6.634 -0.5632 -0.1801  0.4346
 1834SOL    HW117135   4.128   0.655   6.583 -0.2560 -0.4694  0.6213
 1834SOL    HW217136   4.097   0.636   6.719  1.2717  2.3011 -1.0072
 1835SOL     OW17137   3.165   4.477   7.765  0.0372 -0.2912  0.2235
 1835SOL    HW117138   3.232   4.410   7.777  1.8881  1.4740 -0.2126
 1835SOL    HW217139   3.173   4.505   7.673  1.3999 -0.0020  0.4319
 1836SOL     OW17140   2.202   0.442   6.374  0.7188 -0.1982 -0.0616
 1836SOL    HW117141   2.191   0.391   6.294 -0.1983 -0.6830  0.3697
 1836SOL    HW217142   2.279   0.495   6.353  0.4892  0.8147  1.6419
 1837SOL     OW17143   1.686   0.135   7.608 -0.0548  0.7129 -0.5961
 1837SOL    HW117144   1.721   0.065   7.664  0.1511  1.5186  0.2668
 1837SOL    HW217145   1.723   0.107   7.524 -1.3218  1.6257 -1.4552
 1838SOL     OW17146   0.135   2.560   8.720 -0.1787  0.1826  0.0436
 1838SOL    HW117147   0.054   2.610   8.709  0.9144  2.0123  0.2518
 1838SOL    HW217148   0.180   2.570   8.636 -0.7647 -2.8961 -0.6130
 1839SOL     OW17149   2.164   3.228   8.080 -0.7835  0.4169  0.4833
 1839SOL    HW117150   2.152   3.166   8.007  0.1660 -1.5428  1.9778
 1839SOL    HW217151   2.255   3.250   8.060 -1.2261  1.3968 -0.4290
 1840SOL     OW17152   3.824   2.256   6.146  0.6795  0.0351 -0.0136
 1840SOL    HW117153   3.794   2.204   6.220 -0.0674 -1.0905 -1.1138
 1840SOL    HW217154   3.918   2.256   6.164  0.9493  0.6213 -1.4092
 1841SOL     OW17155   2.154   0.263   5.322  0.5585 -0.1454  0.4200
 1841SOL    HW117156   2.232   0.244   5.374  0.6636 -2.1458 -0.4576
 1841SOL    HW217157   2.076   0.244   5.374 -1.0103  2.6217 -0.9222
 1842SOL     OW17158   1.574   2.491   6.483 -0.1043 -0.6086  0.2195
 1842SOL    HW117159   1.659   2.525   6.510  0.5321 -0.9733 -1.3075
 1842SOL    HW217160   1.593   2.460   6.394  1.5168  1.4902 -0.1753
 1843SOL     OW17161   0.058   2.547   5.739 -0.3499  1.1372 -0.6756
 1843SOL    HW117162   0.026   2.460   5.764 -1.4286  2.4195  2.4160
 1843SOL    HW217163   4.713   2.592   5.728  0.5889  2.7589 -1.1950
 1844SOL     OW17164   2.102   3.224  11.160 -0.0559  0.6620  0.1135
 1844SOL    HW117165   2.086   3.132  11.183  1.1115  0.6124  0.7420
 1844SOL    HW217166   2.178   3.215  11.102 -0.5573 -2.5530 -0.0765
 1845SOL     OW17167   4.418   3.864   5.862  0.1544 -0.1160 -0.4339
 1845SOL    HW117168   4.408   3.952   5.826  0.2812 -0.0062 -0.2023
 1845SOL    HW217169   4.327   3.835   5.857  0.8587 -2.2719 -0.5298
 1846SOL     OW17170   3.269   0.753   1.719 -0.5547  0.3290  0.2620
 1846SOL    HW117171   3.293   0.764   1.811 -1.3131  1.7320  0.2866
 1846SOL    HW217172   3.219   0.832   1.701 -0.8470  0.1915  0.4601
 1847SOL     OW17173   2.427   3.909   4.592 -0.1266 -0.7865 -0.4984
 1847SOL    HW117174   2.517   3.938   4.604  0.1678 -2.8232  2.0614
 1847SOL    HW217175   2.401   3.877   4.678  1.7171  1.9317  1.0768
 1848SOL     OW17176   3.816   0.616   8.564 -1.0089  0.3721  0.0950
 1848SOL    HW117177   3.750   0.549   8.579 -0.8064  0.4735  1.4349
 1848SOL    HW217178   3.856   0.624   8.651 -1.1211  0.5171  0.1336
 1849SOL     OW17179   2.740   1.752   6.065 -0.5003  0.2068 -0.1542
 1849SOL    HW117180   2.715   1.844   6.060  0.4318  0.6045  2.6168
 1849SOL    HW217181   2.779   1.734   5.979 -1.7282  1.3053 -0.9522
 1850SOL     OW17182   4.612   2.992  14.352 -0.1936 -0.2619 -0.6511
 1850SOL    HW117183   4.562   3.019  14.275 -0.3357 -0.1491 -0.5196
 1850SOL    HW217184   4.611   3.077  14.396 -0.3459 -0.7618  0.3010
 1851SOL     OW17185   1.293   2.334   0.605 -0.6353 -0.5104 -0.1605
 1851SOL    HW117186   1.203   2.367   0.609 -1.1875 -1.9040 -0.9948
 1851SOL    HW217187   1.310   2.327   0.511 -1.8047 -2.4473 -0.2474
 1852SOL     OW17188   4.371   3.367   1.559  0.2336  0.0780  0.4225
 1852SOL    HW117189   4.305   3.420   1.513  2.3427  0.1165 -2.5711
 1852SOL    HW217190   4.356   3.280   1.522 -0.5427  1.1682 -1.8603
 1853SOL     OW17191   4.334   1.232   4.513  0.1248 -0.1023  0.0505
 1853SOL    HW117192   4.260   1.291   4.531 -0.5954 -0.7775 -0.6631
 1853SOL    HW217193   4.307   1.193   4.430  0.2720 -1.3730  0.5976
 1854SOL     OW17194   0.582   2.107   0.985 -0.4623 -0.1689 -0.5101
 1854SOL    HW117195   0.660   2.052   0.976 -0.2092  0.2042 -0.5980
 1854SOL    HW217196   0.620   2.167   1.050  0.4531 -0.4119 -0.8214
 1855SOL     OW17197   2.889   1.906   2.758 -0.0749  0.0885 -0.2320
 1855SOL    HW117198   2.981   1.885   2.742  1.1443  2.9470  2.9479
 1855SOL    HW217199   2.876   1.997   2.733 -1.9937 -0.3132 -0.6815
 1856SOL     OW17200   3.898   1.924   6.766  0.0335 -0.0103 -0.0806
 1856SOL    HW117201   3.959   1.861   6.725 -0.4058  0.2059 -1.0746
 1856SOL    HW217202   3.904   1.895   6.857 -0.2553 -1.3073 -0.4745
 1857SOL     OW17203   0.285   0.601   1.879 -0.0202 -0.2428  0.7772
 1857SOL    HW117204   0.219   0.633   1.940 -1.3183  1.9485 -1.7913
 1857SOL    HW217205   0.315   0.524   1.928  1.5117  0.4735  0.9444
 1858SOL     OW17206   0.698   2.521   8.990  0.1308 -0.5867  0.2965
 1858SOL    HW117207   0.785   2.516   8.951  0.7106  1.8398  1.2627
 1858SOL    HW217208   0.711   2.582   9.063 -2.6820 -0.3292  0.5913
 1859SOL     OW17209   3.092   0.739   8.358  0.0422  0.2008 -0.2680
 1859SOL    HW117210   3.092   0.770   8.449 -3.4053 -0.5517 -0.0135
 1859SOL    HW217211   3.036   0.662   8.361 -1.1624  1.0436 -1.4058
 1860SOL     OW17212   3.399   2.512  17.650  0.4258  0.5020 -0.4575
 1860SOL    HW117213   3.315   2.550  17.674  1.4405  2.9137 -0.6997
 1860SOL    HW217214   3.442   2.558  17.721  0.2564 -1.3045  0.8026
 1861SOL     OW17215   3.424   0.885   1.991  0.4559 -0.0173  0.3475
 1861SOL    HW117216   3.507   0.839   1.982  0.0153 -1.0387  1.4994
 1861SOL    HW217217   3.383   0.852   2.071 -0.4174 -0.3241 -0.2222
 1862SOL     OW17218   0.150   0.138   7.539 -0.2345  0.2768 -0.1854
 1862SOL    HW117219   0.058   0.155   7.559 -0.2592  3.3124 -2.8482
 1862SOL    HW217220   0.190   0.209   7.589 -0.8789  0.1022  0.5775
 1863SOL     OW17221   2.179   4.402   3.220 -0.2534 -0.0594 -0.0383
 1863SOL    HW117222   2.265   4.424   3.256 -0.0881  0.1887 -0.5883
 1863SOL    HW217223   2.215   4.321   3.184 -1.7979 -0.9235  0.3774
 1864SOL     OW17224   1.556   2.942   2.593 -0.3888  0.1124 -0.0903
 1864SOL    HW117225   1.604   2.859   2.589  1.3190  1.0382  1.1010
 1864SOL    HW217226   1.490   2.929   2.661 -0.4035  0.0389 -0.1187
 1865SOL     OW17227   3.973   2.635   0.123 -0.0615  0.2657  0.7256
 1865SOL    HW117228   3.998   2.664   0.035 -1.5522 -1.5917 -0.3177
 1865SOL    HW217229   3.971   2.540   0.107 -2.3931  0.7105 -1.5021
 1866SOL     OW17230   4.099   0.018  10.402 -0.2145  0.3999 -0.7292
 1866SOL    HW117231   4.108   4.696  10.476  2.4473  0.5673 -0.9131
 1866SOL    HW217232   4.191   0.041  10.394 -0.3584  1.1803 -0.1768
 1867SOL     OW17233   0.648   2.174   9.367 -0.0708 -0.3424  0.3248
 1867SOL    HW117234   0.702   2.252   9.381 -0.5630  0.0873 -0.1523
 1867SOL    HW217235   0.597   2.203   9.292  0.9275 -0.1908 -0.2909
 1868SOL     OW17236   0.583   1.115   7.878  0.1336 -0.4784  0.4338
 1868SOL    HW117237   0.575   1.209   7.889  1.5501 -0.2691 -0.4194
 1868SOL    HW217238   0.610   1.096   7.968  1.4548  2.7744  0.7136
 1869SOL     OW17239   3.650   3.669  16.727  0.4226 -0.8510 -0.0816
 1869SOL    HW117240   3.619   3.704  16.811 -2.2560 -1.3358 -0.8823
 1869SOL    HW217241   3.737   3.709  16.716 -1.0140  2.6305  0.9992
 1870SOL     OW17242   3.526   0.619   5.126  0.2453  0.7473 -0.1226
 1870SOL    HW117243   3.501   0.623   5.218 -3.1613  0.0596 -1.0295
 1870SOL    HW217244   3.568   0.533   5.130 -0.6136  0.3687  0.7118
 1871SOL     OW17245   3.788   2.845  15.140  0.7631  0.2375  0.0707
 1871SOL    HW117246   3.796   2.753  15.116 -0.7665  0.3002 -0.6191
 1871SOL    HW217247   3.850   2.890  15.082 -0.5513 -0.3181 -1.7716
 1872SOL     OW17248   3.738   3.523   6.236  0.1147 -0.7302 -0.1290
 1872SOL    HW117249   3.683   3.471   6.296  3.2238 -0.7121  2.7458
 1872SOL    HW217250   3.828   3.500   6.259  0.3181 -1.5492 -1.7953
 1873SOL     OW17251   1.323   2.938   1.053 -0.1012 -0.0972  0.0619
 1873SOL    HW117252   1.281   2.892   1.125 -0.4580  0.6986  0.3610
 1873SOL    HW217253   1.284   2.888   0.981  2.2767 -0.9189 -0.6736
 1874SOL     OW17254   2.562   3.703  13.414 -0.6775  0.6013  0.1981
 1874SOL    HW117255   2.538   3.695  13.506  1.6839  0.9468  0.8352
 1874SOL    HW217256   2.633   3.639  13.422 -0.9219  0.2750 -0.2518
 1875SOL     OW17257   1.755   4.300  15.116 -0.5462  0.3926 -0.5445
 1875SOL    HW117258   1.847   4.285  15.137 -1.1251 -0.9250  1.1005
 1875SOL    HW217259   1.763   4.329  15.025 -0.0824 -0.2730 -0.7148
 1876SOL     OW17260   1.084   3.828   1.897 -0.6738  0.0534  0.1036
 1876SOL    HW117261   1.059   3.842   1.988 -0.7908  1.5493 -0.1619
 1876SOL    HW217262   1.004   3.851   1.849 -0.1228 -3.7514 -2.7068
 1877SOL     OW17263   4.186   2.935  12.964  0.0927 -0.3319  0.3900
 1877SOL    HW117264   4.123   2.946  12.893  0.7675 -1.6489 -0.4027
 1877SOL    HW217265   4.265   2.901  12.924 -1.1608 -0.2137 -2.1653
 1878SOL     OW17266   0.879   0.804  14.340 -0.1363 -0.3230  0.5150
 1878SOL    HW117267   0.804   0.758  14.303  0.0204 -0.3576  0.2407
 1878SOL    HW217268   0.945   0.746  14.303  0.9767  1.4902 -0.3408
 1879SOL     OW17269   0.619   3.567   5.831  0.1182  0.2137  0.4666
 1879SOL    HW117270   0.529   3.535   5.821  0.6636 -0.7662 -1.2170
 1879SOL    HW217271   0.609   3.650   5.878  0.4283  1.2527 -1.3233
 1880SOL     OW17272   4.652   0.947   8.162  0.0388  0.4299 -0.1617
 1880SOL    HW117273   4.600   1.018   8.124  1.2085  0.5409 -1.5548
 1880SOL    HW217274   4.697   0.909   8.087  1.2243 -1.3582  1.4619
 1881SOL     OW17275   3.975   1.177   3.141  0.2255  0.1321  0.0018
 1881SOL    HW117276   3.983   1.087   3.109  1.9893  0.7922 -1.4516
 1881SOL    HW217277   4.064   1.212   3.137  1.1517 -2.6301 -3.6387
 1882SOL     OW17278   0.364   3.475   4.086  0.0884  0.4440 -0.0724
 1882SOL    HW117279   0.411   3.553   4.059 -1.2327  1.6001  0.9545
 1882SOL    HW217280   0.383   3.425   4.006 -2.9460 -0.8090 -0.0288
 1883SOL     OW17281   2.442   3.332   6.595 -0.4491 -0.0104 -0.3321
 1883SOL    HW117282   2.394   3.268   6.648  1.4901 -1.1481  0.0875
 1883SOL    HW217283   2.450   3.411   6.648  0.8790 -0.7782  0.6400
 1884SOL     OW17284   2.333   0.591  12.083  0.7906  0.3409  0.1160
 1884SOL    HW117285   2.311   0.621  12.170 -1.7985 -0.5386 -0.2382
 1884SOL    HW217286   2.408   0.532  12.093 -1.7688 -2.7387  1.2312
 1885SOL     OW17287   2.675   3.083   7.702  0.4040  0.1207  0.0312
 1885SOL    HW117288   2.704   2.997   7.733  0.4994 -0.0941 -0.6437
 1885SOL    HW217289   2.761   3.126   7.706  0.7957 -0.6035 -0.4282
 1886SOL     OW17290   0.854   3.165   7.261  0.0786  0.0249 -0.3673
 1886SOL    HW117291   0.776   3.201   7.220 -1.5107 -1.4064  1.3905
 1886SOL    HW217292   0.905   3.239   7.294  0.5962 -0.6975  0.4714
 1887SOL     OW17293   4.198   1.584  15.174 -0.2969  0.2682  0.2393
 1887SOL    HW117294   4.195   1.491  15.155  2.5027  0.1218  0.5192
 1887SOL    HW217295   4.133   1.604  15.241 -0.8886 -1.5338  0.2022
 1888SOL     OW17296   4.187   1.295  17.713 -0.3749 -0.1207  0.2685
 1888SOL    HW117297   4.237   1.330  17.640  1.2975 -1.6265  0.6899
 1888SOL    HW217298   4.218   1.359   0.024  4.2524 -2.0391 -0.0234
 1889SOL     OW17299   1.437   4.292   6.461  0.1155 -0.2693 -0.4341
 1889SOL    HW117300   1.368   4.258   6.404 -0.5610 -1.2907  0.9705
 1889SOL    HW217301   1.461   4.208   6.501  0.8676 -0.4866 -1.3546
 1890SOL     OW17302   1.100   0.740  10.890 -0.0570  0.1611 -0.4515
 1890SOL    HW117303   1.168   0.701  10.836  0.4311 -0.4667  0.6000
 1890SOL    HW217304   1.150   0.819  10.912 -0.9380  0.1147  1.7309
 1891SOL     OW17305   1.668   3.495   6.569 -0.6430  0.0359 -0.4996
 1891SOL    HW117306   1.624   3.512   6.486  2.2959  2.7666 -1.4717
 1891SOL    HW217307   1.760   3.509   6.548 -0.6059 -0.8203 -0.8974
 1892SOL     OW17308   1.818   1.133   6.327 -0.0593 -0.1328 -0.3889
 1892SOL    HW117309   1.902   1.090   6.312  0.0566  0.1747 -0.6120
 1892SOL    HW217310   1.781   1.153   6.241 -0.6244 -0.1471 -0.1514
 1893SOL     OW17311   2.735   4.268  17.078  0.0099  0.3375 -0.0884
 1893SOL    HW117312   2.694   4.225  17.003  0.2732  0.2909 -0.2051
 1893SOL    HW217313   2.667   4.328  17.108 -0.4933 -0.4120  0.2821
 1894SOL     OW17314   0.908   1.483   4.236 -0.0329  0.4796  0.5778
 1894SOL    HW117315   0.891   1.497   4.330 -0.6699 -2.2018  0.8365
 1894SOL    HW217316   0.819   1.496   4.206  0.4301 -0.4733 -1.1624
 1895SOL     OW17317   0.791   2.502   0.033 -0.1622  0.3703  0.2206
 1895SOL    HW117318   0.696   2.505   0.047 -0.2584 -3.2952  0.3403
 1895SOL    HW217319   0.815   2.591   0.058  1.9140 -0.1801  0.1192
 1896SOL     OW17320   3.991   3.397  12.846  0.1245  0.4514  0.4871
 1896SOL    HW117321   4.077   3.402  12.885  0.0262 -0.4082  0.8082
 1896SOL    HW217322   3.958   3.486  12.832  0.3814  0.3142 -1.0708
 1897SOL     OW17323   0.311   1.580   2.386  0.6979 -0.2356  0.4000
 1897SOL    HW117324   0.220   1.601   2.364  0.4372 -1.2320  0.4900
 1897SOL    HW217325   0.343   1.665   2.356  0.5862 -0.2221  0.3172
 1898SOL     OW17326   2.997   2.604   8.100 -0.5552 -0.1692 -0.1212
 1898SOL    HW117327   2.976   2.559   8.182  2.2499  0.2520  0.8222
 1898SOL    HW217328   2.947   2.554   8.036  0.9959  0.5439 -1.8935
 1899SOL     OW17329   2.035   1.645  10.384 -0.1401  0.0032  0.2443
 1899SOL    HW117330   1.954   1.603  10.414 -0.3063  1.7443  2.2284
 1899SOL    HW217331   2.064   1.696  10.459  2.4477 -0.9715 -0.1143
 1900SOL     OW17332   1.353   1.760   9.388 -0.2616 -0.0217  0.1884
 1900SOL    HW117333   1.296   1.685   9.405 -2.4877  1.3715 -1.1831
 1900SOL    HW217334   1.388   1.787   9.473  1.7995  2.6841 -1.5270
 1901SOL     OW17335   2.874   0.363  13.944  0.4407 -0.2308  0.3934
 1901SOL    HW117336   2.796   0.368  13.997  0.4290 -0.6556  0.4189
 1901SOL    HW217337   2.854   0.285  13.892 -0.2686 -0.7607  1.4686
 1902SOL     OW17338   4.282   2.158   9.653  0.0606 -0.2805  0.0519
 1902SOL    HW117339   4.343   2.085   9.667  0.0562 -0.3387 -0.2297
 1902SOL    HW217340   4.341   2.226   9.618 -1.4442  0.0786 -1.7587
 1903SOL     OW17341   0.524   4.070  13.351 -0.3795 -0.7149 -0.1547
 1903SOL    HW117342   0.538   4.119  13.270  1.5447  1.4314  1.4813
 1903SOL    HW217343   0.432   4.093  13.365 -0.0588  1.3137 -1.5155
 1904SOL     OW17344   1.913   2.927   6.967  0.4181 -0.0417 -0.1499
 1904SOL    HW117345   1.950   2.873   7.037  1.9481 -0.9229 -1.6265
 1904SOL    HW217346   1.881   2.854   6.915  0.4582  0.6458 -1.1299
 1905SOL     OW17347   0.924   1.543   8.738 -0.3495  0.2938  0.0124
 1905SOL    HW117348   0.973   1.557   8.818  1.7344 -0.1634 -1.1896
 1905SOL    HW217349   0.992   1.511   8.679 -1.6943 -0.5898 -1.0767
 1906SOL     OW17350   4.736   3.547   8.038 -0.1700 -0.4595 -0.1745
 1906SOL    HW117351   0.081   3.502   8.032  0.9230  1.4995  0.2761
 1906SOL    HW217352   4.729   3.539   8.133 -0.4138 -1.8312 -0.3070
 1907SOL     OW17353   0.467   2.053   8.672 -0.0434 -0.3526  0.7207
 1907SOL    HW117354   0.478   2.145   8.647 -1.0276 -0.2113  0.7765
 1907SOL    HW217355   0.398   2.061   8.738  0.6499  0.2957  1.3689
 1908SOL     OW17356   2.930   1.870  12.681 -0.1743 -0.7089 -0.1492
 1908SOL    HW117357   2.958   1.937  12.619 -0.5181 -0.4913 -0.0682
 1908SOL    HW217358   3.011   1.822  12.695  1.7031  1.6159 -2.9188
 1909SOL     OW17359   1.742   2.152   2.430  0.3023 -0.5372 -0.2049
 1909SOL    HW117360   1.759   2.061   2.456  1.3797 -1.1874 -3.1884
 1909SOL    HW217361   1.716   2.196   2.511  0.8326 -1.1032  0.2786
 1910SOL     OW17362   4.322   3.508  13.898  0.0048  0.1281 -0.4003
 1910SOL    HW117363   4.339   3.450  13.823  1.2430 -0.4059  0.2935
 1910SOL    HW217364   4.227   3.507  13.908  0.4189  0.0602  3.4174
 1911SOL     OW17365   2.831   4.059   6.162  0.0088 -0.0286  0.4815
 1911SOL    HW117366   2.784   4.142   6.160 -1.0313 -0.6390 -0.6452
 1911SOL    HW217367   2.795   4.014   6.238  0.1572  1.3192  1.3522
 1912SOL     OW17368   3.391   4.243   2.613  0.7053  0.1040 -0.0691
 1912SOL    HW117369   3.405   4.148   2.615 -1.0517 -0.0792  3.2482
 1912SOL    HW217370   3.362   4.250   2.704 -0.2630  1.5433 -0.4826
 1913SOL     OW17371   4.697   0.466   8.442  0.1989  0.4698 -0.0158
 1913SOL    HW117372   4.677   0.495   8.353  0.8709 -0.5844 -0.5120
 1913SOL    HW217373   4.685   0.553   8.479  0.8110  0.6834 -0.3210
 1914SOL     OW17374   2.913   4.657   0.468  0.1626 -0.2002  0.5539
 1914SOL    HW117375   2.834   4.710   0.474 -0.9627 -1.6045 -1.7583
 1914SOL    HW217376   2.920   4.647   0.373  1.1650 -1.2032  0.7271
 1915SOL     OW17377   0.195   3.720   4.221  0.2625  0.0671 -0.1743
 1915SOL    HW117378   0.265   3.704   4.284 -0.3300  0.8379  0.6662
 1915SOL    HW217379   0.234   3.780   4.157  1.7192 -0.1941  0.4728
 1916SOL     OW17380   0.496   4.607  10.803  0.5163 -0.4030 -0.2246
 1916SOL    HW117381   0.555   4.534  10.786  0.1034 -0.4922 -1.2441
 1916SOL    HW217382   0.445   4.568  10.874 -0.4626  0.1993 -0.5943
 1917SOL     OW17383   3.358   2.361  15.852  0.1440 -0.4354 -0.3835
 1917SOL    HW117384   3.307   2.385  15.774  0.7695 -1.9820 -1.2765
 1917SOL    HW217385   3.309   2.399  15.924  0.0191  0.2189 -0.8172
 1918SOL     OW17386   3.353   1.604   3.788  0.9482 -0.3102  0.5224
 1918SOL    HW117387   3.309   1.584   3.705  0.4278 -0.1585  0.7612
 1918SOL    HW217388   3.436   1.560   3.771  0.9459 -0.2780  0.4274
 1919SOL     OW17389   4.149   1.874   6.195 -0.2687  0.0804  0.3111
 1919SOL    HW117390   4.177   1.926   6.271  2.1282 -1.4132  0.4276
 1919SOL    HW217391   4.053   1.879   6.199 -0.2695  1.4715 -1.5114
 1920SOL     OW17392   2.836   0.163   0.070  0.3590  0.3591  0.3970
 1920SOL    HW117393   2.868   0.083   0.029  0.8883  0.2325  1.0560
 1920SOL    HW217394   2.916   0.195   0.114 -0.3217 -0.8361  2.5100
 1921SOL     OW17395   1.237   4.152   3.516 -0.3890 -0.3361 -0.0127
 1921SOL    HW117396   1.302   4.220   3.499 -0.7365  0.2867  1.1738
 1921SOL    HW217397   1.187   4.193   3.586  1.0202 -0.3890  1.0110
 1922SOL     OW17398   0.744   0.632   4.493  0.3425  0.3375 -0.1421
 1922SOL    HW117399   0.652   0.629   4.521  0.1537 -2.0332 -0.9948
 1922SOL    HW217400   0.769   0.548   4.531 -0.7063 -0.4532 -1.2063
 1923SOL     OW17401   3.945   3.952  14.868  0.1406  0.3703 -0.4336
 1923SOL    HW117402   4.022   3.995  14.831  2.7010 -2.9893  1.0044
 1923SOL    HW217403   3.977   3.891  14.935  0.7574  0.5781 -0.5426
 1924SOL     OW17404   1.173   4.010   8.919  0.0584 -0.0328  0.0376
 1924SOL    HW117405   1.258   4.008   8.875  0.4085 -0.6117  0.7283
 1924SOL    HW217406   1.137   3.931   8.881 -0.7630 -0.0442  0.8494
 1925SOL     OW17407   0.721   0.647  14.734  0.2529  0.0342 -0.5002
 1925SOL    HW117408   0.646   0.609  14.688  0.7255  0.3056 -1.4922
 1925SOL    HW217409   0.748   0.724  14.684 -2.9788  1.0939 -0.5928
 1926SOL     OW17410   2.259   2.843   7.735 -0.3165 -0.4959 -0.2781
 1926SOL    HW117411   2.303   2.836   7.820  0.4694  1.6613 -0.4975
 1926SOL    HW217412   2.339   2.853   7.684 -0.3960  1.6924  0.0035
 1927SOL     OW17413   4.637   0.805   3.181  0.4420  0.3253  0.0482
 1927SOL    HW117414   4.630   0.840   3.092 -0.0844 -1.4626 -0.6231
 1927SOL    HW217415   4.712   0.746   3.176  0.2789  0.0636  0.7361
 1928SOL     OW17416   2.935   1.637   7.022  0.6061  0.1005 -0.3657
 1928SOL    HW117417   2.968   1.694   7.092  1.8613  1.0987 -1.7652
 1928SOL    HW217418   2.842   1.661   7.022  1.5026  3.5275 -1.0246
 1929SOL     OW17419   0.416   0.188  17.714  0.2389 -0.6543  0.1814
 1929SOL    HW117420   0.501   0.160  17.680 -0.7440 -1.0636 -1.9188
 1929SOL    HW217421   0.364   0.112  17.689  0.4271 -0.8413  0.3660
 1930SOL     OW17422   2.799   2.457   7.942  0.1760 -0.5724 -0.1306
 1930SOL    HW117423   2.745   2.476   8.019  2.0776  2.6659  0.4104
 1930SOL    HW217424   2.737   2.402   7.894 -0.6703  1.0425 -0.8885
 1931SOL     OW17425   2.280   4.032   6.772  0.5126 -0.1150 -0.5034
 1931SOL    HW117426   2.244   4.120   6.782  1.5793  0.1840  0.7159
 1931SOL    HW217427   2.200   3.980   6.766 -1.1584  2.4448 -0.7507
 1932SOL     OW17428   3.687   2.645   8.403  0.3126 -0.2680 -0.4387
 1932SOL    HW117429   3.609   2.613   8.448  2.2599  0.1650  3.2676
 1932SOL    HW217430   3.697   2.738   8.423  2.7726 -0.2137 -2.0020
 1933SOL     OW17431   1.628   0.930   8.399 -0.1437  0.2362 -0.0219
 1933SOL    HW117432   1.629   0.968   8.311  1.4470 -1.6086 -0.8100
 1933SOL    HW217433   1.646   1.008   8.452  0.6053 -0.2194  0.3938
 1934SOL     OW17434   3.570   3.221   2.155  0.3357  0.1945 -0.9474
 1934SOL    HW117435   3.556   3.179   2.070 -2.8448 -0.8061  0.0873
 1934SOL    HW217436   3.590   3.136   2.192 -1.8713  0.0713 -0.0728
 1935SOL     OW17437   3.313   3.853   2.819  0.0612 -0.9869  0.2595
 1935SOL    HW117438   3.353   3.894   2.896  0.1291 -0.3996 -0.0935
 1935SOL    HW217439   3.378   3.887   2.758 -0.8282 -0.8368 -0.6157
 1936SOL     OW17440   4.428   2.698  16.740 -0.1631 -0.3200  0.4212
 1936SOL    HW117441   4.475   2.779  16.722  1.0249 -0.9275  0.7795
 1936SOL    HW217442   4.476   2.646  16.676  1.3547  0.7988  0.6517
 1937SOL     OW17443   3.687   4.273   2.684  0.5305  0.1661  0.1548
 1937SOL    HW117444   3.710   4.366   2.672  0.8720 -0.0680 -0.9814
 1937SOL    HW217445   3.591   4.272   2.679  0.4323 -0.5567  2.0412
 1938SOL     OW17446   4.074   1.550   8.325 -0.2248 -0.4393 -0.0647
 1938SOL    HW117447   4.020   1.519   8.398 -2.2757  0.0440 -1.3875
 1938SOL    HW217448   4.157   1.552   8.374 -0.3179 -0.2811  0.0884
 1939SOL     OW17449   2.221   1.896   8.728 -0.7235 -0.3320 -0.0020
 1939SOL    HW117450   2.225   1.984   8.691  0.0941 -0.6817 -0.7566
 1939SOL    HW217451   2.234   1.917   8.821 -1.4958 -0.5744  0.1597
 1940SOL     OW17452   1.944   3.141  10.667  0.4120  0.0731 -0.2808
 1940SOL    HW117453   1.874   3.177  10.722  0.6978  0.8703 -0.4331
 1940SOL    HW217454   2.010   3.210  10.679  0.1181  0.2812  0.1782
 1941SOL     OW17455   3.029   0.552   2.582  0.1022 -0.1802 -0.0741
 1941SOL    HW117456   3.029   0.468   2.536  2.4528 -0.5070  0.5475
 1941SOL    HW217457   2.979   0.533   2.661  1.0166  3.5485  1.3805
 1942SOL     OW17458   3.746   4.031  15.640  0.1344 -0.4495  0.4438
 1942SOL    HW117459   3.793   4.051  15.560 -1.4160 -0.6691 -0.5301
 1942SOL    HW217460   3.727   3.938  15.638 -1.1419 -0.2019  0.5863
 1943SOL     OW17461   4.130   3.548   3.016 -0.1704  0.3467 -0.2567
 1943SOL    HW117462   4.190   3.505   3.077  0.9425  0.2716 -1.4025
 1943SOL    HW217463   4.055   3.491   3.031  0.0259 -0.1636 -1.2084
 1944SOL     OW17464   3.329   0.319   2.512  0.3160 -0.3346  0.2054
 1944SOL    HW117465   3.238   0.296   2.530 -0.2519  1.5105 -0.3797
 1944SOL    HW217466   3.362   0.310   2.602 -2.0859  0.0378  1.1144
 1945SOL     OW17467   0.190   3.873   6.206 -0.2494  0.1397 -0.2155
 1945SOL    HW117468   0.165   3.815   6.134 -1.4188 -0.2691  0.5051
 1945SOL    HW217469   0.108   3.893   6.250 -0.8209 -3.6970  0.4774
 1946SOL     OW17470   1.473   1.051   9.893 -0.5310 -0.4182  0.7634
 1946SOL    HW117471   1.443   1.107   9.822 -0.0533 -0.3697  0.5967
 1946SOL    HW217472   1.568   1.057   9.880 -0.9765  1.9690 -1.3724
 1947SOL     OW17473   4.397   0.393  15.428 -1.1438 -0.4018 -0.8342
 1947SOL    HW117474   4.394   0.473  15.375  1.8790  0.5317  0.3960
 1947SOL    HW217475   4.309   0.361  15.406 -2.9067  1.6101  3.3079
 1948SOL     OW17476   1.597   1.513   4.063 -0.2438  0.5625 -0.1507
 1948SOL    HW117477   1.652   1.525   4.140 -0.9394 -2.9202  0.8854
 1948SOL    HW217478   1.510   1.521   4.101  0.0438 -2.0435  1.0259
 1949SOL     OW17479   3.795   2.564  17.384  0.5890 -0.6810 -0.2306
 1949SOL    HW117480   3.740   2.573  17.463  0.7607  2.8493 -0.4993
 1949SOL    HW217481   3.739   2.599  17.315  1.5183 -1.0308 -1.1487
 1950SOL     OW17482   1.847   0.793   3.282  0.2239 -0.1074  0.1778
 1950SOL    HW117483   1.890   0.867   3.324  0.7939  0.5839 -1.6186
 1950SOL    HW217484   1.839   0.828   3.193 -0.1897 -1.8139 -0.4624
 1951SOL     OW17485   4.548   1.082   3.163 -0.1643 -0.4431 -0.2910
 1951SOL    HW117486   4.544   1.009   3.224  0.1810 -0.5046 -0.3411
 1951SOL    HW217487   4.617   1.054   3.103 -0.7165 -0.4692 -0.9134
 1952SOL     OW17488   0.188   4.410   8.267  0.4190  0.0729  0.2683
 1952SOL    HW117489   0.236   4.390   8.187 -1.4262 -0.9223 -0.5829
 1952SOL    HW217490   0.213   4.503   8.269 -0.5805  0.3628 -0.9592
 1953SOL     OW17491   2.975   3.864  15.760  0.1265  0.4492  0.2210
 1953SOL    HW117492   3.064   3.851  15.794 -0.1400  1.0697  1.1360
 1953SOL    HW217493   2.946   3.940  15.810 -0.7701 -0.5228  1.1737
 1954SOL     OW17494   1.679   3.000   5.197  0.0670 -0.1213  0.0422
 1954SOL    HW117495   1.713   2.965   5.114  3.1540 -1.5419  1.8828
 1954SOL    HW217496   1.714   2.930   5.252 -1.0682  2.0592  3.5199
 1955SOL     OW17497   3.131   3.710   4.974 -0.0633 -0.5083  0.0482
 1955SOL    HW117498   3.129   3.615   4.988  2.2228 -0.9037 -2.2249
 1955SOL    HW217499   3.178   3.742   5.051  0.8070  0.4559 -0.8868
 1956SOL     OW17500   4.000   0.366  16.467 -0.0521  0.9506 -0.1084
 1956SOL    HW117501   3.961   0.408  16.543 -0.9938 -0.1127 -0.0045
 1956SOL    HW217502   3.925   0.346  16.411 -1.7969 -1.2246  3.0208
 1957SOL     OW17503   1.945   4.495   3.950 -0.9277  0.0901  0.4383
 1957SOL    HW117504   1.874   4.495   3.885  0.6766  0.5689 -1.3102
 1957SOL    HW217505   1.921   4.422   4.008 -0.1049 -0.1416  0.4891
 1958SOL     OW17506   2.224   3.983   7.794 -0.2067 -0.8446  0.6460
 1958SOL    HW117507   2.295   3.964   7.855 -0.2020  0.7699  1.1184
 1958SOL    HW217508   2.248   4.074   7.781 -0.0844 -0.7693  1.3814
 1959SOL     OW17509   2.579   2.750   3.630 -0.1355  0.0322  0.1165
 1959SOL    HW117510   2.556   2.713   3.715  0.3248 -1.5727 -0.4715
 1959SOL    HW217511   2.671   2.764   3.653 -0.2255 -0.5286  0.7950
 1960SOL     OW17512   3.351   3.175   7.656 -0.6061 -0.3163  0.0706
 1960SOL    HW117513   3.326   3.086   7.682 -2.5683  0.7296  1.7268
 1960SOL    HW217514   3.411   3.148   7.587 -0.4049  1.0950 -0.3051
 1961SOL     OW17515   3.864   2.442   7.407 -0.1415 -0.1291 -0.3140
 1961SOL    HW117516   3.802   2.475   7.342  0.3972  1.1989 -0.1608
 1961SOL    HW217517   3.944   2.490   7.383  0.4889 -0.4350  1.1579
 1962SOL     OW17518   3.721   3.673   8.576  0.3210 -0.0807  0.6640
 1962SOL    HW117519   3.685   3.684   8.664 -1.1739 -0.0670  0.0458
 1962SOL    HW217520   3.648   3.630   8.531  0.8080  1.7908 -1.9508
 1963SOL     OW17521   1.247   4.123   0.912 -0.0518 -0.4781  0.2633
 1963SOL    HW117522   1.316   4.140   0.976 -0.9846 -0.8825  1.3927
 1963SOL    HW217523   1.255   4.028   0.898  2.1130 -0.2903  0.3149
 1964SOL     OW17524   1.411   1.122   0.038  0.0092  0.2394 -0.0773
 1964SOL    HW117525   1.401   1.217   0.048  0.6615  0.1988  0.9017
 1964SOL    HW217526   1.321   1.096   0.054  0.3411 -0.7930  0.0548
 1965SOL     OW17527   2.476   1.573   5.681  0.0829 -0.6883 -0.3213
 1965SOL    HW117528   2.497   1.484   5.650 -0.3012 -0.9089  0.0641
 1965SOL    HW217529   2.491   1.621   5.599  0.1467  0.5672  0.4393
 1966SOL     OW17530   4.576   3.180   5.406 -0.4466 -0.3147  0.1111
 1966SOL    HW117531   4.649   3.140   5.452 -0.7591  0.5452  1.3582
 1966SOL    HW217532   4.503   3.131   5.445  0.0914 -1.5457 -0.4240
 1967SOL     OW17533   2.764   4.139   7.120  0.1499 -0.0480  0.0797
 1967SOL    HW117534   2.670   4.125   7.131 -0.1720  1.0152 -1.3315
 1967SOL    HW217535   2.804   4.071   7.175 -0.4787 -1.7677 -1.5753
 1968SOL     OW17536   0.883   4.598   7.546 -0.6015  0.5324 -0.4790
 1968SOL    HW117537   0.874   4.690   7.521 -1.4796  0.6781  0.3908
 1968SOL    HW217538   0.910   4.609   7.637  1.3705 -0.1133 -0.9787
 1969SOL     OW17539   2.788   3.957   8.454 -0.0798 -0.0483 -0.6838
 1969SOL    HW117540   2.829   4.041   8.472 -1.8849  0.3228  1.7439
 1969SOL    HW217541   2.699   3.985   8.474 -0.6963 -2.0101 -0.6189
 1970SOL     OW17542   2.951   4.554  13.360  0.1855  0.4793 -0.2151
 1970SOL    HW117543   3.024   4.615  13.369  0.2684  0.4931 -0.9622
 1970SOL    HW217544   2.877   4.612  13.375  0.4070  0.5097  0.7194
 1971SOL     OW17545   0.623   2.019  16.712 -0.2735  0.0039 -0.2815
 1971SOL    HW117546   0.710   2.010  16.673  0.6722 -0.0051  1.7865
 1971SOL    HW217547   0.584   1.970  16.640 -1.4579 -0.0899  0.4175
 1972SOL     OW17548   0.090   1.407  10.997  0.1034 -0.4486 -0.1883
 1972SOL    HW117549   0.124   1.322  11.025  1.1426 -0.1714 -0.5819
 1972SOL    HW217550   4.738   1.409  11.027  0.6804 -0.0245  1.4935
 1973SOL     OW17551   0.416   1.834   7.073 -0.3054  0.0601 -0.8887
 1973SOL    HW117552   0.358   1.903   7.104 -0.2552 -0.2831 -0.0047
 1973SOL    HW217553   0.417   1.846   6.979  2.0040  0.8634 -0.7711
 1974SOL     OW17554   1.882   0.573   3.771  0.0706  0.0189  0.2368
 1974SOL    HW117555   1.948   0.605   3.832 -1.3391  0.5453  1.4741
 1974SOL    HW217556   1.852   0.651   3.725  0.2044  0.3364  0.6955
 1975SOL     OW17557   1.814   1.851  16.433 -0.9050 -0.6981  0.2876
 1975SOL    HW117558   1.844   1.760  16.426 -0.6548 -0.6303  0.4887
 1975SOL    HW217559   1.900   1.892  16.435 -1.5477  0.7035 -0.9525
 1976SOL     OW17560   2.036   0.594  14.982 -0.5134  0.1082 -0.1133
 1976SOL    HW117561   2.021   0.681  14.944  1.7572  0.1471 -0.9598
 1976SOL    HW217562   2.090   0.634  15.051 -1.1570 -0.2145  0.5657
 1977SOL     OW17563   0.718   1.747   0.803  0.7658 -0.8969  0.6332
 1977SOL    HW117564   0.678   1.705   0.879  0.5131 -1.2802  0.2882
 1977SOL    HW217565   0.640   1.741   0.749  1.5970 -0.5585 -0.6150
 1978SOL     OW17566   3.953   0.288   5.087 -0.1921  0.2348 -0.3526
 1978SOL    HW117567   3.876   0.242   5.122  0.8303  0.1238  1.7978
 1978SOL    HW217568   4.008   0.295   5.165 -0.4946 -0.3606 -0.0798
 1979SOL     OW17569   3.540   3.716   0.147  0.0486  0.8131  0.0100
 1979SOL    HW117570   3.496   3.785   0.196 -0.9405  0.5291 -0.4807
 1979SOL    HW217571   3.616   3.695   0.202 -2.5052  1.2113  3.6330
 1980SOL     OW17572   4.651   1.709   8.769  0.0886 -0.2112  0.0566
 1980SOL    HW117573   4.573   1.742   8.812  0.3351  0.6368 -0.1450
 1980SOL    HW217574   4.621   1.686   8.681 -2.3474  0.9858  0.5931
 1981SOL     OW17575   1.596   2.042  14.662  0.1174  0.4161 -0.2148
 1981SOL    HW117576   1.622   2.095  14.587 -2.5711 -1.2721 -2.3269
 1981SOL    HW217577   1.537   1.977  14.623 -0.7324 -0.3816  2.4137
 1982SOL     OW17578   1.460   1.551   6.395  0.5453 -0.3446  0.1277
 1982SOL    HW117579   1.441   1.518   6.482 -1.1253  0.3201  0.0227
 1982SOL    HW217580   1.486   1.638   6.425 -1.2641  0.9749 -2.0359
 1983SOL     OW17581   1.777   3.150   5.599 -0.3293 -0.4215  0.2523
 1983SOL    HW117582   1.728   3.145   5.518 -1.1207  1.4471  0.6122
 1983SOL    HW217583   1.723   3.210   5.651  0.1716 -1.0093  1.4616
 1984SOL     OW17584   2.867   2.119   3.505  0.7509 -0.1207  0.7223
 1984SOL    HW117585   2.917   2.129   3.424 -0.3137  1.3047  0.2423
 1984SOL    HW217586   2.940   2.115   3.566  0.8877 -1.2578  0.4825
 1985SOL     OW17587   3.218   4.314  14.857  0.7578  0.6354 -0.0909
 1985SOL    HW117588   3.205   4.287  14.767 -0.4078  0.8816 -0.0015
 1985SOL    HW217589   3.309   4.342  14.857  0.6589  0.9405 -1.0588
 1986SOL     OW17590   2.639   3.489   5.479  0.2205  0.4581  0.4993
 1986SOL    HW117591   2.547   3.514   5.477 -0.4738 -1.8155  3.1211
 1986SOL    HW217592   2.664   3.524   5.564  0.5943  0.0622  0.5550
 1987SOL     OW17593   2.019   4.242  12.434 -0.3452 -0.2953 -0.5665
 1987SOL    HW117594   2.062   4.280  12.357 -1.6041  1.9801 -0.1600
 1987SOL    HW217595   2.065   4.282  12.508  0.9469  0.7424 -1.9196
 1988SOL     OW17596   1.125   0.156   7.829  0.2322  0.5129 -0.1197
 1988SOL    HW117597   1.180   0.108   7.891  0.6532  0.3904 -0.5921
 1988SOL    HW217598   1.048   0.181   7.880  0.4431 -0.1568  0.5333
 1989SOL     OW17599   3.774   3.361   8.362  0.1817  0.0061 -0.1890
 1989SOL    HW117600   3.803   3.279   8.322 -0.4666  1.0007 -2.6468
 1989SOL    HW217601   3.861   3.388   8.392  0.2012  1.7234 -1.8289
 1990SOL     OW17602   4.583   0.374  12.344 -0.6201  0.3333 -0.5206
 1990SOL    HW117603   4.508   0.414  12.388  0.1506  3.1345 -1.7728
 1990SOL    HW217604   4.615   0.317  12.414 -0.2851  1.5591  0.3224
 1991SOL     OW17605   3.851   3.852  16.671  0.4422  0.4982 -0.4603
 1991SOL    HW117606   3.931   3.802  16.686  0.4246  0.2435 -1.2464
 1991SOL    HW217607   3.873   3.896  16.589 -1.9787  0.6011 -1.0572
 1992SOL     OW17608   0.390   0.509   2.686 -0.3386 -0.6680 -0.3286
 1992SOL    HW117609   0.355   0.525   2.774 -0.8112  0.7966 -0.7784
 1992SOL    HW217610   0.324   0.547   2.628 -0.7478 -0.2466  0.4016
 1993SOL     OW17611   2.983   4.088  16.943 -0.0421  0.0075 -0.1421
 1993SOL    HW117612   2.908   4.102  16.885 -0.2689 -2.8355 -0.5157
 1993SOL    HW217613   2.957   4.143  17.017 -0.7516 -2.0189  1.1031
 1994SOL     OW17614   0.437   3.298   0.844  0.0689  0.1543  0.1823
 1994SOL    HW117615   0.349   3.275   0.814  0.4883 -0.8607 -0.2670
 1994SOL    HW217616   0.483   3.215   0.834  1.1850  0.9436 -1.3173
 1995SOL     OW17617   3.889   3.297   3.852  0.0083  0.0912  0.7680
 1995SOL    HW117618   3.868   3.288   3.945 -0.2354 -0.2671  0.6767
 1995SOL    HW217619   3.799   3.294   3.822  0.3800  0.3884 -0.3816
 1996SOL     OW17620   3.317   4.172   2.871 -0.1269  0.0639  0.3171
 1996SOL    HW117621   3.390   4.111   2.872 -1.1930 -1.2519 -1.4965
 1996SOL    HW217622   3.287   4.187   2.960  0.3352 -2.9327  0.9614
 1997SOL     OW17623   3.367   1.957   1.402  0.0837  0.0484 -0.0339
 1997SOL    HW117624   3.408   2.044   1.403 -0.0927  0.1269  0.3204
 1997SOL    HW217625   3.417   1.923   1.476  1.9506 -1.4191 -1.9842
 1998SOL     OW17626   4.652   1.209   8.572 -0.1809 -0.1139  0.3380
 1998SOL    HW117627   4.635   1.149   8.644 -0.0736  0.8223  1.1486
 1998SOL    HW217628   4.710   1.279   8.603  0.0795  0.1535 -0.7418
 1999SOL     OW17629   1.551   2.107   5.828 -0.3592  0.2766  0.2439
 1999SOL    HW117630   1.593   2.026   5.796 -1.5751 -0.6253  0.9162
 1999SOL    HW217631   1.484   2.104   5.759 -1.1272  2.0441  0.9205
 2000SOL     OW17632   4.543   3.781   2.808 -0.6173  0.0223  1.0005
 2000SOL    HW117633   4.571   3.870   2.785 -0.3664  0.0022  1.2199
 2000SOL    HW217634   4.635   3.755   2.820 -1.2042 -2.6040 -0.3296
 2001SOL     OW17635   1.438   0.965  16.665 -0.3348  0.4325 -0.3218
 2001SOL    HW117636   1.518   0.935  16.621  0.8874  1.9549  0.8467
 2001SOL    HW217637   1.367   0.920  16.621 -1.1282  0.7283  0.6605
 2002SOL     OW17638   0.306   1.506   5.512 -0.4283 -0.0598 -0.3748
 2002SOL    HW117639   0.233   1.567   5.525 -0.3821 -0.2700  0.8214
 2002SOL    HW217640   0.332   1.487   5.602 -0.1153 -3.8729 -1.2557
 2003SOL     OW17641   2.855   0.255   3.144 -0.3602  0.1749  0.5773
 2003SOL    HW117642   2.878   0.214   3.060  3.8571  0.2538  1.7122
 2003SOL    HW217643   2.760   0.245   3.150 -0.1749 -1.6311  0.5796
 2004SOL     OW17644   0.685   2.268   7.383  0.1107 -0.1666 -0.2058
 2004SOL    HW117645   0.632   2.323   7.440 -0.9051  0.1416 -1.4665
 2004SOL    HW217646   0.608   2.244   7.331 -0.8240  2.8460 -0.1758
 2005SOL     OW17647   1.460   2.809  14.550  0.1045 -0.4645 -0.3061
 2005SOL    HW117648   1.424   2.895  14.572  1.2719 -0.2861  0.8923
 2005SOL    HW217649   1.506   2.833  14.470  2.3333  1.3466  1.5264
 2006SOL     OW17650   2.096   1.787  16.055  0.5617 -0.1824  0.7733
 2006SOL    HW117651   2.073   1.879  16.048 -0.0219 -0.5238 -1.8359
 2006SOL    HW217652   2.071   1.758  16.143  0.0681 -1.9120  0.0785
 2007SOL     OW17653   3.096   1.012   0.336 -0.0566 -0.5115  0.3603
 2007SOL    HW117654   3.009   0.999   0.374 -0.3079 -0.3179 -0.1443
 2007SOL    HW217655   3.079   1.096   0.295  0.7822 -0.3259  0.3836
 2008SOL     OW17656   4.288   2.663  13.985 -0.2464 -0.2193 -0.1865
 2008SOL    HW117657   4.378   2.691  14.003 -0.4818 -0.4541  1.3278
 2008SOL    HW217658   4.261   2.740  13.936  2.5615  0.0001 -1.3872
 2009SOL     OW17659   0.438   1.427  13.886 -0.0643 -0.2528 -0.1266
 2009SOL    HW117660   0.459   1.364  13.955 -1.9048 -0.4088  0.2786
 2009SOL    HW217661   0.422   1.370  13.811  0.0639 -0.4030 -0.0396
 2010SOL     OW17662   3.926   1.696   7.655  0.0950  0.1564  0.1418
 2010SOL    HW117663   3.881   1.730   7.578 -0.0327 -1.9985 -0.7551
 2010SOL    HW217664   3.908   1.762   7.721 -0.7955  1.1693 -1.1221
 2011SOL     OW17665   4.420   0.802  10.258  0.8653  0.1247  0.4706
 2011SOL    HW117666   4.433   0.782  10.350 -0.2066 -0.9872  0.3780
 2011SOL    HW217667   4.328   0.788  10.235  0.5529  1.5459  0.8464
 2012SOL     OW17668   1.512   4.564  16.567  0.7470 -0.8977 -0.8517
 2012SOL    HW117669   1.425   4.533  16.540 -0.3368 -0.0434  1.5850
 2012SOL    HW217670   1.535   4.485  16.616  4.0365  0.7943  0.3422
 2013SOL     OW17671   0.146   2.784   2.216 -0.4729 -0.6995  0.0266
 2013SOL    HW117672   0.086   2.859   2.213  2.8642  2.0633  1.0397
 2013SOL    HW217673   0.102   2.718   2.164 -1.4752  0.0126 -0.0325
 2014SOL     OW17674   3.362   1.800  17.509  0.3426 -0.2150  0.0382
 2014SOL    HW117675   3.281   1.830  17.467 -0.4548 -1.3544  0.7528
 2014SOL    HW217676   3.419   1.812  17.433  2.1949  0.5486  1.5510
 2015SOL     OW17677   1.160   3.288   3.653  0.2256  0.7633 -0.1575
 2015SOL    HW117678   1.232   3.227   3.639  0.8145  1.4586 -0.1793
 2015SOL    HW217679   1.179   3.343   3.729  0.1332  1.3506 -0.5542
 2016SOL     OW17680   1.965   0.755   2.492 -0.6398 -0.5840 -0.2939
 2016SOL    HW117681   2.016   0.700   2.432  0.8652  1.0816 -0.5594
 2016SOL    HW217682   1.915   0.814   2.435 -2.2302 -0.3447  1.3823
 2017SOL     OW17683   3.617   3.278   3.768 -0.0685  0.9112 -0.0419
 2017SOL    HW117684   3.533   3.287   3.723  0.1016  0.5876 -0.4272
 2017SOL    HW217685   3.669   3.223   3.710  0.6253  0.6037  0.8692
 2018SOL     OW17686   2.758   1.797   5.200 -0.2485  0.2370  0.6358
 2018SOL    HW117687   2.687   1.838   5.151  0.2813  1.8053  1.1704
 2018SOL    HW217688   2.718   1.778   5.285 -0.4492 -1.5976  0.1317
 2019SOL     OW17689   3.909   2.058   5.919  0.7767  0.2888 -0.3128
 2019SOL    HW117690   3.882   2.122   5.854  0.7307 -0.5328 -1.0936
 2019SOL    HW217691   3.871   2.109   5.991  2.8509  0.9283  0.3341
 2020SOL     OW17692   1.298   2.533  16.353 -0.1229 -0.0984 -0.5989
 2020SOL    HW117693   1.281   2.625  16.334  1.9702  0.0327 -1.8827
 2020SOL    HW217694   1.348   2.502  16.278  0.0018 -2.4817  0.4622
 2021SOL     OW17695   0.754   2.744  14.625 -0.5222  0.1587 -0.1816
 2021SOL    HW117696   0.681   2.722  14.568 -0.8760  0.3459  0.2047
 2021SOL    HW217697   0.765   2.660  14.669 -0.5001  0.2127 -0.0832
 2022SOL     OW17698   2.810   3.250   6.734 -0.1812  0.4136  0.1131
 2022SOL    HW117699   2.846   3.238   6.647 -0.7654 -2.3921  0.2625
 2022SOL    HW217700   2.777   3.168   6.772 -1.3657  2.0704  2.6709
 2023SOL     OW17701   3.815   1.890   3.805 -0.6340  0.2083  0.2619
 2023SOL    HW117702   3.833   1.876   3.898 -0.6031 -1.7166 -0.0201
 2023SOL    HW217703   3.811   1.985   3.810  0.0940  0.3189 -1.2650
 2024SOL     OW17704   2.252   2.617   7.537 -0.0845  0.4161  0.2874
 2024SOL    HW117705   2.250   2.701   7.583 -0.8115  0.3029  0.4505
 2024SOL    HW217706   2.158   2.605   7.527  0.4153 -2.4081 -1.0889
 2025SOL     OW17707   0.195   1.845   6.552 -0.0522  0.4166  0.6906
 2025SOL    HW117708   0.133   1.914   6.528 -0.9064 -1.1885 -1.7113
 2025SOL    HW217709   0.134   1.791   6.603  0.2481  1.3289  1.9934
 2026SOL     OW17710   1.144   4.096  16.251 -0.3795  0.6462  0.3391
 2026SOL    HW117711   1.050   4.080  16.251 -0.2094 -0.3774  0.3328
 2026SOL    HW217712   1.144   4.148  16.331  2.3070  0.4379  0.4907
 2027SOL     OW17713   3.500   2.310   3.011 -0.0296  0.4047  0.0202
 2027SOL    HW117714   3.511   2.328   3.104 -2.7424  1.1895  0.1724
 2027SOL    HW217715   3.468   2.220   3.019  0.8561  0.1324  0.6022
 2028SOL     OW17716   3.299   0.630  11.840 -0.1078  0.2674 -0.1234
 2028SOL    HW117717   3.254   0.714  11.827 -1.1251 -0.5141 -1.6817
 2028SOL    HW217718   3.343   0.657  11.920  1.1181 -1.4547 -0.2086
 2029SOL     OW17719   2.306   2.288  11.588  0.4951 -0.2875  0.3225
 2029SOL    HW117720   2.322   2.331  11.672 -0.7768  0.6243  0.0944
 2029SOL    HW217721   2.210   2.283  11.592  0.6195 -0.1614  3.0606
 2030SOL     OW17722   0.142   0.202   8.368  0.8162 -0.6159 -0.3792
 2030SOL    HW117723   0.108   0.229   8.453 -0.8083 -1.7043 -0.6742
 2030SOL    HW217724   0.228   0.243   8.379 -0.4903  2.1139 -0.4606
 2031SOL     OW17725   4.146   2.571   4.961 -0.1233  0.2877  0.3700
 2031SOL    HW117726   4.078   2.565   5.029 -1.7051 -0.5324 -1.2698
 2031SOL    HW217727   4.134   2.660   4.930 -1.6787 -0.2262 -0.5333
 2032SOL     OW17728   2.347   0.404  13.499  0.0128 -0.4937 -0.2213
 2032SOL    HW117729   2.326   0.314  13.476 -0.1976 -0.1286 -1.4606
 2032SOL    HW217730   2.345   0.448  13.414  2.4458  1.6787  0.8459
 2033SOL     OW17731   0.259   4.618   2.788  0.2922 -0.4509 -0.7036
 2033SOL    HW117732   0.261   4.554   2.859  1.5532  1.4564  0.9729
 2033SOL    HW217733   0.352   4.629   2.771  0.4596 -1.0913 -0.1933
 2034SOL     OW17734   1.363   0.843   7.867  0.2819  0.4923 -0.1719
 2034SOL    HW117735   1.451   0.805   7.861  0.1720  0.7662 -3.6274
 2034SOL    HW217736   1.311   0.770   7.832  0.8429 -1.1624  2.3944
 2035SOL     OW17737   1.767   1.109   3.676 -0.2224 -0.6071  0.0690
 2035SOL    HW117738   1.677   1.125   3.704  0.2494  0.6245  0.8530
 2035SOL    HW217739   1.798   1.056   3.749 -1.5690 -0.5816  0.6573
 2036SOL     OW17740   4.317   1.954   2.685 -0.4324  0.4547  0.6456
 2036SOL    HW117741   4.306   2.044   2.655 -2.4397 -0.1886 -0.5975
 2036SOL    HW217742   4.389   1.957   2.747 -1.2965  0.0947  1.6653
 2037SOL     OW17743   0.390   1.054   6.420  0.2629  0.6755  0.3460
 2037SOL    HW117744   0.310   1.004   6.439  0.7938 -1.1315 -2.2355
 2037SOL    HW217745   0.416   1.070   6.511 -2.6065 -2.3123  1.7227
 2038SOL     OW17746   0.785   2.056   4.356 -0.5570  0.1336  0.7746
 2038SOL    HW117747   0.838   2.088   4.429 -0.8946 -0.9027  1.4759
 2038SOL    HW217748   0.699   2.048   4.399 -0.5504 -1.4571  0.4920
 2039SOL     OW17749   2.094   2.901   2.414  0.0232 -0.0854  1.1706
 2039SOL    HW117750   2.167   2.935   2.466  2.3942 -2.1039 -0.8371
 2039SOL    HW217751   2.134   2.847   2.346 -0.3681  1.6880 -0.4661
 2040SOL     OW17752   4.469   1.854   0.765  0.3066  0.0286 -0.5859
 2040SOL    HW117753   4.416   1.924   0.729  0.1136  0.8045  1.2005
 2040SOL    HW217754   4.531   1.900   0.821  1.4283 -0.0468 -1.7631
 2041SOL     OW17755   2.089   2.404   8.597 -0.1595 -0.4080 -0.2740
 2041SOL    HW117756   2.088   2.396   8.692 -2.9544  1.1051 -0.1733
 2041SOL    HW217757   2.006   2.446   8.574  1.2127  0.4478 -3.7619
 2042SOL     OW17758   3.956   3.173   1.658  0.3045 -0.2472 -0.1154
 2042SOL    HW117759   4.026   3.119   1.621  1.3920  0.9711  0.1654
 2042SOL    HW217760   3.932   3.121   1.734  0.1744  1.3458  0.9213
 2043SOL     OW17761   2.759   3.977  11.244  0.3716  0.8486 -0.1206
 2043SOL    HW117762   2.820   4.050  11.258 -0.3265  1.5312 -0.6563
 2043SOL    HW217763   2.813   3.898  11.247  1.2797  1.5118  1.1223
 2044SOL     OW17764   2.642   2.209   5.936  0.2936  0.0146  0.4643
 2044SOL    HW117765   2.725   2.162   5.924  1.4449  2.3423 -0.7860
 2044SOL    HW217766   2.660   2.284   5.879 -0.4020 -1.1399 -1.2527
 2045SOL     OW17767   4.697   3.682   8.899 -0.0595 -0.5668 -0.3194
 2045SOL    HW117768   4.660   3.598   8.874  0.1963 -0.4005 -1.2743
 2045SOL    HW217769   0.047   3.659   8.928 -0.8146 -0.8708  1.7540
 2046SOL     OW17770   3.553   1.877  11.119  0.0748  0.6019 -0.0705
 2046SOL    HW117771   3.600   1.954  11.088 -0.2427  0.4177 -1.0122
 2046SOL    HW217772   3.462   1.903  11.111 -0.0971  0.2740  0.7991
 2047SOL     OW17773   4.375   0.991   5.595  0.1972  0.6928  0.0821
 2047SOL    HW117774   4.293   0.958   5.556  0.3656 -0.3364  0.5985
 2047SOL    HW217775   4.377   0.939   5.675 -1.0037 -0.4344 -0.6183
 2048SOL     OW17776   0.314   3.204   4.729 -0.0466  0.4155  0.1538
 2048SOL    HW117777   0.244   3.239   4.673 -0.0915  0.1505  0.0424
 2048SOL    HW217778   0.381   3.162   4.675 -1.7565 -1.2174 -0.7062
 2049SOL     OW17779   3.480   3.826   2.121 -0.0093  0.6213 -0.3759
 2049SOL    HW117780   3.415   3.868   2.176 -2.5273 -1.4082 -1.7822
 2049SOL    HW217781   3.430   3.750   2.090  1.5128 -1.0485  1.2614
 2050SOL     OW17782   1.262   4.016   8.311 -0.2984 -0.3983 -0.4072
 2050SOL    HW117783   1.189   4.022   8.372 -1.8178  0.4610 -2.3172
 2050SOL    HW217784   1.240   3.932   8.271 -2.5890 -1.5380  3.2397
 2051SOL     OW17785   1.108   1.348   4.126 -0.1034  0.2877  0.1691
 2051SOL    HW117786   1.048   1.408   4.169 -0.7556 -0.0943 -0.2138
 2051SOL    HW217787   1.071   1.350   4.038 -0.4079  0.2558  0.2989
 2052SOL     OW17788   1.093   4.054   4.183 -0.5891  0.0962  0.2895
 2052SOL    HW117789   1.101   4.048   4.087 -0.9465  0.2853  0.2497
 2052SOL    HW217790   1.009   4.098   4.193 -0.7379 -0.4523  1.3927
 2053SOL     OW17791   4.332   0.583   4.843 -0.1091  0.5543 -0.2699
 2053SOL    HW117792   4.278   0.545   4.913  0.8196  1.6928  1.0630
 2053SOL    HW217793   4.389   0.640   4.894 -0.5681 -0.8547  1.8484
 2054SOL     OW17794   3.553   0.392   5.912  0.1499 -0.0588  0.1938
 2054SOL    HW117795   3.523   0.410   6.001  0.8516  2.0219  0.0056
 2054SOL    HW217796   3.630   0.445   5.891  1.0168 -0.4767  2.3444
 2055SOL     OW17797   3.643   0.621  12.458 -0.1479 -0.0326 -0.4085
 2055SOL    HW117798   3.554   0.603  12.428 -1.5465 -0.4833  4.1073
 2055SOL    HW217799   3.638   0.716  12.465 -0.0181  0.0380 -1.2516
 2056SOL     OW17800   3.655   2.032   8.088  0.1194  0.2416 -0.0236
 2056SOL    HW117801   3.589   2.089   8.128  1.7472  2.1931 -0.1453
 2056SOL    HW217802   3.602   1.973   8.035  1.1982  0.6590 -1.5667
 2057SOL     OW17803   1.313   0.524   4.039  0.2583 -0.1413  0.0553
 2057SOL    HW117804   1.235   0.558   3.996  1.1334  0.3818 -1.1191
 2057SOL    HW217805   1.365   0.493   3.965  0.7201  0.5642  0.0746
 2058SOL     OW17806   4.262   2.061   7.444  0.1155 -0.3760  0.2739
 2058SOL    HW117807   4.280   1.979   7.399  1.3042  0.9269 -1.6453
 2058SOL    HW217808   4.203   2.108   7.385  0.3114 -1.5253 -0.8244
 2059SOL     OW17809   3.044   3.292   5.800  0.2362  0.0184 -0.1485
 2059SOL    HW117810   3.056   3.237   5.723 -1.8525  0.6608 -0.9247
 2059SOL    HW217811   3.102   3.241   5.857  0.8988 -0.8850 -1.6463
 2060SOL     OW17812   2.264   3.532   6.679  0.0704 -0.3732 -0.3142
 2060SOL    HW117813   2.288   3.570   6.595  1.7670 -1.9556 -0.5546
 2060SOL    HW217814   2.201   3.468   6.647 -0.9735  0.2332  0.5240
 2061SOL     OW17815   0.551   0.627   2.475 -0.2868  0.0018  0.1213
 2061SOL    HW117816   0.500   0.559   2.519  1.8436  0.2939  2.9838
 2061SOL    HW217817   0.512   0.703   2.519  2.1585  1.8945 -0.9802
 2062SOL     OW17818   2.039   1.239   9.433 -0.3793 -0.7113  0.2151
 2062SOL    HW117819   2.055   1.153   9.473  2.2486 -0.2482  0.1553
 2062SOL    HW217820   2.076   1.301   9.495  0.9248  0.7399 -2.0205
 2063SOL     OW17821   0.302   1.969   5.837  0.3694  0.0003 -0.0516
 2063SOL    HW117822   0.240   2.028   5.879 -0.1036 -0.9533  0.5872
 2063SOL    HW217823   0.304   1.892   5.894  0.2432  1.0263  1.3201
 2064SOL     OW17824   3.576   0.836   9.153 -0.1284 -0.1503 -1.1911
 2064SOL    HW117825   3.569   0.744   9.176 -0.6818  0.1477 -0.1106
 2064SOL    HW217826   3.628   0.870   9.226 -0.0829  1.5855 -2.0294
 2065SOL     OW17827   1.824   1.959   7.315 -0.1420  0.1234  0.1311
 2065SOL    HW117828   1.798   2.025   7.379 -0.1569  2.3118 -2.1114
 2065SOL    HW217829   1.906   1.994   7.280  0.5028  0.6972  2.2318
 2066SOL     OW17830   1.745   2.783  11.218 -0.2493 -0.1150  0.3616
 2066SOL    HW117831   1.744   2.878  11.230  0.2810  0.0162 -0.6366
 2066SOL    HW217832   1.676   2.751  11.276  0.0944  1.1737  1.4901
 2067SOL     OW17833   2.685   1.433   1.560 -0.1538 -0.0341  0.3282
 2067SOL    HW117834   2.649   1.416   1.647  2.2643  0.3661  1.4189
 2067SOL    HW217835   2.777   1.443   1.585  0.2172 -1.8794 -0.2685
 2068SOL     OW17836   4.470   0.290  12.724 -0.5966 -0.3237 -0.2595
 2068SOL    HW117837   4.480   0.347  12.800  1.0763 -2.4394  1.1081
 2068SOL    HW217838   4.387   0.327  12.692 -0.6986 -0.7086 -0.4376
 2069SOL     OW17839   1.620   4.390   1.407  0.5562  0.3268 -0.0825
 2069SOL    HW117840   1.695   4.378   1.466  1.3514 -0.5737 -1.2878
 2069SOL    HW217841   1.597   4.298   1.420 -2.2984  1.0948  0.2825
 2070SOL     OW17842   2.955   0.662   9.147 -0.5554  0.0936 -0.2595
 2070SOL    HW117843   2.899   0.735   9.120  0.6939  1.5756  1.1664
 2070SOL    HW217844   2.926   0.586   9.097  1.2290  0.6488 -2.1167
 2071SOL     OW17845   3.658   2.365  16.159 -0.0186  0.0170 -0.3430
 2071SOL    HW117846   3.572   2.401  16.184  0.8340  1.4835  0.4993
 2071SOL    HW217847   3.680   2.334  16.247  0.5604  1.3456 -0.0199
 2072SOL     OW17848   3.484   2.358   7.853  0.8149 -0.2266  0.2677
 2072SOL    HW117849   3.409   2.368   7.912 -0.6200  1.6468 -1.8296
 2072SOL    HW217850   3.481   2.263   7.856 -0.0666 -0.1194  2.9548
 2073SOL     OW17851   2.869   1.561   7.421 -0.1708  0.2614 -0.4808
 2073SOL    HW117852   2.846   1.650   7.394 -1.0011  0.4873  1.0128
 2073SOL    HW217853   2.952   1.582   7.465 -1.8286  2.1661  1.7383
 2074SOL     OW17854   1.450   2.776   6.054 -0.0839 -0.8967 -0.1711
 2074SOL    HW117855   1.470   2.712   5.985  1.3219 -0.3759 -0.2348
 2074SOL    HW217856   1.372   2.814   6.012  2.0597  0.9727 -2.4514
 2075SOL     OW17857   2.438   1.616   7.846  0.4123  0.1280  0.1277
 2075SOL    HW117858   2.484   1.612   7.762 -0.3247  0.4831 -0.2981
 2075SOL    HW217859   2.434   1.711   7.855 -2.1058  0.1578 -1.1536
 2076SOL     OW17860   4.557   2.718   1.627 -0.1827 -0.6533 -0.4427
 2076SOL    HW117861   4.596   2.803   1.642 -2.5450  0.7219 -2.0652
 2076SOL    HW217862   4.624   2.659   1.662  0.4516 -0.1168 -0.7715
 2077SOL     OW17863   3.643   1.000   8.655 -0.0669  0.3463 -0.2975
 2077SOL    HW117864   3.684   0.957   8.581 -0.0850  1.1912 -0.7885
 2077SOL    HW217865   3.711   0.998   8.722 -1.6050 -0.3377  1.2790
 2078SOL     OW17866   1.349   3.311   7.889 -0.1607  0.2307  0.2546
 2078SOL    HW117867   1.425   3.339   7.839 -0.5921  1.2965  0.2044
 2078SOL    HW217868   1.372   3.323   7.981  2.0268 -0.6530 -0.1744
 2079SOL     OW17869   2.334   0.863   5.586  0.1516 -0.5600  0.0042
 2079SOL    HW117870   2.356   0.785   5.638  1.9103  0.1668  0.3480
 2079SOL    HW217871   2.324   0.932   5.651 -4.8184 -0.0350 -1.3508
 2080SOL     OW17872   0.955   3.956   6.186 -0.1436 -0.6988 -0.3807
 2080SOL    HW117873   1.026   4.008   6.148  0.4631  1.1331  3.2081
 2080SOL    HW217874   0.972   3.942   6.279 -1.6014  0.1691  0.0241
 2081SOL     OW17875   1.760   1.396   2.477 -0.2685 -0.2763 -0.4611
 2081SOL    HW117876   1.856   1.399   2.474 -0.1829 -1.3357  1.3421
 2081SOL    HW217877   1.739   1.433   2.392 -0.5721  0.9351  0.1503
 2082SOL     OW17878   1.792   1.676   2.051 -0.0183  0.1200 -0.1747
 2082SOL    HW117879   1.786   1.588   2.087 -1.0080  0.1588 -0.2535
 2082SOL    HW217880   1.709   1.700   2.092  0.2896 -1.0050  1.1109
 2083SOL     OW17881   3.298   2.999   3.778  0.3605 -0.2944 -0.3360
 2083SOL    HW117882   3.359   2.928   3.799  0.7429  0.2066  0.2498
 2083SOL    HW217883   3.257   3.002   3.865  2.2719  0.6670  0.5561
 2084SOL     OW17884   4.243   1.507   3.561 -0.6738  0.3335 -0.4433
 2084SOL    HW117885   4.162   1.462   3.585 -1.0898  2.4068  2.0374
 2084SOL    HW217886   4.233   1.500   3.466  0.1981  0.7689 -0.5679
 2085SOL     OW17887   2.574   3.702   5.185  0.0231  0.0684  0.5471
 2085SOL    HW117888   2.542   3.723   5.273  0.7029  1.8363  0.3662
 2085SOL    HW217889   2.548   3.611   5.169 -0.5951  0.4244 -0.4792
 2086SOL     OW17890   3.615   1.704  16.814 -0.1842 -0.0433  0.5561
 2086SOL    HW117891   3.684   1.761  16.849 -1.1096  1.0189  0.6526
 2086SOL    HW217892   3.575   1.765  16.752  0.7298  0.7649  0.7703
 2087SOL     OW17893   1.173   3.166   5.249  0.3531  0.1186 -0.4054
 2087SOL    HW117894   1.235   3.100   5.218 -0.1433 -0.0399 -1.0598
 2087SOL    HW217895   1.161   3.227   5.177  2.6234 -1.8802 -2.4566
 2088SOL     OW17896   1.355   3.135   4.497  0.8160  0.0838  0.2648
 2088SOL    HW117897   1.289   3.086   4.547 -1.9445  1.0550 -2.4572
 2088SOL    HW217898   1.304   3.214   4.482 -1.1303 -0.8796  1.7225
 2089SOL     OW17899   3.426   3.785   6.359  0.2892 -0.3215 -0.2955
 2089SOL    HW117900   3.454   3.805   6.270  0.6382 -0.6640 -0.2601
 2089SOL    HW217901   3.507   3.803   6.406  1.2730 -1.7658 -1.4424
 2090SOL     OW17902   4.001   3.932   8.340 -0.6509 -0.9465  0.6268
 2090SOL    HW117903   3.909   3.951   8.357 -0.1100  1.9589  0.2882
 2090SOL    HW217904   3.998   3.851   8.392  1.4127 -0.8079  0.9839
 2091SOL     OW17905   0.430   0.167   5.670 -0.5889  0.3105 -0.1660
 2091SOL    HW117906   0.373   0.213   5.731  0.6911  0.5384  0.8597
 2091SOL    HW217907   0.499   0.232   5.658 -1.2331  1.1242  0.6500
 2092SOL     OW17908   1.696   0.908   5.929 -0.1958 -0.5589 -0.2123
 2092SOL    HW117909   1.662   0.997   5.941 -2.6806 -1.5308  0.1401
 2092SOL    HW217910   1.752   0.905   5.852 -1.3591  1.4708 -1.1570
 2093SOL     OW17911   1.352   3.408  16.791  0.0181 -0.0570  0.3284
 2093SOL    HW117912   1.359   3.389  16.697  0.4364  1.4153  0.0594
 2093SOL    HW217913   1.437   3.381  16.826 -0.9984 -2.1468  1.2059
 2094SOL     OW17914   1.837   4.611   0.452  0.5100 -0.0265  0.3557
 2094SOL    HW117915   1.767   4.555   0.419  1.5369 -0.9709 -0.2220
 2094SOL    HW217916   1.830   4.578   0.542  2.1450 -1.3936 -0.0083
 2095SOL     OW17917   0.286   2.017   0.679 -0.4110  0.6681  0.0321
 2095SOL    HW117918   0.348   2.032   0.608 -0.1367 -1.8024 -0.2366
 2095SOL    HW217919   0.313   2.095   0.728  1.6310 -1.4747  2.3355
 2096SOL     OW17920   2.132   0.849  12.996  0.1396  0.4123  0.2119
 2096SOL    HW117921   2.133   0.945  12.995 -0.2363  0.4229  1.1570
 2096SOL    HW217922   2.215   0.825  12.956 -0.2699 -0.8689  0.1433
 2097SOL     OW17923   2.859   1.379   8.430 -0.2086  0.0726 -0.0661
 2097SOL    HW117924   2.865   1.304   8.372 -1.4503 -0.2097  0.1727
 2097SOL    HW217925   2.770   1.374   8.465  0.3853  2.4840  1.8215
 2098SOL     OW17926   3.432   2.777   3.654 -0.3888  0.4268  0.5330
 2098SOL    HW117927   3.370   2.704   3.655 -0.6479  0.6372 -0.9434
 2098SOL    HW217928   3.512   2.730   3.632  0.2423  1.5791  0.3741
 2099SOL     OW17929   2.791   0.521   4.941 -0.2450  0.3065  0.0456
 2099SOL    HW117930   2.757   0.607   4.967  0.4435  0.1447  1.5092
 2099SOL    HW217931   2.875   0.537   4.897  0.0295 -0.6957  0.2004
 2100SOL     OW17932   3.788   0.722   6.622 -0.7079 -0.6620  0.0525
 2100SOL    HW117933   3.875   0.713   6.663 -0.1797 -1.3730 -1.1957
 2100SOL    HW217934   3.739   0.783   6.675  0.1801  0.0071  0.1071
 2101SOL     OW17935   0.433   1.206  17.487 -0.5997  0.1284 -0.2718
 2101SOL    HW117936   0.433   1.289  17.535  3.7733 -0.0162  0.0319
 2101SOL    HW217937   0.339   1.193  17.486 -0.2743 -2.1878 -0.1150
 2102SOL     OW17938   2.386   1.786  10.971  0.0005  0.2535  0.2498
 2102SOL    HW117939   2.462   1.827  10.930  0.0793 -0.3528 -0.1944
 2102SOL    HW217940   2.400   1.697  10.940  0.3083  0.5189 -0.3813
 2103SOL     OW17941   2.662   1.318  16.536  0.2732  0.4405 -0.1863
 2103SOL    HW117942   2.748   1.296  16.500  0.5516  1.2270 -0.0151
 2103SOL    HW217943   2.669   1.271  16.620 -1.2986 -2.5199 -1.7243
 2104SOL     OW17944   3.049   1.309   1.340 -0.4208 -0.6554 -0.5638
 2104SOL    HW117945   3.040   1.351   1.425  0.2813 -0.7640 -0.4349
 2104SOL    HW217946   3.085   1.225   1.368 -1.4794  0.0350  2.8542
 2105SOL     OW17947   0.914   3.976  13.109 -0.0632  0.3711  0.0106
 2105SOL    HW117948   0.877   3.888  13.099  0.3721  0.1781  0.0804
 2105SOL    HW217949   0.929   4.007  13.020  1.0442 -1.1159 -0.3029
 2106SOL     OW17950   1.388   1.238   3.135 -0.0860 -0.2277  0.2315
 2106SOL    HW117951   1.330   1.168   3.105 -0.4644 -1.1439  3.0968
 2106SOL    HW217952   1.376   1.300   3.064  2.9014  0.4033  0.2748
 2107SOL     OW17953   2.189   4.100  10.701  0.0218 -0.1190  0.4889
 2107SOL    HW117954   2.216   4.148  10.623 -0.8703 -1.4054 -0.6282
 2107SOL    HW217955   2.251   4.116  10.772 -0.0163  0.5883  0.3620
 2108SOL     OW17956   2.632   3.999  11.527 -0.8415 -0.4146  0.5839
 2108SOL    HW117957   2.713   3.950  11.509 -0.0616  1.8646 -2.0674
 2108SOL    HW217958   2.580   3.937  11.578  0.6058 -2.0829  0.0322
 2109SOL     OW17959   3.327   3.508  16.980 -0.5659 -0.2358  0.2441
 2109SOL    HW117960   3.419   3.531  16.971 -0.2759 -1.7234 -0.6219
 2109SOL    HW217961   3.292   3.581  17.031  2.0114  1.0149  0.2153
 2110SOL     OW17962   1.181   2.598   7.833 -0.1801  0.0475  0.0190
 2110SOL    HW117963   1.215   2.541   7.765 -0.4312 -0.2303  0.1281
 2110SOL    HW217964   1.260   2.633   7.874 -0.8717  1.1744  0.4158
 2111SOL     OW17965   2.420   1.375   4.565  0.3484  0.0085  0.0183
 2111SOL    HW117966   2.390   1.393   4.655  0.6346  0.4444  0.0248
 2111SOL    HW217967   2.433   1.465   4.536 -0.2807  0.1310  0.1232
 2112SOL     OW17968   1.894   1.107   9.704 -0.2037  0.0703 -0.0791
 2112SOL    HW117969   1.866   1.198   9.700  0.6457  0.2638 -1.6346
 2112SOL    HW217970   1.878   1.096   9.798  2.4241  0.4795  0.4304
 2113SOL     OW17971   3.965   0.630   1.591  0.3059  0.4648  0.3353
 2113SOL    HW117972   3.892   0.602   1.535 -1.4401 -1.9867  3.8597
 2113SOL    HW217973   3.921   0.695   1.645 -0.2421 -2.1423  3.0319
 2114SOL     OW17974   2.671   1.887   3.211 -0.6825  0.2756 -0.6893
 2114SOL    HW117975   2.752   1.889   3.160  0.1442  1.0890  0.6537
 2114SOL    HW217976   2.596   1.862   3.157 -1.1116  0.5220 -0.2120
 2115SOL     OW17977   2.690   2.468   2.190 -0.0184 -0.1136 -0.3405
 2115SOL    HW117978   2.748   2.433   2.257  1.2436  1.3645 -0.6778
 2115SOL    HW217979   2.717   2.410   2.118  1.0617 -0.0238 -0.0096
 2116SOL     OW17980   4.098   4.715   2.509 -0.4949 -0.5486  0.1030
 2116SOL    HW117981   4.178   4.701   2.560  0.3297 -0.0507 -1.0449
 2116SOL    HW217982   4.097   4.638   2.452  0.8225  0.6103 -1.4789
 2117SOL     OW17983   0.673   2.895   2.349  0.4687  0.0542 -0.1905
 2117SOL    HW117984   0.591   2.855   2.322 -1.0380  3.2684 -0.2822
 2117SOL    HW217985   0.641   2.950   2.420  4.3757  1.0843  0.8154
 2118SOL     OW17986   3.230   2.320   8.387  0.0599  0.1257 -0.1513
 2118SOL    HW117987   3.304   2.273   8.425 -1.0173 -0.7419  0.8735
 2118SOL    HW217988   3.242   2.408   8.425  0.2228  0.3391 -0.6991
 2119SOL     OW17989   0.072   3.657   6.791  0.0693 -0.1861 -0.0644
 2119SOL    HW117990   0.038   3.724   6.732  0.9690 -0.8650 -1.3496
 2119SOL    HW217991   0.163   3.674   6.769 -0.3961 -0.3619 -2.1041
 2120SOL     OW17992   2.985   4.508   9.353 -0.5588  0.6282  0.5509
 2120SOL    HW117993   2.971   4.471   9.440 -1.1199  0.9384  0.5938
 2120SOL    HW217994   3.076   4.539   9.360  0.8438 -3.8528  2.3866
 2121SOL     OW17995   1.055   3.898   0.649  0.8288 -0.0300 -0.6156
 2121SOL    HW117996   1.132   3.871   0.599  2.0663  0.4578  1.0347
 2121SOL    HW217997   1.033   3.968   0.588  0.5523 -0.4320 -0.9726
 2122SOL     OW17998   1.046   1.162   2.785 -0.7312  0.0054 -0.2926
 2122SOL    HW117999   1.076   1.253   2.783  2.2071 -0.9445  0.5682
 2122SOL    HW218000   1.051   1.133   2.694  3.2991 -1.2816  0.3311
 2123SOL     OW18001   2.307   3.354   6.211  0.0132 -0.6547  0.2621
 2123SOL    HW118002   2.330   3.395   6.127  0.3844  1.0562  1.1923
 2123SOL    HW218003   2.216   3.328   6.197  0.1737 -0.4113 -1.2358
 2124SOL     OW18004   1.327   2.521   4.121  0.0427  0.1775  0.3159
 2124SOL    HW118005   1.237   2.507   4.151 -0.2854 -1.0438 -1.2398
 2124SOL    HW218006   1.351   2.602   4.166  2.2829 -0.7890  0.8414
 2125SOL     OW18007   1.719   3.600   1.963 -0.4975  0.0511  0.2216
 2125SOL    HW118008   1.740   3.589   2.056 -0.7636 -2.3000  0.0048
 2125SOL    HW218009   1.630   3.634   1.957 -0.1293  0.6289 -2.1365
 2126SOL     OW18010   3.565   3.354   2.411  0.0884  0.0237  0.3713
 2126SOL    HW118011   3.483   3.404   2.407  0.1160 -0.2024 -3.2277
 2126SOL    HW218012   3.585   3.347   2.317  0.2855  1.8469  0.2917
 2127SOL     OW18013   0.617   0.724   4.125  0.4506  0.0543  0.1770
 2127SOL    HW118014   0.591   0.801   4.074 -1.8047 -0.3072  0.7863
 2127SOL    HW218015   0.535   0.717   4.174  0.2495  3.2244  0.3211
 2128SOL     OW18016   2.545   2.947  16.947  0.0257 -0.1669  0.6900
 2128SOL    HW118017   2.633   2.984  16.945 -1.0103  2.1709 -1.0590
 2128SOL    HW218018   2.492   3.026  16.938 -0.1798 -0.3400  0.3627
 2129SOL     OW18019   1.981   2.702   8.546  0.1869 -0.4927 -0.0625
 2129SOL    HW118020   1.909   2.764   8.545  0.2859 -0.3650  0.6789
 2129SOL    HW218021   2.014   2.732   8.631  3.0801  1.2285 -1.8187
 2130SOL     OW18022   3.045   0.761   0.731 -0.2494  0.5870  0.3123
 2130SOL    HW118023   3.052   0.707   0.809 -4.5953 -0.3076  0.0824
 2130SOL    HW218024   3.052   0.847   0.774 -0.5492  0.4451  0.6458
 2131SOL     OW18025   4.177   2.755   1.327  0.2576  0.4305  0.1895
 2131SOL    HW118026   4.156   2.810   1.252  0.4207  2.4561  1.6123
 2131SOL    HW218027   4.214   2.811   1.396 -0.4732 -0.8236  1.6100
 2132SOL     OW18028   2.472   1.711   6.817  0.4572  0.0098  0.1751
 2132SOL    HW118029   2.396   1.699   6.873  1.1141  1.6093  1.3972
 2132SOL    HW218030   2.446   1.794   6.775  2.4127  0.2391 -0.6000
 2133SOL     OW18031   2.034   3.846   6.788  0.0033 -0.2408 -0.0945
 2133SOL    HW118032   2.012   3.768   6.838 -0.5985  0.5089  0.8111
 2133SOL    HW218033   2.068   3.806   6.708  2.7379  1.2199  0.3565
 2134SOL     OW18034   0.320   4.217   2.780  0.2517  0.0763 -0.2185
 2134SOL    HW118035   0.341   4.239   2.689  1.2635 -1.0494 -0.2740
 2134SOL    HW218036   0.366   4.280   2.835  0.2141  1.6564 -1.9951
 2135SOL     OW18037   1.011   4.195   0.176 -0.2395 -0.3080 -0.0771
 2135SOL    HW118038   0.971   4.264   0.228 -0.7880 -1.9986  1.7195
 2135SOL    HW218039   1.089   4.186   0.231  1.5004  0.1687 -2.4229
 2136SOL     OW18040   1.758   0.429   8.107  0.4451 -0.5666 -0.2040
 2136SOL    HW118041   1.754   0.361   8.040 -0.5218 -0.7201  0.0241
 2136SOL    HW218042   1.818   0.391   8.172  1.8989  2.1539  0.0809
 2137SOL     OW18043   3.062   2.289   2.684  0.1106  0.0219  0.1774
 2137SOL    HW118044   3.147   2.323   2.713  0.4024 -0.0546 -0.5647
 2137SOL    HW218045   3.083   2.267   2.593 -0.2915  1.7325 -0.3279
 2138SOL     OW18046   2.042   2.959  11.223 -0.0640  0.0326  0.2293
 2138SOL    HW118047   2.124   2.926  11.186  1.0893  0.2716  2.5728
 2138SOL    HW218048   2.026   2.888  11.285 -0.9903 -0.5858 -0.7100
 2139SOL     OW18049   3.408   3.191   8.455  0.1069  0.4221 -0.4139
 2139SOL    HW118050   3.410   3.271   8.509  0.2554 -0.5249  0.9849
 2139SOL    HW218051   3.470   3.133   8.498 -1.2453 -1.2047 -0.6467
 2140SOL     OW18052   2.333   3.906   1.955 -0.2491 -0.4235  0.1808
 2140SOL    HW118053   2.355   3.813   1.947  2.0164  0.1479 -0.3493
 2140SOL    HW218054   2.339   3.919   2.050 -1.1830  0.2104  0.1421
 2141SOL     OW18055   0.910   4.538  11.574 -0.5461  0.2157  0.1970
 2141SOL    HW118056   0.990   4.577  11.540  0.5428 -2.7029 -0.5653
 2141SOL    HW218057   0.853   4.615  11.563 -2.3714 -1.3211 -1.2688
 2142SOL     OW18058   1.071   1.048   2.278  0.4747 -0.5430 -0.4147
 2142SOL    HW118059   0.987   1.003   2.285  0.2790  0.0655  1.0565
 2142SOL    HW218060   1.113   0.981   2.223 -1.6010 -1.7346 -0.5200
 2143SOL     OW18061   1.038   0.079   8.702 -0.0280 -0.3845 -0.1138
 2143SOL    HW118062   0.969   0.036   8.752  0.0105  0.7067  0.8750
 2143SOL    HW218063   0.985   0.132   8.642  0.6802  0.6498  0.1825
 2144SOL     OW18064   3.590   3.012   0.876  0.4619  0.8720  0.0560
 2144SOL    HW118065   3.669   3.028   0.927 -0.3026 -0.5048  1.6689
 2144SOL    HW218066   3.589   2.919   0.853  0.2323  1.0921 -0.8305
 2145SOL     OW18067   3.619   3.171  17.547  0.3948 -0.1620 -0.3180
 2145SOL    HW118068   3.684   3.159  17.478  1.0974  0.8837  0.1707
 2145SOL    HW218069   3.541   3.205  17.501  0.0681  0.2865  0.5655
 2146SOL     OW18070   2.245   0.083   6.191  0.0727 -0.0205  0.3893
 2146SOL    HW118071   2.250   0.025   6.267  0.7546 -0.1109  0.2735
 2146SOL    HW218072   2.153   0.062   6.176  0.0703 -0.2381  0.6978
 2147SOL     OW18073   3.245   4.310  14.213 -0.1407  0.3141  0.7243
 2147SOL    HW118074   3.187   4.277  14.281 -1.6209  1.0866 -0.1653
 2147SOL    HW218075   3.187   4.368  14.165  0.7822  1.1327  0.6028
 2148SOL     OW18076   0.027   4.208   8.396  0.2407  0.3934  0.2667
 2148SOL    HW118077   4.712   4.140   8.438  0.7641 -1.4656 -2.1107
 2148SOL    HW218078   4.708   4.235   8.325 -1.1656 -1.2021  0.7979
 2149SOL     OW18079   4.337   0.679   6.209  0.5187 -0.2310 -0.1566
 2149SOL    HW118080   4.278   0.753   6.220  0.8272  0.0115 -0.1410
 2149SOL    HW218081   4.287   0.618   6.154  2.1708 -2.1361  0.4199
 2150SOL     OW18082   3.623   2.666   1.926 -0.1094 -0.3520 -0.2542
 2150SOL    HW118083   3.620   2.673   2.022  1.6910  3.1464 -0.4479
 2150SOL    HW218084   3.715   2.676   1.903  0.2251 -3.4297 -0.1589
 2151SOL     OW18085   4.298   1.794   0.176 -0.0672  0.3982  0.1498
 2151SOL    HW118086   4.311   1.889   0.187  0.4593  0.1138  2.0199
 2151SOL    HW218087   4.207   1.797   0.148 -0.9133  0.8595  2.9714
 2152SOL     OW18088   3.563   1.029   9.399 -0.6015 -0.1510  0.0527
 2152SOL    HW118089   3.576   1.095   9.331  0.1751  0.2476  0.5841
 2152SOL    HW218090   3.604   1.079   9.470 -0.1888 -0.4971  0.0578
 2153SOL     OW18091   1.656   1.622  17.190 -0.3374  0.1160  0.8328
 2153SOL    HW118092   1.648   1.696  17.250  0.2446  1.5246 -0.8239
 2153SOL    HW218093   1.587   1.565  17.223 -2.2189  1.4507 -0.8777
 2154SOL     OW18094   3.489   0.181   6.829 -0.3870 -0.2848 -0.5679
 2154SOL    HW118095   3.507   0.275   6.825  0.7085 -0.5451 -1.7086
 2154SOL    HW218096   3.472   0.179   6.923  0.7188  1.9575 -0.3203
 2155SOL     OW18097   3.227   4.655   9.361 -0.3432 -0.2725  0.7180
 2155SOL    HW118098   3.311   4.643   9.404  0.3857 -1.5125 -1.0539
 2155SOL    HW218099   3.185   4.711   9.425  0.5592 -0.3314  1.3594
 2156SOL     OW18100   2.879   4.218   6.444 -0.0496 -1.0113  0.1672
 2156SOL    HW118101   2.880   4.233   6.539  1.1976 -0.7842  0.1173
 2156SOL    HW218102   2.957   4.162   6.444  1.3693  0.9499  1.5284
 2157SOL     OW18103   0.657   4.673  11.807 -0.5179 -0.0638 -0.3135
 2157SOL    HW118104   0.697   4.716  11.731 -0.5157  0.5305  0.0198
 2157SOL    HW218105   0.583   4.626  11.769 -1.7571  1.0227  0.7420
 2158SOL     OW18106   3.006   1.366   6.979 -0.1620  0.1666  0.9286
 2158SOL    HW118107   2.993   1.456   7.010 -0.5085  1.1491 -1.9631
 2158SOL    HW218108   3.041   1.326   7.058  1.4671 -1.9193 -0.8662
 2159SOL     OW18109   0.105   0.153   8.100 -0.2370  0.2165 -0.5875
 2159SOL    HW118110   0.138   0.169   8.188 -1.2134 -1.8536  0.1610
 2159SOL    HW218111   0.010   0.153   8.110 -0.1213  1.2760  0.5134
 2160SOL     OW18112   1.827   0.767  13.955  0.2934 -0.1069  0.7516
 2160SOL    HW118113   1.857   0.703  14.020  0.8061 -0.2708  0.3553
 2160SOL    HW218114   1.877   0.735  13.880 -1.7828  0.7031 -0.9747
 2161SOL     OW18115   3.433   1.957  16.661 -0.2080 -0.4954  0.2062
 2161SOL    HW118116   3.505   2.020  16.657 -0.5331 -0.1706 -0.5049
 2161SOL    HW218117   3.361   2.008  16.699 -0.6168 -1.8924  1.2995
 2162SOL     OW18118   2.947   2.594   6.481  0.2761  0.0650  0.2288
 2162SOL    HW118119   2.929   2.524   6.544  0.7706  0.3482  0.6794
 2162SOL    HW218120   2.887   2.660   6.514  0.4542 -0.6081  1.8778
 2163SOL     OW18121   3.156   2.103  17.449  0.6758  0.1230 -0.3189
 2163SOL    HW118122   3.186   2.111  17.540  0.3198 -2.0811 -0.0049
 2163SOL    HW218123   3.177   2.190  17.415  0.7225  0.1749 -0.1557
 2164SOL     OW18124   1.119   2.420  12.260 -0.2044 -0.3554 -0.0278
 2164SOL    HW118125   1.207   2.386  12.243 -0.7774 -3.5177  3.2049
 2164SOL    HW218126   1.133   2.514  12.256 -2.4570  0.0576  2.3592
 2165SOL     OW18127   1.205   2.800   1.223 -0.1301 -0.7942  0.1983
 2165SOL    HW118128   1.166   2.713   1.235  0.8647 -1.2668 -0.0596
 2165SOL    HW218129   1.140   2.845   1.278 -0.6995 -0.0444 -1.0716
 2166SOL     OW18130   0.794   1.230  16.609 -0.0653  0.3452  0.6848
 2166SOL    HW118131   0.889   1.230  16.626  0.0157 -0.5730  0.2308
 2166SOL    HW218132   0.758   1.200  16.693  0.3537 -0.5814  0.5304
 2167SOL     OW18133   3.573   3.785   8.289  0.1776  0.5572 -0.0329
 2167SOL    HW118134   3.581   3.716   8.354 -2.0301 -0.2398 -0.5958
 2167SOL    HW218135   3.571   3.733   8.209 -2.4347  2.3001 -1.1040
 2168SOL     OW18136   4.711   1.929   1.752  0.4802 -0.0695  0.1554
 2168SOL    HW118137   0.017   1.856   1.709 -0.7166 -0.3696 -0.5435
 2168SOL    HW218138   4.685   1.889   1.835  0.8134 -2.9950 -1.1469
 2169SOL     OW18139   1.092   0.535   1.962 -0.2664  0.0017 -0.0672
 2169SOL    HW118140   1.066   0.567   1.876 -2.2190  0.7058  0.7870
 2169SOL    HW218141   1.036   0.578   2.026 -0.7441 -1.9728  0.8448
 2170SOL     OW18142   4.733   0.190   9.399  0.2146  0.2247 -0.6278
 2170SOL    HW118143   0.061   0.212   9.464  0.7480 -1.0708 -0.7310
 2170SOL    HW218144   4.671   0.145   9.457  1.5818 -0.1941  0.5036
 2171SOL     OW18145   3.467   1.847  17.258 -1.1697 -0.0055  0.1900
 2171SOL    HW118146   3.533   1.783  17.232 -3.5712 -1.6544 -1.7625
 2171SOL    HW218147   3.506   1.934  17.255  0.3622 -0.7659 -2.1056
 2172SOL     OW18148   4.129   1.508   9.114  0.0216 -0.3153 -0.0011
 2172SOL    HW118149   4.123   1.536   9.023  1.8238 -0.5864 -0.1964
 2172SOL    HW218150   4.190   1.571   9.152  1.8227 -1.1472 -1.5329
 2173SOL     OW18151   4.678   4.355   5.239 -0.0059  0.3993 -0.4717
 2173SOL    HW118152   4.705   4.369   5.148  2.3529  1.8770  0.4293
 2173SOL    HW218153   4.719   4.432   5.279  0.5730 -0.0289 -0.2350
 2174SOL     OW18154   3.333   3.525   2.424  0.3772 -0.0695  0.2611
 2174SOL    HW118155   3.384   3.592   2.469 -1.4041  2.1148 -0.9512
 2174SOL    HW218156   3.249   3.529   2.468 -0.2732  0.4337 -1.0174
 2175SOL     OW18157   2.196   4.401   8.823  0.4244  0.2822  0.1858
 2175SOL    HW118158   2.166   4.474   8.876  1.5662  0.1307  1.0481
 2175SOL    HW218159   2.292   4.401   8.834  0.6316 -2.0372 -1.6825
 2176SOL     OW18160   0.324   3.304   3.107  0.2510 -0.9931 -0.2697
 2176SOL    HW118161   0.321   3.321   3.201  0.6520  2.9168 -0.9798
 2176SOL    HW218162   0.363   3.387   3.079 -1.4326 -0.4229 -0.8941
 2177SOL     OW18163   3.509   4.501   3.567 -0.2183  0.4562  0.5779
 2177SOL    HW118164   3.445   4.557   3.610  0.1953  0.0597  1.6921
 2177SOL    HW218165   3.589   4.554   3.573 -0.2456  0.7485 -1.5350
 2178SOL     OW18166   0.710   1.169  12.670 -0.6440 -0.2219  0.8184
 2178SOL    HW118167   0.693   1.257  12.705 -1.1451 -0.4407  1.1334
 2178SOL    HW218168   0.758   1.197  12.592 -1.8732 -0.3887 -0.0081
 2179SOL     OW18169   2.690   1.023  14.360 -0.0416 -0.5168 -0.0004
 2179SOL    HW118170   2.775   0.979  14.352  2.1799  3.9705 -0.8991
 2179SOL    HW218171   2.646   0.953  14.409  1.1709 -2.6873 -1.9615
 2180SOL     OW18172   2.137   3.752   7.149  0.0667 -0.0398 -0.0157
 2180SOL    HW118173   2.184   3.705   7.080 -1.6849 -1.8056  0.0129
 2180SOL    HW218174   2.193   3.830   7.147 -2.2921  1.6858  1.2515
 2181SOL     OW18175   1.566   0.667   5.291 -0.2089 -0.1351 -0.3254
 2181SOL    HW118176   1.481   0.655   5.333 -0.7399  1.0489 -1.0933
 2181SOL    HW218177   1.603   0.578   5.291 -0.2826 -0.1649 -0.4501
 2182SOL     OW18178   3.064   2.810   3.316 -0.0943 -0.0803  0.2991
 2182SOL    HW118179   3.103   2.868   3.381  0.2924 -0.1865  0.1597
 2182SOL    HW218180   3.019   2.873   3.260 -1.4834 -3.0899 -1.9447
 2183SOL     OW18181   0.429   1.111   8.218 -0.3942 -0.1960 -0.1114
 2183SOL    HW118182   0.457   1.202   8.209  2.9226 -1.1933  0.3360
 2183SOL    HW218183   0.513   1.067   8.226 -0.5700 -0.6269 -0.6133
 2184SOL     OW18184   1.799   4.723   5.646  0.4652  0.4027 -0.4771
 2184SOL    HW118185   1.710   0.010   5.670  0.0894  0.0723 -1.5192
 2184SOL    HW218186   1.833   4.705   5.733 -1.7452  0.5539  0.4214
 2185SOL     OW18187   2.544   1.159  11.031 -0.2111  0.6841  0.6024
 2185SOL    HW118188   2.599   1.086  11.061 -2.6680 -1.7061 -0.6413
 2185SOL    HW218189   2.537   1.126  10.941 -0.3064  0.3640  0.7273
 2186SOL     OW18190   0.406   2.331   8.633  0.0069 -0.4188  0.1906
 2186SOL    HW118191   0.402   2.350   8.727  0.2122 -0.8661  0.2914
 2186SOL    HW218192   0.314   2.321   8.610  0.0027  0.5493 -0.2114
 2187SOL     OW18193   2.488   3.832  10.653  0.3166 -0.3849  0.6702
 2187SOL    HW118194   2.395   3.824  10.676 -0.4186  2.0134 -1.5266
 2187SOL    HW218195   2.488   3.918  10.613  1.2703 -1.5973 -1.9047
 2188SOL     OW18196   4.376   1.411   0.272  0.1005  0.0239 -0.1364
 2188SOL    HW118197   4.313   1.440   0.205 -1.0588  0.4102  1.1134
 2188SOL    HW218198   4.440   1.482   0.279 -0.3428  0.4173 -0.0254
 2189SOL     OW18199   3.385   2.436  11.642  1.2648  0.0075 -0.4725
 2189SOL    HW118200   3.420   2.503  11.584 -3.4360  2.8165 -0.0440
 2189SOL    HW218201   3.457   2.426  11.704  1.5068  1.5559 -0.5155
 2190SOL     OW18202   0.956   3.161   0.419  0.5632 -0.2188  0.2335
 2190SOL    HW118203   0.877   3.130   0.463 -0.3610 -0.8151 -1.8610
 2190SOL    HW218204   0.938   3.252   0.440  0.4758 -0.5405  1.5712
 2191SOL     OW18205   4.077   2.242   6.207 -0.2103 -0.0346 -0.0637
 2191SOL    HW118206   4.157   2.235   6.154  0.4283 -0.2958  0.9275
 2191SOL    HW218207   4.090   2.320   6.261  1.9176 -1.4957  1.5719
 2192SOL     OW18208   2.211   2.171  11.189  0.2283 -0.6082 -0.0835
 2192SOL    HW118209   2.246   2.116  11.260 -0.7644 -1.3199 -0.1484
 2192SOL    HW218210   2.163   2.104  11.140  0.7988 -1.2571  0.2467
 2193SOL     OW18211   1.091   2.111  11.017 -0.0838 -0.5310 -0.1503
 2193SOL    HW118212   1.057   2.109  10.927  1.5284 -0.3663 -0.7589
 2193SOL    HW218213   1.012   2.098  11.070 -0.7011 -2.3751 -1.5248
 2194SOL     OW18214   4.362   4.235   8.119 -0.1893 -0.2994  0.3930
 2194SOL    HW118215   4.370   4.256   8.212 -1.4534 -0.3219  0.5046
 2194SOL    HW218216   4.439   4.182   8.099  0.0206 -0.1483  0.7841
 2195SOL     OW18217   3.168   2.357   0.214  0.6858 -0.3987 -0.0871
 2195SOL    HW118218   3.092   2.328   0.264  0.0867  0.7281 -0.3285
 2195SOL    HW218219   3.127   2.377   0.130  2.4179  1.9471 -0.3727
 2196SOL     OW18220   0.403   4.528   9.658 -0.3255 -0.1643 -0.1076
 2196SOL    HW118221   0.361   4.614   9.654  5.0370  2.4456  0.2390
 2196SOL    HW218222   0.436   4.535   9.568 -0.0137  0.0251  0.0209
 2197SOL     OW18223   3.653   0.592   3.865  0.0469 -0.0340 -0.2861
 2197SOL    HW118224   3.595   0.524   3.830 -0.8891  0.4243  0.3802
 2197SOL    HW218225   3.678   0.563   3.953  0.6820 -0.1137 -0.4934
 2198SOL     OW18226   0.151   0.741   4.131  0.6497 -0.2125  0.2476
 2198SOL    HW118227   0.107   0.676   4.186 -1.1783 -0.5865 -1.6514
 2198SOL    HW218228   0.131   0.818   4.184 -0.2950  0.0739 -0.5177
 2199SOL     OW18229   2.185   3.606   2.443  0.0370 -0.0793 -0.4869
 2199SOL    HW118230   2.243   3.530   2.446 -1.1828 -0.9592  0.9728
 2199SOL    HW218231   2.204   3.646   2.528  0.4339  0.5140 -0.8587
 2200SOL     OW18232   3.840   4.658   5.413 -0.7462 -0.4301 -0.5763
 2200SOL    HW118233   3.807   4.570   5.433 -0.6599 -0.5213 -0.8379
 2200SOL    HW218234   3.931   4.635   5.395 -0.7106 -0.7250 -0.0511
 2201SOL     OW18235   0.743   1.622   2.627 -0.2896  0.0158 -0.0332
 2201SOL    HW118236   0.753   1.597   2.535  0.5130  3.0360 -0.7737
 2201SOL    HW218237   0.683   1.697   2.633  0.8067  0.8761  0.2187
 2202SOL     OW18238   2.307   1.096   8.932 -0.2690 -0.0367 -0.1422
 2202SOL    HW118239   2.218   1.079   8.901 -1.2377  0.3671  2.4263
 2202SOL    HW218240   2.290   1.169   8.991 -0.2186  0.8295 -1.2076
 2203SOL     OW18241   2.915   1.090   2.110  0.2030  0.5038  0.0621
 2203SOL    HW118242   2.993   1.068   2.061 -1.2105 -1.4832 -1.2557
 2203SOL    HW218243   2.923   1.025   2.180  0.0882 -1.3358 -1.6731
 2204SOL     OW18244   0.961   2.106  14.697 -0.1010  0.3080  0.0379
 2204SOL    HW118245   1.055   2.095  14.715 -0.4812 -0.4289  1.5272
 2204SOL    HW218246   0.970   2.124  14.603 -2.0197 -1.1321 -0.4148
 2205SOL     OW18247   0.683   4.029   7.130 -0.3553  0.1257 -0.1784
 2205SOL    HW118248   0.763   4.014   7.080  0.2489  0.4308  0.7078
 2205SOL    HW218249   0.711   4.056   7.218  2.1579 -0.5936 -0.7543
 2206SOL     OW18250   2.215   0.249  10.746 -0.2290 -0.4607  0.2765
 2206SOL    HW118251   2.142   0.265  10.686  1.5175  2.6033 -1.0275
 2206SOL    HW218252   2.168   0.251  10.830  1.2092  1.9034  1.0228
 2207SOL     OW18253   4.250   3.547   7.698  0.4636 -0.5252 -0.2010
 2207SOL    HW118254   4.163   3.516   7.720  0.2814  0.2628  0.1984
 2207SOL    HW218255   4.248   3.633   7.742  1.4192  0.6393 -2.4310
 2208SOL     OW18256   4.011   2.845   5.624 -0.4280  0.0377 -0.0329
 2208SOL    HW118257   4.092   2.825   5.577 -1.0502  1.4790 -1.7044
 2208SOL    HW218258   4.034   2.922   5.676  0.4850 -1.1991  1.4046
 2209SOL     OW18259   0.862   2.793   6.440 -0.6546 -0.2621 -0.0655
 2209SOL    HW118260   0.801   2.740   6.389 -0.4812  0.5372 -1.0928
 2209SOL    HW218261   0.794   2.824   6.500  1.1955  3.0375  0.2878
 2210SOL     OW18262   2.625   3.778   6.479 -0.4143  0.4592 -0.4349
 2210SOL    HW118263   2.573   3.854   6.505 -1.6725  0.6500 -3.4429
 2210SOL    HW218264   2.578   3.758   6.398  3.5796  1.3766 -2.9835
 2211SOL     OW18265   4.037   2.803   0.833 -0.1175 -0.0950  0.1576
 2211SOL    HW118266   4.020   2.831   0.743  1.5153  0.0686 -0.0989
 2211SOL    HW218267   3.953   2.831   0.869 -0.7733 -1.8660 -0.0148
 2212SOL     OW18268   3.996   1.780   3.084  0.0346  0.2669  0.0896
 2212SOL    HW118269   3.902   1.799   3.084  0.1337  0.7527 -0.2983
 2212SOL    HW218270   4.011   1.796   2.991 -1.3655 -0.5832 -0.2792
 2213SOL     OW18271   2.563   2.847   0.138  0.4093 -0.2407 -0.3444
 2213SOL    HW118272   2.552   2.921   0.079  0.0729  1.1530  1.4595
 2213SOL    HW218273   2.532   2.892   0.217 -2.0287  0.5106 -1.7199
 2214SOL     OW18274   2.145   1.894   6.314 -0.1250  0.2480  0.1411
 2214SOL    HW118275   2.138   1.988   6.325 -1.8911  0.0969  0.2382
 2214SOL    HW218276   2.167   1.882   6.221  1.1797 -0.3507  0.5271
 2215SOL     OW18277   3.198   4.058  12.840 -0.5177  0.5712  0.0659
 2215SOL    HW118278   3.209   4.134  12.897  3.4950  1.3054 -1.7415
 2215SOL    HW218279   3.232   3.992  12.901 -2.5762 -0.1300  0.4805
 2216SOL     OW18280   4.442   2.668   2.997 -0.5242 -0.3388  0.4795
 2216SOL    HW118281   4.519   2.657   3.053 -0.0380  0.3431 -0.0460
 2216SOL    HW218282   4.465   2.618   2.918 -0.4212 -0.0293  0.3102
 2217SOL     OW18283   2.223   0.922  15.381 -0.5258 -0.3511  0.2227
 2217SOL    HW118284   2.211   0.871  15.460 -0.2605 -0.7330  0.0177
 2217SOL    HW218285   2.131   0.940  15.361 -0.6939 -2.6800 -1.1248
 2218SOL     OW18286   0.788   3.549   7.125  0.3121  0.4853 -0.4849
 2218SOL    HW118287   0.801   3.540   7.220 -1.2490 -1.9359 -0.5140
 2218SOL    HW218288   0.873   3.575   7.089  0.5294  1.2071  0.5460
 2219SOL     OW18289   2.441   3.866   3.018  0.3463 -0.0273 -0.8074
 2219SOL    HW118290   2.449   3.918   3.097 -0.3250 -1.4670  0.2097
 2219SOL    HW218291   2.346   3.854   3.021  0.2620  1.1934  1.3726
 2220SOL     OW18292   3.539   2.792   7.740  0.4400 -0.1436 -0.1487
 2220SOL    HW118293   3.542   2.761   7.831 -0.8670 -0.9330 -0.3707
 2220SOL    HW218294   3.603   2.861   7.756 -0.0546  0.2788  0.0129
 2221SOL     OW18295   4.336   0.495   2.924 -0.1001  0.3004 -0.3537
 2221SOL    HW118296   4.428   0.506   2.902  0.7835 -2.1545  2.2536
 2221SOL    HW218297   4.316   0.587   2.905  0.4946  0.4964 -0.0246
 2222SOL     OW18298   2.877   1.894   3.040 -0.4476  0.2158  0.4641
 2222SOL    HW118299   2.876   1.942   2.957 -0.0789 -0.1235  0.2646
 2222SOL    HW218300   2.927   1.819   3.010 -0.0652  0.8943 -0.5744
 2223SOL     OW18301   2.924   0.934   7.689 -0.1451  0.0418  0.3364
 2223SOL    HW118302   2.950   0.859   7.636  3.1021  0.9947  0.5696
 2223SOL    HW218303   2.837   0.902   7.714 -1.7806  3.3203 -1.1764
 2224SOL     OW18304   4.264   1.025  11.357  0.2288 -0.1275 -0.3795
 2224SOL    HW118305   4.332   1.018  11.290  0.0997 -1.7135 -0.3416
 2224SOL    HW218306   4.303   1.039  11.443  2.8486  1.1126 -1.7692
 2225SOL     OW18307   3.567   3.846   3.383 -0.1486  0.7351  0.4036
 2225SOL    HW118308   3.606   3.813   3.464  0.4627 -1.8719 -0.9668
 2225SOL    HW218309   3.644   3.881   3.337 -1.6274  1.0636 -1.8557
 2226SOL     OW18310   4.190   2.572   0.775  0.1135  0.2564 -0.9074
 2226SOL    HW118311   4.275   2.598   0.811  0.0054 -1.0393  0.3059
 2226SOL    HW218312   4.134   2.649   0.776  1.1846  1.0370 -0.0181
 2227SOL     OW18313   3.473   0.919   7.613 -0.4907  0.2397  0.4832
 2227SOL    HW118314   3.386   0.956   7.630 -0.6265  1.8797 -3.8685
 2227SOL    HW218315   3.472   0.852   7.682 -0.7146 -0.3717 -0.1163
 2228SOL     OW18316   1.488   2.285   9.397  0.2255  0.3054  0.3247
 2228SOL    HW118317   1.485   2.199   9.440  0.1915  0.8147  1.3450
 2228SOL    HW218318   1.563   2.324   9.442  0.8944  0.1896 -0.6670
 2229SOL     OW18319   3.216   0.748   6.915 -0.2092  0.4778  0.2230
 2229SOL    HW118320   3.201   0.740   7.009 -0.9655 -0.8911 -0.0212
 2229SOL    HW218321   3.145   0.805   6.887  0.3123  0.3296 -1.4182
 2230SOL     OW18322   1.519   2.909  14.902  0.2122 -0.0552 -0.2218
 2230SOL    HW118323   1.443   2.886  14.956 -0.3281  0.3097 -0.8274
 2230SOL    HW218324   1.526   2.827  14.853 -3.8203 -1.5594  1.6756
 2231SOL     OW18325   2.291   0.059   6.825 -0.3401  0.5683 -0.1487
 2231SOL    HW118326   2.305   0.146   6.787 -0.1258  0.2924 -0.6936
 2231SOL    HW218327   2.300   0.071   6.919  0.1038  2.0870 -0.3908
 2232SOL     OW18328   1.602   2.332   9.095 -0.6423 -0.0923  0.3071
 2232SOL    HW118329   1.568   2.243   9.089  0.7239 -0.5138 -1.3676
 2232SOL    HW218330   1.533   2.377   9.046 -2.2394  0.2880  2.9386
 2233SOL     OW18331   3.750   1.888  17.399 -0.4513 -0.0327 -0.5240
 2233SOL    HW118332   3.722   1.818  17.340 -0.3852  0.1329 -0.7500
 2233SOL    HW218333   3.731   1.961  17.340  0.7038  0.0182 -0.8395
 2234SOL     OW18334   1.421   0.860   8.160 -0.3126  0.7419 -0.1032
 2234SOL    HW118335   1.374   0.835   8.080  1.5626  0.6556 -1.1670
 2234SOL    HW218336   1.372   0.818   8.231  0.7580 -1.2635 -0.5535
 2235SOL     OW18337   0.560   1.170   4.391  0.1085  0.2549 -0.1606
 2235SOL    HW118338   0.526   1.080   4.396 -0.6485  0.5375 -0.2643
 2235SOL    HW218339   0.542   1.208   4.477 -2.3334 -2.0224  0.3466
 2236SOL     OW18340   3.932   3.914   5.379  0.7264 -0.3828 -0.0356
 2236SOL    HW118341   3.944   3.823   5.407 -2.2446 -0.8045 -0.0666
 2236SOL    HW218342   3.840   3.924   5.352  0.2330  1.9021  2.4763
 2237SOL     OW18343   4.190   0.729  11.432  0.6663  0.3636 -0.1264
 2237SOL    HW118344   4.169   0.823  11.428  1.9415  0.6142 -1.1777
 2237SOL    HW218345   4.106   0.688  11.448  0.4860  0.5367 -0.6034
 2238SOL     OW18346   2.072   1.069  14.717  0.3197  0.0840 -0.0085
 2238SOL    HW118347   2.147   1.128  14.725  2.3510 -2.3439 -1.1403
 2238SOL    HW218348   1.997   1.126  14.699 -1.1480 -1.4843  1.1935
 2239SOL     OW18349   1.625   1.785  16.966  0.0133  0.3042  0.4042
 2239SOL    HW118350   1.719   1.769  16.971 -0.1870 -0.6586  1.1491
 2239SOL    HW218351   1.609   1.757  17.056  3.2492 -0.1436  0.8392
 2240SOL     OW18352   4.047   1.112   5.521  0.6803  0.9213 -0.0120
 2240SOL    HW118353   3.982   1.112   5.592  2.1507  0.2194  1.3467
 2240SOL    HW218354   4.081   1.201   5.527  1.9987  0.3234  1.5264
 2241SOL     OW18355   4.322   3.769   4.895  0.7765  0.1618 -0.5750
 2241SOL    HW118356   4.313   3.854   4.850 -2.7132  0.6692  1.0794
 2241SOL    HW218357   4.385   3.793   4.963 -1.1345  0.6789  1.0051
 2242SOL     OW18358   0.580   0.508   2.025  0.2965  0.5514  0.3815
 2242SOL    HW118359   0.648   0.468   2.079  0.4675 -0.4209 -0.5398
 2242SOL    HW218360   0.520   0.435   2.009  0.1749  1.1151 -1.7743
 2243SOL     OW18361   2.764   3.345   4.690 -0.1580 -0.1097 -0.2613
 2243SOL    HW118362   2.838   3.292   4.721  1.0790  0.8484 -1.5259
 2243SOL    HW218363   2.696   3.325   4.754  1.3597  1.0918  1.7242
 2244SOL     OW18364   1.979   2.750  15.355  0.3468  0.4812  0.4379
 2244SOL    HW118365   2.028   2.673  15.326 -1.0043 -0.2006 -0.0109
 2244SOL    HW218366   2.049   2.816  15.352  1.3806 -0.6357  0.0638
 2245SOL     OW18367   1.210   0.969   9.532 -0.3231 -0.1269  0.2899
 2245SOL    HW118368   1.125   0.984   9.575 -0.0926 -0.7872  0.9903
 2245SOL    HW218369   1.257   1.044   9.568 -0.9607  0.9970 -1.2420
 2246SOL     OW18370   3.320   0.294   3.335 -0.0796  0.6973 -0.0824
 2246SOL    HW118371   3.231   0.313   3.307 -0.4142  0.3590  0.7505
 2246SOL    HW218372   3.355   0.324   3.252 -1.7406 -0.8509 -1.3417
 2247SOL     OW18373   2.607   1.051   5.288  0.8285  0.1099 -0.0854
 2247SOL    HW118374   2.640   0.961   5.276  1.7860  0.6067 -1.1796
 2247SOL    HW218375   2.515   1.025   5.281  1.2326 -0.7612 -2.2030
 2248SOL     OW18376   1.079   3.958   4.460 -0.3698  0.4941 -0.2394
 2248SOL    HW118377   1.114   3.986   4.376  0.0697  1.8734  0.4081
 2248SOL    HW218378   1.101   4.026   4.523 -1.3255  0.0051  0.6330
 2249SOL     OW18379   0.192   1.551   4.660  0.4016 -0.0575  0.1128
 2249SOL    HW118380   0.199   1.522   4.569  3.6363  0.1790  0.2847
 2249SOL    HW218381   0.100   1.537   4.685 -0.0925  1.8501 -0.6381
 2250SOL     OW18382   1.084   0.878   8.385 -0.4480  0.1127  0.3320
 2250SOL    HW118383   1.168   0.832   8.386  0.3846  1.5779 -2.3181
 2250SOL    HW218384   1.116   0.967   8.366  0.5843 -0.2035  0.5963
 2251SOL     OW18385   2.421   0.201   5.140 -0.6719  0.7110 -0.4481
 2251SOL    HW118386   2.513   0.222   5.120 -0.5136  2.6756  2.3173
 2251SOL    HW218387   2.419   0.193   5.235  0.6195 -0.8668 -0.5555
 2252SOL     OW18388   3.193   3.201  10.992  0.1558  0.5644 -0.3669
 2252SOL    HW118389   3.271   3.255  11.002  1.7679 -2.1652  1.6770
 2252SOL    HW218390   3.224   3.122  11.037  0.7970  1.6659  1.1323
 2253SOL     OW18391   3.734   4.538   4.019 -0.2705  0.4051  0.6142
 2253SOL    HW118392   3.678   4.466   3.994  0.6404 -0.4317  0.9742
 2253SOL    HW218393   3.686   4.610   3.978 -1.2945  0.2221  1.4882
 2254SOL     OW18394   0.077   2.459   7.602  0.6302 -0.1649  0.1678
 2254SOL    HW118395   0.020   2.530   7.572 -0.1270 -0.2905  1.3031
 2254SOL    HW218396   0.107   2.493   7.686  1.7943 -0.5852 -0.0742
 2255SOL     OW18397   1.985   0.843  14.895 -0.2197  0.3017  0.1580
 2255SOL    HW118398   1.990   0.878  14.806  0.8357 -0.7656 -0.2071
 2255SOL    HW218399   2.014   0.919  14.945 -0.9755  0.6702  0.0286
 2256SOL     OW18400   0.761   1.672   8.120 -0.0281  0.0304 -0.2197
 2256SOL    HW118401   0.805   1.745   8.076  1.8622 -1.0273 -0.0816
 2256SOL    HW218402   0.680   1.713   8.148 -0.0280  0.5110 -0.9302
 2257SOL     OW18403   3.966   3.722  14.702  0.1467  0.5971 -0.3484
 2257SOL    HW118404   4.044   3.705  14.648  0.0140 -1.4914  0.1093
 2257SOL    HW218405   3.988   3.808  14.738  0.4277  1.5844 -2.9343
 2258SOL     OW18406   1.700   3.965   2.796  0.0843  0.1154  0.0746
 2258SOL    HW118407   1.623   3.911   2.814  0.1782 -0.5903 -1.6578
 2258SOL    HW218408   1.669   4.044   2.840  0.3936  0.9107 -1.1355
 2259SOL     OW18409   1.842   4.091  11.354  0.4447  0.4474 -0.0025
 2259SOL    HW118410   1.899   4.044  11.293 -0.9476 -1.5953  0.2723
 2259SOL    HW218411   1.890   4.173  11.361 -1.6035  1.6250  0.1733
 2260SOL     OW18412   4.321   2.675   7.382  0.0086  0.1694 -0.6291
 2260SOL    HW118413   4.375   2.606   7.420 -0.4056  0.5752  0.7027
 2260SOL    HW218414   4.362   2.746   7.431 -0.1169  0.3504 -0.7872
 2261SOL     OW18415   2.836   0.469   4.245  0.1061  0.2359 -0.0686
 2261SOL    HW118416   2.856   0.556   4.280  0.0307  0.1184  0.2623
 2261SOL    HW218417   2.892   0.416   4.302 -0.6082  0.2530  0.6444
 2262SOL     OW18418   3.441   1.809   6.756 -0.2043 -0.5147 -0.3301
 2262SOL    HW118419   3.412   1.795   6.666  1.4882 -0.7944 -0.8494
 2262SOL    HW218420   3.405   1.733   6.803  0.7202  0.4153  1.8825
 2263SOL     OW18421   3.689   3.951   5.218  0.4418  0.4721  0.2657
 2263SOL    HW118422   3.734   3.871   5.190 -0.5765 -0.1934  0.5536
 2263SOL    HW218423   3.597   3.931   5.204  1.0302 -2.9855  1.3236
 2264SOL     OW18424   2.414   0.182  17.562 -0.2422 -0.5305  0.2546
 2264SOL    HW118425   2.399   0.216  17.650  1.8553  2.7732 -0.6674
 2264SOL    HW218426   2.439   0.265  17.521  0.9625 -1.1883 -0.3178
 2265SOL     OW18427   0.946   0.805   2.613 -0.4499 -0.0179  0.7299
 2265SOL    HW118428   1.000   0.753   2.553 -0.7310 -0.5552  0.9515
 2265SOL    HW218429   0.992   0.888   2.597 -0.1886 -0.5531 -1.3115
 2266SOL     OW18430   1.421   1.539   4.413 -0.0139 -0.0061 -0.3099
 2266SOL    HW118431   1.405   1.515   4.321 -0.4267  2.3951 -0.8888
 2266SOL    HW218432   1.418   1.634   4.428 -1.8910  0.0915 -1.2696
 2267SOL     OW18433   1.425   2.697   6.317  0.3824 -0.0084  0.0265
 2267SOL    HW118434   1.499   2.643   6.290  0.9963  0.4265  0.8343
 2267SOL    HW218435   1.387   2.731   6.236 -1.6688  1.3743  1.5540
 2268SOL     OW18436   2.106   0.525   5.118  0.3700 -0.3894 -0.0976
 2268SOL    HW118437   2.162   0.548   5.193 -1.6034  1.1849  0.9076
 2268SOL    HW218438   2.172   0.500   5.054 -1.2291  1.3038 -2.3655
 2269SOL     OW18439   4.633   3.253   9.660  0.1680 -0.6241 -0.3583
 2269SOL    HW118440   4.729   3.250   9.655  0.0601 -0.4295 -2.4276
 2269SOL    HW218441   4.614   3.324   9.598  0.1881 -1.1213 -0.9278
 2270SOL     OW18442   3.388   3.582   4.469 -0.2160 -0.1804 -0.8814
 2270SOL    HW118443   3.452   3.532   4.521  0.6985  0.3562 -1.4855
 2270SOL    HW218444   3.380   3.519   4.398 -1.0416 -0.9056 -0.1437
 2271SOL     OW18445   2.609   0.246   5.695 -0.2615 -0.3990 -0.6008
 2271SOL    HW118446   2.544   0.301   5.651 -1.3925 -2.5684 -1.6465
 2271SOL    HW218447   2.562   0.163   5.692 -0.2796 -0.3647 -1.3741
 2272SOL     OW18448   2.804   1.836   7.414 -0.0944 -0.0530 -0.0606
 2272SOL    HW118449   2.843   1.850   7.500  0.7647 -0.9569 -0.3145
 2272SOL    HW218450   2.825   1.921   7.374  1.5320 -0.0515  0.7812
 2273SOL     OW18451   2.522   4.173   3.490 -0.5797  0.0108  0.1247
 2273SOL    HW118452   2.473   4.119   3.428 -0.7370  1.1215 -0.7200
 2273SOL    HW218453   2.451   4.228   3.523  1.9292  2.9281  0.6266
 2274SOL     OW18454   4.191   2.162   0.014 -0.1188  0.3002  0.3589
 2274SOL    HW118455   4.139   2.167  17.687 -0.6603  0.3959  0.7187
 2274SOL    HW218456   4.261   2.224  17.748 -1.4573  0.9311 -2.5983
 2275SOL     OW18457   2.167   0.679   3.507 -0.3135  0.2361  0.1470
 2275SOL    HW118458   2.169   0.733   3.587  1.1483 -0.5536  0.6525
 2275SOL    HW218459   2.117   0.741   3.455  0.6964 -0.4652 -1.6329
 2276SOL     OW18460   4.416   0.320   8.167  0.2405 -0.3674 -0.8552
 2276SOL    HW118461   4.379   0.233   8.177 -1.2414  0.3144 -0.3182
 2276SOL    HW218462   4.336   0.366   8.141 -0.1070 -0.6108 -0.1942
 2277SOL     OW18463   0.806   0.226   1.888  0.2858 -0.3210  0.0050
 2277SOL    HW118464   0.782   0.266   1.972  1.2575  1.0095 -0.3578
 2277SOL    HW218465   0.793   0.296   1.825  1.6345 -0.5922 -0.5767
 2278SOL     OW18466   4.161   3.285   5.252 -0.6102 -0.5717  0.2798
 2278SOL    HW118467   4.071   3.273   5.284 -1.2347 -2.1471 -2.0643
 2278SOL    HW218468   4.197   3.348   5.314  1.0112  1.5163 -2.8194
 2279SOL     OW18469   1.217   3.004   8.288 -0.7371 -0.0585 -0.1543
 2279SOL    HW118470   1.182   3.052   8.213 -0.7099  1.0378  0.5296
 2279SOL    HW218471   1.279   3.068   8.323 -0.7983  0.0716 -0.2852
 2280SOL     OW18472   1.998   3.971  11.149 -0.3524 -0.3226  0.4955
 2280SOL    HW118473   2.040   3.886  11.162 -0.3497 -0.3156  0.5346
 2280SOL    HW218474   1.910   3.951  11.117  0.3933 -0.4398 -1.4317
 2281SOL     OW18475   4.061   2.645   8.154  0.4585  0.6041  0.0819
 2281SOL    HW118476   3.986   2.705   8.153 -0.5069 -0.6020 -1.7646
 2281SOL    HW218477   4.032   2.580   8.217 -1.7449  0.4952 -1.0274
 2282SOL     OW18478   4.318   2.034   0.611 -0.8365  0.3561  0.1943
 2282SOL    HW118479   4.293   2.125   0.594  1.4034  0.8352 -0.5209
 2282SOL    HW218480   4.236   1.992   0.586 -0.2385 -0.6046 -0.1491
 2283SOL     OW18481   2.602   1.457  15.609 -0.4928 -0.4813 -0.4015
 2283SOL    HW118482   2.688   1.423  15.585 -1.0688 -2.1965 -0.0362
 2283SOL    HW218483   2.591   1.534  15.554  1.7230  0.1713  0.0603
 2284SOL     OW18484   1.226   1.531   5.700  0.3530 -0.5620  0.0571
 2284SOL    HW118485   1.207   1.439   5.717 -1.0832 -0.5770 -1.6659
 2284SOL    HW218486   1.305   1.528   5.647  1.0774 -1.0614  1.1669
 2285SOL     OW18487   2.547   4.119  16.934 -0.3568  0.0384 -0.3071
 2285SOL    HW118488   2.525   4.027  16.943 -3.3485  0.9586  1.9853
 2285SOL    HW218489   2.575   4.132  16.843  3.6535  1.2671  1.1041
 2286SOL     OW18490   1.088   4.523   3.044  0.0140 -0.0240 -0.3304
 2286SOL    HW118491   1.092   4.531   2.949 -1.0897 -0.4001 -0.4012
 2286SOL    HW218492   1.000   4.486   3.047  0.4176 -1.0323 -1.1579
 2287SOL     OW18493   4.403   2.390   3.300  0.3093  0.1065 -0.6557
 2287SOL    HW118494   4.479   2.385   3.358 -0.7488 -0.5624  0.6692
 2287SOL    HW218495   4.346   2.451   3.346 -0.5302  0.1364 -1.7332
 2288SOL     OW18496   0.801   3.772   3.514 -0.4532  0.0177 -0.2972
 2288SOL    HW118497   0.864   3.790   3.445  1.1666 -1.4726  0.7972
 2288SOL    HW218498   0.836   3.693   3.555 -1.5484  1.0361  2.6328
 2289SOL     OW18499   2.408   1.109   2.430 -0.1948  0.0753  0.1587
 2289SOL    HW118500   2.325   1.145   2.460 -0.0986  1.0034 -0.7044
 2289SOL    HW218501   2.457   1.142   2.505 -0.0329  1.3578 -0.5184
 2290SOL     OW18502   4.255   2.449   9.043 -0.0624  0.3941  0.7025
 2290SOL    HW118503   4.214   2.535   9.031 -3.8555 -1.9757 -2.9560
 2290SOL    HW218504   4.179   2.396   9.024 -0.0829  0.6772  0.0074
 2291SOL     OW18505   0.924   3.825   7.925  0.1347 -0.1407 -0.4804
 2291SOL    HW118506   0.833   3.848   7.907  0.1317  0.7402  0.7105
 2291SOL    HW218507   0.968   3.898   7.883  0.0934  1.0203  1.4740
 2292SOL     OW18508   2.089   3.952  13.188  0.2235 -0.2942  0.0170
 2292SOL    HW118509   2.118   3.925  13.275 -0.1604 -2.7249 -0.6090
 2292SOL    HW218510   2.158   3.919  13.130  0.3233  1.3397 -0.7874
 2293SOL     OW18511   0.359   4.729   4.317 -0.1455 -0.0396  0.4938
 2293SOL    HW118512   0.447   4.721   4.354  0.4455 -1.4490 -1.2028
 2293SOL    HW218513   0.305   4.736   4.396  0.5804 -0.0343  0.9857
 2294SOL     OW18514   3.243   0.331   8.231 -0.2264 -0.2354  0.0900
 2294SOL    HW118515   3.299   0.254   8.228  0.1815  0.0934 -0.9121
 2294SOL    HW218516   3.165   0.299   8.185  0.1848 -0.8262 -0.2081
 2295SOL     OW18517   4.082   2.475   2.590  0.0007 -0.3314  0.0823
 2295SOL    HW118518   4.037   2.408   2.641 -0.3447 -1.0167 -1.1180
 2295SOL    HW218519   4.132   2.525   2.654  0.3349 -4.3326  2.9086
 2296SOL     OW18520   1.320   4.568  13.058 -0.1619  0.5401  1.5749
 2296SOL    HW118521   1.254   4.505  13.088  0.4653 -0.9540 -0.2221
 2296SOL    HW218522   1.331   4.544  12.966 -0.4455  1.9920  1.1595
 2297SOL     OW18523   1.134   3.715  17.692  0.3379 -0.2281 -0.1476
 2297SOL    HW118524   1.076   3.639  17.700 -0.1289 -0.0780 -2.1108
 2297SOL    HW218525   1.141   3.752   0.027  0.5214  1.5016 -0.8937
 2298SOL     OW18526   2.323   4.712   4.149  0.7687  0.0900  0.2838
 2298SOL    HW118527   2.306   0.016   4.234 -0.5508 -0.0985  0.1239
 2298SOL    HW218528   2.240   4.733   4.106  1.5578 -1.2419 -1.8502
 2299SOL     OW18529   3.526   2.708  14.222  0.3058  0.2480  0.4092
 2299SOL    HW118530   3.610   2.666  14.241  1.1177  1.5457 -0.3248
 2299SOL    HW218531   3.470   2.637  14.190  1.3362 -0.2168 -0.3323
 2300SOL     OW18532   3.716   2.058   5.081 -0.0381 -0.1758  0.1552
 2300SOL    HW118533   3.759   2.120   5.140 -0.8550 -1.1072  1.7117
 2300SOL    HW218534   3.766   2.085   5.004 -2.2324 -0.8542 -1.5234
 2301SOL     OW18535   3.102   2.971   4.720 -0.2839 -0.1272  0.7532
 2301SOL    HW118536   3.092   2.907   4.791 -1.3452 -0.0005  0.7158
 2301SOL    HW218537   3.076   2.914   4.647  0.8524  0.0964  0.1670
 2302SOL     OW18538   4.497   2.204   7.492  0.2068 -0.0681  0.3948
 2302SOL    HW118539   4.510   2.181   7.584 -1.4560 -0.4234  0.5436
 2302SOL    HW218540   4.408   2.174   7.474  0.2564  1.1513 -1.8720
 2303SOL     OW18541   3.074   2.898  11.442  0.7196 -0.3127 -0.2113
 2303SOL    HW118542   3.052   2.982  11.403 -1.6899  0.1575  2.2289
 2303SOL    HW218543   3.035   2.841  11.376 -0.5207  0.8975 -0.5144
 2304SOL     OW18544   0.811   3.819  10.634  0.3485  0.4692  0.0321
 2304SOL    HW118545   0.759   3.894  10.664  0.8890  0.7099  0.3807
 2304SOL    HW218546   0.893   3.835  10.682  1.0944 -1.1787 -0.6908
 2305SOL     OW18547   3.150   1.778   0.711 -0.4562 -0.5609  0.1037
 2305SOL    HW118548   3.232   1.750   0.669  1.4749  0.2456  3.3908
 2305SOL    HW218549   3.177   1.769   0.802  0.2725  0.5887 -0.0122
 2306SOL     OW18550   3.727   0.022   8.368  0.1713 -0.3200  0.2078
 2306SOL    HW118551   3.675   0.012   8.448 -0.0225  1.1906  0.2696
 2306SOL    HW218552   3.747   0.115   8.376 -0.9744 -0.0731  0.2386
 2307SOL     OW18553   4.734   2.406   9.095  0.1262 -0.4015 -0.0997
 2307SOL    HW118554   4.737   2.473   9.163 -0.6442 -1.1970  0.7183
 2307SOL    HW218555   4.644   2.371   9.097  0.3432 -0.8552  1.7078
 2308SOL     OW18556   3.194   2.040   7.278  0.3406  0.5616 -0.0875
 2308SOL    HW118557   3.283   2.074   7.283 -0.1179  1.2845  3.0436
 2308SOL    HW218558   3.152   2.112   7.325 -0.6184 -0.6942  0.9800
 2309SOL     OW18559   2.841   0.951   6.183  0.7370  0.4278 -0.3019
 2309SOL    HW118560   2.793   1.035   6.185 -0.5946 -0.2863 -2.6767
 2309SOL    HW218561   2.915   0.971   6.240  1.0595  0.5996 -0.7803
 2310SOL     OW18562   3.241   3.115   5.945 -0.2140  0.6576 -0.0648
 2310SOL    HW118563   3.244   3.144   6.037 -2.3213  1.4458 -0.2459
 2310SOL    HW218564   3.298   3.038   5.941  0.1490  0.7996  1.8771
 2311SOL     OW18565   4.617   0.679  17.106 -0.1637  0.0001  0.2791
 2311SOL    HW118566   4.558   0.749  17.078 -1.6047 -1.0900  0.5649
 2311SOL    HW218567   4.560   0.625  17.161  0.1276  0.0372  0.6144
 2312SOL     OW18568   3.125   3.492   7.504 -0.6435  0.2698 -0.5586
 2312SOL    HW118569   3.149   3.582   7.483  1.4695 -1.1858 -4.3267
 2312SOL    HW218570   3.053   3.505   7.567 -1.7091  0.2091 -1.7631
 2313SOL     OW18571   1.508   1.163   3.355  0.1402  0.5968 -0.3951
 2313SOL    HW118572   1.450   1.197   3.287 -2.0656 -1.7755  0.2983
 2313SOL    HW218573   1.479   1.219   3.427 -0.5862  0.4053 -0.5371
 2314SOL     OW18574   1.936   0.521   7.826  0.6061 -0.3658  0.8126
 2314SOL    HW118575   1.941   0.596   7.886 -1.5396 -0.4672  1.1349
 2314SOL    HW218576   1.974   0.445   7.869  1.3283 -1.4929 -1.8104
 2315SOL     OW18577   4.540   0.438   4.099  0.2891  0.1509 -0.2231
 2315SOL    HW118578   4.477   0.424   4.028  0.4734 -2.6957  0.1920
 2315SOL    HW218579   4.494   0.394   4.170 -1.9104  1.9270 -0.5571
 2316SOL     OW18580   4.008   3.533  16.126  0.2754 -0.1086 -0.4145
 2316SOL    HW118581   3.996   3.569  16.214 -0.6747 -1.7572  0.1349
 2316SOL    HW218582   4.026   3.441  16.146  0.2796 -0.4897 -2.2451
 2317SOL     OW18583   4.672   3.809   7.811 -0.4953  0.1523 -0.2164
 2317SOL    HW118584   4.695   3.732   7.863 -0.0371  1.3140  1.3095
 2317SOL    HW218585   0.016   3.858   7.808 -1.0236  1.0041 -0.8225
 2318SOL     OW18586   0.768   2.422  14.688  0.0294 -0.2783 -0.1085
 2318SOL    HW118587   0.746   2.329  14.701  2.4284 -0.8697 -0.2202
 2318SOL    HW218588   0.846   2.427  14.744  1.3625 -0.7279 -1.9251
 2319SOL     OW18589   4.330   0.937   6.718 -0.4295 -0.0606  0.1585
 2319SOL    HW118590   4.374   1.016   6.748 -2.1933  1.1939 -0.5558
 2319SOL    HW218591   4.375   0.870   6.771 -0.0051  1.6227  1.9324
 2320SOL     OW18592   4.259   0.545  13.768 -0.0469 -0.1034 -0.2516
 2320SOL    HW118593   4.285   0.557  13.859 -0.4258 -0.6846 -0.0643
 2320SOL    HW218594   4.223   0.633  13.755 -1.3034 -0.5096  0.4427
 2321SOL     OW18595   3.147   0.445   4.238  0.1825 -0.5021 -0.1649
 2321SOL    HW118596   3.096   0.409   4.311  2.0834 -0.3598  1.2323
 2321SOL    HW218597   3.140   0.540   4.231 -2.7300 -0.6667  0.1519
 2322SOL     OW18598   0.308   4.659  13.900  0.1131 -0.3831  0.5292
 2322SOL    HW118599   0.273   4.705  13.976  0.1507  2.0895 -0.9790
 2322SOL    HW218600   0.231   4.604  13.884 -0.8652  0.4775  2.2317
 2323SOL     OW18601   2.411   0.992   6.153  0.1474  0.0771  0.3718
 2323SOL    HW118602   2.478   0.960   6.215  0.1587  4.4228  2.6312
 2323SOL    HW218603   2.374   1.070   6.193 -1.6472 -0.3486 -0.4955
 2324SOL     OW18604   4.252   0.673  11.679 -0.0535  0.3198  0.1452
 2324SOL    HW118605   4.159   0.655  11.693 -0.2712  0.7138 -0.7814
 2324SOL    HW218606   4.249   0.712  11.591 -0.3785  1.8551  0.8281
 2325SOL     OW18607   2.753   0.114  10.443  0.0905 -0.1526 -0.2581
 2325SOL    HW118608   2.839   0.090  10.479 -0.6662 -1.9724  0.3372
 2325SOL    HW218609   2.758   0.078  10.354 -0.4735 -2.9712  0.8454
 2326SOL     OW18610   0.876   4.331   3.966  0.3784 -0.2684 -0.2203
 2326SOL    HW118611   0.860   4.239   3.984  0.1188 -0.8176 -3.2369
 2326SOL    HW218612   0.813   4.330   3.894 -0.5435  0.4393  0.5824
 2327SOL     OW18613   4.486   3.755   3.311  0.1528 -0.5367  0.2036
 2327SOL    HW118614   4.431   3.784   3.383 -1.8237 -0.7920 -1.1930
 2327SOL    HW218615   4.419   3.730   3.247 -2.0394  1.7862  1.5657
 2328SOL     OW18616   1.424   2.097   6.629  0.4472  0.2827  0.0782
 2328SOL    HW118617   1.360   2.039   6.670 -1.2893  2.5884  0.7017
 2328SOL    HW218618   1.416   2.180   6.676  0.5680 -0.4491  1.3757
 2329SOL     OW18619   0.280   0.566   5.287 -0.5453  0.7177 -0.4245
 2329SOL    HW118620   0.223   0.490   5.283  1.6450 -0.7442 -4.2865
 2329SOL    HW218621   0.232   0.624   5.346 -0.3239  0.3333  0.1307
 2330SOL     OW18622   4.020   0.007   3.034 -0.0149 -0.1430 -0.0225
 2330SOL    HW118623   4.001   0.079   2.974  0.2601 -0.9313 -1.0466
 2330SOL    HW218624   3.970   0.030   3.113 -2.9142 -0.1550 -1.8579
 2331SOL     OW18625   2.995   0.233   8.186  0.0641 -0.3118 -0.1862
 2331SOL    HW118626   2.902   0.244   8.206  0.2394  1.3985 -0.2893
 2331SOL    HW218627   2.998   0.143   8.155 -3.2847 -0.2201 -0.7591
 2332SOL     OW18628   0.125   2.935  14.172  0.7885  0.3375  0.1398
 2332SOL    HW118629   0.208   2.982  14.162 -0.1385  2.5055  2.6664
 2332SOL    HW218630   0.093   2.967  14.256 -0.4107  2.8569 -1.2757
 2333SOL     OW18631   4.495   2.979  14.084  0.4251 -1.0287 -0.1622
 2333SOL    HW118632   4.525   2.888  14.086  0.8125 -0.9207 -0.9641
 2333SOL    HW218633   4.461   2.984  13.994 -0.8875  1.5989  0.4665
 2334SOL     OW18634   3.395   1.679   0.679  0.1495  0.0537 -0.1825
 2334SOL    HW118635   3.467   1.646   0.733 -0.5816 -1.2268  0.0098
 2334SOL    HW218636   3.436   1.730   0.609 -3.0763  2.5862 -0.2517
 2335SOL     OW18637   0.149   2.312   8.498 -0.0546 -0.6512 -0.0828
 2335SOL    HW118638   0.133   2.231   8.546  0.1829 -0.0008  1.0716
 2335SOL    HW218639   0.056   2.330   8.485  0.1612  0.2925 -0.3341
 2336SOL     OW18640   1.773   3.454   7.960  0.4979 -0.3279 -0.7666
 2336SOL    HW118641   1.793   3.529   7.904  1.0721 -1.5030 -2.1616
 2336SOL    HW218642   1.743   3.385   7.900 -4.9312  2.6891 -1.4197
 2337SOL     OW18643   4.684   0.594   4.285 -0.2281 -0.1901 -0.1071
 2337SOL    HW118644   4.636   0.543   4.219 -1.8828  1.3767 -0.1233
 2337SOL    HW218645   4.641   0.571   4.368  0.1617  0.4447  0.2631
 2338SOL     OW18646   3.848   2.029   7.154 -0.0013 -0.2688  0.5263
 2338SOL    HW118647   3.766   1.999   7.116  1.0509 -2.6291  0.1490
 2338SOL    HW218648   3.825   2.122   7.161  0.2355 -0.3103  1.8024
 2339SOL     OW18649   3.165   0.443   7.749 -0.2248 -0.1019 -0.3307
 2339SOL    HW118650   3.170   0.352   7.778 -2.7521  0.3125  1.4075
 2339SOL    HW218651   3.197   0.482   7.831 -2.6391  0.3514  0.4127
 2340SOL     OW18652   1.120   2.459  12.730  0.2235 -0.3115 -0.3547
 2340SOL    HW118653   1.188   2.399  12.698 -0.2247 -1.2999  0.5391
 2340SOL    HW218654   1.147   2.463  12.822  0.5930  1.3431 -0.5315
 2341SOL     OW18655   2.991   3.638   6.252 -0.4337  0.0094  0.1197
 2341SOL    HW118656   3.063   3.698   6.228  0.5776 -0.3988  2.0891
 2341SOL    HW218657   3.037   3.578   6.311 -1.5612  0.1019  1.0814
 2342SOL     OW18658   1.976   2.963   5.640 -0.0181 -0.0106 -0.4232
 2342SOL    HW118659   2.062   3.000   5.621  0.0411 -0.7720 -1.7044
 2342SOL    HW218660   1.927   3.044   5.648  1.6642  0.9846 -0.2627
 2343SOL     OW18661   0.856   2.657  12.932  0.4347  0.2212  0.1680
 2343SOL    HW118662   0.862   2.672  12.838  1.3450  0.1829  0.2157
 2343SOL    HW218663   0.774   2.701  12.954  0.0658  0.5785 -1.9924
 2344SOL     OW18664   3.443   2.598   3.264  0.5734 -0.4972  0.4887
 2344SOL    HW118665   3.365   2.603   3.209  0.5532 -0.1016  0.5471
 2344SOL    HW218666   3.428   2.670   3.325  0.3616  1.0608 -1.3900
 2345SOL     OW18667   3.843   2.970  11.434 -0.9602 -0.0998  0.0611
 2345SOL    HW118668   3.878   2.882  11.426 -3.7594 -1.3252  1.6089
 2345SOL    HW218669   3.828   2.986  11.340  0.8957 -0.2219 -0.2630
 2346SOL     OW18670   4.644   2.013  10.772 -0.1180  0.7015  0.1524
 2346SOL    HW118671   4.557   1.973  10.761 -0.8839  2.8730 -1.6453
 2346SOL    HW218672   4.619   2.103  10.753 -1.0040  0.1225 -1.4707
 2347SOL     OW18673   0.404   2.781   3.491  0.0634  0.4590  0.1170
 2347SOL    HW118674   0.424   2.873   3.471 -1.5925  1.1657  1.6594
 2347SOL    HW218675   0.343   2.790   3.564  0.2797 -0.1430  0.3613
 2348SOL     OW18676   0.344   0.372   2.038 -0.3536 -0.0385 -0.0917
 2348SOL    HW118677   0.337   0.318   1.959 -0.7492 -2.6847  1.7352
 2348SOL    HW218678   0.316   0.309   2.104 -0.2953  1.2933  1.2020
 2349SOL     OW18679   3.117   1.241   3.402 -0.4310  1.3309 -0.2410
 2349SOL    HW118680   3.122   1.147   3.417 -0.8407  1.4775  0.8305
 2349SOL    HW218681   3.025   1.257   3.423  0.1736  1.7325  2.0625
 2350SOL     OW18682   4.138   3.530   5.592  0.2327 -0.0331  0.0590
 2350SOL    HW118683   4.224   3.504   5.560  0.3317  0.3833 -0.0131
 2350SOL    HW218684   4.151   3.506   5.684 -0.1709  0.1215  0.1592
 2351SOL     OW18685   3.825   3.340   7.224 -0.3429  0.2086  0.4994
 2351SOL    HW118686   3.914   3.351   7.259  0.3770  2.4630 -1.9947
 2351SOL    HW218687   3.779   3.329   7.307  0.7296  0.0233  1.0698
 2352SOL     OW18688   3.596   1.413   6.002  0.2368  0.2295 -0.0815
 2352SOL    HW118689   3.616   1.323   6.028 -0.3022  0.3708  0.8245
 2352SOL    HW218690   3.583   1.397   5.909  0.6694 -0.4371 -0.0256
 2353SOL     OW18691   1.462   0.839   6.119  0.3257  0.1918 -0.1317
 2353SOL    HW118692   1.479   0.866   6.029  0.8357  2.5359  0.6649
 2353SOL    HW218693   1.548   0.813   6.154 -0.1798  0.0648  1.0009
 2354SOL     OW18694   3.721   1.162   7.971  0.7629  0.3876 -0.0790
 2354SOL    HW118695   3.659   1.141   8.041  1.2910  0.8674  0.5227
 2354SOL    HW218696   3.696   1.113   7.893  0.4465 -0.0378  0.2909
 2355SOL     OW18697   0.596   3.056   3.380  0.0767  0.5064  0.4645
 2355SOL    HW118698   0.620   2.993   3.312  1.4074  1.7551 -0.2269
 2355SOL    HW218699   0.674   3.050   3.435  0.6052 -1.9123 -0.5192
 2356SOL     OW18700   0.676   4.245  14.558 -0.2053  0.3491  0.0870
 2356SOL    HW118701   0.629   4.171  14.520 -1.1234  1.7389 -1.4885
 2356SOL    HW218702   0.711   4.291  14.481  0.3545 -2.1243 -1.1272
 2357SOL     OW18703   0.746   4.434   4.739 -0.2231  0.0343 -0.3717
 2357SOL    HW118704   0.659   4.469   4.757  0.3519 -0.3792  3.2352
 2357SOL    HW218705   0.804   4.492   4.788  0.8310  0.2746 -1.9102
 2358SOL     OW18706   0.471   2.809  17.147  0.6594  0.0721  1.3000
 2358SOL    HW118707   0.486   2.761  17.066 -0.1109  0.6317  0.8283
 2358SOL    HW218708   0.484   2.894  17.107  1.0575 -0.1124  1.0461
 2359SOL     OW18709   3.536   0.469   6.889 -0.0273  0.1707 -0.4281
 2359SOL    HW118710   3.625   0.461   6.923 -0.3124  0.5674  0.3917
 2359SOL    HW218711   3.483   0.502   6.961 -1.8361  0.1361 -1.7324
 2360SOL     OW18712   4.617   3.035   1.449 -0.3626  0.1951  0.4666
 2360SOL    HW118713   4.592   3.013   1.359 -0.4664 -1.6792  0.9654
 2360SOL    HW218714   4.708   3.008   1.449 -0.8354 -1.4458 -1.0085
 2361SOL     OW18715   0.759   0.758   2.976  0.5066 -0.3738 -0.1872
 2361SOL    HW118716   0.736   0.802   2.894  0.8237 -1.3478 -0.7928
 2361SOL    HW218717   0.754   0.665   2.953  2.5775 -0.1350 -1.5924
 2362SOL     OW18718   3.726   4.599   7.575 -0.1238  0.2537  0.2730
 2362SOL    HW118719   3.794   4.531   7.574  0.4025  0.8290 -1.6426
 2362SOL    HW218720   3.652   4.538   7.576  0.1966 -0.1715 -2.0035
 2363SOL     OW18721   4.343   4.693   2.669  0.1563 -0.1670  0.1190
 2363SOL    HW118722   4.388   0.011   2.732 -0.0407  1.3800 -1.1476
 2363SOL    HW218723   4.411   4.629   2.649  3.0089  2.2197  2.1294
 2364SOL     OW18724   4.454   1.196   6.876 -0.0767 -0.5131 -0.3223
 2364SOL    HW118725   4.536   1.231   6.911 -0.1438 -0.0051 -0.6734
 2364SOL    HW218726   4.413   1.156   6.953 -0.0206  0.4318  0.2052
 2365SOL     OW18727   4.481   1.545  11.360  0.3801  0.1144  0.4212
 2365SOL    HW118728   4.572   1.572  11.370  1.1963 -1.5647 -2.3230
 2365SOL    HW218729   4.443   1.562  11.446 -0.9555  0.4351 -0.2333
 2366SOL     OW18730   3.037   1.537   8.332 -0.0877  0.1733  0.2163
 2366SOL    HW118731   3.108   1.480   8.303  0.1825  0.3282  0.5633
 2366SOL    HW218732   2.980   1.467   8.364  0.0690  0.7472  1.7703
 2367SOL     OW18733   3.858   3.820   4.532 -0.8283 -0.0525  0.4188
 2367SOL    HW118734   3.821   3.907   4.545 -0.6197  0.0571  0.2864
 2367SOL    HW218735   3.801   3.766   4.586 -0.5694 -2.4982 -1.7056
 2368SOL     OW18736   3.523   0.455   1.397  0.5895 -0.3941 -0.2812
 2368SOL    HW118737   3.444   0.505   1.420  1.0913  0.3523 -0.1931
 2368SOL    HW218738   3.505   0.372   1.440  0.3135  0.2143  0.7918
 2369SOL     OW18739   3.096   3.689  16.199 -0.2340 -0.4818  0.4338
 2369SOL    HW118740   3.089   3.594  16.200  2.1065 -0.6326  1.7007
 2369SOL    HW218741   3.132   3.706  16.286 -2.6452 -1.6712  1.6624
 2370SOL     OW18742   2.739   3.222  10.377 -0.1190 -0.4946 -0.4475
 2370SOL    HW118743   2.793   3.175  10.314 -1.1382 -1.3946 -0.6647
 2370SOL    HW218744   2.758   3.308  10.338  1.5332 -0.5122  0.3443
 2371SOL     OW18745   0.201   1.404   2.898 -0.0430 -0.1329  0.4805
 2371SOL    HW118746   0.219   1.394   2.805  0.7440  0.9389  0.5249
 2371SOL    HW218747   0.179   1.497   2.904  3.6003  0.6673  1.3299
 2372SOL     OW18748   1.270   0.277   2.845 -0.2789  0.5926 -0.2662
 2372SOL    HW118749   1.254   0.309   2.934  0.0328 -1.6050  0.5751
 2372SOL    HW218750   1.252   0.353   2.790 -0.3675  1.5898  1.1395
 2373SOL     OW18751   1.995   1.345   6.186  0.1775 -0.4539 -0.2479
 2373SOL    HW118752   2.034   1.405   6.122  0.1464  0.4794  0.6208
 2373SOL    HW218753   2.043   1.365   6.265  0.6143  0.3838 -0.7294
 2374SOL     OW18754   4.120   0.730  16.362  0.3278 -0.1917 -0.6320
 2374SOL    HW118755   4.187   0.706  16.297  0.0230  0.1842 -1.0808
 2374SOL    HW218756   4.159   0.699  16.444 -1.5776 -0.6025  0.1030
 2375SOL     OW18757   3.992   2.497   0.536  0.3619 -0.1097 -0.0893
 2375SOL    HW118758   3.996   2.402   0.524  0.1116 -0.2019  0.5856
 2375SOL    HW218759   3.898   2.512   0.522  0.4451  2.3994  2.1952
 2376SOL     OW18760   2.476   2.672   5.864 -0.3084  0.2610 -0.0559
 2376SOL    HW118761   2.448   2.599   5.919 -0.5682 -2.2496 -3.5452
 2376SOL    HW218762   2.569   2.678   5.888  0.0685  0.1043 -1.5117
 2377SOL     OW18763   2.434   3.802   9.877  0.2293 -0.7040 -0.5580
 2377SOL    HW118764   2.358   3.838   9.921 -0.0867  1.5908 -3.0145
 2377SOL    HW218765   2.443   3.726   9.935  3.0645 -0.8919 -1.2443
 2378SOL     OW18766   3.711   3.713   3.569  0.5646 -0.0836 -0.4529
 2378SOL    HW118767   3.795   3.741   3.606  0.3385  1.7278 -1.3602
 2378SOL    HW218768   3.651   3.750   3.634 -0.7248 -2.8769 -0.0158
 2379SOL     OW18769   3.160   1.743  13.415  0.2942 -0.4045  0.2501
 2379SOL    HW118770   3.168   1.653  13.446 -0.3611 -0.3890  0.4590
 2379SOL    HW218771   3.246   1.751  13.374 -0.2371 -1.0515 -0.9848
 2380SOL     OW18772   1.311   3.270  13.195 -0.0226  0.0239 -0.3638
 2380SOL    HW118773   1.393   3.287  13.149  0.6841  1.2878  1.3495
 2380SOL    HW218774   1.294   3.352  13.241 -0.7042 -0.1850 -0.2423
 2381SOL     OW18775   1.494   1.785   1.170  0.3386  0.8814 -0.4944
 2381SOL    HW118776   1.468   1.825   1.086 -1.4378  1.0190  0.1274
 2381SOL    HW218777   1.407   1.766   1.203 -0.0464  2.7078 -0.4539
 2382SOL     OW18778   3.628   1.899   0.150 -0.1493  0.1744 -0.2671
 2382SOL    HW118779   3.578   1.913   0.070 -0.2816  1.4486  0.0358
 2382SOL    HW218780   3.648   1.807   0.133 -1.2768 -0.1660  0.2106
 2383SOL     OW18781   2.284   3.465  12.841 -0.0238  0.0878  0.1936
 2383SOL    HW118782   2.219   3.399  12.867  1.3053 -1.1568  0.3035
 2383SOL    HW218783   2.315   3.448  12.753 -1.8044 -2.1359 -0.0228
 2384SOL     OW18784   2.730   1.331   2.781 -0.4540  0.0493 -0.1848
 2384SOL    HW118785   2.723   1.426   2.794 -1.3127 -0.2005  1.2437
 2384SOL    HW218786   2.821   1.310   2.763 -0.8920 -1.3833 -0.7277
 2385SOL     OW18787   4.449   3.595  13.573 -0.3432 -0.0029 -0.5425
 2385SOL    HW118788   4.397   3.524  13.612 -0.6187  1.7568  2.2802
 2385SOL    HW218789   4.479   3.558  13.490  0.2508 -0.3616 -0.1656
 2386SOL     OW18790   0.820   0.735   9.581  0.3177  0.4043  0.1347
 2386SOL    HW118791   0.780   0.820   9.562 -2.2777 -1.1677 -1.4173
 2386SOL    HW218792   0.910   0.766   9.573  0.6642 -0.1811  1.8373
 2387SOL     OW18793   1.223   3.811   8.608  0.8606  0.4696 -0.4947
 2387SOL    HW118794   1.149   3.780   8.661  1.2355  1.8793  0.8522
 2387SOL    HW218795   1.179   3.871   8.548  0.3790 -1.4253 -2.0195
 2388SOL     OW18796   0.293   3.158   6.667  0.0400 -0.2010 -0.1936
 2388SOL    HW118797   0.214   3.144   6.719  1.3567 -0.9433  1.5937
 2388SOL    HW218798   0.326   3.070   6.649  0.0962 -0.2807  0.3150
 2389SOL     OW18799   1.739   4.662  15.126 -0.1533  0.1856  0.0004
 2389SOL    HW118800   1.681   4.715  15.180  0.7619 -0.1993  1.3686
 2389SOL    HW218801   1.735   4.698  15.037  0.1669  0.2339  0.0055
 2390SOL     OW18802   0.576   4.072   2.521 -0.3596  0.2414 -0.1086
 2390SOL    HW118803   0.541   4.029   2.599 -0.4826 -0.8746 -0.7848
 2390SOL    HW218804   0.574   4.009   2.449  0.9976 -0.1610  0.2135
 2391SOL     OW18805   1.978   3.858   6.033  0.5951  0.2743 -0.1233
 2391SOL    HW118806   2.029   3.859   6.114  0.5424 -0.4318 -0.0746
 2391SOL    HW218807   1.969   3.950   6.008  2.0341 -0.0047 -1.6449
 2392SOL     OW18808   3.175   3.138  17.217  0.2785 -0.6574  0.0429
 2392SOL    HW118809   3.123   3.206  17.260 -0.9990 -0.9155 -1.0682
 2392SOL    HW218810   3.200   3.183  17.137  0.4072 -1.4533 -0.3692
 2393SOL     OW18811   1.455   1.313  12.468  0.1273 -0.1963  0.1403
 2393SOL    HW118812   1.385   1.252  12.445  0.1341 -0.5124  0.9613
 2393SOL    HW218813   1.411   1.397  12.478 -0.2065 -0.0419 -2.5779
 2394SOL     OW18814   0.479   1.485   2.772 -0.3266 -0.1248  0.5378
 2394SOL    HW118815   0.495   1.576   2.744 -0.7444 -0.0553  0.5302
 2394SOL    HW218816   0.395   1.474   2.729 -0.0538  2.6158 -0.7250
 2395SOL     OW18817   3.213   1.084  16.745  0.5222 -0.2195  0.7295
 2395SOL    HW118818   3.210   1.010  16.805  0.5009  1.0744  2.3037
 2395SOL    HW218819   3.308   1.089  16.732  0.6112 -0.3943  1.3419
 2396SOL     OW18820   0.956   3.583   4.406 -0.2762 -0.2169  0.2742
 2396SOL    HW118821   0.882   3.611   4.459  0.6825  0.3771  1.3150
 2396SOL    HW218822   0.962   3.490   4.424  0.2171 -0.6277 -1.9667
 2397SOL     OW18823   4.363   0.451   5.690 -0.2565 -0.6401  0.6662
 2397SOL    HW118824   4.385   0.513   5.759  0.1397 -1.8362  1.6228
 2397SOL    HW218825   4.371   0.370   5.741  0.2993 -1.4451 -0.7050
 2398SOL     OW18826   0.664   1.834   6.724 -0.1577 -0.5405  0.1187
 2398SOL    HW118827   0.714   1.774   6.670  1.4463 -0.7797  1.8772
 2398SOL    HW218828   0.708   1.919   6.724 -0.1017 -0.5683  0.8122
 2399SOL     OW18829   0.484   1.015   6.690  0.4523  0.0763 -0.1666
 2399SOL    HW118830   0.580   1.019   6.687  0.4602 -1.8134 -2.1812
 2399SOL    HW218831   0.463   1.051   6.777 -0.3655 -0.7481 -0.0196
 2400SOL     OW18832   1.612   2.249   4.800 -0.0294  0.1384  0.2595
 2400SOL    HW118833   1.628   2.278   4.890  0.9824  0.0697  0.0994
 2400SOL    HW218834   1.701   2.224   4.777 -0.2762 -0.6094  0.1481
 2401SOL     OW18835   2.834   2.033   5.964  0.3564 -0.8505  0.2974
 2401SOL    HW118836   2.920   1.996   5.947  0.8359 -0.4551  1.8607
 2401SOL    HW218837   2.835   2.021   6.059  1.1514  0.3646  0.4443
 2402SOL     OW18838   0.299   1.563   3.628  0.0088  0.0031  0.7286
 2402SOL    HW118839   0.262   1.484   3.667  1.4256  0.1712  2.4478
 2402SOL    HW218840   0.357   1.528   3.560  0.5803  2.2571  0.0461
 2403SOL     OW18841   4.274   2.739  12.320  0.1534  0.2987  0.2461
 2403SOL    HW118842   4.235   2.671  12.265  2.8276 -1.3090  0.3069
 2403SOL    HW218843   4.364   2.737  12.288  0.6016  0.6778  1.4599
 2404SOL     OW18844   2.479   2.735  16.595 -0.0288  0.1264  0.0391
 2404SOL    HW118845   2.426   2.711  16.671 -0.5694  0.2100 -0.3119
 2404SOL    HW218846   2.558   2.681  16.605 -1.6926 -2.7811 -2.3052
 2405SOL     OW18847   3.118   4.177   6.124  0.4023 -0.5143  0.2884
 2405SOL    HW118848   3.026   4.174   6.148  1.0707  1.8130  3.1140
 2405SOL    HW218849   3.121   4.272   6.109 -2.6871 -0.2583  1.3116
 2406SOL     OW18850   4.562   3.948   6.731 -0.0663 -1.1148  0.0599
 2406SOL    HW118851   4.609   3.918   6.653  0.7261 -3.4317  1.4316
 2406SOL    HW218852   4.506   4.012   6.688  3.5979  2.3160  0.4160
 2407SOL     OW18853   4.451   1.746  15.363  0.1569  0.1497  0.0487
 2407SOL    HW118854   4.428   1.655  15.379 -0.7151  0.2965 -0.3967
 2407SOL    HW218855   4.539   1.735  15.328  0.1346 -0.1927  0.1019
 2408SOL     OW18856   4.082   2.127   8.385 -0.2307 -0.1150 -0.5913
 2408SOL    HW118857   4.079   2.178   8.304 -0.1702 -1.6403 -1.5657
 2408SOL    HW218858   3.993   2.148   8.415 -1.0320 -2.3048 -1.4447
 2409SOL     OW18859   4.519   0.664   7.644 -0.2881 -0.0237 -0.0088
 2409SOL    HW118860   4.476   0.648   7.728  0.1158  0.8037  0.3531
 2409SOL    HW218861   4.480   0.745   7.612  0.4819  1.6832  3.4521
 2410SOL     OW18862   4.194   3.923   4.168  0.0311 -0.0396  0.5639
 2410SOL    HW118863   4.215   3.888   4.254  0.6108  3.1911  1.7192
 2410SOL    HW218864   4.275   3.967   4.141  0.5381 -1.2411  0.1373
 2411SOL     OW18865   2.402   4.214   9.721 -0.6795 -0.1179  0.2561
 2411SOL    HW118866   2.394   4.209   9.626 -1.0074 -0.3943  0.2967
 2411SOL    HW218867   2.497   4.220   9.733 -0.8547 -1.8635  2.5158
 2412SOL     OW18868   3.903   1.869  11.217  0.0309  0.7798  0.1426
 2412SOL    HW118869   3.876   1.825  11.136  1.4303 -1.0882  0.6994
 2412SOL    HW218870   3.839   1.835  11.280 -0.2010  3.3698  1.2946
 2413SOL     OW18871   4.402   4.307   8.399  0.2316  0.6234  0.0077
 2413SOL    HW118872   4.395   4.392   8.441  1.7673  0.0868  1.3607
 2413SOL    HW218873   4.408   4.243   8.470  0.3446 -2.6319 -2.9282
 2414SOL     OW18874   1.767   0.407   1.728 -0.7533 -0.5635  0.4950
 2414SOL    HW118875   1.853   0.372   1.749  0.2341  0.5069 -1.7504
 2414SOL    HW218876   1.714   0.370   1.799 -0.4915 -1.4176  0.2487
 2415SOL     OW18877   2.213   1.633   2.384 -0.2090 -0.4963  0.2390
 2415SOL    HW118878   2.293   1.581   2.383  1.4709  2.1068 -0.7603
 2415SOL    HW218879   2.224   1.699   2.452 -1.3977 -1.0644  1.0064
 2416SOL     OW18880   1.085   3.635   4.054 -0.2158 -0.2376  0.0100
 2416SOL    HW118881   1.147   3.661   4.122  0.8692  0.1935 -1.1597
 2416SOL    HW218882   1.033   3.716   4.044 -3.0573 -2.0410  0.1206
 2417SOL     OW18883   2.909   3.575   8.636  0.4205 -0.5384  0.4631
 2417SOL    HW118884   2.831   3.590   8.689 -0.7750  2.2729 -2.0472
 2417SOL    HW218885   2.970   3.587   8.708  2.0435 -1.8632 -0.7087
 2418SOL     OW18886   3.552   0.963  10.791 -0.2643  0.0964 -0.1544
 2418SOL    HW118887   3.621   0.982  10.728  0.3107  0.3434  0.5496
 2418SOL    HW218888   3.578   0.888  10.845  2.7349 -1.0413 -3.1735
 2419SOL     OW18889   0.875   3.258   4.099 -0.0731 -0.0422 -0.3471
 2419SOL    HW118890   0.805   3.221   4.154 -1.1122  2.4034 -0.0213
 2419SOL    HW218891   0.862   3.207   4.019 -0.9175 -1.1194  0.4780
 2420SOL     OW18892   4.191   1.297  12.334  0.0198 -0.1281 -0.3445
 2420SOL    HW118893   4.195   1.316  12.240 -2.4392 -0.0867 -0.4527
 2420SOL    HW218894   4.141   1.215  12.325  0.6218 -0.9257  3.6507
 2421SOL     OW18895   0.814   3.092   4.830 -0.1518  0.0401 -0.0727
 2421SOL    HW118896   0.872   3.082   4.905 -0.4794 -0.2190  0.1413
 2421SOL    HW218897   0.737   3.118   4.881 -0.2944  0.3697 -0.4536
 2422SOL     OW18898   3.096   2.207   0.674 -0.2268 -0.3384  0.0710
 2422SOL    HW118899   3.149   2.268   0.726 -0.4454 -1.0821  1.1693
 2422SOL    HW218900   3.157   2.185   0.604 -0.4096 -2.5596  0.5963
 2423SOL     OW18901   2.221   0.412   3.428 -0.1983 -1.2272  0.6216
 2423SOL    HW118902   2.307   0.400   3.387 -1.7871 -0.8868 -2.8350
 2423SOL    HW218903   2.215   0.506   3.443  0.5243 -1.0742 -0.0111
 2424SOL     OW18904   4.070   1.083  17.104 -0.6014  0.2521 -0.3001
 2424SOL    HW118905   4.117   1.010  17.064  1.2852  1.4476 -0.2499
 2424SOL    HW218906   4.136   1.153  17.103 -0.7982  0.4550  0.6374
 2425SOL     OW18907   2.183   3.599   6.932  0.2908  0.5848 -0.2988
 2425SOL    HW118908   2.091   3.595   6.908  0.2779  0.3106 -0.1932
 2425SOL    HW218909   2.222   3.573   6.848  0.5388 -0.0102  0.0082
 2426SOL     OW18910   3.739   3.412   5.562 -0.1780  0.6896 -0.0947
 2426SOL    HW118911   3.797   3.474   5.606  0.9905  0.1119 -0.8151
 2426SOL    HW218912   3.671   3.464   5.520 -1.0852  1.1450  1.9260
 2427SOL     OW18913   0.750   1.135   5.087 -0.3511  0.3743  0.1622
 2427SOL    HW118914   0.800   1.064   5.047  0.0882  1.7777 -1.7896
 2427SOL    HW218915   0.816   1.177   5.142 -0.9103  0.7568  0.5368
 2428SOL     OW18916   3.127   0.117  11.254 -0.2073 -0.0612 -1.1173
 2428SOL    HW118917   3.083   0.184  11.202  1.0718  1.6283 -0.0242
 2428SOL    HW218918   3.058   0.065  11.295 -0.7844  1.1684 -0.5477
 2429SOL     OW18919   2.859   0.847   4.493 -0.2070 -0.2460 -0.1434
 2429SOL    HW118920   2.882   0.936   4.465  0.1530 -0.6434 -1.1122
 2429SOL    HW218921   2.771   0.850   4.529 -0.0804  2.6644 -0.0419
 2430SOL     OW18922   0.022   0.959   3.406  0.4966  0.0439 -0.0091
 2430SOL    HW118923   0.046   0.947   3.314  0.4241  1.0592 -0.1590
 2430SOL    HW218924   0.077   1.035   3.424  0.5961 -0.1612  0.5465
 2431SOL     OW18925   4.161   0.677  15.965  0.4995  0.2252  0.3401
 2431SOL    HW118926   4.186   0.758  16.009  1.2261  1.1285 -1.7311
 2431SOL    HW218927   4.142   0.714  15.879 -1.8223  1.1107  1.2154
 2432SOL     OW18928   0.579   2.805   8.555 -0.3328  0.1862 -0.6386
 2432SOL    HW118929   0.577   2.712   8.531  0.3883  0.1811 -0.6597
 2432SOL    HW218930   0.492   2.836   8.530 -0.0001  1.0289 -0.7528
 2433SOL     OW18931   1.857   4.419  16.289 -0.5505 -0.8025 -0.6437
 2433SOL    HW118932   1.944   4.428  16.250  0.7834 -0.2795  2.4534
 2433SOL    HW218933   1.827   4.346  16.235 -1.6462 -0.6189 -0.2783
 2434SOL     OW18934   1.899   1.632  12.979  0.4327 -0.2594 -0.0119
 2434SOL    HW118935   1.865   1.701  12.922  1.8866  0.6028  0.1414
 2434SOL    HW218936   1.980   1.675  13.008  1.3180 -0.6279 -1.9218
 2435SOL     OW18937   4.270   0.924   4.076 -0.0191  0.5291  0.3737
 2435SOL    HW118938   4.300   0.981   4.006  0.1358 -0.3633 -0.2846
 2435SOL    HW218939   4.351   0.873   4.085  0.0920  0.8027  0.9838
 2436SOL     OW18940   2.415   4.554   4.563  0.1426 -0.6970  0.6874
 2436SOL    HW118941   2.361   4.497   4.618 -1.1375 -0.7355 -0.6086
 2436SOL    HW218942   2.364   4.635   4.566 -2.7487 -2.4942  0.0607
 2437SOL     OW18943   2.420   4.057   5.317 -0.2979 -0.2673 -0.5443
 2437SOL    HW118944   2.472   4.131   5.285  1.3633 -0.9378  0.6479
 2437SOL    HW218945   2.399   4.007   5.238 -1.0997 -0.6603 -0.0817
 2438SOL     OW18946   3.309   3.952  10.108 -0.2269 -0.2033  0.3133
 2438SOL    HW118947   3.329   3.873  10.058  1.7689  1.5025 -1.6311
 2438SOL    HW218948   3.391   4.000  10.095  0.4062 -1.5540 -0.6469
 2439SOL     OW18949   1.512   1.250   5.205  0.1638  0.8140  0.1059
 2439SOL    HW118950   1.507   1.159   5.235 -3.0478  0.8246 -0.4831
 2439SOL    HW218951   1.535   1.230   5.114  1.7653  3.1263 -0.0070
 2440SOL     OW18952   2.687   4.227   8.989  0.0609 -0.2223  0.2499
 2440SOL    HW118953   2.668   4.243   9.081 -0.6292 -0.7331  0.1907
 2440SOL    HW218954   2.777   4.195   8.996 -0.2278 -1.1066 -0.1079
 2441SOL     OW18955   3.157   1.308   9.521  0.7254 -0.2821 -0.1502
 2441SOL    HW118956   3.175   1.225   9.478  0.3112 -0.0611 -0.7511
 2441SOL    HW218957   3.163   1.368   9.446 -0.7080 -1.2301 -1.0204
 2442SOL     OW18958   2.677   1.869   3.463  0.2999  0.7575  0.0694
 2442SOL    HW118959   2.731   1.948   3.473 -0.3409  1.1316  0.5987
 2442SOL    HW218960   2.667   1.873   3.368  1.7171 -0.6569 -0.1384
 2443SOL     OW18961   4.063   0.845   8.589  0.3160  0.2194  0.0033
 2443SOL    HW118962   3.999   0.869   8.522  2.2435  4.1717 -0.4433
 2443SOL    HW218963   4.079   0.929   8.632  1.1706 -0.5858  1.2255
 2444SOL     OW18964   1.232   1.243   5.644 -0.1864  0.0059  0.4747
 2444SOL    HW118965   1.242   1.175   5.577  3.0305 -0.7729  1.7811
 2444SOL    HW218966   1.323   1.256   5.671 -0.2753  2.5670 -0.4091
 2445SOL     OW18967   2.499   2.351   5.188  0.5186  0.3319 -0.0902
 2445SOL    HW118968   2.471   2.304   5.110 -0.6167  1.2227 -0.2088
 2445SOL    HW218969   2.547   2.278   5.228  0.9463 -0.4324 -2.0254
 2446SOL     OW18970   2.562   3.161  15.085 -0.4052  0.6086 -0.0755
 2446SOL    HW118971   2.631   3.120  15.137 -1.3906  1.8451  2.1823
 2446SOL    HW218972   2.481   3.128  15.122  0.5149 -0.8649  0.6217
 2447SOL     OW18973   1.061   2.556  17.304 -0.4371  0.7056  0.0722
 2447SOL    HW118974   0.999   2.618  17.267 -2.4034 -1.8621 -0.9034
 2447SOL    HW218975   1.014   2.473  17.303  0.4036  0.2020  1.9988
 2448SOL     OW18976   1.290   0.198   3.730 -0.0514  0.2303 -0.4083
 2448SOL    HW118977   1.259   0.139   3.662  0.0787 -1.0464  0.6353
 2448SOL    HW218978   1.217   0.260   3.738  0.7467  1.1129  0.1500
 2449SOL     OW18979   4.221   3.303   1.102  0.3051 -0.2063 -0.5671
 2449SOL    HW118980   4.143   3.270   1.057 -0.9822  0.3510  1.2474
 2449SOL    HW218981   4.195   3.382   1.150 -1.2386  0.3766 -2.3736
 2450SOL     OW18982   3.630   3.566   9.010  0.4576 -0.1870 -0.2997
 2450SOL    HW118983   3.657   3.623   8.938  2.1342 -0.4474  0.1214
 2450SOL    HW218984   3.701   3.504   9.024  0.3766 -0.0449  0.7423
 2451SOL     OW18985   1.076   1.171  16.639 -0.3513  0.3010 -0.8317
 2451SOL    HW118986   1.158   1.147  16.596 -0.8725 -2.0172 -0.5651
 2451SOL    HW218987   1.089   1.144  16.730  0.4873 -1.8915 -1.5938
 2452SOL     OW18988   3.044   2.032  12.504  0.2711 -0.1303 -0.3487
 2452SOL    HW118989   3.075   2.068  12.420  0.9054 -2.0932 -0.9525
 2452SOL    HW218990   3.098   2.075  12.570 -2.3553  0.0617  1.6738
 2453SOL     OW18991   2.359   1.716   7.459 -0.2040  0.2630  0.5648
 2453SOL    HW118992   2.332   1.627   7.439  0.1657  0.2632  0.0647
 2453SOL    HW218993   2.426   1.697   7.525  0.0477 -0.4302  0.1056
 2454SOL     OW18994   4.014   1.438   1.299  0.7027  0.0297 -0.3043
 2454SOL    HW118995   4.092   1.383   1.287  0.6380  0.2638 -1.8462
 2454SOL    HW218996   3.947   1.390   1.250  0.2894 -1.2807  1.5477
 2455SOL     OW18997   0.979   1.018   0.832  0.5645  0.4354  0.3867
 2455SOL    HW118998   1.011   1.105   0.852  0.9480 -0.2547  2.7558
 2455SOL    HW218999   0.932   1.003   0.914 -1.2299 -4.2335 -1.4731
 2456SOL     OW19000   3.416   4.449  16.308  0.4665  0.1128 -0.3416
 2456SOL    HW119001   3.426   4.543  16.293  2.7023 -0.1729 -0.6632
 2456SOL    HW219002   3.387   4.437  16.399  0.5260  0.3662 -0.2889
 2457SOL     OW19003   0.043   3.912   2.079 -0.1606 -0.2758 -0.1822
 2457SOL    HW119004   4.704   3.919   2.135 -0.6765  0.4555 -1.0003
 2457SOL    HW219005   0.041   3.827   2.036 -2.0434 -0.9378  1.1680
 2458SOL     OW19006   1.319   0.646   4.329 -0.2761  0.7477  0.9621
 2458SOL    HW119007   1.245   0.670   4.273 -0.8915 -1.1217  0.9804
 2458SOL    HW219008   1.363   0.568   4.295 -4.6583 -2.5171  2.8105
 2459SOL     OW19009   0.668   4.390   0.775 -0.6609 -0.0286 -0.1278
 2459SOL    HW119010   0.580   4.426   0.789 -1.0093 -1.6947  2.1336
 2459SOL    HW219011   0.654   4.323   0.708 -0.1693  1.1250 -1.3722
 2460SOL     OW19012   4.706   3.003   9.384 -0.3685 -0.3543 -0.3114
 2460SOL    HW119013   0.037   2.951   9.344 -0.3758  0.2124 -1.0771
 2460SOL    HW219014   0.007   3.028   9.467 -0.0701  1.2505 -0.9299
 2461SOL     OW19015   2.123   0.972  13.756  0.7841  0.3838 -0.3388
 2461SOL    HW119016   2.151   0.891  13.799 -1.9005  0.8726  2.2938
 2461SOL    HW219017   2.119   0.952  13.662 -0.0450  0.0669 -0.2334
 2462SOL     OW19018   2.494   2.298   6.616 -0.5396  0.2363  0.1055
 2462SOL    HW119019   2.578   2.336   6.644 -0.7078  1.5034 -1.1293
 2462SOL    HW219020   2.462   2.367   6.558 -2.7819  0.7031  1.9158
 2463SOL     OW19021   3.068   1.301  11.755  0.7320  0.1777  0.0074
 2463SOL    HW119022   3.144   1.290  11.698 -0.9286 -1.7555 -1.8557
 2463SOL    HW219023   3.001   1.332  11.694 -1.5748 -0.3345  2.2461
 2464SOL     OW19024   3.531   0.559  16.665  0.7100  0.9052  0.1832
 2464SOL    HW119025   3.555   0.485  16.610 -2.4136 -0.6791  0.9635
 2464SOL    HW219026   3.620   0.584  16.692  1.0479  0.2475 -0.3344
 2465SOL     OW19027   4.255   3.747   9.440 -0.1826 -0.3770 -0.3315
 2465SOL    HW119028   4.344   3.781   9.444 -0.3701  0.2390 -1.3447
 2465SOL    HW219029   4.198   3.823   9.448  2.1008  1.3461 -0.6358
 2466SOL     OW19030   1.282   0.758   1.659  0.0978 -0.0428  0.3679
 2466SOL    HW119031   1.201   0.769   1.709 -0.6844  2.0406 -1.3472
 2466SOL    HW219032   1.273   0.664   1.643  0.6457 -0.0333 -0.0025
 2467SOL     OW19033   2.252   1.185   7.060 -0.5093  0.0381 -0.1144
 2467SOL    HW119034   2.255   1.120   7.130 -1.2153  1.3661  1.1504
 2467SOL    HW219035   2.341   1.220   7.065  0.3160 -2.2735  1.2315
 2468SOL     OW19036   0.450   3.432   7.967  0.2795  0.3237  0.6077
 2468SOL    HW119037   0.532   3.481   7.976 -1.1263  2.7419  0.2104
 2468SOL    HW219038   0.417   3.436   8.056  0.2747  1.7459  0.5414
 2469SOL     OW19039   2.735   2.937   3.376  0.3217  0.4904  0.3109
 2469SOL    HW119040   2.697   2.919   3.289 -0.8037  1.0178  0.6886
 2469SOL    HW219041   2.667   2.909   3.438 -1.4828  2.4207 -0.8104
 2470SOL     OW19042   4.394   3.252   2.859  0.1120 -0.3234  0.5033
 2470SOL    HW119043   4.433   3.250   2.946 -2.1014 -1.5485  1.4569
 2470SOL    HW219044   4.447   3.315   2.809  0.1397 -2.4127 -2.0810
 2471SOL     OW19045   1.111   1.854   0.942  0.1213  0.0995 -0.7242
 2471SOL    HW119046   1.196   1.878   0.907  0.3157 -2.6880 -2.2075
 2471SOL    HW219047   1.052   1.873   0.869 -0.7500 -0.7426 -0.2451
 2472SOL     OW19048   3.848   3.990  13.133  0.2212 -1.0630  0.5915
 2472SOL    HW119049   3.765   4.035  13.114  2.0892  1.9604 -0.3352
 2472SOL    HW219050   3.913   4.059  13.123 -1.5562  0.6460  0.8614
 2473SOL     OW19051   1.726   2.878   4.528  0.5208  0.1090  0.2163
 2473SOL    HW119052   1.699   2.950   4.584  0.1300  0.9742 -1.0768
 2473SOL    HW219053   1.713   2.795   4.573  2.2716 -0.4028 -0.2024
 2474SOL     OW19054   0.931   3.023   5.108  0.3188  0.5921 -0.0176
 2474SOL    HW119055   0.903   2.932   5.096  1.3422  0.2341  0.2750
 2474SOL    HW219056   0.999   3.035   5.042  0.3842  3.1067  0.5125
 2475SOL     OW19057   1.668   1.599   4.316 -0.4947 -0.1478 -0.4772
 2475SOL    HW119058   1.626   1.682   4.335 -0.2680  0.3636 -2.2519
 2475SOL    HW219059   1.628   1.548   4.387  0.8703 -1.8816 -0.9321
 2476SOL     OW19060   0.130   0.593  17.314  0.2546 -0.5216  0.4345
 2476SOL    HW119061   0.146   0.537  17.390  1.7909 -1.2388 -0.3919
 2476SOL    HW219062   0.106   0.680  17.345  2.7712  0.8323 -1.3280
 2477SOL     OW19063   0.485   3.777   8.567  0.2381 -0.6674  0.0901
 2477SOL    HW119064   0.471   3.702   8.625 -3.1994 -0.3455 -0.3618
 2477SOL    HW219065   0.421   3.834   8.610 -0.6313 -1.3722 -0.2871
 2478SOL     OW19066   3.506   3.345   5.250  0.1452 -0.0275 -0.1706
 2478SOL    HW119067   3.450   3.396   5.309  0.6921  1.5388 -0.9924
 2478SOL    HW219068   3.456   3.359   5.169 -1.4198 -1.4179  0.5663
 2479SOL     OW19069   3.150   2.595  13.562  0.2885  0.5765  0.8686
 2479SOL    HW119070   3.180   2.571  13.650 -2.2822 -0.5406  1.4404
 2479SOL    HW219071   3.150   2.690  13.557  1.6915  0.4854 -1.2155
 2480SOL     OW19072   3.392   1.966   1.125 -0.2983 -0.4365  0.0580
 2480SOL    HW119073   3.471   1.922   1.095 -0.5165 -0.8687  0.1138
 2480SOL    HW219074   3.377   1.930   1.212 -4.3017  0.2266 -0.3426
 2481SOL     OW19075   2.330   0.587   8.283 -0.0388 -0.2992 -0.0434
 2481SOL    HW119076   2.332   0.553   8.373 -0.3817  1.1557  0.5177
 2481SOL    HW219077   2.253   0.539   8.254  0.8048 -0.8007 -1.4149
 2482SOL     OW19078   4.394   1.171  12.517 -0.3833  0.6616  0.4236
 2482SOL    HW119079   4.323   1.224  12.482  0.1417  1.7449  0.9979
 2482SOL    HW219080   4.380   1.089  12.470 -2.8662  0.9474  0.6621
 2483SOL     OW19081   3.798   3.487   0.509 -0.2012 -0.1225 -0.6430
 2483SOL    HW119082   3.779   3.506   0.417 -0.3758 -1.3894 -0.8650
 2483SOL    HW219083   3.715   3.448   0.535  1.3032 -3.3220 -0.6500
 2484SOL     OW19084   1.345   4.149  12.316  0.0739  0.3914  0.7654
 2484SOL    HW119085   1.302   4.128  12.233  0.1981 -2.4379  1.4304
 2484SOL    HW219086   1.431   4.113  12.292  0.1843  0.0795  1.6329
 2485SOL     OW19087   0.029   0.035   5.445  0.0149  0.3388  0.3489
 2485SOL    HW119088   4.699   0.093   5.413  1.1673  1.4548 -0.1229
 2485SOL    HW219089   4.736   0.014   5.532  0.3667  2.7616  1.0645
 2486SOL     OW19090   1.364   4.187   7.282  0.5290 -0.4486  0.0148
 2486SOL    HW119091   1.455   4.212   7.271  0.5746 -0.4405  0.4169
 2486SOL    HW219092   1.369   4.092   7.284  1.5987 -0.4008 -0.6708
 2487SOL     OW19093   2.653   0.192   3.324 -0.4179  0.3462  0.0688
 2487SOL    HW119094   2.723   0.139   3.364  0.4075  3.0724  2.2221
 2487SOL    HW219095   2.681   0.279   3.352 -2.4616  1.1403 -0.3847
 2488SOL     OW19096   1.525   2.911   8.135 -0.2370  0.2456 -0.1795
 2488SOL    HW119097   1.469   2.853   8.187  2.4038  0.6370  3.0954
 2488SOL    HW219098   1.534   2.855   8.058  0.4592 -0.3536  0.3405
 2489SOL     OW19099   3.470   2.384   7.453  0.1438  0.4617  0.2993
 2489SOL    HW119100   3.419   2.316   7.497  0.9155 -0.8572 -0.8735
 2489SOL    HW219101   3.429   2.399   7.368  0.3702 -0.1849  0.0774
 2490SOL     OW19102   0.752   1.062   6.688  0.7286  0.3187  1.0511
 2490SOL    HW119103   0.787   0.997   6.627 -1.0297  0.2617  0.1000
 2490SOL    HW219104   0.824   1.125   6.684  0.2295  0.9412  1.9942
 2491SOL     OW19105   0.426   3.418  17.576  0.4299 -0.0723  0.0504
 2491SOL    HW119106   0.332   3.405  17.563  0.7410 -2.6740  0.3981
 2491SOL    HW219107   0.450   3.329  17.599  0.2301 -0.4222 -1.0898
 2492SOL     OW19108   0.521   2.460  12.056 -0.1862 -0.2906  0.5829
 2492SOL    HW119109   0.599   2.410  12.033 -0.8323 -0.8141 -0.4425
 2492SOL    HW219110   0.485   2.408  12.128  0.6583 -2.1647 -0.3424
 2493SOL     OW19111   2.806   4.346   2.645  0.5476 -0.2304 -0.0942
 2493SOL    HW119112   2.870   4.277   2.664  0.5567  0.3896  2.2118
 2493SOL    HW219113   2.719   4.307   2.656  0.4954  0.1580  0.8962
 2494SOL     OW19114   1.061   1.834   3.509 -0.6983 -0.2382 -0.7727
 2494SOL    HW119115   1.075   1.917   3.464 -2.5471 -0.8784 -2.5444
 2494SOL    HW219116   0.967   1.835   3.492 -0.6685  0.0787 -0.9097
 2495SOL     OW19117   1.435   2.923  10.126  0.1165  0.3039  0.5216
 2495SOL    HW119118   1.464   2.841  10.085  2.8674  2.1918 -1.3835
 2495SOL    HW219119   1.448   2.900  10.218  0.0821 -1.1785  0.1539
 2496SOL     OW19120   1.408   1.962   3.297  0.6142  0.0578 -0.0395
 2496SOL    HW119121   1.434   1.944   3.387 -1.2854  0.5154  0.6082
 2496SOL    HW219122   1.437   2.052   3.280  0.1621 -0.1805 -2.1364
 2497SOL     OW19123   1.090   1.645   8.954 -0.4083  1.2965  0.1145
 2497SOL    HW119124   1.127   1.567   8.994 -0.2542  0.7950 -1.0208
 2497SOL    HW219125   1.066   1.695   9.032  1.1402  1.3014  0.5777
 2498SOL     OW19126   4.444   4.505  15.704  0.6965  0.9182 -0.0861
 2498SOL    HW119127   4.511   4.456  15.753  1.7035  1.0835 -1.2882
 2498SOL    HW219128   4.495   4.554  15.640 -1.1043  0.4970 -1.8505
 2499SOL     OW19129   1.163   1.669   4.961 -0.1361 -0.1686 -0.6814
 2499SOL    HW119130   1.077   1.703   4.984 -1.0563 -1.3774 -2.3498
 2499SOL    HW219131   1.143   1.619   4.882  3.2740 -1.7293 -0.5454
 2500SOL     OW19132   3.441   0.648  13.147 -0.5389  0.2024 -0.1846
 2500SOL    HW119133   3.472   0.703  13.219  1.6624  0.6592 -1.4939
 2500SOL    HW219134   3.513   0.645  13.085 -0.8126 -1.6213 -0.4185
 2501SOL     OW19135   0.967   4.682  10.165  0.0185 -0.1223 -0.5714
 2501SOL    HW119136   0.889   4.700  10.217  2.0964  3.8332  1.1519
 2501SOL    HW219137   1.031   4.736  10.212 -0.8275  1.6768 -1.4504
 2502SOL     OW19138   2.445   0.146  10.869  0.3454  0.4209  0.5384
 2502SOL    HW119139   2.500   0.138  10.791  0.3540  1.0013  0.4902
 2502SOL    HW219140   2.365   0.186  10.836  1.0148  2.3440  1.2628
 2503SOL     OW19141   1.858   0.643   6.874  1.0710  0.0830  0.1535
 2503SOL    HW119142   1.800   0.592   6.930  0.3121 -0.8606 -1.5019
 2503SOL    HW219143   1.790   0.705   6.848 -0.8640 -1.5359  1.3688
 2504SOL     OW19144   2.459   2.148   1.778 -0.4816 -0.0985 -0.1958
 2504SOL    HW119145   2.509   2.230   1.778 -1.1310  0.3062  0.6281
 2504SOL    HW219146   2.381   2.174   1.728 -0.5801 -3.0631 -1.5789
 2505SOL     OW19147   0.024   1.636   9.739  0.2117 -0.4542 -0.3760
 2505SOL    HW119148   0.093   1.615   9.677 -1.0786 -1.3298 -1.5096
 2505SOL    HW219149   4.730   1.547   9.749  1.0829 -0.8160 -0.7554
 2506SOL     OW19150   3.644   4.355  11.774 -0.5329  0.2900 -0.3208
 2506SOL    HW119151   3.669   4.331  11.863 -0.3333 -1.0044 -0.7243
 2506SOL    HW219152   3.609   4.271  11.746  2.8570 -1.2367  0.0400
 2507SOL     OW19153   1.601   2.029   5.085 -0.5403 -0.0125  0.0584
 2507SOL    HW119154   1.696   2.013   5.081 -0.5915 -0.6216  1.3969
 2507SOL    HW219155   1.571   1.940   5.068 -0.9656 -0.2248  1.9239
 2508SOL     OW19156   0.034   3.050   5.631 -0.3087  0.0180  0.4983
 2508SOL    HW119157   0.004   3.124   5.685 -1.5534  1.6742 -2.4457
 2508SOL    HW219158   0.050   2.978   5.692 -1.2593 -1.1227 -0.6017
 2509SOL     OW19159   3.083   4.401   9.641 -0.6867  0.4009 -0.2580
 2509SOL    HW119160   3.133   4.349   9.705  0.5269  2.0296  0.1110
 2509SOL    HW219161   2.999   4.355   9.642 -1.6674  2.2312  1.4365
 2510SOL     OW19162   3.540   3.046   0.009  0.0131  0.5912  0.7631
 2510SOL    HW119163   3.575   3.087  17.682 -3.7213 -1.6884 -2.0375
 2510SOL    HW219164   3.587   2.963   0.009  0.5595  0.8935  2.1739
 2511SOL     OW19165   1.983   1.365  15.129 -0.3370  0.3617 -0.1692
 2511SOL    HW119166   2.021   1.425  15.194  1.1659  1.8645 -2.4420
 2511SOL    HW219167   2.054   1.302  15.117  1.9942  3.0583 -0.6403
 2512SOL     OW19168   3.110   1.596   2.240 -0.6494 -0.5628 -0.0167
 2512SOL    HW119169   3.049   1.669   2.229  1.4913  0.9230 -1.9854
 2512SOL    HW219170   3.195   1.633   2.216 -1.1952  0.6868 -0.0456
 2513SOL     OW19171   2.121   1.533   0.288  0.1491  0.0246 -0.3225
 2513SOL    HW119172   2.046   1.496   0.334 -0.3377  1.4812  0.0531
 2513SOL    HW219173   2.148   1.591   0.360 -0.1080 -0.8081  0.4436
 2514SOL     OW19174   1.444   1.896   7.275 -0.5583  0.6247 -0.4109
 2514SOL    HW119175   1.500   1.838   7.326 -1.0027  0.8215  0.3030
 2514SOL    HW219176   1.401   1.949   7.342 -0.0840  0.4299  0.0474
 2515SOL     OW19177   1.329   4.229  12.927 -0.3815  0.5127 -0.1954
 2515SOL    HW119178   1.295   4.316  12.904  0.8026  1.1509  0.4659
 2515SOL    HW219179   1.281   4.177  12.862 -1.5587  1.9343 -0.4818
 2516SOL     OW19180   2.752   0.013  13.321 -0.3854  0.4447 -0.6829
 2516SOL    HW119181   2.721   4.709  13.241  0.7042  1.1794 -1.4845
 2516SOL    HW219182   2.784   0.097  13.288 -1.0372  1.1877  0.5994
 2517SOL     OW19183   2.098   4.441  16.167  0.5145  0.0572  0.0492
 2517SOL    HW119184   2.152   4.420  16.243  0.4455  2.3658  0.7494
 2517SOL    HW219185   2.133   4.526  16.140  0.6498 -0.7047 -2.1906
 2518SOL     OW19186   2.072   3.114   5.072 -0.0356  0.8900 -0.0049
 2518SOL    HW119187   2.082   3.101   5.166 -3.5026  2.0955  0.5151
 2518SOL    HW219188   1.997   3.057   5.056  0.6278 -0.2883  1.1030
 2519SOL     OW19189   3.268   2.193  17.130 -0.0936 -0.0419  0.1485
 2519SOL    HW119190   3.190   2.138  17.120  0.8860 -1.4820  0.4434
 2519SOL    HW219191   3.343   2.139  17.105  0.2414  0.6677 -0.3738
 2520SOL     OW19192   3.467   4.193   5.165 -0.9213  0.5814  0.1886
 2520SOL    HW119193   3.428   4.174   5.080 -1.3782 -0.0215  0.5334
 2520SOL    HW219194   3.428   4.274   5.196 -3.0757  0.3467 -1.8979
 2521SOL     OW19195   0.376   3.002  14.081  0.2374  0.0251 -0.1965
 2521SOL    HW119196   0.388   2.958  13.997  0.2556  0.8485 -0.6181
 2521SOL    HW219197   0.468   2.992  14.105  0.6784 -0.3879 -2.0675
 2522SOL     OW19198   3.039   3.990   9.379 -0.1758  0.0456 -0.2071
 2522SOL    HW119199   2.995   4.052   9.321 -2.5442  0.0325  1.5703
 2522SOL    HW219200   3.109   4.038   9.422 -1.5761  1.3055  0.6664
 2523SOL     OW19201   2.569   2.054   8.708 -0.0256  0.0272 -0.1755
 2523SOL    HW119202   2.603   2.003   8.634 -2.0670 -0.9911 -0.3980
 2523SOL    HW219203   2.570   1.984   8.772 -2.0438  0.9386  0.8558
 2524SOL     OW19204   0.664   3.143   6.722  0.0563  0.1913 -0.1045
 2524SOL    HW119205   0.677   3.228   6.764 -1.7633  1.5399 -2.2428
 2524SOL    HW219206   0.649   3.095   6.804  1.5910 -0.5416 -0.2444
 2525SOL     OW19207   2.333   2.086   5.180  0.9835  0.2771 -0.4724
 2525SOL    HW119208   2.323   2.084   5.275 -0.1724  1.5288 -0.5691
 2525SOL    HW219209   2.245   2.067   5.150 -0.1260  2.4079  1.4234
 2526SOL     OW19210   4.565   2.587   3.446  0.0792 -0.1465 -0.2909
 2526SOL    HW119211   4.470   2.575   3.454  0.4118 -2.1512  0.6600
 2526SOL    HW219212   4.583   2.582   3.540 -0.8173  1.2191 -0.0506
 2527SOL     OW19213   3.092   3.787   8.087  0.4620  0.1621  0.7283
 2527SOL    HW119214   3.086   3.695   8.063 -1.3731  0.3192  0.5927
 2527SOL    HW219215   3.039   3.785   8.167  1.9627 -0.3880  1.6978
 2528SOL     OW19216   0.293   2.148   4.239 -0.3303  0.4474 -0.0009
 2528SOL    HW119217   0.312   2.083   4.171  0.2600  1.3525 -0.6980
 2528SOL    HW219218   0.249   2.086   4.298 -0.5198 -2.1752 -2.9146
 2529SOL     OW19219   1.791   3.052  11.216  0.1855  0.1054 -0.5221
 2529SOL    HW119220   1.812   3.129  11.270  0.2881  0.3461 -0.9025
 2529SOL    HW219221   1.875   3.013  11.193 -0.2662  0.3987 -2.6345
 2530SOL     OW19222   0.095   2.409   4.196  0.6459 -0.6459 -0.3724
 2530SOL    HW119223   0.052   2.346   4.253  0.8024 -0.0791  0.3714
 2530SOL    HW219224   0.124   2.470   4.264  0.8462 -0.9384 -0.1957
 2531SOL     OW19225   1.762   3.235   2.304 -0.4387  0.1342 -0.6680
 2531SOL    HW119226   1.729   3.147   2.287  0.3903 -0.1424 -0.8413
 2531SOL    HW219227   1.848   3.222   2.263  0.4317  1.7804  0.6757
 2532SOL     OW19228   1.595   2.194   4.512  0.1616 -0.4431 -0.0166
 2532SOL    HW119229   1.559   2.195   4.600  1.3687  0.5875  0.4569
 2532SOL    HW219230   1.547   2.120   4.474  0.0376  0.1479 -1.0096
 2533SOL     OW19231   1.458   1.350   6.752  0.1099  0.0655 -0.5714
 2533SOL    HW119232   1.537   1.388   6.713 -0.6918  1.7225 -0.6006
 2533SOL    HW219233   1.473   1.377   6.843 -0.0590  0.2880 -0.6083
 2534SOL     OW19234   4.210   3.218  17.466 -0.3453 -0.8591  0.8443
 2534SOL    HW119235   4.272   3.257  17.527 -0.3778  0.4323  0.0445
 2534SOL    HW219236   4.205   3.276  17.390  2.3265 -0.7724  0.7315
 2535SOL     OW19237   1.306   3.394  15.831 -0.4871 -0.4705 -0.0561
 2535SOL    HW119238   1.368   3.457  15.795 -2.5749  1.1391 -0.8706
 2535SOL    HW219239   1.353   3.312  15.819 -0.4163 -0.1669 -1.7866
 2536SOL     OW19240   4.091   3.702   5.116 -0.1085  0.2771  0.1419
 2536SOL    HW119241   4.127   3.742   5.037  0.4566 -0.5579 -0.0236
 2536SOL    HW219242   4.165   3.669   5.167 -0.5751 -1.3142 -0.2243
 2537SOL     OW19243   3.234   1.470   9.316 -0.3002 -0.5537  0.0837
 2537SOL    HW119244   3.275   1.532   9.377 -1.7592 -1.2056  1.7271
 2537SOL    HW219245   3.296   1.470   9.243 -1.8742  0.1372 -1.2513
 2538SOL     OW19246   1.839   0.548  12.295 -0.3692  0.1006 -1.0224
 2538SOL    HW119247   1.771   0.484  12.319 -0.8801  1.5328  1.3239
 2538SOL    HW219248   1.918   0.503  12.326  1.6572  1.3520 -4.4918
 2539SOL     OW19249   1.647   3.739   3.752  0.1861  0.6796 -0.1608
 2539SOL    HW119250   1.650   3.653   3.793 -0.3357  1.6175  1.8636
 2539SOL    HW219251   1.726   3.781   3.786  0.7922 -0.5781  0.0015
 2540SOL     OW19252   3.597   3.110   1.231 -0.0633  0.2746  0.1006
 2540SOL    HW119253   3.614   3.016   1.222  0.8681  0.5283 -0.7791
 2540SOL    HW219254   3.504   3.105   1.251  0.3251 -2.5643  1.1781
 2541SOL     OW19255   2.127   1.909   5.782 -0.4774  0.0351 -0.0989
 2541SOL    HW119256   2.090   1.964   5.713  0.0253  0.1352 -0.2932
 2541SOL    HW219257   2.221   1.908   5.760  0.1214 -2.2669  2.5768
 2542SOL     OW19258   4.673   0.477   7.835 -0.2201 -0.2088  0.7378
 2542SOL    HW119259   4.643   0.494   7.746 -0.1750  0.9660  0.9429
 2542SOL    HW219260   4.603   0.515   7.888 -0.8891 -1.1810  0.5553
 2543SOL     OW19261   2.464   3.537  13.813  0.1227 -0.0148 -0.3503
 2543SOL    HW119262   2.436   3.565  13.900  0.5645  2.2320 -0.9251
 2543SOL    HW219263   2.451   3.443  13.827 -1.2238  0.2897  0.4406
 2544SOL     OW19264   0.100   4.582   5.257 -0.0474 -0.3944  0.1445
 2544SOL    HW119265   0.065   4.646   5.320 -0.7030  0.5485 -1.1797
 2544SOL    HW219266   0.154   4.628   5.193 -1.0230  2.3215  1.2485
 2545SOL     OW19267   4.403   1.975   5.891  0.0291  0.0555  0.1796
 2545SOL    HW119268   4.315   1.945   5.913 -0.0463  0.3531  0.2816
 2545SOL    HW219269   4.450   1.981   5.974 -0.9227  1.3527  0.6237
 2546SOL     OW19270   2.370   3.677  10.109  0.1148  0.1135 -0.3824
 2546SOL    HW119271   2.380   3.749  10.171  1.1645 -1.5811  1.3915
 2546SOL    HW219272   2.444   3.624  10.138 -1.3749 -0.8981  1.5520
 2547SOL     OW19273   3.765   0.394   7.002  0.0128 -0.1312  0.3690
 2547SOL    HW119274   3.805   0.341   6.933 -1.2697  2.4371 -2.3098
 2547SOL    HW219275   3.824   0.381   7.076 -0.5368  1.5827  1.1061
 2548SOL     OW19276   2.900   1.134   1.708  0.1198  0.2044  0.2451
 2548SOL    HW119277   2.819   1.175   1.740 -0.4479 -0.2300 -0.6210
 2548SOL    HW219278   2.867   1.103   1.623  0.0112 -0.3633  0.4899
 2549SOL     OW19279   2.862   1.161   8.127  0.1563 -0.0615  0.3155
 2549SOL    HW119280   2.797   1.232   8.127 -0.2427 -0.4295  0.6653
 2549SOL    HW219281   2.852   1.121   8.213 -0.0657 -1.6082 -0.4193
 2550SOL     OW19282   1.708   0.671   2.306 -0.0906 -0.0042 -0.9013
 2550SOL    HW119283   1.758   0.736   2.257 -0.0772  0.2572 -0.5422
 2550SOL    HW219284   1.761   0.593   2.291  0.9338  0.0511  2.3313
 2551SOL     OW19285   1.406   2.028   5.572  0.2717 -0.9491 -0.0109
 2551SOL    HW119286   1.314   2.053   5.579  0.2537 -0.4435 -2.2318
 2551SOL    HW219287   1.401   1.946   5.524  2.4272 -1.6839  1.0320
 2552SOL     OW19288   1.604   3.480   4.060 -0.0068 -0.5802 -0.2585
 2552SOL    HW119289   1.623   3.537   4.134  0.1426 -3.4523  1.9442
 2552SOL    HW219290   1.652   3.503   3.981 -2.8195 -1.7402 -2.3244
 2553SOL     OW19291   3.227   3.945   4.084 -0.2614  0.7714  0.5795
 2553SOL    HW119292   3.298   3.885   4.062 -0.7527  1.0044 -1.7106
 2553SOL    HW219293   3.175   3.898   4.149 -1.7775  2.0274  0.2888
 2554SOL     OW19294   1.984   2.879   3.481 -0.1707 -0.0720 -0.3209
 2554SOL    HW119295   2.023   2.795   3.505  0.4275  0.2472 -0.1465
 2554SOL    HW219296   2.060   2.938   3.480  0.3816 -0.7514  0.6808
 2555SOL     OW19297   1.377   1.274   8.384 -0.1865  0.2374 -0.3380
 2555SOL    HW119298   1.445   1.245   8.323 -0.5704 -1.0230 -0.1634
 2555SOL    HW219299   1.417   1.337   8.444  0.0540 -2.2223  2.0588
 2556SOL     OW19300   0.848   0.908   2.275  0.5052 -0.9045  0.3027
 2556SOL    HW119301   0.796   0.895   2.355  0.0473 -2.2580 -0.2131
 2556SOL    HW219302   0.779   0.923   2.210 -0.5399  1.5377  1.9634
 2557SOL     OW19303   3.432   3.404   9.972  0.2994 -0.3270 -0.6681
 2557SOL    HW119304   3.431   3.473  10.037  2.4210 -1.0963  0.1851
 2557SOL    HW219305   3.456   3.325  10.021  0.3470  1.1512  1.6702
 2558SOL     OW19306   2.443   0.784   9.837 -0.2686 -0.3002  0.0906
 2558SOL    HW119307   2.523   0.822   9.873 -0.5001  1.0798 -0.8701
 2558SOL    HW219308   2.477   0.772   9.748 -2.2646  3.0169 -1.1078
 2559SOL     OW19309   2.610   0.838   6.249  0.2391 -0.3698  0.2211
 2559SOL    HW119310   2.624   0.863   6.340  0.1849 -0.0796  0.1497
 2559SOL    HW219311   2.688   0.881   6.213  0.5035 -0.1198  1.0876
 2560SOL     OW19312   4.092   3.756   3.961 -0.1623 -0.1787 -0.0359
 2560SOL    HW119313   4.172   3.707   3.943 -1.0520 -0.8334 -2.1900
 2560SOL    HW219314   4.128   3.818   4.025 -1.5925 -0.6920  1.2700
 2561SOL     OW19315   0.032   2.875   7.239 -0.4509 -0.1673 -0.0411
 2561SOL    HW119316   4.717   2.824   7.301 -1.3157  0.6093 -0.1458
 2561SOL    HW219317   0.118   2.868   7.279 -0.1094 -2.4160 -1.1523
 2562SOL     OW19318   3.286   0.832   0.445  0.6027 -0.2358 -0.3840
 2562SOL    HW119319   3.205   0.874   0.417  0.7812  0.6121  0.3595
 2562SOL    HW219320   3.289   0.840   0.540  2.6628 -1.0112 -0.3798
 2563SOL     OW19321   1.370   2.794   7.345  0.4437 -0.4202 -0.0860
 2563SOL    HW119322   1.345   2.796   7.252  0.4493  0.2618 -0.0722
 2563SOL    HW219323   1.286   2.780   7.387  0.4539  1.5331  0.5573
 2564SOL     OW19324   3.017   1.858   5.271 -0.2572  0.1098  0.0420
 2564SOL    HW119325   2.945   1.802   5.242  1.6048 -2.4357  0.3157
 2564SOL    HW219326   3.050   1.876   5.183  1.8482 -0.5132  0.6892
 2565SOL     OW19327   0.949   3.799   4.984 -0.3940 -0.4903 -0.0821
 2565SOL    HW119328   0.858   3.770   4.991 -0.4378 -0.0830  1.0496
 2565SOL    HW219329   0.946   3.839   4.898 -1.2407 -1.7757 -0.6504
 2566SOL     OW19330   4.477   3.724   9.769 -0.1864 -0.2805  0.2480
 2566SOL    HW119331   4.457   3.796   9.709 -0.4547  1.9830  3.0465
 2566SOL    HW219332   4.430   3.652   9.728 -0.6587 -0.3919  0.9989
 2567SOL     OW19333   1.581   2.602  10.205 -0.8534 -0.2032  0.6922
 2567SOL    HW119334   1.524   2.595  10.128 -0.0577  0.5205  0.0343
 2567SOL    HW219335   1.668   2.612  10.166 -1.1418  0.2086  0.1507
 2568SOL     OW19336   2.187   1.725  12.686  0.2972  0.5485 -0.2401
 2568SOL    HW119337   2.131   1.801  12.702 -0.3143  0.2240 -0.8540
 2568SOL    HW219338   2.182   1.688  12.775  3.4849 -0.0479 -0.3014
 2569SOL     OW19339   0.529   2.350   2.846  0.0904 -0.1672 -0.8753
 2569SOL    HW119340   0.465   2.329   2.913 -1.1645  0.8423 -1.7610
 2569SOL    HW219341   0.500   2.293   2.775  0.8666 -1.6824  0.0236
 2570SOL     OW19342   0.986   3.189   7.962  0.5049  0.3191  0.7676
 2570SOL    HW119343   1.026   3.274   7.945  1.2226 -0.2154 -0.2482
 2570SOL    HW219344   1.064   3.136   7.983  0.1428 -0.0932  1.0871
 2571SOL     OW19345   0.838   2.520   7.842  0.3081 -0.3404 -0.3759
 2571SOL    HW119346   0.930   2.523   7.815 -0.1680 -2.2169 -2.1549
 2571SOL    HW219347   0.819   2.443   7.895 -1.0806 -1.0513 -1.8963
 2572SOL     OW19348   0.259   4.425   5.435 -0.4630 -0.8072  0.0490
 2572SOL    HW119349   0.273   4.504   5.487  1.2063  0.5416 -2.4239
 2572SOL    HW219350   0.226   4.460   5.352  2.4161 -0.0713 -0.7868
 2573SOL     OW19351   3.241   4.471  12.801 -0.4692 -0.5287 -0.1557
 2573SOL    HW119352   3.185   4.536  12.760  1.7504  1.8808  0.6253
 2573SOL    HW219353   3.284   4.535  12.858  1.0857 -1.8570  0.1835
 2574SOL     OW19354   3.703   3.212   4.077 -0.0417  0.1135 -0.1231
 2574SOL    HW119355   3.626   3.251   4.036 -1.0939 -1.3144  0.4849
 2574SOL    HW219356   3.657   3.163   4.145 -0.3807  1.7537  0.8319
 2575SOL     OW19357   3.988   1.804   8.361  0.4075  0.1684 -0.1984
 2575SOL    HW119358   3.981   1.849   8.276 -0.2566 -1.0123 -0.7793
 2575SOL    HW219359   4.006   1.714   8.331 -3.2851 -0.3848 -0.7740
 2576SOL     OW19360   1.840   4.270   9.104  0.6330 -0.0049 -0.5218
 2576SOL    HW119361   1.857   4.189   9.152  2.8202  1.0348  0.4736
 2576SOL    HW219362   1.929   4.304   9.091  0.7203 -0.1318 -0.2376
 2577SOL     OW19363   3.975   0.491  16.707  0.1293  0.5363 -0.3084
 2577SOL    HW119364   3.940   0.416  16.755 -1.2130  1.7021  0.5443
 2577SOL    HW219365   3.894   0.540  16.691 -0.7311 -1.2051 -1.2510
 2578SOL     OW19366   1.761   3.160   7.042 -0.0718  0.3079 -0.2813
 2578SOL    HW119367   1.829   3.092   7.040  1.1170  1.4845 -0.1824
 2578SOL    HW219368   1.713   3.109   7.107  2.0524 -1.0738  0.2319
 2579SOL     OW19369   0.956   1.562   7.365  0.2280 -0.6863  0.1362
 2579SOL    HW119370   1.030   1.528   7.315 -0.0770  0.0068 -0.7663
 2579SOL    HW219371   0.991   1.539   7.451  0.0375 -0.0470  0.3825
 2580SOL     OW19372   4.377   4.103   5.760 -0.6238  0.3101  0.5925
 2580SOL    HW119373   4.317   4.176   5.747 -0.9768 -0.3314 -1.3173
 2580SOL    HW219374   4.465   4.138   5.745 -0.5385 -0.4858 -0.6953
 2581SOL     OW19375   0.735   0.644   6.906 -0.4794 -0.0318  0.0090
 2581SOL    HW119376   0.765   0.675   6.821  1.7678  0.7261  1.0702
 2581SOL    HW219377   0.673   0.708   6.941  1.1375  1.2972  0.4278
 2582SOL     OW19378   1.446   2.278   8.060 -0.3861 -0.0819 -0.2563
 2582SOL    HW119379   1.450   2.368   8.092 -0.2430 -1.1423  2.6798
 2582SOL    HW219380   1.452   2.300   7.967 -0.8286 -0.3572 -0.3496
 2583SOL     OW19381   0.260   2.713   8.068 -0.0384 -0.4492  0.3141
 2583SOL    HW119382   0.263   2.807   8.050 -0.9553 -0.1462  1.7486
 2583SOL    HW219383   0.325   2.709   8.138 -0.2176  1.4027  0.5867
 2584SOL     OW19384   3.839   0.270   3.920 -0.2779  0.7771 -0.0170
 2584SOL    HW119385   3.929   0.297   3.902  1.0876 -2.6984  1.4685
 2584SOL    HW219386   3.839   0.261   4.016 -1.9206 -0.3277 -0.1284
 2585SOL     OW19387   2.572   3.370   5.208 -0.4628  0.1373  0.2958
 2585SOL    HW119388   2.487   3.374   5.251 -0.9814  0.2259 -0.7530
 2585SOL    HW219389   2.624   3.394   5.285  0.3134  1.4671 -0.6422
 2586SOL     OW19390   3.712   2.789   3.891  0.1010 -0.4338  0.0479
 2586SOL    HW119391   3.758   2.825   3.815 -1.6670  2.8248  0.5508
 2586SOL    HW219392   3.787   2.766   3.946  1.8725  0.2269 -2.0717
 2587SOL     OW19393   1.998   2.101   5.606  0.2651 -0.4442  0.4892
 2587SOL    HW119394   1.996   2.193   5.632 -0.5390 -0.6892  1.3011
 2587SOL    HW219395   1.914   2.083   5.563 -0.6782 -3.3301  3.4671
 2588SOL     OW19396   3.983   2.182  12.117  0.2713 -0.0825 -0.3017
 2588SOL    HW119397   4.002   2.128  12.040 -3.4757 -0.1021 -1.1933
 2588SOL    HW219398   3.981   2.123  12.193 -1.9176 -0.2080 -0.4854
 2589SOL     OW19399   3.791   4.213   4.318  0.0994  0.3158 -0.8192
 2589SOL    HW119400   3.864   4.152   4.316 -2.2618 -2.6031  1.6610
 2589SOL    HW219401   3.712   4.160   4.313 -0.7641  1.4979  0.2244
 2590SOL     OW19402   3.163   2.548   1.411  1.1583 -0.4756 -0.0957
 2590SOL    HW119403   3.138   2.504   1.492 -1.0542 -1.9726 -1.5803
 2590SOL    HW219404   3.159   2.482   1.343  2.1392 -0.7216  0.0940
 2591SOL     OW19405   2.572   2.622  14.386 -0.4673 -0.0041  0.1237
 2591SOL    HW119406   2.530   2.657  14.465  3.2205  0.5642  1.8472
 2591SOL    HW219407   2.534   2.659  14.306 -0.6783  1.0117  0.6898
 2592SOL     OW19408   1.815   0.700   8.215 -0.6427  0.5465 -0.1104
 2592SOL    HW119409   1.850   0.778   8.172  0.3779 -1.1983 -2.4110
 2592SOL    HW219410   1.784   0.635   8.152 -0.8867 -0.3629  0.9372
 2593SOL     OW19411   0.146   0.301   4.774  0.0390  0.1048  0.7150
 2593SOL    HW119412   0.055   0.275   4.785  0.2482 -0.4745  1.0660
 2593SOL    HW219413   0.166   0.322   4.865  0.5560 -0.8898  0.8282
 2594SOL     OW19414   3.586   3.073  12.075 -0.2840  0.0009 -0.0611
 2594SOL    HW119415   3.660   3.131  12.090 -0.0224 -0.5801  0.8610
 2594SOL    HW219416   3.598   3.012  12.148 -2.7395 -2.2749 -1.5609
 2595SOL     OW19417   0.345   2.299  14.057  0.3534 -0.1504 -0.9570
 2595SOL    HW119418   0.256   2.263  14.054 -0.4903  2.0091 -1.3095
 2595SOL    HW219419   0.345   2.324  14.149 -0.2168 -0.5472 -0.8469
 2596SOL     OW19420   0.278   0.010   4.844  0.0401 -0.6940  0.0598
 2596SOL    HW119421   0.291   0.060   4.924 -1.8092 -0.4659  0.2242
 2596SOL    HW219422   0.276   0.078   4.777  1.0903  0.0335  0.7734
 2597SOL     OW19423   1.990   3.695   3.489 -0.4471  0.4583  0.1931
 2597SOL    HW119424   1.957   3.731   3.407  0.2353 -2.3939 -1.3422
 2597SOL    HW219425   2.023   3.774   3.531  1.7084 -0.5695  0.4314
 2598SOL     OW19426   0.398   0.235   1.501 -0.4251  0.2469 -0.8832
 2598SOL    HW119427   0.458   0.222   1.426  0.5347  1.8305 -0.3800
 2598SOL    HW219428   0.378   0.142   1.513  2.9913 -0.2955  0.8442
 2599SOL     OW19429   1.482   3.033  13.270 -0.0594 -0.3447  0.6411
 2599SOL    HW119430   1.481   2.994  13.357  0.8384 -0.7302  0.4803
 2599SOL    HW219431   1.446   3.118  13.296 -1.0874 -0.3069 -0.8941
 2600SOL     OW19432   0.389   3.333   5.504 -0.0756 -0.3422 -0.1373
 2600SOL    HW119433   0.478   3.305   5.486  0.3150 -0.1455  1.5156
 2600SOL    HW219434   0.359   3.329   5.413 -0.8787  2.2319  0.0293
 2601SOL     OW19435   3.529   2.325  11.377 -0.2675  0.0857 -0.0797
 2601SOL    HW119436   3.498   2.408  11.412 -0.3456 -0.9643  2.3768
 2601SOL    HW219437   3.476   2.319  11.297  1.4977  1.8888 -1.3641
 2602SOL     OW19438   0.237   3.965  13.552  0.2187 -0.4927 -0.0647
 2602SOL    HW119439   0.180   3.935  13.622  2.6894 -1.7592  1.3980
 2602SOL    HW219440   0.323   3.954  13.592  2.2886  0.7437 -4.1636
 2603SOL     OW19441   1.494   4.664   4.665  0.2219  0.1865 -0.1031
 2603SOL    HW119442   1.518   4.621   4.583 -2.2266 -2.1044  0.3672
 2603SOL    HW219443   1.579   4.665   4.708  1.1314 -0.7607 -1.8968
 2604SOL     OW19444   1.428   3.857   7.667  0.0621  0.1941 -0.3067
 2604SOL    HW119445   1.350   3.839   7.615 -0.0675  2.7812 -0.9961
 2604SOL    HW219446   1.380   3.874   7.748 -1.2361  1.2231 -1.2868
 2605SOL     OW19447   3.423   2.613   5.690 -0.2821  0.1830 -0.2797
 2605SOL    HW119448   3.443   2.544   5.753  0.9766  0.0673 -0.8125
 2605SOL    HW219449   3.342   2.582   5.650 -0.5700  0.0181  0.4282
 2606SOL     OW19450   1.902   2.660  15.649  0.1705 -0.5546 -0.7076
 2606SOL    HW119451   1.977   2.640  15.594 -0.1005 -0.5506 -1.0782
 2606SOL    HW219452   1.850   2.698  15.579 -0.3556  0.1126  0.0406
 2607SOL     OW19453   2.692   4.260   0.928  0.1304  0.6054  0.1484
 2607SOL    HW119454   2.649   4.282   0.845  1.3018 -0.3481 -0.7173
 2607SOL    HW219455   2.622   4.223   0.981 -0.7545 -0.8900 -2.0702
 2608SOL     OW19456   4.675   0.772   8.550 -0.2558  0.4681 -0.0560
 2608SOL    HW119457   4.649   0.822   8.472 -2.8586 -0.1887  0.3927
 2608SOL    HW219458   4.687   0.834   8.622  2.0837 -0.2350  0.1463
 2609SOL     OW19459   1.392   3.815   3.870  0.2481  0.4592 -0.3132
 2609SOL    HW119460   1.407   3.880   3.938 -0.5787 -1.2384  1.5160
 2609SOL    HW219461   1.471   3.819   3.815  0.4269  0.7758 -0.0334
 2610SOL     OW19462   2.318   2.576   2.452 -0.5328  0.1265  0.1642
 2610SOL    HW119463   2.377   2.560   2.378  0.4219  0.9189  0.7631
 2610SOL    HW219464   2.359   2.655   2.486  0.0594 -0.5041  0.9142
 2611SOL     OW19465   1.055   2.440   4.143  0.2413  0.2097  0.5721
 2611SOL    HW119466   1.020   2.374   4.202 -1.1042 -0.2843 -0.7533
 2611SOL    HW219467   0.980   2.493   4.114 -1.0183 -1.5562  0.6347
 2612SOL     OW19468   2.368   3.437   5.385  0.3689  0.3310  0.3437
 2612SOL    HW119469   2.278   3.462   5.404 -0.1216 -0.8304 -0.4133
 2612SOL    HW219470   2.384   3.355   5.433  1.0455  1.5513  2.2100
 2613SOL     OW19471   4.454   3.826   8.293 -0.0483  0.3668  0.2040
 2613SOL    HW119472   4.402   3.907   8.297 -0.2269  0.3093 -1.2212
 2613SOL    HW219473   4.383   3.762   8.300  1.0130 -1.0364 -1.8779
 2614SOL     OW19474   0.396   1.269   5.089  0.6830  0.3607 -0.1134
 2614SOL    HW119475   0.361   1.355   5.110  0.1722  0.4183 -1.1730
 2614SOL    HW219476   0.463   1.274   5.157  1.9247 -1.8275 -1.2034
 2615SOL     OW19477   1.550   3.743   7.274 -0.2270  0.1126  0.2708
 2615SOL    HW119478   1.548   3.647   7.269 -0.6948  0.0912  1.0162
 2615SOL    HW219479   1.595   3.762   7.356 -0.0191 -0.9846  0.4167
 2616SOL     OW19480   0.992   1.605   6.017 -0.0600  0.4549 -0.5340
 2616SOL    HW119481   1.039   1.594   6.099 -0.3260  3.5898  0.0388
 2616SOL    HW219482   0.971   1.513   5.997  1.5620 -0.1472  0.5600
 2617SOL     OW19483   1.091   4.092   1.777  0.5021  0.0709 -0.1804
 2617SOL    HW119484   1.116   4.023   1.838 -0.5202  1.1029  1.4143
 2617SOL    HW219485   1.165   4.083   1.718  0.7290  3.3452 -0.4347
 2618SOL     OW19486   3.958   0.653   8.806 -0.5553 -0.4406  0.3177
 2618SOL    HW119487   3.993   0.722   8.750  0.2436  0.2842  1.7157
 2618SOL    HW219488   3.945   0.707   8.883 -1.1569  0.4974 -0.4352
 2619SOL     OW19489   0.928   0.964   4.906  0.2538  0.2114  0.0298
 2619SOL    HW119490   0.918   0.897   4.838  0.0988  0.0324  0.2272
 2619SOL    HW219491   1.023   0.967   4.902  0.3508 -2.7141 -0.1700
 2620SOL     OW19492   3.497   1.002  17.551  0.0537 -0.1886  0.1757
 2620SOL    HW119493   3.442   1.069  17.511 -0.1719 -1.5866 -1.8756
 2620SOL    HW219494   3.568   0.985  17.490  0.0606  2.0241 -0.4477
 2621SOL     OW19495   4.320   2.302   6.902 -0.2866  0.1747 -0.1332
 2621SOL    HW119496   4.280   2.337   6.982  0.4336 -0.8714  0.6802
 2621SOL    HW219497   4.304   2.377   6.845  2.5430 -0.0265 -1.2267
 2622SOL     OW19498   1.277   4.122   0.028  0.0634 -0.7714  0.0461
 2622SOL    HW119499   1.207   4.172  17.738  1.6501  1.2245 -0.2219
 2622SOL    HW219500   1.353   4.180   0.025 -1.3647  0.9524 -2.9251
 2623SOL     OW19501   4.601   0.142   2.177 -0.2156 -0.1161 -0.2798
 2623SOL    HW119502   4.645   0.079   2.119  1.2226  0.2710  0.3961
 2623SOL    HW219503   4.535   0.086   2.218 -0.0723  0.4733  0.7468
 2624SOL     OW19504   2.984   0.679   0.471 -0.2483 -0.0899  0.2645
 2624SOL    HW119505   2.927   0.753   0.452 -0.1178 -0.1195 -0.2281
 2624SOL    HW219506   3.042   0.726   0.532 -1.5833  2.0530 -0.1063
 2625SOL     OW19507   3.311   0.608   5.912 -0.2715 -0.0375 -0.2751
 2625SOL    HW119508   3.374   0.657   5.964 -0.3378  0.2026 -0.4219
 2625SOL    HW219509   3.264   0.564   5.983  1.0377 -0.2093  0.4803
 2626SOL     OW19510   1.654   1.634   8.683  0.3998 -0.0305  0.7110
 2626SOL    HW119511   1.695   1.572   8.743 -0.0450 -0.6000  0.4251
 2626SOL    HW219512   1.654   1.713   8.737 -1.6056  0.1571  0.4565
 2627SOL     OW19513   4.170   3.581  14.844 -0.0377  0.1529 -0.0276
 2627SOL    HW119514   4.186   3.582  14.750 -0.2195 -0.9534 -0.0656
 2627SOL    HW219515   4.094   3.523  14.843  0.7356 -0.8329 -1.4513
 2628SOL     OW19516   3.658   2.363   2.563 -0.5866 -1.0393  0.2909
 2628SOL    HW119517   3.657   2.416   2.642  0.6748  2.2825 -1.9158
 2628SOL    HW219518   3.752   2.347   2.565 -0.2658  0.8993  0.7019
 2629SOL     OW19519   2.699   1.525   4.106 -0.1602 -0.2651 -0.3671
 2629SOL    HW119520   2.788   1.501   4.082 -0.6231 -0.9383 -1.3761
 2629SOL    HW219521   2.693   1.614   4.070 -0.6025  0.2086  0.8526
 2630SOL     OW19522   2.770   2.786   5.445  0.7082  0.2452 -0.0290
 2630SOL    HW119523   2.800   2.794   5.355 -0.3339  1.5842 -0.2606
 2630SOL    HW219524   2.847   2.802   5.499  1.5104 -2.0294 -0.5124
 2631SOL     OW19525   0.221   2.595   7.790  0.0959 -0.0345 -0.0041
 2631SOL    HW119526   0.303   2.547   7.777  0.8993  1.4888 -0.5008
 2631SOL    HW219527   0.246   2.634   7.874 -3.7136  0.1974  1.0463
 2632SOL     OW19528   3.533   1.830   7.936  0.2036  0.3326 -0.3472
 2632SOL    HW119529   3.554   1.751   7.887  0.6743  0.3357 -0.1528
 2632SOL    HW219530   3.488   1.788   8.010 -0.6640  0.8903 -0.5574
 2633SOL     OW19531   4.400   1.138  11.561 -0.2333  0.4112 -0.2007
 2633SOL    HW119532   4.454   1.193  11.504  0.3059 -1.6472 -1.6973
 2633SOL    HW219533   4.468   1.112  11.623  0.2915  1.5564 -0.2976
 2634SOL     OW19534   4.021   4.649   3.629  0.0954 -0.1316  0.5623
 2634SOL    HW119535   3.986   4.581   3.687 -0.8257  0.5646  0.8190
 2634SOL    HW219536   4.018   4.608   3.542 -1.3417 -1.5354  1.2668
 2635SOL     OW19537   2.804   3.735   5.681  0.2255  0.5568  0.3698
 2635SOL    HW119538   2.776   3.688   5.759 -1.4477 -1.5108 -1.4658
 2635SOL    HW219539   2.885   3.779   5.706  1.1980 -0.0977 -1.6212
 2636SOL     OW19540   0.478   4.613   3.493  0.3110 -0.4484 -0.0305
 2636SOL    HW119541   0.466   4.530   3.540 -1.3283 -1.2810 -1.9431
 2636SOL    HW219542   0.386   4.635   3.477  0.2877 -1.2424 -0.9749
 2637SOL     OW19543   1.485   2.280   8.369  0.2289  0.2966  0.0455
 2637SOL    HW119544   1.556   2.220   8.393  1.1172  1.7187  0.9921
 2637SOL    HW219545   1.482   2.280   8.274 -3.2969 -1.1780  0.1263
 2638SOL     OW19546   0.771   0.502   9.443 -0.3176  0.1206  0.8288
 2638SOL    HW119547   0.763   0.551   9.361  0.0843 -1.0574  0.0853
 2638SOL    HW219548   0.772   0.579   9.501 -0.4840  0.8977 -0.1924
 2639SOL     OW19549   2.109   3.390   4.213  0.8016 -0.1823 -0.0701
 2639SOL    HW119550   2.197   3.427   4.208  0.7691 -0.4661 -3.0595
 2639SOL    HW219551   2.138   3.299   4.219  0.0797 -0.5312 -1.8521
 2640SOL     OW19552   1.811   2.740   1.768 -0.4873  0.3691 -0.0954
 2640SOL    HW119553   1.897   2.699   1.765 -0.3690  0.5261  0.9729
 2640SOL    HW219554   1.779   2.678   1.835 -0.3348 -0.5489 -0.8639
 2641SOL     OW19555   1.816   1.964   7.758  0.2238  0.0436 -0.0572
 2641SOL    HW119556   1.856   1.989   7.841 -1.1772  1.3584  0.2244
 2641SOL    HW219557   1.853   2.040   7.712  0.3611  0.0246  0.0226
 2642SOL     OW19558   4.570   4.706   5.050  0.4740  0.3672  0.2198
 2642SOL    HW119559   4.537   4.631   5.099 -0.7579  1.3294  0.8640
 2642SOL    HW219560   4.580   4.655   4.970 -0.0645 -0.1646  0.4956
 2643SOL     OW19561   2.986   1.199   5.890 -0.5891  0.1514  0.8247
 2643SOL    HW119562   2.953   1.109   5.891  0.8769 -0.4005 -1.3268
 2643SOL    HW219563   2.914   1.245   5.846 -0.8491  2.2052  3.4047
 2644SOL     OW19564   3.293   2.072   6.804 -0.4674  0.1102  0.6957
 2644SOL    HW119565   3.367   2.015   6.782 -0.5322  0.4057 -0.2616
 2644SOL    HW219566   3.244   2.011   6.861  1.6110 -0.9595  1.3258
 2645SOL     OW19567   4.549   0.460  12.914 -0.5535  0.6867  0.1095
 2645SOL    HW119568   4.636   0.468  12.954 -1.0930  2.4155  0.9326
 2645SOL    HW219569   4.554   0.542  12.864 -0.5364  0.1977 -0.6801
 2646SOL     OW19570   1.456   1.187  13.930  0.4113  0.1311  0.0132
 2646SOL    HW119571   1.442   1.273  13.890 -0.7927 -0.5199 -0.9683
 2646SOL    HW219572   1.439   1.131  13.854  1.5853  1.4377 -1.2099
 2647SOL     OW19573   1.015   0.413  10.581 -0.5895 -0.0089  0.2398
 2647SOL    HW119574   0.968   0.473  10.640  0.9971  0.3983  1.0849
 2647SOL    HW219575   0.941   0.362  10.547 -0.8205  1.5005 -1.4661
 2648SOL     OW19576   1.606   2.033   7.087  0.0436 -0.8569 -0.1305
 2648SOL    HW119577   1.550   1.988   7.151  0.1835  0.3343  0.8281
 2648SOL    HW219578   1.615   1.969   7.016 -0.3411 -0.1358 -0.8246
 2649SOL     OW19579   4.242   4.473   8.927  0.4348  0.1457  0.1693
 2649SOL    HW119580   4.279   4.477   9.015 -0.6983  2.1781  0.5471
 2649SOL    HW219581   4.240   4.567   8.908  2.6615  0.1215 -0.2032
 2650SOL     OW19582   3.353   0.769   8.273  0.2441 -0.9923  0.3250
 2650SOL    HW119583   3.263   0.774   8.305 -0.4900  1.0035 -2.0150
 2650SOL    HW219584   3.390   0.694   8.320 -0.2993 -1.2258  0.3849
 2651SOL     OW19585   4.405   1.352   8.175  0.3629 -0.4490 -0.4750
 2651SOL    HW119586   4.326   1.303   8.153 -1.9688  2.9584  0.3017
 2651SOL    HW219587   4.436   1.291   8.242  0.1008 -2.2892 -2.0141
 2652SOL     OW19588   4.372   3.807   0.720  0.0176  0.6041  0.5653
 2652SOL    HW119589   4.349   3.850   0.637  0.7074  0.5442  0.3446
 2652SOL    HW219590   4.315   3.851   0.784 -0.6060  0.7830 -0.1008
 2653SOL     OW19591   2.998   2.568   4.410  0.2041 -0.0896  0.3472
 2653SOL    HW119592   2.963   2.566   4.321  0.5418 -0.8500  0.2297
 2653SOL    HW219593   2.942   2.504   4.452  1.0920 -0.2752  1.2593
 2654SOL     OW19594   3.030   1.109   6.381 -0.1513  0.4246 -0.1879
 2654SOL    HW119595   2.990   1.196   6.374 -0.5020  0.1670 -1.4652
 2654SOL    HW219596   3.115   1.145   6.405 -0.5507  1.9281 -1.0152
 2655SOL     OW19597   2.684   3.357   4.143  0.2035  0.6447 -0.1694
 2655SOL    HW119598   2.779   3.356   4.160  0.1466 -0.1513  0.0692
 2655SOL    HW219599   2.650   3.293   4.205  1.4515  1.0802  0.9732
 2656SOL     OW19600   3.582   0.256   8.865 -0.5683 -0.1762 -0.2982
 2656SOL    HW119601   3.534   0.332   8.832 -2.8240 -1.3546  0.2419
 2656SOL    HW219602   3.623   0.221   8.786 -1.7333 -0.3671 -0.8189
 2657SOL     OW19603   1.882   3.069   8.010 -0.3173  0.2090 -0.2520
 2657SOL    HW119604   1.916   3.003   8.072 -4.2105  1.5242  3.3089
 2657SOL    HW219605   1.968   3.082   7.970 -1.0318  2.9286 -0.8293
 2658SOL     OW19606   3.441   0.709   8.644  0.0638 -0.0786 -0.4696
 2658SOL    HW119607   3.500   0.760   8.700 -1.7632 -0.7727  2.1188
 2658SOL    HW219608   3.394   0.778   8.598 -0.4825 -0.0191  0.1772
 2659SOL     OW19609   2.453   2.412   7.615  0.4535  0.0625  0.0234
 2659SOL    HW119610   2.499   2.415   7.531 -0.2943  1.9415 -0.3244
 2659SOL    HW219611   2.393   2.486   7.605 -1.5590 -1.4196  0.9397
 2660SOL     OW19612   3.867   1.404   8.938 -0.4633  0.3913 -0.6531
 2660SOL    HW119613   3.943   1.462   8.925 -0.9273  0.5301 -2.6673
 2660SOL    HW219614   3.794   1.457   8.907 -0.9091 -0.0387 -0.3356
 2661SOL     OW19615   2.761   0.400   3.431  0.2851 -0.2303 -0.2876
 2661SOL    HW119616   2.731   0.341   3.499 -0.9017  1.2278  0.4759
 2661SOL    HW219617   2.777   0.477   3.486 -0.5486 -0.3024  0.0540
 2662SOL     OW19618   1.962   4.606   1.676 -0.0679  0.3181  0.0605
 2662SOL    HW119619   2.045   4.650   1.696  0.7893 -1.7474  1.0544
 2662SOL    HW219620   1.914   4.684   1.650  0.9812  1.1864  0.6914
 2663SOL     OW19621   4.213   4.534  10.224 -0.0013  0.2335  0.0463
 2663SOL    HW119622   4.252   4.618  10.201  1.9110 -0.1663  1.8302
 2663SOL    HW219623   4.135   4.564  10.272 -1.1034 -0.2471 -1.4613
 2664SOL     OW19624   3.124   2.545  17.326  0.0582 -0.1934  0.2352
 2664SOL    HW119625   3.041   2.542  17.373  0.2865  0.1762  0.6660
 2664SOL    HW219626   3.138   2.639  17.310  0.1371 -0.2944 -0.2643
 2665SOL     OW19627   2.415   2.309   1.434  0.2056  0.5372  0.1241
 2665SOL    HW119628   2.436   2.309   1.341 -1.9982  1.5977 -0.3865
 2665SOL    HW219629   2.344   2.246   1.444  0.4465  0.2345 -0.0813
 2666SOL     OW19630   1.113   3.423   3.424  0.4955  0.0859 -0.2411
 2666SOL    HW119631   1.172   3.397   3.353  1.5419  0.1236  0.6273
 2666SOL    HW219632   1.125   3.365   3.499  2.2923 -1.8060 -2.0142
 2667SOL     OW19633   1.100   1.710   7.792  0.0037 -0.1724 -0.6739
 2667SOL    HW119634   1.129   1.765   7.719  1.4896  1.6036  1.2818
 2667SOL    HW219635   1.063   1.630   7.754 -0.7518  0.2762 -0.8919
 2668SOL     OW19636   0.192   2.089   1.222  0.0312 -0.2395  0.2695
 2668SOL    HW119637   0.179   2.156   1.289  0.5295  0.4935 -0.3764
 2668SOL    HW219638   0.275   2.057   1.259  0.1447 -0.4236 -0.1383
 2669SOL     OW19639   3.694   0.915   3.046 -0.2129 -0.4735  0.0268
 2669SOL    HW119640   3.633   0.842   3.034 -2.0464  0.7936  1.5793
 2669SOL    HW219641   3.655   1.002   3.041 -2.2129 -1.4251 -0.9493
 2670SOL     OW19642   1.559   2.884  11.658  0.2992 -0.2652  0.2759
 2670SOL    HW119643   1.524   2.901  11.570  0.0554  1.6518  0.7445
 2670SOL    HW219644   1.625   2.816  11.643  0.4028 -0.1187  0.0740
 2671SOL     OW19645   2.789   1.908  11.071  0.9624  0.3885 -0.0749
 2671SOL    HW119646   2.832   1.848  11.132 -0.6094 -0.9120 -0.2496
 2671SOL    HW219647   2.763   1.972  11.138 -0.6606  0.9175 -1.2047
 2672SOL     OW19648   3.166   0.760   4.082  0.1121  0.2010 -0.4039
 2672SOL    HW119649   3.126   0.816   4.015  2.4246  2.5959  0.1958
 2672SOL    HW219650   3.240   0.719   4.037 -1.0278 -1.8430 -0.4001
 2673SOL     OW19651   0.494   0.697  12.167  0.0242  0.0360 -0.3146
 2673SOL    HW119652   0.529   0.785  12.171 -0.0797  0.0408  0.4474
 2673SOL    HW219653   0.446   0.704  12.084 -1.0061  0.3755  0.3074
 2674SOL     OW19654   3.763   2.205  11.414 -0.4042 -0.2408  0.1033
 2674SOL    HW119655   3.671   2.229  11.403 -0.6468 -0.2217  2.2293
 2674SOL    HW219656   3.761   2.194  11.509  0.4915  2.4542  0.4245
 2675SOL     OW19657   2.445   1.201   2.079 -0.2374 -0.5581 -0.5148
 2675SOL    HW119658   2.528   1.179   2.035  0.3072  0.9512 -0.2455
 2675SOL    HW219659   2.446   1.140   2.152 -0.1101  0.8421  0.6661
 2676SOL     OW19660   4.340   0.297   9.262  0.5105  0.4332 -0.1218
 2676SOL    HW119661   4.372   0.380   9.298  1.1563  0.1920 -0.1378
 2676SOL    HW219662   4.392   0.298   9.182 -0.9431  0.5357 -1.0770
 2677SOL     OW19663   1.014   1.552   0.779  0.3707 -0.0052 -0.2038
 2677SOL    HW119664   1.090   1.512   0.821 -0.0753 -2.1654 -1.4432
 2677SOL    HW219665   0.972   1.592   0.855 -0.1218  0.5587 -0.7684
 2678SOL     OW19666   0.898   4.684   9.167 -0.5019 -0.0718  0.2485
 2678SOL    HW119667   0.937   4.609   9.123  1.6933  1.4450 -0.3889
 2678SOL    HW219668   0.868   4.733   9.091  1.3276  0.1394 -0.3299
 2679SOL     OW19669   2.717   2.948   8.440  0.4225  0.7540  0.4760
 2679SOL    HW119670   2.758   2.867   8.469 -0.3829  1.2581  3.0208
 2679SOL    HW219671   2.763   3.008   8.498  0.0321  1.3265  0.2042
 2680SOL     OW19672   0.290   3.507   6.015 -0.4667 -0.3618 -0.1742
 2680SOL    HW119673   0.318   3.486   5.926  0.3983 -1.1217  0.2672
 2680SOL    HW219674   0.263   3.598   6.008 -0.8160 -0.5411 -1.0628
 2681SOL     OW19675   3.599   2.478   8.805  0.2795 -0.2893  0.2363
 2681SOL    HW119676   3.641   2.497   8.889 -0.8617  1.6033  0.3885
 2681SOL    HW219677   3.672   2.489   8.745 -0.0349  0.6137  0.0219
 2682SOL     OW19678   4.309   1.530   0.030 -0.1128 -0.3102  0.0463
 2682SOL    HW119679   4.392   1.545  17.737  1.1176  1.3995  2.8701
 2682SOL    HW219680   4.299   1.620   0.061 -1.2321 -1.0694  1.8751
 2683SOL     OW19681   0.829   1.030   9.858 -0.5790 -0.2919 -0.6209
 2683SOL    HW119682   0.761   1.003   9.797 -0.3916 -0.5599 -0.7142
 2683SOL    HW219683   0.907   1.015   9.804  0.7846 -2.3748  1.9196
 2684SOL     OW19684   3.579   3.735   3.019  0.4903 -0.3071 -0.3519
 2684SOL    HW119685   3.660   3.731   3.070 -1.3716  0.2078  2.6441
 2684SOL    HW219686   3.609   3.715   2.931  0.9840 -4.2107  0.6615
 2685SOL     OW19687   1.779   3.427   8.965  0.4006  0.2981 -0.0535
 2685SOL    HW119688   1.786   3.479   9.046 -1.0844  1.9817 -1.0049
 2685SOL    HW219689   1.738   3.346   8.996 -0.4996  1.0478  0.7537
 2686SOL     OW19690   1.339   0.343   2.458 -0.1956 -0.3446 -0.2576
 2686SOL    HW119691   1.370   0.291   2.532 -1.7772 -0.6203  0.2258
 2686SOL    HW219692   1.413   0.364   2.402  0.1197 -0.4206  0.1321
 2687SOL     OW19693   1.620   4.725   6.298  0.5770 -0.0179  0.1904
 2687SOL    HW119694   1.707   0.005   6.335  0.6884 -0.0349 -0.0620
 2687SOL    HW219695   1.604   0.033   6.216 -1.2170 -1.9083 -0.5412
 2688SOL     OW19696   4.335   1.804   9.477  0.1962 -0.3180  0.4615
 2688SOL    HW119697   4.398   1.852   9.530  1.2196  1.0513 -1.9941
 2688SOL    HW219698   4.309   1.877   9.421 -0.3237 -0.4973  0.4652
 2689SOL     OW19699   3.273   2.569   3.659  0.5941 -0.0109  0.2959
 2689SOL    HW119700   3.225   2.519   3.594  4.0134  1.6193 -3.5301
 2689SOL    HW219701   3.249   2.520   3.737  2.0355  0.5767  1.1215
 2690SOL     OW19702   3.790   1.392   2.395  0.2503  0.1613 -0.1023
 2690SOL    HW119703   3.866   1.431   2.439  0.4147 -2.0632  1.5406
 2690SOL    HW219704   3.835   1.393   2.310  2.3786 -0.2710  1.0085
 2691SOL     OW19705   1.102   0.516  10.344 -0.0416  0.1169 -0.0921
 2691SOL    HW119706   1.067   0.477  10.424  0.2487 -0.6968 -0.3646
 2691SOL    HW219707   1.074   0.607  10.358  1.2973  0.6751 -1.0254
 2692SOL     OW19708   1.495   0.218   6.146 -0.0600  0.0711 -0.4707
 2692SOL    HW119709   1.465   0.250   6.231 -1.0036 -0.9554 -0.4110
 2692SOL    HW219710   1.429   0.149   6.133  1.1849 -1.1526 -0.3612
 2693SOL     OW19711   4.043   3.488   4.775 -0.0259  0.0991 -0.4143
 2693SOL    HW119712   4.028   3.442   4.857  0.7672 -0.6208 -0.6761
 2693SOL    HW219713   4.070   3.420   4.713 -0.4967  0.6841 -1.2564
 2694SOL     OW19714   3.436   2.203   5.843 -0.2692  0.0543 -0.1618
 2694SOL    HW119715   3.487   2.263   5.897 -0.6766 -0.5385  0.8801
 2694SOL    HW219716   3.348   2.229   5.870  0.7220  1.9274  1.2266
 2695SOL     OW19717   1.968   0.724  16.849 -0.0538 -0.2502 -0.8326
 2695SOL    HW119718   1.940   0.632  16.850  1.0382 -0.5762 -0.3380
 2695SOL    HW219719   1.951   0.745  16.940  0.9306 -0.8374 -0.5198
 2696SOL     OW19720   3.361   3.790   3.555  0.2271 -0.2450  0.7197
 2696SOL    HW119721   3.279   3.817   3.512  0.1535 -1.2461  0.2379
 2696SOL    HW219722   3.425   3.812   3.487  0.7345  1.2427  1.6863
 2697SOL     OW19723   0.495   3.098   7.431  0.0270 -0.0232  0.2642
 2697SOL    HW119724   0.553   3.154   7.483 -1.9109  0.1805  2.1911
 2697SOL    HW219725   0.561   3.065   7.370 -0.3388 -0.0851 -0.0955
 2698SOL     OW19726   4.066   1.601   1.059 -0.0905  0.4241  0.0402
 2698SOL    HW119727   4.069   1.554   1.142 -0.1325  1.1370  0.4501
 2698SOL    HW219728   4.160   1.604   1.045 -0.0402 -3.0385 -0.3758
 2699SOL     OW19729   2.509   0.505   6.592 -0.7294 -0.3071 -0.0873
 2699SOL    HW119730   2.532   0.535   6.504  1.4367  1.6305  1.1354
 2699SOL    HW219731   2.523   0.588   6.637 -1.1342 -0.6457  0.6589
 2700SOL     OW19732   4.307   2.698   2.398  0.0298  0.4700  0.4144
 2700SOL    HW119733   4.380   2.659   2.446  0.9250 -1.4032 -2.5008
 2700SOL    HW219734   4.278   2.624   2.344  3.7196 -1.7012  1.4605
 2701SOL     OW19735   0.278   0.640   5.031  0.0509  0.2208  0.4054
 2701SOL    HW119736   0.216   0.713   5.030 -2.6494 -2.1094 -1.5021
 2701SOL    HW219737   0.309   0.640   5.122  0.1957  1.3746  0.3523
 2702SOL     OW19738   4.662   3.749   5.837 -0.0940 -1.2382  0.7231
 2702SOL    HW119739   4.571   3.770   5.853  0.0639  0.5479 -0.7586
 2702SOL    HW219740   4.679   3.797   5.757 -0.0507  1.4778  2.3653
 2703SOL     OW19741   3.788   1.855   4.431  0.1424  0.2943 -0.0719
 2703SOL    HW119742   3.813   1.778   4.483 -2.1889 -0.9733 -0.8186
 2703SOL    HW219743   3.736   1.814   4.362  0.3857  0.5694 -0.4200
 2704SOL     OW19744   2.832   2.422   5.303 -0.2759  0.2685  0.0557
 2704SOL    HW119745   2.815   2.351   5.242 -1.0442 -0.3690  1.0029
 2704SOL    HW219746   2.822   2.493   5.239 -0.8959  1.0262  0.9938
 2705SOL     OW19747   4.080   3.517   1.735  0.0714 -0.2771  0.4250
 2705SOL    HW119748   4.165   3.553   1.760 -0.3847  0.6086  0.6756
 2705SOL    HW219749   4.093   3.513   1.640 -0.6937 -0.5771  0.3335
 2706SOL     OW19750   0.235   0.360  12.808  0.0115 -0.1103  0.1793
 2706SOL    HW119751   0.325   0.346  12.780  0.1868  0.8970  0.2408
 2706SOL    HW219752   0.200   0.369  12.719  1.9187 -0.4524 -0.6004
 2707SOL     OW19753   2.440   2.985   8.470 -0.3028 -0.1580 -0.5322
 2707SOL    HW119754   2.535   2.973   8.474 -0.3724  0.0369  1.8119
 2707SOL    HW219755   2.414   2.963   8.560 -1.5218 -2.7212 -1.5469
 2708SOL     OW19756   3.138   3.549   1.352  0.2577  0.8224 -0.1226
 2708SOL    HW119757   3.185   3.525   1.272  0.4316 -0.5878  0.3974
 2708SOL    HW219758   3.074   3.479   1.339  2.0232 -0.6742 -0.7524
 2709SOL     OW19759   2.088   0.764  15.583  0.3842 -0.6369  0.0515
 2709SOL    HW119760   2.115   0.795  15.670  0.9087 -5.0249  1.4741
 2709SOL    HW219761   2.039   0.684  15.601 -0.0650 -0.5020 -0.5903
 2710SOL     OW19762   2.965   2.565  15.587 -0.0945  0.1595  0.3478
 2710SOL    HW119763   2.915   2.584  15.666  0.5066  0.9533  0.5365
 2710SOL    HW219764   2.894   2.551  15.524 -0.2374 -1.2919  0.8368
 2711SOL     OW19765   3.817   3.592  10.595  0.5307  0.1329  0.2441
 2711SOL    HW119766   3.843   3.500  10.588 -0.3557 -0.0919 -0.0233
 2711SOL    HW219767   3.873   3.638  10.533 -0.4338  2.0901  0.8218
 2712SOL     OW19768   0.679   2.152  14.681 -0.2751  0.0731  0.3286
 2712SOL    HW119769   0.657   2.091  14.751 -2.7061 -1.0209 -1.4248
 2712SOL    HW219770   0.766   2.118  14.662 -1.6503 -2.3003 -1.5935
 2713SOL     OW19771   3.477   1.648   9.371 -0.1062  0.9379 -0.1385
 2713SOL    HW119772   3.543   1.688   9.428  0.0189  1.4347 -0.6347
 2713SOL    HW219773   3.523   1.568   9.345 -2.1708  0.7955 -3.4448
 2714SOL     OW19774   3.918   2.532   7.649 -0.1766  0.5362 -0.6952
 2714SOL    HW119775   3.824   2.538   7.670  0.1124  0.4437  0.5865
 2714SOL    HW219776   3.897   2.490   7.565  0.2794  0.0248 -0.5475
 2715SOL     OW19777   3.573   4.248   6.309 -0.2326  0.2291 -0.2064
 2715SOL    HW119778   3.535   4.336   6.302 -2.6981 -0.7881  0.5753
 2715SOL    HW219779   3.660   4.276   6.339 -0.7982  1.0357  0.6700
 2716SOL     OW19780   3.121   4.010   3.826 -0.2653 -0.0663 -1.3303
 2716SOL    HW119781   3.026   4.003   3.830 -0.1371 -0.6582  0.9062
 2716SOL    HW219782   3.137   3.979   3.916 -1.2042  0.7784 -0.8729
 2717SOL     OW19783   0.494   2.997   9.163 -0.1399  0.0797  0.6208
 2717SOL    HW119784   0.483   3.071   9.104  0.0984 -0.3235  0.0672
 2717SOL    HW219785   0.455   3.016   9.248 -0.7860 -1.3037  0.6365
 2718SOL     OW19786   0.781   2.227   5.818 -0.0965  0.6888 -0.0140
 2718SOL    HW119787   0.860   2.276   5.838  0.7059 -0.6023 -0.0491
 2718SOL    HW219788   0.713   2.283   5.855 -1.8109  0.1504 -2.3296
 2719SOL     OW19789   1.500   1.576   8.094  0.1582  0.3114 -0.2392
 2719SOL    HW119790   1.558   1.573   8.018  0.7652 -2.6677  0.3191
 2719SOL    HW219791   1.412   1.576   8.055 -0.8205 -1.8426  1.9902
 2720SOL     OW19792   1.583   1.174  14.188  0.1732  0.2258 -0.0643
 2720SOL    HW119793   1.580   1.090  14.234 -0.2572 -0.9941 -2.3004
 2720SOL    HW219794   1.561   1.136  14.102 -0.3584  0.7315 -0.1528
 2721SOL     OW19795   4.291   4.252  11.449 -0.5155  0.6573  0.0903
 2721SOL    HW119796   4.219   4.306  11.416  0.5071  1.7461 -0.3311
 2721SOL    HW219797   4.333   4.236  11.364 -0.2097 -0.2451  0.4110
 2722SOL     OW19798   0.262   2.827   7.349 -0.4885 -0.1169 -0.1307
 2722SOL    HW119799   0.303   2.879   7.280 -1.1085  1.4372  0.6922
 2722SOL    HW219800   0.330   2.822   7.417 -0.2013  1.6774 -0.2867
 2723SOL     OW19801   0.130   2.706   1.543  0.7139  0.1602  0.1151
 2723SOL    HW119802   0.212   2.731   1.587  0.0490  1.0435  0.8570
 2723SOL    HW219803   0.114   2.775   1.480 -1.4780 -0.7442 -0.3013
 2724SOL     OW19804   4.155   1.423   7.807  0.4447  0.0814  0.0689
 2724SOL    HW119805   4.161   1.481   7.883 -0.0814  0.9421 -0.5390
 2724SOL    HW219806   4.185   1.480   7.736  0.3207  2.3493  1.8373
 2725SOL     OW19807   3.079   0.920  14.538  0.0513  0.0210 -0.0673
 2725SOL    HW119808   3.125   0.839  14.561  1.3497  0.8472  0.2709
 2725SOL    HW219809   3.056   0.898  14.448  1.1325 -1.1403 -0.0576
 2726SOL     OW19810   1.678   1.695  15.715 -1.1737  0.3137  0.0533
 2726SOL    HW119811   1.760   1.657  15.683  0.2429  3.0088  0.5117
 2726SOL    HW219812   1.709   1.747  15.789 -1.5143  0.7780 -0.1246
 2727SOL     OW19813   2.505   3.536  10.321 -0.1941  0.8015 -0.1493
 2727SOL    HW119814   2.517   3.530  10.416  2.4534  1.7055 -0.4236
 2727SOL    HW219815   2.590   3.502  10.292  0.1249 -0.4189  2.2256
 2728SOL     OW19816   3.159   3.979   5.500 -0.3002  0.1205  0.2253
 2728SOL    HW119817   3.175   3.989   5.406  0.2122  2.3186  0.5283
 2728SOL    HW219818   3.117   3.893   5.494  0.8394 -0.3436 -0.9652
 2729SOL     OW19819   1.574   3.692   5.353 -0.5045 -0.2188  0.0346
 2729SOL    HW119820   1.494   3.702   5.302 -0.0733  0.1520 -0.5771
 2729SOL    HW219821   1.574   3.777   5.397  0.1997  0.6292 -1.5677
 2730SOL     OW19822   0.641   0.013   3.856  0.0189 -0.2307  0.6490
 2730SOL    HW119823   0.603   4.665   3.871 -1.0824 -0.1854 -1.8656
 2730SOL    HW219824   0.586   0.056   3.791  1.3042  1.6508  0.8125
 2731SOL     OW19825   2.534   4.207   2.983 -0.1168 -0.2104  0.2136
 2731SOL    HW119826   2.546   4.249   3.068  1.3458  0.8598 -0.5193
 2731SOL    HW219827   2.451   4.162   2.997 -1.0067  1.5587  0.6086
 2732SOL     OW19828   3.347   3.345   6.458  0.5619 -0.4081  0.2294
 2732SOL    HW119829   3.428   3.313   6.497  0.5055 -2.7843 -1.6060
 2732SOL    HW219830   3.347   3.282   6.386  1.5346  1.4337 -1.3528
 2733SOL     OW19831   1.833   3.356   6.872 -0.0615 -0.0321 -0.0196
 2733SOL    HW119832   1.821   3.294   6.800 -0.0830 -0.7026  0.5603
 2733SOL    HW219833   1.811   3.289   6.936  2.2609  0.2637  1.0820
 2734SOL     OW19834   4.118   0.903   8.184 -0.3396  0.4678  0.2383
 2734SOL    HW119835   4.198   0.938   8.224 -0.6568 -0.3061  1.5448
 2734SOL    HW219836   4.067   0.981   8.204 -2.8833 -1.3127  0.6206
 2735SOL     OW19837   2.100   0.446  17.157 -0.2811  0.5667 -0.4410
 2735SOL    HW119838   2.087   0.351  17.148  1.7686  0.4455 -2.0663
 2735SOL    HW219839   2.068   0.468  17.244 -2.7542  1.8442 -1.6595
 2736SOL     OW19840   1.359   0.192  14.893 -0.0449 -0.1343 -0.4911
 2736SOL    HW119841   1.318   0.123  14.944 -2.5529  1.7096  0.0315
 2736SOL    HW219842   1.292   0.221  14.831 -1.6107  2.7162  2.5227
 2737SOL     OW19843   0.028   0.832   6.183  0.1858 -0.0342  0.1740
 2737SOL    HW119844   4.712   0.862   6.256  0.4983 -0.3083  0.5229
 2737SOL    HW219845   0.092   0.903   6.186 -0.6693  0.7010  1.0755
 2738SOL     OW19846   0.607   1.795   3.301  0.4049 -0.0976 -0.0500
 2738SOL    HW119847   0.641   1.707   3.314 -0.1864  0.0157  2.2638
 2738SOL    HW219848   0.515   1.777   3.282  0.2558  0.9309 -0.3218
 2739SOL     OW19849   1.086   3.385   9.585  0.5393  0.3317  0.7827
 2739SOL    HW119850   1.099   3.450   9.654  2.4032  2.0791 -1.2056
 2739SOL    HW219851   1.034   3.323   9.636 -0.4588  0.2589 -0.3223
 2740SOL     OW19852   0.162   1.404  10.462  0.5389  0.4222  0.4737
 2740SOL    HW119853   0.144   1.496  10.482  3.1410  1.4967 -2.1833
 2740SOL    HW219854   0.256   1.407  10.446  0.5567 -0.5909  0.4350
 2741SOL     OW19855   2.486   1.133  10.439  0.3950 -0.7219 -0.2633
 2741SOL    HW119856   2.521   1.221  10.450  0.0414 -0.6135 -0.0151
 2741SOL    HW219857   2.520   1.097  10.520  2.6257  1.0102 -0.4490
 2742SOL     OW19858   3.272   2.723   4.219  0.1774 -0.9021 -0.1045
 2742SOL    HW119859   3.344   2.755   4.165 -1.1874  0.6394 -0.9875
 2742SOL    HW219860   3.327   2.677   4.282  0.0286 -1.7192 -0.5571
 2743SOL     OW19861   0.075   4.331   5.010  0.2654 -0.0690  0.2475
 2743SOL    HW119862   0.170   4.344   5.014  0.2556 -0.2156  0.8563
 2743SOL    HW219863   0.058   4.299   4.921 -1.4705  1.1339  0.1462
 2744SOL     OW19864   3.855   1.466   9.928  0.1168 -0.0825 -0.2361
 2744SOL    HW119865   3.874   1.431  10.016 -1.5003 -0.2492  0.0540
 2744SOL    HW219866   3.777   1.518   9.947 -0.4960 -1.0644 -0.0263
 2745SOL     OW19867   2.767   2.504  10.888  0.2088  0.1092 -0.7212
 2745SOL    HW119868   2.716   2.576  10.852 -0.1931  0.6029  0.8411
 2745SOL    HW219869   2.727   2.482  10.972  2.1195 -1.3743 -0.2037
 2746SOL     OW19870   2.354   0.128   5.889  0.8786  0.1705  0.0682
 2746SOL    HW119871   2.306   0.088   5.962 -1.1490 -0.3874 -1.5649
 2746SOL    HW219872   2.326   0.070   5.818  0.8101 -0.0641  0.2856
 2747SOL     OW19873   2.332   3.629   8.402 -0.0962  0.3906 -0.1381
 2747SOL    HW119874   2.399   3.563   8.417 -2.2109 -1.3719  1.6978
 2747SOL    HW219875   2.249   3.583   8.416 -0.1929  0.8767  0.8989
 2748SOL     OW19876   2.393   3.996   6.194  0.2606 -0.2906 -0.0249
 2748SOL    HW119877   2.466   4.051   6.221 -0.5342  1.8090 -2.1778
 2748SOL    HW219878   2.396   3.999   6.099  0.8225 -0.5008 -0.0089
 2749SOL     OW19879   1.935   1.672   6.279 -0.2081 -0.2516  0.0390
 2749SOL    HW119880   2.003   1.734   6.306 -1.0348  0.4571  0.4968
 2749SOL    HW219881   1.863   1.705   6.333 -2.2285 -2.0998 -1.5051
 2750SOL     OW19882   1.510   1.326   2.640  0.1543 -0.1718 -0.2035
 2750SOL    HW119883   1.478   1.250   2.592 -0.2575 -0.2096  0.1267
 2750SOL    HW219884   1.598   1.337   2.605 -0.1501  1.0112 -0.5728
 2751SOL     OW19885   3.166   0.489   6.574  0.2121 -0.5731  0.0031
 2751SOL    HW119886   3.133   0.553   6.511 -0.2852 -0.6386  0.2004
 2751SOL    HW219887   3.261   0.495   6.572  0.2439 -0.9382  0.2466
 2752SOL     OW19888   2.123   4.658   5.002  0.0754 -0.8783  0.1342
 2752SOL    HW119889   2.134   0.013   4.986  0.5364 -0.9601 -0.0451
 2752SOL    HW219890   2.208   4.630   5.035 -1.1707 -2.2020  2.1869
 2753SOL     OW19891   4.198   1.876   8.500 -0.1937 -0.2150 -0.0012
 2753SOL    HW119892   4.177   1.969   8.512 -0.1978  0.0026 -1.8084
 2753SOL    HW219893   4.118   1.851   8.455  0.6016  0.1141 -1.6083
 2754SOL     OW19894   4.210   1.596   6.440 -0.0089 -0.3081 -0.0244
 2754SOL    HW119895   4.299   1.631   6.453  0.1650 -1.6066  2.2944
 2754SOL    HW219896   4.237   1.521   6.386 -2.3869 -3.4229  3.1406
 2755SOL     OW19897   0.725   2.464   3.270 -0.0568  0.1008  0.4860
 2755SOL    HW119898   0.749   2.416   3.349 -0.6079 -2.7072 -1.0229
 2755SOL    HW219899   0.679   2.388   3.232  1.0590 -0.2624 -0.1236
 2756SOL     OW19900   0.980   1.222   6.641 -0.5512 -0.0446 -0.3772
 2756SOL    HW119901   0.969   1.208   6.547  1.2086  0.2388 -0.6257
 2756SOL    HW219902   1.075   1.226   6.650 -0.9185  0.1432  3.4876
 2757SOL     OW19903   0.575   2.256   3.152  0.3058  0.7059 -0.3715
 2757SOL    HW119904   0.527   2.259   3.069 -0.4211 -0.3925  0.0006
 2757SOL    HW219905   0.497   2.219   3.193  1.4359 -1.1467  0.1414
 2758SOL     OW19906   1.755   3.439   8.661  0.0377 -0.2463 -0.0785
 2758SOL    HW119907   1.754   3.484   8.746  1.9907 -1.8305  0.7987
 2758SOL    HW219908   1.791   3.505   8.602  0.6467  0.4530  1.0529
 2759SOL     OW19909   1.451   2.216   7.498 -0.1906  0.5001 -0.2068
 2759SOL    HW119910   1.474   2.195   7.589 -2.7291 -0.6378  0.1678
 2759SOL    HW219911   1.529   2.205   7.444 -0.0083 -0.1566  0.1903
 2760SOL     OW19912   3.282   1.980   7.939  0.1933 -0.5488  0.2981
 2760SOL    HW119913   3.328   2.054   7.980  3.1114 -0.7002 -2.6519
 2760SOL    HW219914   3.357   1.920   7.928 -0.2454 -1.1299  0.4912
 2761SOL     OW19915   2.929   0.518   8.404 -0.1769  0.2142  0.7703
 2761SOL    HW119916   2.852   0.572   8.416 -0.2326  0.2732  0.1678
 2761SOL    HW219917   2.889   0.434   8.381  0.2002  0.3186 -0.2670
 2762SOL     OW19918   4.327   3.175   1.318 -0.2029  0.0109 -0.5935
 2762SOL    HW119919   4.395   3.108   1.305  1.0711  1.1195  0.3356
 2762SOL    HW219920   4.300   3.201   1.230  3.8637 -1.8960 -2.3958
 2763SOL     OW19921   2.277   2.001   8.385 -0.1380 -0.1286  0.0935
 2763SOL    HW119922   2.252   2.043   8.468 -0.5555  0.8834 -0.5446
 2763SOL    HW219923   2.194   1.959   8.365  0.4002 -1.3551  0.4128
 2764SOL     OW19924   2.317   0.070   4.411 -0.4116  0.1494 -0.6658
 2764SOL    HW119925   2.402   0.113   4.415  0.7130 -2.0329 -1.9082
 2764SOL    HW219926   2.264   0.151   4.409 -0.5043  0.0957 -0.3556
 2765SOL     OW19927   2.998   1.817   3.671  0.0665  0.2836  0.0156
 2765SOL    HW119928   2.987   1.913   3.670  1.1646  0.4013 -0.0635
 2765SOL    HW219929   3.089   1.816   3.700 -0.3110 -0.2953  1.1957
 2766SOL     OW19930   2.302   4.372   6.602 -1.0319  0.2031  0.1471
 2766SOL    HW119931   2.330   4.452   6.645 -0.4555 -1.1380  2.2550
 2766SOL    HW219932   2.253   4.329   6.671  0.2545 -0.3034  0.7546
 2767SOL     OW19933   0.445   1.203  13.679 -0.1949  0.4339 -0.8825
 2767SOL    HW119934   0.493   1.177  13.600 -0.4024 -2.4138 -0.0683
 2767SOL    HW219935   0.511   1.176  13.743 -0.1876 -0.1695 -1.1467
 2768SOL     OW19936   3.369   3.465  11.121  0.2794 -0.0832 -0.1510
 2768SOL    HW119937   3.392   3.557  11.108 -2.0922  0.3879 -1.0086
 2768SOL    HW219938   3.421   3.425  11.051 -0.4763 -1.1589 -0.0907
 2769SOL     OW19939   3.024   1.170  12.581 -0.0387  0.7569 -0.3061
 2769SOL    HW119940   3.041   1.262  12.560 -2.2180  0.9009 -1.4820
 2769SOL    HW219941   3.079   1.153  12.657  0.4202  1.1965 -0.5422
 2770SOL     OW19942   4.270   1.181   2.188  0.2984 -0.1001 -0.5482
 2770SOL    HW119943   4.211   1.134   2.248 -1.5391  0.1483 -2.1442
 2770SOL    HW219944   4.248   1.273   2.201  0.9141  0.0260 -0.4118
 2771SOL     OW19945   0.434   0.940   4.500 -0.6380  0.0825  0.3795
 2771SOL    HW119946   0.423   0.851   4.466 -0.2820  0.2631 -0.1952
 2771SOL    HW219947   0.497   0.919   4.569  0.2361 -1.0605 -0.7716
 2772SOL     OW19948   4.584   1.686   7.830 -0.0057 -0.2039  0.1101
 2772SOL    HW119949   4.667   1.711   7.870  0.4897 -2.5077  0.5061
 2772SOL    HW219950   4.534   1.643   7.900  3.2862  0.4652  2.8533
 2773SOL     OW19951   0.899   1.226   5.283  0.4865  0.5254 -0.3518
 2773SOL    HW119952   0.910   1.245   5.376  0.1356 -3.2950  0.4640
 2773SOL    HW219953   0.979   1.177   5.264  0.7468  1.2393 -1.0886
 2774SOL     OW19954   2.108   3.649  13.414 -0.4246 -0.0631  0.0061
 2774SOL    HW119955   2.169   3.694  13.356 -1.9177  0.8106 -0.8923
 2774SOL    HW219956   2.163   3.615  13.484 -0.3529 -1.2480 -0.6191
 2775SOL     OW19957   3.479   1.662   0.981  0.1595 -0.0566  0.6363
 2775SOL    HW119958   3.401   1.714   1.001 -1.6751 -1.2809 -3.2090
 2775SOL    HW219959   3.549   1.727   0.985 -0.5135  0.6889  0.2042
 2776SOL     OW19960   2.673   1.439   4.360 -0.2092  0.2467  0.1762
 2776SOL    HW119961   2.683   1.450   4.266 -0.5793  2.0702  0.3474
 2776SOL    HW219962   2.763   1.432   4.393  0.1160  0.7923 -0.5954
 2777SOL     OW19963   3.660   2.053  17.208  0.4498  0.2869  0.1043
 2777SOL    HW119964   3.605   2.122  17.245  1.0309  0.9178 -0.2046
 2777SOL    HW219965   3.615   2.038  17.124 -0.0934 -2.4529  0.8934
 2778SOL     OW19966   4.257   4.173  12.968 -0.2688 -0.0739  0.2451
 2778SOL    HW119967   4.208   4.189  13.049 -1.6124  0.2287 -0.6433
 2778SOL    HW219968   4.186   4.187  12.906 -1.5567 -0.0451  1.7296
 2779SOL     OW19969   2.983   0.826   3.487 -0.2174 -0.2167  0.1195
 2779SOL    HW119970   2.909   0.873   3.525  0.3499  1.0328 -0.3490
 2779SOL    HW219971   3.006   0.772   3.563  3.8061  2.1602  0.5736
 2780SOL     OW19972   0.950   1.258   2.390 -0.1412  0.1281 -0.0980
 2780SOL    HW119973   1.000   1.177   2.380 -1.9672 -1.0475  0.3439
 2780SOL    HW219974   0.926   1.276   2.299 -0.9028  0.0205  0.0770
 2781SOL     OW19975   4.271   3.790   1.976 -0.4433  0.8439  0.1973
 2781SOL    HW119976   4.297   3.800   1.884 -1.1436 -1.3541 -0.2325
 2781SOL    HW219977   4.176   3.787   1.973 -0.4683  0.6492  1.1588
 2782SOL     OW19978   2.010   4.595   9.962 -0.5015 -0.1790 -0.4099
 2782SOL    HW119979   2.098   4.599   9.998 -0.1003  0.6746 -1.5020
 2782SOL    HW219980   1.991   4.688   9.970 -2.4018 -0.5956  0.0260
 2783SOL     OW19981   3.397   4.415   8.222  0.3183 -0.7773  0.0711
 2783SOL    HW119982   3.326   4.383   8.277 -0.7179  1.1507 -0.1149
 2783SOL    HW219983   3.449   4.338   8.200 -0.3903 -1.2829  0.1857
 2784SOL     OW19984   3.488   1.041   0.340  0.1325  0.3993  0.1977
 2784SOL    HW119985   3.460   1.026   0.250 -0.6325  2.6192  0.0574
 2784SOL    HW219986   3.429   0.973   0.371  2.7581 -1.1266  1.7896
 2785SOL     OW19987   0.644   3.053   6.135 -0.4461  0.5660 -0.2899
 2785SOL    HW119988   0.730   3.042   6.176  0.2029 -3.0804 -2.7039
 2785SOL    HW219989   0.607   3.100   6.210 -1.4594  1.0279 -1.0881
 2786SOL     OW19990   3.239   2.841  16.530 -0.6794 -0.8699  0.3287
 2786SOL    HW119991   3.257   2.898  16.456  0.3485  1.8175  2.6470
 2786SOL    HW219992   3.230   2.910  16.596  2.7171  2.2407 -2.4249
 2787SOL     OW19993   1.959   1.105  16.074  0.1057 -0.1047 -0.5731
 2787SOL    HW119994   2.026   1.173  16.082 -0.9447  1.1633 -2.4878
 2787SOL    HW219995   1.883   1.151  16.110 -0.3867 -1.6270  0.3310
 2788SOL     OW19996   0.641   1.656  12.889  0.0245 -0.1512 -0.3683
 2788SOL    HW119997   0.549   1.644  12.867 -0.1162  0.3069 -0.0125
 2788SOL    HW219998   0.658   1.748  12.873  0.8660 -0.3439 -0.5992
 2789SOL     OW19999   0.212   3.714   2.381 -0.0724  0.2511  0.0065
 2789SOL    HW120000   0.292   3.668   2.408  0.0710  0.4059 -0.1608
 2789SOL    HW220001   0.149   3.651   2.347 -1.5068  2.5482 -1.5265
 2790SOL     OW20002   2.765   1.683   4.682  0.4383 -0.0064  1.0572
 2790SOL    HW120003   2.699   1.746   4.710  0.2281  0.6241 -0.8677
 2790SOL    HW220004   2.828   1.686   4.754  1.1499  2.2749  0.3293
 2791SOL     OW20005   4.056   3.427   7.340  0.4375  0.1272  0.5889
 2791SOL    HW120006   4.139   3.379   7.342 -0.4929 -1.4184  1.8318
 2791SOL    HW220007   4.018   3.411   7.426  0.1583 -2.1009  0.0403
 2792SOL     OW20008   2.027   3.135   6.816 -0.0886 -0.1931 -0.1640
 2792SOL    HW120009   2.066   3.198   6.877 -0.3202  0.7274 -0.9681
 2792SOL    HW220010   1.990   3.065   6.870 -0.8795 -0.3928 -0.9554
 2793SOL     OW20011   1.452   4.167   4.269 -0.0716  0.0149  0.0848
 2793SOL    HW120012   1.500   4.181   4.351  0.1758  0.2168 -0.0976
 2793SOL    HW220013   1.363   4.168   4.304 -0.2836 -2.8877 -0.4249
 2794SOL     OW20014   3.237   3.546   6.323 -0.2334 -0.8328  0.1345
 2794SOL    HW120015   3.268   3.459   6.347  0.8087 -0.4652  0.1280
 2794SOL    HW220016   3.304   3.600   6.365  0.1285 -0.6120 -0.7118
 2795SOL     OW20017   0.905   1.487   9.921 -0.3289 -0.2827 -0.4113
 2795SOL    HW120018   0.994   1.455   9.936 -0.7188 -0.8887  0.5782
 2795SOL    HW220019   0.853   1.443   9.988 -1.4898  1.5788 -0.1123
 2796SOL     OW20020   4.735   1.873   9.350 -0.6529 -0.5712 -0.1906
 2796SOL    HW120021   0.030   1.958   9.380 -0.3081 -0.8342  0.1560
 2796SOL    HW220022   4.677   1.842   9.419  0.9664 -1.9000  0.5921
 2797SOL     OW20023   3.290   4.371  16.976  0.2920 -0.4564 -0.2275
 2797SOL    HW120024   3.266   4.290  16.931 -1.4830 -0.3727  0.5741
 2797SOL    HW220025   3.362   4.339  17.030 -0.7885  0.1835  1.5940
 2798SOL     OW20026   2.663   0.909   6.484  0.3540 -0.4492 -0.6267
 2798SOL    HW120027   2.600   0.897   6.555  0.1228 -0.5271 -0.8442
 2798SOL    HW220028   2.745   0.901   6.533 -0.3763  1.0516  0.8271
 2799SOL     OW20029   0.154   0.748   5.428  0.0976 -0.1514  0.3404
 2799SOL    HW120030   0.067   0.782   5.404 -1.0003 -1.9647  1.8277
 2799SOL    HW220031   0.209   0.811   5.381 -0.8230 -0.2386 -0.8561
 2800SOL     OW20032   4.551   2.567   2.230 -0.7473 -0.1787  0.2513
 2800SOL    HW120033   4.567   2.619   2.309 -0.6433 -0.2350  0.2663
 2800SOL    HW220034   4.642   2.552   2.205 -0.8082 -2.0882  1.2014
 2801SOL     OW20035   4.362   1.953   3.746  0.4521 -0.3546 -0.2599
 2801SOL    HW120036   4.400   2.040   3.758 -0.2611 -0.1366  0.4052
 2801SOL    HW220037   4.419   1.927   3.673  0.6087  0.6744 -0.5177
 2802SOL     OW20038   2.956   3.686   1.503 -0.0136  0.0304  0.3858
 2802SOL    HW120039   3.010   3.741   1.561  1.3679  0.7967 -1.6419
 2802SOL    HW220040   3.029   3.647   1.456 -0.9518  1.3570 -2.1751
 2803SOL     OW20041   3.024   0.595   4.806  0.2421 -1.0751 -0.1249
 2803SOL    HW120042   3.041   0.513   4.760 -1.1278 -2.4142  1.7712
 2803SOL    HW220043   3.069   0.568   4.886  0.0815  1.7377  0.9339
 2804SOL     OW20044   0.299   0.244  17.060  0.0270  0.2137 -0.2442
 2804SOL    HW120045   0.253   0.162  17.044 -0.4311  0.7757 -1.7692
 2804SOL    HW220046   0.230   0.290  17.108  0.4516  0.0461  0.5294
 2805SOL     OW20047   4.379   0.916   5.270  0.0030  0.1134 -0.2338
 2805SOL    HW120048   4.311   0.884   5.212  0.0825  0.3329 -0.4495
 2805SOL    HW220049   4.326   0.989   5.301  0.0557  0.0529 -0.0003
 2806SOL     OW20050   2.756   4.669   8.555  0.6845 -0.0769 -0.0686
 2806SOL    HW120051   2.823   4.718   8.507  1.8156 -1.8857 -0.3316
 2806SOL    HW220052   2.673   4.696   8.515  1.1261  4.1308  1.8265
 2807SOL     OW20053   4.487   2.453   8.771 -0.2418 -0.0437  0.3275
 2807SOL    HW120054   4.503   2.529   8.827  1.9428 -0.2972  0.0541
 2807SOL    HW220055   4.405   2.489   8.736 -0.1251 -0.3303 -0.2503
 2808SOL     OW20056   0.498   0.533   3.360  0.2982  0.1144  0.8368
 2808SOL    HW120057   0.490   0.599   3.291 -0.0189 -1.7471 -0.8924
 2808SOL    HW220058   0.591   0.547   3.375  0.5541 -0.3993 -0.3510
 2809SOL     OW20059   1.149   3.747  15.911  0.6079 -0.0877  0.2060
 2809SOL    HW120060   1.193   3.778  15.989 -0.3269  0.2548  0.5975
 2809SOL    HW220061   1.135   3.830  15.865 -2.6307 -0.5104  0.4208
 2810SOL     OW20062   3.503   0.960  12.243 -0.3663  0.4993  0.0219
 2810SOL    HW120063   3.554   1.020  12.189  0.0426  0.2348  0.1121
 2810SOL    HW220064   3.577   0.907  12.275  0.6715  0.6038 -2.2210
 2811SOL     OW20065   0.523   0.325  12.101  0.0919  0.1384  0.0851
 2811SOL    HW120066   0.484   0.267  12.167 -0.4896  0.7746  0.2932
 2811SOL    HW220067   0.559   0.257  12.044  0.5416 -1.3114  2.0934
 2812SOL     OW20068   1.792   1.648   1.513 -0.1555 -0.2593  0.2448
 2812SOL    HW120069   1.876   1.690   1.533  0.8576 -2.3745  0.3742
 2812SOL    HW220070   1.751   1.666   1.598  2.3544  0.4571  1.3014
 2813SOL     OW20071   3.894   2.501   6.020  0.0632 -0.0444 -0.1998
 2813SOL    HW120072   3.956   2.530   6.087 -0.5740  0.5512  0.1303
 2813SOL    HW220073   3.867   2.421   6.065 -1.6911  0.2759 -0.6865
 2814SOL     OW20074   1.672   1.637   5.898  0.0629 -0.4570 -0.5773
 2814SOL    HW120075   1.644   1.581   5.970  2.0121 -1.4953 -0.6034
 2814SOL    HW220076   1.767   1.627   5.902  0.2272  2.1402  2.1051
 2815SOL     OW20077   3.471   0.157   7.375  0.1574 -0.0808 -0.0638
 2815SOL    HW120078   3.505   0.090   7.434  1.7155  0.4318 -0.3875
 2815SOL    HW220079   3.388   0.163   7.422  0.4941  2.3355  0.2667
 2816SOL     OW20080   2.351   4.605  10.980  0.3618  0.3144 -0.6734
 2816SOL    HW120081   2.414   4.622  11.050 -0.0207  1.5615 -0.6326
 2816SOL    HW220082   2.326   4.695  10.958  0.1377  1.0197  2.4427
 2817SOL     OW20083   2.410   4.571   6.732 -0.3081  0.4573 -0.3443
 2817SOL    HW120084   2.366   4.653   6.757 -0.4617  0.4790 -0.6841
 2817SOL    HW220085   2.491   4.599   6.774 -1.0923  2.7137 -0.3237
 2818SOL     OW20086   4.163   0.975   7.726 -0.2787  0.0194  0.3088
 2818SOL    HW120087   4.123   1.061   7.736 -0.4074 -0.1612  1.3309
 2818SOL    HW220088   4.158   0.962   7.631  0.3420  2.6322 -0.0871
 2819SOL     OW20089   4.190   3.430   8.854 -0.1919 -0.4091  0.0259
 2819SOL    HW120090   4.190   3.431   8.950 -2.7668 -0.4153  0.0379
 2819SOL    HW220091   4.169   3.338   8.837 -2.4513 -0.0416  0.8228
 2820SOL     OW20092   1.657   2.724   1.435  0.0726  0.0741 -0.5128
 2820SOL    HW120093   1.591   2.792   1.443  2.2118  2.2184 -1.3205
 2820SOL    HW220094   1.604   2.647   1.457 -0.0318  0.9490  2.2432
 2821SOL     OW20095   2.441   4.234   3.887  0.6352  0.1597 -0.4859
 2821SOL    HW120096   2.407   4.323   3.880 -2.0707 -0.8743 -0.6327
 2821SOL    HW220097   2.378   4.199   3.950  1.8168  0.8132  1.0805
 2822SOL     OW20098   1.451   2.043   8.752  0.4552  0.1780 -0.0583
 2822SOL    HW120099   1.505   1.991   8.811 -1.6247 -2.7297 -0.6892
 2822SOL    HW220100   1.503   2.123   8.748  0.9451 -0.0899  1.3145
 2823SOL     OW20101   0.501   4.580   4.800 -0.0365 -0.5872  0.9407
 2823SOL    HW120102   0.470   4.559   4.712 -1.4055 -0.7361  1.4719
 2823SOL    HW220103   0.425   4.627   4.833 -0.0303 -0.2221  0.4360
 2824SOL     OW20104   4.285   3.066   5.519 -0.3414 -0.4250 -0.8786
 2824SOL    HW120105   4.210   3.038   5.467  0.5736 -3.1158 -0.7590
 2824SOL    HW220106   4.320   2.979   5.538 -1.9636 -0.8158  0.3250
 2825SOL     OW20107   0.804   1.205   5.777 -0.3652 -0.2229 -0.3879
 2825SOL    HW120108   0.744   1.265   5.732  1.3016  2.0124  0.3491
 2825SOL    HW220109   0.816   1.138   5.710  0.9706 -0.8429  0.4805
 2826SOL     OW20110   2.062   4.133   4.744 -0.0063  0.1905  0.0617
 2826SOL    HW120111   2.032   4.113   4.655  1.1480 -0.7185 -0.1176
 2826SOL    HW220112   1.985   4.175   4.782  0.5674  2.1878 -1.0324
 2827SOL     OW20113   3.376   3.517  14.976 -0.1449 -0.2918 -0.2106
 2827SOL    HW120114   3.457   3.467  14.960 -0.4334 -0.3043 -1.6198
 2827SOL    HW220115   3.349   3.532  14.886  1.8531  1.4643 -0.5385
 2828SOL     OW20116   0.262   0.410   0.048 -0.3543 -0.2014 -0.3995
 2828SOL    HW120117   0.333   0.465   0.081 -0.7169  0.9681 -1.5755
 2828SOL    HW220118   0.314   0.333   0.026  0.6834 -0.1131  1.7253
 2829SOL     OW20119   4.135   0.268   2.922 -0.3428  0.2175  0.5220
 2829SOL    HW120120   4.178   0.238   2.842 -0.1990  0.6385  0.4434
 2829SOL    HW220121   4.198   0.331   2.957 -0.4226  0.1200  0.8456
 2830SOL     OW20122   2.324   0.533   9.773 -0.6832  0.6800  0.1044
 2830SOL    HW120123   2.375   0.600   9.818 -1.4131  0.3082  1.4658
 2830SOL    HW220124   2.282   0.581   9.701 -1.3254  1.6875  1.1539
 2831SOL     OW20125   1.297   1.170  16.312  0.3287  0.2366 -0.2575
 2831SOL    HW120126   1.305   1.135  16.223  1.0370  2.2379 -0.9679
 2831SOL    HW220127   1.388   1.197  16.326 -0.0283  0.7663  1.0517
 2832SOL     OW20128   2.148   3.511  10.857  0.5451  0.0414 -0.0315
 2832SOL    HW120129   2.134   3.602  10.883  1.0976  0.4935 -1.3004
 2832SOL    HW220130   2.241   3.490  10.849  0.4923 -0.3514  0.4643
 2833SOL     OW20131   4.095   2.920   9.276 -0.2645  0.0108 -0.0631
 2833SOL    HW120132   4.131   2.951   9.359  2.2270 -0.6162 -0.9234
 2833SOL    HW220133   4.009   2.955   9.300 -0.6441 -1.3057  0.5152
 2834SOL     OW20134   2.667   3.196  10.903  0.1317 -0.9141 -0.2540
 2834SOL    HW120135   2.657   3.274  10.958  0.3110 -1.3153  0.3513
 2834SOL    HW220136   2.755   3.166  10.925  0.4531 -1.2308 -2.0365
 2835SOL     OW20137   2.510   2.672   3.013  0.1563  0.4597 -0.3007
 2835SOL    HW120138   2.541   2.583   3.027 -1.6257 -0.1385 -0.0768
 2835SOL    HW220139   2.574   2.724   3.061 -0.5392 -1.0093  2.1973
 2836SOL     OW20140   2.644   0.310   7.087 -0.0486  0.8747  0.0477
 2836SOL    HW120141   2.594   0.390   7.078  0.1842  0.7460 -2.2954
 2836SOL    HW220142   2.735   0.337   7.073  1.0867 -1.8312  2.1876
 2837SOL     OW20143   0.878   0.300   9.117  0.3124  0.5566  0.0385
 2837SOL    HW120144   0.819   0.290   9.043 -0.1616 -0.8960  0.5975
 2837SOL    HW220145   0.905   0.392   9.115  3.7587 -0.4303  1.8722
 2838SOL     OW20146   3.494   2.242  14.233 -0.4934  0.1739 -0.5610
 2838SOL    HW120147   3.566   2.291  14.272 -1.4436 -0.2031  1.6427
 2838SOL    HW220148   3.455   2.308  14.175  2.1273  1.6102 -0.6784
 2839SOL     OW20149   1.297   0.557   0.543  0.7442  0.5391 -0.3084
 2839SOL    HW120150   1.221   0.611   0.522 -0.8398 -0.1823  3.4330
 2839SOL    HW220151   1.306   0.485   0.480  0.9785  1.3177 -1.1475
 2840SOL     OW20152   2.825   3.039   6.081 -0.2210 -0.5251 -0.1140
 2840SOL    HW120153   2.876   2.979   6.028  1.4682 -1.1008  2.1604
 2840SOL    HW220154   2.857   3.126   6.055 -0.7872 -1.3922 -3.6834
 2841SOL     OW20155   3.047   1.566   5.409 -0.4202 -0.0053 -0.3200
 2841SOL    HW120156   3.065   1.654   5.375 -1.0562  0.2502  0.0086
 2841SOL    HW220157   3.140   1.541   5.403 -0.6467 -0.9283  0.0096
 2842SOL     OW20158   4.585   1.459  11.092  0.2136 -0.2185  0.2762
 2842SOL    HW120159   4.545   1.486  11.175  0.3870  1.0895 -0.0628
 2842SOL    HW220160   4.558   1.528  11.031 -0.7025  0.1706  1.1242
 2843SOL     OW20161   1.965   4.018  12.553 -0.5084  0.6792 -0.1445
 2843SOL    HW120162   1.922   4.044  12.635 -2.1270 -2.1850 -0.0825
 2843SOL    HW220163   1.993   4.101  12.513  0.2888 -0.7603 -2.5684
 2844SOL     OW20164   3.711   3.677   6.625 -0.3663 -0.0870 -0.6596
 2844SOL    HW120165   3.691   3.703   6.715 -1.5318  0.5572 -1.1041
 2844SOL    HW220166   3.801   3.650   6.640 -0.0865  1.9405  1.2377
 2845SOL     OW20167   4.272   3.146   8.846 -0.1412  0.3721 -0.4052
 2845SOL    HW120168   4.364   3.158   8.873 -0.3543  1.0645  0.0278
 2845SOL    HW220169   4.264   3.051   8.849  0.5754  0.3593  1.2457
 2846SOL     OW20170   2.728   3.589   2.590  0.1212  0.1965 -0.6192
 2846SOL    HW120171   2.669   3.522   2.625  1.8176 -0.8198  0.3005
 2846SOL    HW220172   2.792   3.598   2.661 -0.2662  1.6182 -0.4679
 2847SOL     OW20173   2.195   2.034   1.413  0.0048  0.2241 -0.1724
 2847SOL    HW120174   2.231   1.951   1.380  0.2898  0.5311 -0.6360
 2847SOL    HW220175   2.107   2.000   1.431  0.0945  1.1922  2.0154
 2848SOL     OW20176   3.766   3.303   2.881 -0.3042 -0.3842 -0.2333
 2848SOL    HW120177   3.830   3.252   2.830  0.9230 -0.3001  1.2437
 2848SOL    HW220178   3.716   3.358   2.820  0.3962  0.5682  0.0536
 2849SOL     OW20179   2.795   4.416  14.108  0.6848 -0.3989  0.2298
 2849SOL    HW120180   2.890   4.423  14.098  0.3342  1.6098 -1.6415
 2849SOL    HW220181   2.783   4.335  14.058  1.1242 -0.0779 -0.3969
 2850SOL     OW20182   1.862   2.412   8.019  0.2072  0.7056  0.8870
 2850SOL    HW120183   1.843   2.407   8.112  1.1256  1.7184  1.1238
 2850SOL    HW220184   1.956   2.411   8.032  0.0267  0.5919  2.1859
 2851SOL     OW20185   2.295   2.716   2.872 -0.2710 -0.2114 -0.3726
 2851SOL    HW120186   2.264   2.626   2.871 -2.1799  0.4305 -0.6241
 2851SOL    HW220187   2.362   2.722   2.939  0.3216 -0.0185 -0.9770
 2852SOL     OW20188   3.024   0.061   8.462 -0.4621  0.0626  0.4612
 2852SOL    HW120189   2.981   0.143   8.436  1.7082  1.7043  2.0664
 2852SOL    HW220190   3.103   0.094   8.505  0.4564  0.1283 -1.2763
 2853SOL     OW20191   3.875   1.254  17.144 -0.1313 -0.0032 -0.0026
 2853SOL    HW120192   3.845   1.178  17.094  2.2981 -1.4597  0.7580
 2853SOL    HW220193   3.962   1.222  17.169 -0.4630 -0.6727  0.2996
 2854SOL     OW20194   2.482   3.916  15.727 -0.5906  0.0723  0.1369
 2854SOL    HW120195   2.559   3.948  15.774 -1.0978  0.6440  0.5830
 2854SOL    HW220196   2.451   3.850  15.789 -2.3144  0.6324 -0.1224
 2855SOL     OW20197   0.943   2.775  11.542 -0.6766  0.3040 -0.0070
 2855SOL    HW120198   0.898   2.750  11.622 -2.0434 -1.1292 -1.2141
 2855SOL    HW220199   0.948   2.692  11.494 -0.3719  0.0717  0.4290
 2856SOL     OW20200   1.056   0.766   1.773 -0.6788 -0.7187 -0.1574
 2856SOL    HW120201   1.015   0.837   1.822  0.2676 -0.5423  0.3836
 2856SOL    HW220202   0.982   0.707   1.761 -2.1971  1.0902  0.4670
 2857SOL     OW20203   3.951   0.164   2.407  0.2748  0.1341 -0.0966
 2857SOL    HW120204   3.999   0.203   2.334  0.4969 -1.5599 -0.8540
 2857SOL    HW220205   4.013   0.111   2.456  0.5543  1.6218  1.1692
 2858SOL     OW20206   4.520   1.946   6.135 -0.3284  0.0135 -0.4253
 2858SOL    HW120207   4.576   2.001   6.189  0.5325 -1.1130 -0.1694
 2858SOL    HW220208   4.541   1.866   6.183 -2.4338 -0.6045 -0.5208
 2859SOL     OW20209   0.884   0.108   2.334 -0.0075 -0.5314  0.1441
 2859SOL    HW120210   0.851   0.138   2.419  1.6858  1.5112  0.0607
 2859SOL    HW220211   0.969   0.150   2.323 -0.2734  0.1800  0.7753
 2860SOL     OW20212   0.872   0.710   4.269  0.5946 -0.5435  0.4626
 2860SOL    HW120213   0.813   0.686   4.340  0.2266  2.7479  1.2435
 2860SOL    HW220214   0.805   0.728   4.203  0.1777  1.1636  1.3574
 2861SOL     OW20215   0.127   1.399   7.957  0.0686  0.1884  0.1778
 2861SOL    HW120216   0.101   1.437   7.873  1.7522 -0.4685 -0.6376
 2861SOL    HW220217   0.042   1.416   7.998  1.1342  0.2096  2.3562
 2862SOL     OW20218   3.663   3.984   2.445  0.4980  0.2449  0.0748
 2862SOL    HW120219   3.754   4.004   2.467  0.4722 -0.0206  0.4194
 2862SOL    HW220220   3.667   3.891   2.425  0.7604  0.3917 -0.5638
 2863SOL     OW20221   4.022   3.691   6.740  0.3534 -0.6713  0.1876
 2863SOL    HW120222   4.024   3.705   6.835  0.2231 -1.6640  0.3351
 2863SOL    HW220223   4.103   3.642   6.723  1.5002  1.1246  0.4489
 2864SOL     OW20224   2.747   2.483  15.433  0.1547  0.6508  0.4030
 2864SOL    HW120225   2.744   2.399  15.388 -0.8376  0.4786  0.7876
 2864SOL    HW220226   2.660   2.495  15.472  0.0971  2.0651 -0.1380
 2865SOL     OW20227   3.024   0.811   2.523  0.0450  0.2764  0.5337
 2865SOL    HW120228   3.064   0.725   2.537 -0.1917  0.5789  3.0769
 2865SOL    HW220229   2.937   0.790   2.555 -0.7227  1.6971 -0.6310
 2866SOL     OW20230   0.040   1.357  16.541 -0.3823  0.2623 -0.0443
 2866SOL    HW120231   4.699   1.380  16.494 -0.0017 -1.5356 -1.6019
 2866SOL    HW220232   0.061   1.270  16.505  0.5253  0.0299  1.0327
 2867SOL     OW20233   1.559   3.196   8.685 -0.2846 -0.4749  0.0884
 2867SOL    HW120234   1.596   3.276   8.649  1.8598 -0.5070  2.2027
 2867SOL    HW220235   1.504   3.231   8.755  1.5942 -0.9047  1.7983
 2868SOL     OW20236   2.661   4.546   6.421 -0.3408 -0.1127 -0.0925
 2868SOL    HW120237   2.656   4.472   6.481 -1.0673  0.9296  1.1453
 2868SOL    HW220238   2.573   4.551   6.384 -1.1949 -0.1620  1.9423
 2869SOL     OW20239   2.134   4.238  12.090  0.2145 -0.5506 -0.1998
 2869SOL    HW120240   2.042   4.259  12.077  0.5971  0.3678 -1.4237
 2869SOL    HW220241   2.170   4.301  12.152  0.3035  0.6334 -1.4562
 2870SOL     OW20242   0.056   1.329   6.118 -0.0248  0.4704  0.0474
 2870SOL    HW120243   0.084   1.405   6.067  2.6438 -0.4148  0.1755
 2870SOL    HW220244   0.089   1.258   6.062 -0.9441  0.1455 -0.0844
 2871SOL     OW20245   1.112   0.416   3.710 -0.5752  0.3873  0.1890
 2871SOL    HW120246   1.103   0.422   3.805 -0.4357  0.3627  0.2036
 2871SOL    HW220247   1.045   0.474   3.673 -3.1506 -2.7853 -0.1580
 2872SOL     OW20248   2.837   2.235   6.402 -0.1813 -0.2026  0.2025
 2872SOL    HW120249   2.856   2.276   6.486 -2.3548  0.1888  0.4993
 2872SOL    HW220250   2.788   2.307   6.362 -0.3624 -0.5531 -0.2107
 2873SOL     OW20251   1.256   3.560   4.538 -0.3542  0.0014 -0.1608
 2873SOL    HW120252   1.221   3.535   4.623 -0.6975 -1.0109 -0.5969
 2873SOL    HW220253   1.173   3.575   4.492 -0.4057  0.6042  0.1195
 2874SOL     OW20254   3.473   0.765  14.997  0.5191  0.0286  0.1684
 2874SOL    HW120255   3.463   0.826  14.924 -1.6230 -2.6916 -1.8068
 2874SOL    HW220256   3.444   0.685  14.953 -0.3767  0.8248 -0.6971
 2875SOL     OW20257   1.636   2.811   7.886  0.5294 -0.2124 -0.2854
 2875SOL    HW120258   1.576   2.749   7.845 -0.5713  0.6058  0.0887
 2875SOL    HW220259   1.713   2.755   7.900  1.4980  0.9628 -0.8647
 2876SOL     OW20260   4.367   3.170  16.539  0.1412  0.5001 -0.2765
 2876SOL    HW120261   4.383   3.166  16.445  0.1834  0.9507 -0.2893
 2876SOL    HW220262   4.403   3.255  16.563 -1.7293  0.9562  0.9757
 2877SOL     OW20263   2.611   1.664   8.672  0.3490  0.4317  0.5329
 2877SOL    HW120264   2.589   1.723   8.599  0.0420 -0.1049  0.1948
 2877SOL    HW220265   2.524   1.626   8.687  0.5179 -0.3764 -0.5714
 2878SOL     OW20266   3.621   3.598  12.694 -0.2453  0.4189  0.2556
 2878SOL    HW120267   3.575   3.520  12.661 -0.1969 -0.1179  1.4834
 2878SOL    HW220268   3.565   3.673  12.674 -0.1977  0.4757  0.3366
 2879SOL     OW20269   3.759   2.956   7.519 -0.4215 -0.1328 -0.2676
 2879SOL    HW120270   3.835   2.899   7.531 -0.5285  0.0943  1.5324
 2879SOL    HW220271   3.726   2.977   7.607  2.6716 -0.3240  0.9151
 2880SOL     OW20272   1.806   1.413   6.413  0.0373 -0.2945  0.0553
 2880SOL    HW120273   1.817   1.344   6.346  3.1524 -0.3746  0.6509
 2880SOL    HW220274   1.852   1.486   6.372 -0.3161 -0.9238 -1.4780
 2881SOL     OW20275   1.485   3.574   2.428  0.6096 -0.0891  0.2452
 2881SOL    HW120276   1.496   3.556   2.334  0.3534 -1.2498  0.4368
 2881SOL    HW220277   1.522   3.663   2.426 -0.7974  0.5100  1.0087
 2882SOL     OW20278   4.626   3.363  12.418  0.5737 -0.3470  0.1904
 2882SOL    HW120279   4.657   3.299  12.481 -0.6214  1.5243  2.6585
 2882SOL    HW220280   4.562   3.313  12.367  1.7946 -0.0815 -1.6069
 2883SOL     OW20281   1.374   4.387   4.082  0.5816 -0.2611  0.4566
 2883SOL    HW120282   1.279   4.392   4.079  0.5606 -0.4796  0.7149
 2883SOL    HW220283   1.379   4.312   4.142  0.1137 -1.8472 -1.4813
 2884SOL     OW20284   0.545   1.362   7.653 -0.3041  0.4007 -0.8633
 2884SOL    HW120285   0.479   1.300   7.685  1.7457  0.0751  2.7184
 2884SOL    HW220286   0.598   1.325   7.583 -1.3670  0.7079 -1.8307
 2885SOL     OW20287   0.809   0.705   8.154  0.5636 -0.1502  0.3521
 2885SOL    HW120288   0.855   0.736   8.076 -0.0563 -0.8442 -0.2910
 2885SOL    HW220289   0.836   0.777   8.211 -2.3370  1.1784  0.0501
 2886SOL     OW20290   0.065   3.085   8.503 -0.1527 -0.6049  0.2580
 2886SOL    HW120291   4.722   3.060   8.460 -0.6092  1.9138 -0.3508
 2886SOL    HW220292   0.108   3.114   8.422 -0.0023  1.0876  0.9328
 2887SOL     OW20293   4.574   0.492   2.818 -0.1491  0.0687 -0.1790
 2887SOL    HW120294   4.617   0.534   2.743 -0.4558  1.8881  0.6522
 2887SOL    HW220295   4.637   0.420   2.816 -2.9480 -2.3410 -1.5118
 2888SOL     OW20296   2.540   0.572   1.658 -0.1706  0.1338  0.1127
 2888SOL    HW120297   2.586   0.568   1.574 -1.9328  2.0994 -0.9326
 2888SOL    HW220298   2.600   0.525   1.715  0.2432 -1.6801 -1.7905
 2889SOL     OW20299   1.640   4.167   4.962  0.3645  0.0563 -0.0419
 2889SOL    HW120300   1.629   4.074   4.980 -0.4672 -0.0312 -0.9874
 2889SOL    HW220301   1.679   4.189   5.047  0.3213 -1.2974  0.3266
 2890SOL     OW20302   0.301   4.041   6.611 -0.0118 -0.4870  0.6758
 2890SOL    HW120303   0.297   3.979   6.683  0.6568  0.5810  1.6342
 2890SOL    HW220304   0.392   4.065   6.627 -0.6298  0.7062  2.3790
 2891SOL     OW20305   2.113   1.535  15.932 -0.0942  0.4734  0.4193
 2891SOL    HW120306   2.019   1.517  15.923 -0.1223  1.0781 -0.5112
 2891SOL    HW220307   2.105   1.621  15.973  0.3378  0.6820  0.0659
 2892SOL     OW20308   2.486   4.120   7.143 -0.0376  0.2153 -0.1602
 2892SOL    HW120309   2.402   4.078   7.126 -0.7372  2.1623 -1.4576
 2892SOL    HW220310   2.461   4.174   7.218  2.5718 -1.4081  1.8828
 2893SOL     OW20311   0.625   0.515   8.900 -0.0018 -0.2285 -0.0668
 2893SOL    HW120312   0.562   0.551   8.962 -1.1468 -2.7261  0.2334
 2893SOL    HW220313   0.627   0.582   8.833 -0.8529  0.8908  1.0268
 2894SOL     OW20314   2.015   3.537   3.114 -0.1821 -0.5708  0.0465
 2894SOL    HW120315   2.094   3.553   3.166  2.1900 -2.3607 -2.9530
 2894SOL    HW220316   1.965   3.614   3.139 -0.0040  0.2598 -2.1480
 2895SOL     OW20317   0.792   3.418   5.673  0.6301 -0.1250 -0.3385
 2895SOL    HW120318   0.719   3.471   5.704  1.8273  1.8703 -0.8647
 2895SOL    HW220319   0.758   3.329   5.677 -1.2596  0.5085 -2.3195
 2896SOL     OW20320   1.579   3.113   3.918  0.4291 -0.4508 -0.4262
 2896SOL    HW120321   1.639   3.095   3.846  2.4000  0.4909  0.9872
 2896SOL    HW220322   1.496   3.101   3.872  0.9330 -2.0835 -0.9213
 2897SOL     OW20323   1.013   0.045   9.626  0.4619  0.1253  0.9873
 2897SOL    HW120324   0.934   0.009   9.665 -1.0772  0.2533 -2.0648
 2897SOL    HW220325   0.995   0.032   9.533 -1.1532  2.6354  0.9538
 2898SOL     OW20326   0.494   2.241   6.733 -0.0767  0.6553 -0.0792
 2898SOL    HW120327   0.410   2.235   6.778 -0.4163  0.8806 -0.6874
 2898SOL    HW220328   0.491   2.328   6.693  0.7185 -0.0104 -1.6178
 2899SOL     OW20329   2.896   3.120   2.512 -0.7071  0.3534 -0.0630
 2899SOL    HW120330   2.837   3.074   2.454  0.6691 -2.5214  0.8167
 2899SOL    HW220331   2.879   3.089   2.601  0.8965  0.9215  0.4473
 2900SOL     OW20332   1.046   0.761   5.525 -0.4913  0.0180  0.1465
 2900SOL    HW120333   0.994   0.698   5.476  0.5312 -1.6881  1.2559
 2900SOL    HW220334   0.976   0.793   5.582 -0.4354  0.6209 -0.1133
 2901SOL     OW20335   3.602   2.739   2.187 -0.3368 -0.0693 -0.3877
 2901SOL    HW120336   3.616   2.649   2.216  0.9072 -0.1114 -1.1031
 2901SOL    HW220337   3.541   2.778   2.250 -0.9818  0.4535 -1.3352
 2902SOL     OW20338   1.046   2.388   3.123  0.2702 -0.0240 -0.0786
 2902SOL    HW120339   0.997   2.429   3.052  0.9411  2.6089  0.9878
 2902SOL    HW220340   0.988   2.311   3.118 -0.4446  0.5483 -0.6103
 2903SOL     OW20341   4.563   3.880   9.009 -1.2305 -0.1544  0.0031
 2903SOL    HW120342   4.615   3.807   8.975 -0.0789  1.8574 -2.5779
 2903SOL    HW220343   4.611   3.900   9.090 -1.7024 -0.1831  0.2886
 2904SOL     OW20344   0.412   3.406   8.962 -0.5098 -0.2870  0.5992
 2904SOL    HW120345   0.427   3.324   8.915  2.8904  0.2059  0.8416
 2904SOL    HW220346   0.468   3.399   9.039 -1.2564 -2.0787  0.9839
 2905SOL     OW20347   0.973   2.148   4.176 -0.1569 -0.0677 -0.4261
 2905SOL    HW120348   0.887   2.129   4.213  0.3658 -1.4196  0.0520
 2905SOL    HW220349   0.953   2.128   4.084  1.7446  0.3030 -0.9276
 2906SOL     OW20350   2.845   1.247   3.474  0.5273  0.0163  0.2035
 2906SOL    HW120351   2.790   1.261   3.397 -0.1540  0.4636  0.7710
 2906SOL    HW220352   2.816   1.329   3.514  1.4225  1.5184 -2.2379
 2907SOL     OW20353   1.804   3.409   2.544  0.1825 -0.7678  0.1275
 2907SOL    HW120354   1.768   3.363   2.620  1.0436 -2.4371 -0.4954
 2907SOL    HW220355   1.752   3.366   2.476 -0.5004 -0.2210  0.2924
 2908SOL     OW20356   0.160   1.158   3.568  0.2560 -0.4961  0.1714
 2908SOL    HW120357   0.154   1.205   3.485 -1.0637 -1.8951 -0.5189
 2908SOL    HW220358   0.253   1.180   3.575 -0.2742  1.7928 -0.2581
 2909SOL     OW20359   1.746   4.062   4.156 -0.0199 -0.2162  0.1132
 2909SOL    HW120360   1.784   4.150   4.152 -0.4666 -0.0499 -0.6050
 2909SOL    HW220361   1.828   4.016   4.172 -0.0432 -0.5148 -0.6426
 2910SOL     OW20362   0.323   1.520   5.790  0.0378 -0.6695 -0.1914
 2910SOL    HW120363   0.367   1.559   5.865 -2.6708 -0.4491  1.2915
 2910SOL    HW220364   0.237   1.495   5.824 -0.0262 -0.5587 -0.2679
 2911SOL     OW20365   4.090   1.882   2.812  0.5473 -0.1034 -0.3103
 2911SOL    HW120366   4.135   1.799   2.800  2.2141  0.5692  1.2533
 2911SOL    HW220367   4.142   1.931   2.748 -0.5154  0.6481 -0.6031
 2912SOL     OW20368   1.579   0.703   6.745 -0.6828  0.2894  0.2659
 2912SOL    HW120369   1.536   0.738   6.666 -0.8720 -2.0770 -0.6728
 2912SOL    HW220370   1.612   0.618   6.716 -0.6536  0.0605  0.9849
 2913SOL     OW20371   3.596   3.640  13.278 -0.1188  0.4329 -1.0862
 2913SOL    HW120372   3.551   3.638  13.193 -0.4410  1.0506 -0.9321
 2913SOL    HW220373   3.690   3.643  13.259  0.1115  0.3498  0.0727
 2914SOL     OW20374   0.661   4.229   7.436  0.0435  0.5036  0.1184
 2914SOL    HW120375   0.602   4.274   7.495 -1.1574 -3.4530  1.9309
 2914SOL    HW220376   0.738   4.285   7.428 -0.5846  1.0812 -1.8306
 2915SOL     OW20377   4.327   2.370  16.413 -0.0715 -0.2102  0.2615
 2915SOL    HW120378   4.373   2.380  16.330  0.5741 -0.5059  0.5827
 2915SOL    HW220379   4.321   2.463  16.436 -1.7912 -0.2642  0.0455
 2916SOL     OW20380   3.786   3.904   3.982  0.0106  0.1637 -0.3186
 2916SOL    HW120381   3.806   3.850   3.905 -3.0567  0.2020 -1.1307
 2916SOL    HW220382   3.790   3.993   3.948 -1.6410  0.3486  0.0091
 2917SOL     OW20383   3.004   4.500   7.493 -0.2807  0.0757 -0.0192
 2917SOL    HW120384   2.986   4.441   7.566  1.1615 -2.2977 -1.6032
 2917SOL    HW220385   2.928   4.491   7.435 -0.4125 -0.5924  0.2665
 2918SOL     OW20386   4.662   2.242   7.747  0.7911  0.4573  0.0568
 2918SOL    HW120387   4.621   2.280   7.825 -2.8690  0.4421 -1.8327
 2918SOL    HW220388   4.679   2.321   7.694  0.7547  0.8521  0.6354
 2919SOL     OW20389   0.915   0.179   7.987 -0.2000  0.1305 -0.5120
 2919SOL    HW120390   0.846   0.243   7.998 -0.2012 -0.0741  0.6805
 2919SOL    HW220391   0.919   0.132   8.070  0.3094  1.2900  0.1101
 2920SOL     OW20392   0.632   0.509   2.949 -0.8793  0.0901  0.4557
 2920SOL    HW120393   0.674   0.473   2.872 -0.6776  1.6025 -0.1417
 2920SOL    HW220394   0.677   0.468   3.023  0.1435  0.4173  0.0057
 2921SOL     OW20395   0.580   0.743   1.857 -0.1547  0.3023 -0.1379
 2921SOL    HW120396   0.491   0.712   1.846 -0.0132 -0.1532 -0.0138
 2921SOL    HW220397   0.608   0.678   1.922 -0.8242 -0.3594 -0.5111
 2922SOL     OW20398   3.504   1.947  13.464  0.1962  0.1655 -0.0563
 2922SOL    HW120399   3.449   1.917  13.536  0.7223  0.3572  0.4282
 2922SOL    HW220400   3.510   1.864  13.417 -0.7641 -1.1140  2.0775
 2923SOL     OW20401   1.916   1.980   1.446 -0.0611  0.8392  0.1722
 2923SOL    HW120402   1.858   1.978   1.522  1.3655 -0.8286  1.2187
 2923SOL    HW220403   1.870   1.925   1.383  0.5029 -0.0507  0.5314
 2924SOL     OW20404   0.047   1.161   2.965 -0.1636 -0.3477 -0.0893
 2924SOL    HW120405   0.073   1.253   2.957 -0.5632 -0.0144  2.3393
 2924SOL    HW220406   4.731   1.157   2.887  1.0361 -0.8853 -0.8955
 2925SOL     OW20407   4.213   4.140   3.552 -0.6854  0.2788 -0.3206
 2925SOL    HW120408   4.210   4.192   3.633  1.2352  0.6392 -0.4864
 2925SOL    HW220409   4.226   4.213   3.492  1.4266  0.7074  0.6876
 2926SOL     OW20410   0.071   0.364   2.846 -0.0887 -0.2733  0.2717
 2926SOL    HW120411   0.047   0.275   2.873  0.8826 -0.1082  1.6967
 2926SOL    HW220412   0.164   0.361   2.824  0.6242  1.2594  3.0139
 2927SOL     OW20413   3.616   0.349   3.269  0.9648 -0.2067 -0.1664
 2927SOL    HW120414   3.614   0.281   3.336 -0.9922 -0.3699 -0.3896
 2927SOL    HW220415   3.645   0.419   3.328 -0.1657  1.9673 -2.1942
 2928SOL     OW20416   4.503   2.338  16.935 -0.2517  0.0209 -0.3212
 2928SOL    HW120417   4.429   2.399  16.933  0.0015  0.3273 -0.3627
 2928SOL    HW220418   4.575   2.396  16.910 -1.3298  0.4987 -2.3136
 2929SOL     OW20419   0.053   3.956   3.690  0.5349  0.4180  0.1236
 2929SOL    HW120420   0.142   3.945   3.657  0.7691 -1.3234  1.3557
 2929SOL    HW220421   0.064   4.014   3.765  1.8832  1.1901 -0.6711
 2930SOL     OW20422   2.610   1.841   2.773  0.1895  0.3377  1.1281
 2930SOL    HW120423   2.700   1.870   2.757 -0.0132 -0.1075 -0.8230
 2930SOL    HW220424   2.560   1.864   2.694  1.5056 -0.7551 -0.0266
 2931SOL     OW20425   0.011   1.795  12.837 -0.5172  0.0533  0.0179
 2931SOL    HW120426   0.082   1.843  12.880  0.8758 -0.2650 -1.9432
 2931SOL    HW220427   4.678   1.837  12.885  0.3432  0.6739  0.7712
 2932SOL     OW20428   3.799   2.118  15.657  0.0141  0.6581 -0.2678
 2932SOL    HW120429   3.794   2.211  15.635 -0.4130  0.5310 -0.7033
 2932SOL    HW220430   3.894   2.105  15.664  0.0731  0.5762 -1.3004
 2933SOL     OW20431   4.052   3.955  16.897 -0.0121  0.3594  0.1670
 2933SOL    HW120432   4.063   3.991  16.985 -0.4909  2.2975 -0.5688
 2933SOL    HW220433   3.960   3.980  16.887  0.4405  2.1126  0.5229
 2934SOL     OW20434   4.214   2.484   4.686  0.2615  0.4418 -0.1239
 2934SOL    HW120435   4.182   2.512   4.772 -1.1707  1.5401 -1.0123
 2934SOL    HW220436   4.254   2.401   4.713  3.0828  1.8540  0.0972
 2935SOL     OW20437   4.394   0.355  15.708  0.7845  0.6945  0.1979
 2935SOL    HW120438   4.450   0.432  15.716 -0.6986  1.7668  0.2586
 2935SOL    HW220439   4.390   0.358  15.613  0.0324  0.1500  0.2151
 2936SOL     OW20440   3.475   0.396  15.179  0.3618  0.2048 -0.2050
 2936SOL    HW120441   3.386   0.428  15.164  0.1081  0.2707  1.4543
 2936SOL    HW220442   3.465   0.330  15.110 -0.9413  1.3530 -1.1053
 2937SOL     OW20443   1.200   4.091   9.192 -0.3591  0.5953 -0.6181
 2937SOL    HW120444   1.291   4.065   9.175 -0.4746 -1.4166  1.9076
 2937SOL    HW220445   1.169   4.055   9.109 -0.1390 -0.5588 -0.2028
 2938SOL     OW20446   1.175   4.281   4.341  0.1150 -0.5763 -0.5098
 2938SOL    HW120447   1.155   4.221   4.269  0.8165 -0.6579 -0.6357
 2938SOL    HW220448   1.086   4.316   4.351  0.0015 -0.4912 -1.8597
 2939SOL     OW20449   3.748   3.952   8.437  0.6212 -0.3037 -0.3712
 2939SOL    HW120450   3.710   3.881   8.385 -0.8108  0.4733 -0.3824
 2939SOL    HW220451   3.674   4.010   8.455  1.9371  1.7240 -1.4603
 2940SOL     OW20452   3.417   4.480  14.726  0.2678  0.0487  0.0540
 2940SOL    HW120453   3.347   4.537  14.695  1.6329  0.5308 -2.1420
 2940SOL    HW220454   3.390   4.403  14.676  1.2856  0.5816 -1.3231
 2941SOL     OW20455   3.183   4.213   8.849  0.6230 -0.7602 -0.0123
 2941SOL    HW120456   3.110   4.167   8.890  0.0010  0.1316 -0.1253
 2941SOL    HW220457   3.255   4.218   8.912  0.3997  1.1844  0.0657
 2942SOL     OW20458   0.496   1.995   3.464  0.2860 -0.8544  0.1102
 2942SOL    HW120459   0.482   1.910   3.507 -1.9462 -0.1242  0.8443
 2942SOL    HW220460   0.555   1.952   3.402  2.9946  1.5214  1.1077
 2943SOL     OW20461   1.193   3.628  12.563 -0.0612 -0.1833 -0.4478
 2943SOL    HW120462   1.206   3.676  12.481 -1.8059  0.9442 -0.0433
 2943SOL    HW220463   1.282   3.618  12.598 -0.6180 -0.8845  0.7463
 2944SOL     OW20464   1.290   0.590  11.759 -0.1027  0.4557 -0.0909
 2944SOL    HW120465   1.271   0.558  11.847  0.1221 -0.0435 -0.2239
 2944SOL    HW220466   1.226   0.662  11.750  1.1720  1.5370 -0.5150
 2945SOL     OW20467   1.736   2.803   5.575 -0.2603  0.4625  0.2642
 2945SOL    HW120468   1.743   2.819   5.669 -0.3960  0.1671  0.3244
 2945SOL    HW220469   1.813   2.849   5.543  0.7603 -0.4666  1.4089
 2946SOL     OW20470   0.781   4.387   6.435 -0.0329  0.7564 -0.0134
 2946SOL    HW120471   0.796   4.480   6.417  0.5904  0.9948  1.7359
 2946SOL    HW220472   0.710   4.391   6.499  0.3797 -2.4493  0.6366
 2947SOL     OW20473   2.415   2.674   8.551 -0.2217 -0.4025 -0.3841
 2947SOL    HW120474   2.373   2.760   8.563  0.0792 -0.3648  0.3903
 2947SOL    HW220475   2.404   2.637   8.639 -1.4894  1.4306  0.2243
 2948SOL     OW20476   1.154   3.371   7.049  0.0849  0.3753  0.1526
 2948SOL    HW120477   1.211   3.342   6.977 -1.4096 -1.6441 -0.2005
 2948SOL    HW220478   1.153   3.293   7.105 -0.4109 -0.1834 -0.6280
 2949SOL     OW20479   1.930   0.916   8.112 -0.0384 -0.0396 -0.4947
 2949SOL    HW120480   1.910   1.010   8.105  0.7381  0.0500 -1.3971
 2949SOL    HW220481   1.940   0.892   8.020 -2.3662 -3.1911  0.0858
 2950SOL     OW20482   0.205   2.771   7.034  0.6493  0.0750  0.1208
 2950SOL    HW120483   0.146   2.784   7.108  0.4037 -0.1972 -0.0304
 2950SOL    HW220484   0.248   2.857   7.034  0.0928  0.3560 -0.6186
 2951SOL     OW20485   1.675   2.230   8.711 -0.2220  0.5099 -0.6378
 2951SOL    HW120486   1.681   2.324   8.724 -0.0827  0.4914 -0.5643
 2951SOL    HW220487   1.735   2.213   8.638  1.2730 -0.0161  0.6984
 2952SOL     OW20488   1.937   3.675   8.722  0.4291  0.1688  0.3490
 2952SOL    HW120489   1.895   3.735   8.784  1.8232  0.1374  1.3267
 2952SOL    HW220490   1.947   3.728   8.643  1.6828  0.2538  0.5678
 2953SOL     OW20491   1.400   2.549   7.062 -0.7217 -0.2759 -0.2353
 2953SOL    HW120492   1.417   2.456   7.079  0.3785 -0.1776 -0.7549
 2953SOL    HW220493   1.354   2.557   7.146 -1.1120  0.7636 -0.5535
 2954SOL     OW20494   3.808   2.343   2.140  0.2455  0.2680 -0.1298
 2954SOL    HW120495   3.783   2.302   2.057  0.5446  0.7157 -0.4416
 2954SOL    HW220496   3.901   2.326   2.123  0.0675 -0.6597 -0.1981
 2955SOL     OW20497   2.522   0.839  16.755  0.0081  0.0994  0.0120
 2955SOL    HW120498   2.503   0.813  16.845  1.9736  1.4764  0.8361
 2955SOL    HW220499   2.437   0.880  16.736 -0.5751 -0.6714  0.9445
 2956SOL     OW20500   1.970   0.988   4.624 -0.3063 -0.4350 -0.6202
 2956SOL    HW120501   1.903   1.032   4.573 -1.1789 -1.7070 -0.5629
 2956SOL    HW220502   1.921   0.948   4.697  1.3312 -0.1709  0.6347
 2957SOL     OW20503   2.665   0.835  10.596 -0.5164 -0.2227 -0.0798
 2957SOL    HW120504   2.738   0.862  10.541 -0.5569 -2.1676 -1.0872
 2957SOL    HW220505   2.620   0.770  10.542 -2.1563  0.7950  0.0741
 2958SOL     OW20506   3.524   3.471  10.648  0.0638  0.2770 -0.2320
 2958SOL    HW120507   3.598   3.489  10.706 -1.4787  0.3866  1.7421
 2958SOL    HW220508   3.527   3.542  10.584  0.9326  1.4451  1.0967
 2959SOL     OW20509   1.358   0.510   5.357 -0.8350 -0.1716  0.1082
 2959SOL    HW120510   1.289   0.445   5.349 -2.4580  1.4597  0.9247
 2959SOL    HW220511   1.432   0.450   5.349 -0.6138 -0.5610  5.4591
 2960SOL     OW20512   2.579   3.595  15.084  0.3509  0.1562  0.2084
 2960SOL    HW120513   2.539   3.534  15.146 -0.8245 -0.7297 -1.4144
 2960SOL    HW220514   2.606   3.671  15.135 -2.6753  0.0501  2.0251
 2961SOL     OW20515   2.138   2.080  13.284 -0.4624 -0.3540 -0.0166
 2961SOL    HW120516   2.056   2.034  13.304  0.1328 -0.4918  2.0022
 2961SOL    HW220517   2.162   2.039  13.201 -0.3730 -1.5277  0.5867
 2962SOL     OW20518   1.998   4.147   6.666 -0.0652  0.5316  0.0426
 2962SOL    HW120519   1.998   4.243   6.663 -1.3513  0.4750 -1.6094
 2962SOL    HW220520   1.924   4.118   6.718  1.8211 -0.4770  2.1558
 2963SOL     OW20521   3.150   4.015   3.358  0.2011  0.1646  0.1735
 2963SOL    HW120522   3.078   4.006   3.296 -1.5294  2.6270  1.8744
 2963SOL    HW220523   3.119   4.066   3.433  0.1807  1.2205 -0.5569
 2964SOL     OW20524   3.308   2.699  15.813 -0.6196 -0.3518  0.2410
 2964SOL    HW120525   3.279   2.714  15.903  0.6120 -1.9550  0.9002
 2964SOL    HW220526   3.362   2.777  15.804  0.6528 -1.1112  1.2214
 2965SOL     OW20527   0.534   4.053  10.297 -0.4446 -0.3087 -0.1330
 2965SOL    HW120528   0.478   4.121  10.336 -0.0114  1.0990 -1.9295
 2965SOL    HW220529   0.531   3.997  10.374  0.7981  1.0229  0.8967
 2966SOL     OW20530   1.256   3.637   6.965 -0.5672 -0.0765  0.5438
 2966SOL    HW120531   1.331   3.611   6.912 -1.8930 -2.3191 -0.2128
 2966SOL    HW220532   1.234   3.547   6.990  0.7639 -0.4327  0.4472
 2967SOL     OW20533   2.674   4.394  13.471 -0.7636  0.9594 -0.0105
 2967SOL    HW120534   2.641   4.363  13.555 -0.8417  1.8653  0.2940
 2967SOL    HW220535   2.598   4.411  13.416 -0.3360  1.0967 -0.5619
 2968SOL     OW20536   1.669   1.734  10.246 -0.4478  0.0303  0.6165
 2968SOL    HW120537   1.663   1.825  10.273 -0.1066 -0.1127  1.1726
 2968SOL    HW220538   1.577   1.709  10.254 -0.4737 -0.2002 -0.3468
 2969SOL     OW20539   0.667   2.487   5.327 -0.1299  0.0781 -0.6284
 2969SOL    HW120540   0.681   2.576   5.296 -0.3875  0.6426  0.8758
 2969SOL    HW220541   0.754   2.448   5.337  0.2484  0.5963 -1.9681
 2970SOL     OW20542   4.368   2.477   8.021 -0.1680 -0.7196 -0.0296
 2970SOL    HW120543   4.290   2.529   8.004  0.7942  0.5666 -0.6053
 2970SOL    HW220544   4.377   2.415   7.950 -1.3361 -2.1026  1.0400
 2971SOL     OW20545   1.926   3.863  16.987 -0.5517  0.0377 -0.1258
 2971SOL    HW120546   1.918   3.790  16.925 -1.7611  0.7215 -0.7745
 2971SOL    HW220547   1.855   3.919  16.957 -1.2921  0.2442  2.0162
 2972SOL     OW20548   2.927   0.644   3.714  0.9435  0.0776  0.1554
 2972SOL    HW120549   2.972   0.559   3.706  0.3483 -0.0023 -2.3498
 2972SOL    HW220550   2.872   0.624   3.790  0.8193  0.1799  0.0903
 2973SOL     OW20551   2.764   0.798   4.967  0.1579  0.4636 -0.3715
 2973SOL    HW120552   2.845   0.804   4.917 -0.2203  0.0717 -1.0432
 2973SOL    HW220553   2.717   0.877   4.939  0.7637  0.7485 -0.5768
 2974SOL     OW20554   3.411   3.416  15.638  0.0510  0.4012  0.1315
 2974SOL    HW120555   3.500   3.388  15.619  0.5647 -0.8920  4.3574
 2974SOL    HW220556   3.403   3.500  15.592  1.3839 -0.2410 -1.2707
 2975SOL     OW20557   4.331   3.054   6.417  0.3265 -0.2825  0.7313
 2975SOL    HW120558   4.332   3.150   6.425  1.5845 -0.2797  0.5332
 2975SOL    HW220559   4.271   3.028   6.487  1.0045 -2.1220  0.6164
 2976SOL     OW20560   1.854   2.062   6.084 -0.5772  0.0869  0.1235
 2976SOL    HW120561   1.824   1.972   6.097  0.4002 -0.2375  0.1965
 2976SOL    HW220562   1.943   2.045   6.117  0.0704  4.6192  0.7096
 2977SOL     OW20563   0.298   3.053   2.364  0.3023  0.3375 -0.7677
 2977SOL    HW120564   0.289   3.080   2.272  0.9151  0.4584 -0.7884
 2977SOL    HW220565   0.371   3.105   2.399  0.3455  0.5173 -1.1251
 2978SOL     OW20566   4.658   4.677  11.552  0.3488 -0.3415 -0.0906
 2978SOL    HW120567   4.584   4.716  11.599  1.3186  1.8677 -0.4087
 2978SOL    HW220568   4.702   0.022  11.539 -0.9675  1.0684  4.3399
 2979SOL     OW20569   4.624   1.574  14.879 -0.0833 -0.6003  0.3327
 2979SOL    HW120570   4.663   1.639  14.937 -1.1811  0.2512  0.1229
 2979SOL    HW220571   4.701   1.561  14.825 -0.2544 -2.0696  0.4581
 2980SOL     OW20572   1.903   0.002   7.687 -0.1765  0.2780  0.0823
 2980SOL    HW120573   1.875   0.003   7.778  0.2280  1.1879  0.2017
 2980SOL    HW220574   1.969   4.673   7.680 -1.0809 -0.6118  0.1633
 2981SOL     OW20575   2.496   1.190   8.762  0.1631 -0.1550 -0.2028
 2981SOL    HW120576   2.443   1.150   8.830 -0.2030 -0.8344 -0.8933
 2981SOL    HW220577   2.585   1.157   8.777 -0.8467 -2.4615  0.5855
 2982SOL     OW20578   3.122   1.544   9.693 -0.0764  0.9418  0.2772
 2982SOL    HW120579   3.120   1.497   9.776 -0.0680 -0.5543 -0.5756
 2982SOL    HW220580   3.126   1.467   9.637  1.5532 -0.3030  2.1230
 2983SOL     OW20581   1.798   1.347  14.192 -0.3674 -0.3647 -0.2756
 2983SOL    HW120582   1.867   1.312  14.135 -1.1517  0.3533 -1.6729
 2983SOL    HW220583   1.717   1.307  14.159 -0.2737  0.3299 -1.3422
 2984SOL     OW20584   3.384   4.259  12.695 -0.6060 -0.2998  0.0588
 2984SOL    HW120585   3.364   4.343  12.736 -2.2143 -0.7600  0.2206
 2984SOL    HW220586   3.314   4.203  12.730  0.2032 -0.3933  1.5570
 2985SOL     OW20587   0.402   2.404  17.049 -0.6751 -0.8138 -0.1083
 2985SOL    HW120588   0.382   2.313  17.069 -0.9156 -0.3842  1.5469
 2985SOL    HW220589   0.472   2.430  17.110  0.8342 -1.8939 -1.3763
 2986SOL     OW20590   4.427   1.026   8.631  0.4541 -0.5442  0.4071
 2986SOL    HW120591   4.383   0.950   8.669 -1.3583  0.9961  1.3713
 2986SOL    HW220592   4.353   1.086   8.629  3.3788  2.9609 -1.6619
 2987SOL     OW20593   2.051   4.170   0.715  0.1088 -0.5396  0.1553
 2987SOL    HW120594   2.105   4.209   0.784 -0.2009 -0.5308  0.3942
 2987SOL    HW220595   2.011   4.096   0.760  1.1030 -1.5088 -0.5607
 2988SOL     OW20596   0.961   2.609   2.973 -0.0007  0.1420  0.4053
 2988SOL    HW120597   0.930   2.675   3.035 -4.0220 -1.3096 -0.0555
 2988SOL    HW220598   1.044   2.643   2.942 -0.2933  0.7985  0.3392
 2989SOL     OW20599   0.607   3.408   4.364  0.0444  0.2805  0.2990
 2989SOL    HW120600   0.659   3.440   4.438 -1.0129  1.1210  0.6692
 2989SOL    HW220601   0.642   3.464   4.296 -0.6235 -1.0593 -1.1482
 2990SOL     OW20602   1.779   0.746  15.881  0.2850 -0.4723  0.2354
 2990SOL    HW120603   1.728   0.824  15.860  1.1912  0.4940  1.5406
 2990SOL    HW220604   1.717   0.709  15.944  0.3569  1.9803  1.7659
 2991SOL     OW20605   3.239   1.917   4.337  0.1849  0.2847  0.6980
 2991SOL    HW120606   3.211   1.887   4.423  0.6419  1.9205  1.4184
 2991SOL    HW220607   3.195   2.002   4.335 -1.8509 -0.8148 -1.5014
 2992SOL     OW20608   2.857   1.495   6.751  0.1714 -0.5137 -0.4245
 2992SOL    HW120609   2.822   1.462   6.833  2.1285 -0.1227  0.5691
 2992SOL    HW220610   2.908   1.566   6.790  2.1865 -1.1402 -1.8805
 2993SOL     OW20611   4.390   2.804   5.865  0.1037  0.0642 -0.0596
 2993SOL    HW120612   4.300   2.775   5.848  1.5157 -3.8660 -0.7399
 2993SOL    HW220613   4.389   2.852   5.948  0.0661 -0.2768  0.1352
 2994SOL     OW20614   1.441   1.818   6.111  0.0242 -0.4460 -0.9035
 2994SOL    HW120615   1.421   1.878   6.040  1.6891 -0.4108 -1.3289
 2994SOL    HW220616   1.402   1.740   6.071  1.7681 -2.2116  0.8120
 2995SOL     OW20617   1.401   4.426   8.901 -0.4922 -0.0468 -0.7780
 2995SOL    HW120618   1.443   4.385   8.976 -0.7810  0.3277 -0.4079
 2995SOL    HW220619   1.322   4.373   8.899  0.5885 -1.5801 -2.4539
 2996SOL     OW20620   3.327   3.940   9.127 -0.3896 -0.2271  0.0273
 2996SOL    HW120621   3.351   3.896   9.208 -0.2034  0.7335  0.4962
 2996SOL    HW220622   3.377   4.021   9.133 -0.3806 -0.2155 -0.2112
 2997SOL     OW20623   3.519   2.222  17.644  0.1228  0.3694 -0.2824
 2997SOL    HW120624   3.476   2.194  17.725 -2.3360 -0.8446 -1.9985
 2997SOL    HW220625   3.494   2.314  17.651  0.6119  0.4577  0.3020
 2998SOL     OW20626   3.659   2.944   1.761 -0.5485  0.3599 -0.4567
 2998SOL    HW120627   3.739   2.891   1.771  0.6266  2.8115  3.0237
 2998SOL    HW220628   3.614   2.900   1.689  1.5320 -0.2222 -1.4119
 2999SOL     OW20629   1.067   0.574  16.820  0.0113  0.2040 -0.4019
 2999SOL    HW120630   1.103   0.557  16.733  3.0895  0.7562  0.7592
 2999SOL    HW220631   0.987   0.522  16.813 -0.0551  1.0305 -5.2176
 3000SOL     OW20632   1.625   1.922  11.780 -0.0857 -0.0384 -0.0301
 3000SOL    HW120633   1.558   1.855  11.769 -0.3804 -0.1256  2.3384
 3000SOL    HW220634   1.672   1.915  11.697 -0.4149 -1.1160 -0.1204
 3001SOL     OW20635   2.349   4.263  12.896  0.1981  0.2534  0.2809
 3001SOL    HW120636   2.253   4.263  12.893  0.2252 -1.1635 -0.8328
 3001SOL    HW220637   2.379   4.187  12.847 -2.2984 -1.3537  1.2201
 3002SOL     OW20638   4.686   3.216   7.795 -0.4696  0.0561 -0.3910
 3002SOL    HW120639   4.647   3.154   7.857  0.1382  1.4841  1.4397
 3002SOL    HW220640   4.613   3.271   7.770 -0.3163  0.0674 -0.8067
 3003SOL     OW20641   4.553   0.925   7.110 -0.0283 -0.2880 -0.1536
 3003SOL    HW120642   4.604   1.003   7.132 -1.7908  1.3222 -1.7488
 3003SOL    HW220643   4.471   0.958   7.148  1.0548 -0.1868  2.0999
 3004SOL     OW20644   3.295   2.865   5.636  0.5113 -0.2561 -0.1860
 3004SOL    HW120645   3.370   2.921   5.656 -0.6945  0.9071  1.0188
 3004SOL    HW220646   3.342   2.781   5.638 -0.4796 -0.8082 -0.4468
 3005SOL     OW20647   3.707   2.694   5.613 -0.6753 -0.3043 -0.0523
 3005SOL    HW120648   3.762   2.643   5.673 -0.1801 -0.1190 -0.3492
 3005SOL    HW220649   3.621   2.670   5.646 -0.7284 -0.2391 -0.1452
 3006SOL     OW20650   2.286   4.560   6.034 -0.5350  0.8392 -0.0336
 3006SOL    HW120651   2.220   4.559   5.966 -0.0434  1.0331 -0.5157
 3006SOL    HW220652   2.333   4.478   6.017  0.5130  1.8993 -2.2909
 3007SOL     OW20653   3.544   4.509   6.826 -0.0822 -0.3164  0.1443
 3007SOL    HW120654   3.475   4.499   6.892 -0.1564  1.6341  0.3418
 3007SOL    HW220655   3.494   4.484   6.749 -0.2679 -0.1039  0.1988
 3008SOL     OW20656   2.999   0.050   5.504  0.0503 -0.5827 -0.0948
 3008SOL    HW120657   2.975   0.021   5.592  0.1464  0.6237  0.3377
 3008SOL    HW220658   3.068   0.112   5.530  0.7185 -1.3513 -0.0369
 3009SOL     OW20659   0.195   2.339   5.450  0.6322  0.0336 -0.2618
 3009SOL    HW120660   0.247   2.263   5.426 -0.8521 -1.1750  0.3684
 3009SOL    HW220661   0.265   2.402   5.467  2.6655 -2.1990 -0.3862
 3010SOL     OW20662   1.027   0.789   6.673 -0.1094  0.9617 -0.8766
 3010SOL    HW120663   0.952   0.817   6.620 -3.3218 -2.3929  1.9055
 3010SOL    HW220664   1.033   0.845   6.750  0.7330 -0.1470 -0.1284
 3011SOL     OW20665   3.791   0.523   5.838  0.0439 -0.0503 -0.7129
 3011SOL    HW120666   3.849   0.556   5.906  0.0600  0.1567 -0.8303
 3011SOL    HW220667   3.841   0.448   5.804  0.6979 -0.4432  1.0802
 3012SOL     OW20668   4.673   0.071  14.800  0.1347  0.1333 -0.1537
 3012SOL    HW120669   4.672   4.723  14.758  1.5077  0.3197 -0.5546
 3012SOL    HW220670   4.701   0.124  14.726  1.1010  0.5241  0.4984
 3013SOL     OW20671   3.830   3.904   6.174  0.2679 -1.0818  0.0994
 3013SOL    HW120672   3.795   3.880   6.261  1.5188 -1.3711  0.5255
 3013SOL    HW220673   3.924   3.899   6.186  0.5977  1.2000 -1.6101
 3014SOL     OW20674   1.827   3.974   6.906  0.2765  0.6024 -0.1640
 3014SOL    HW120675   1.900   3.944   6.852  1.7050  0.7771  1.6564
 3014SOL    HW220676   1.786   3.894   6.939 -0.6874  0.5060 -1.6030
 3015SOL     OW20677   2.479   1.456   5.407  0.2629  0.9567 -0.5449
 3015SOL    HW120678   2.391   1.493   5.393 -0.2752  0.0218  0.3898
 3015SOL    HW220679   2.468   1.370   5.447  2.0404  0.4959 -1.0551
 3016SOL     OW20680   0.574   0.844   7.018  0.5801 -0.0115 -0.6193
 3016SOL    HW120681   0.535   0.901   7.085  2.0229  2.8727 -2.2120
 3016SOL    HW220682   0.658   0.890   7.010  1.1847 -0.9546  0.3969
 3017SOL     OW20683   1.229   1.796  15.689  0.3838  0.4638  0.2998
 3017SOL    HW120684   1.260   1.871  15.638  0.1604 -0.3269 -1.0024
 3017SOL    HW220685   1.254   1.816  15.779 -2.1996  1.0170  0.9045
 3018SOL     OW20686   1.917   3.391   6.197 -0.1420 -0.3855 -0.2639
 3018SOL    HW120687   1.916   3.295   6.200 -0.4122 -0.3386  1.2132
 3018SOL    HW220688   1.914   3.408   6.103 -1.7179  2.5807  0.3442
 3019SOL     OW20689   3.837   3.373   4.476  0.1203 -0.2940 -0.0739
 3019SOL    HW120690   3.880   3.454   4.449  0.9271 -0.3579  1.0161
 3019SOL    HW220691   3.910   3.325   4.515  0.2733 -0.5526 -0.6850
 3020SOL     OW20692   0.133   2.822  14.696  0.1202  0.6074  0.0480
 3020SOL    HW120693   0.224   2.843  14.677  0.4554  0.3230  1.3022
 3020SOL    HW220694   0.127   2.775  14.780  0.0963  1.0621  0.3023
 3021SOL     OW20695   2.371   0.103   7.807 -0.6550 -0.3853  0.2113
 3021SOL    HW120696   2.349   0.020   7.763 -0.5558  0.0665 -0.6900
 3021SOL    HW220697   2.342   0.159   7.735 -0.6764 -3.1772 -1.9630
 3022SOL     OW20698   0.539   2.273  10.436  0.1588 -0.2895  0.2737
 3022SOL    HW120699   0.594   2.199  10.411  1.7839  1.2885 -0.8369
 3022SOL    HW220700   0.598   2.333  10.480 -0.8917 -0.1511  1.4934
 3023SOL     OW20701   0.925   3.587   9.372  0.6502 -0.6807 -0.9671
 3023SOL    HW120702   0.973   3.668   9.355  2.4624 -1.9524 -1.9545
 3023SOL    HW220703   0.890   3.615   9.456 -0.8489  0.5771 -2.0109
 3024SOL     OW20704   4.696   1.050   2.379  0.1579 -0.4887  0.4043
 3024SOL    HW120705   0.009   1.062   2.458  0.8933 -2.2142  0.1921
 3024SOL    HW220706   4.707   1.135   2.338  0.4205 -0.5608  0.3262
 3025SOL     OW20707   0.830   1.694  16.025 -0.0878 -0.1292 -0.7338
 3025SOL    HW120708   0.898   1.636  15.989 -0.9896 -0.8242 -1.3378
 3025SOL    HW220709   0.755   1.637  16.040 -0.4356  0.5145 -0.0585
 3026SOL     OW20710   1.574   4.519   7.010  0.4690  0.2396  0.1273
 3026SOL    HW120711   1.575   4.615   7.013 -0.8029  0.2518  0.2560
 3026SOL    HW220712   1.490   4.487   7.043  0.2346  0.6766 -0.0494
 3027SOL     OW20713   1.593   1.131   9.002  0.4577  0.0796  0.5935
 3027SOL    HW120714   1.667   1.122   8.942 -0.2458 -2.3388  0.1027
 3027SOL    HW220715   1.576   1.043   9.034 -1.9481 -0.9716 -3.5696
 3028SOL     OW20716   4.446   1.223  16.250  0.3993  0.2698  0.2383
 3028SOL    HW120717   4.394   1.196  16.174  0.7996 -0.7656  0.3357
 3028SOL    HW220718   4.368   1.252  16.299 -1.0896 -1.3176 -1.1959
 3029SOL     OW20719   4.335   0.082  15.746  0.5234 -0.2894  0.2393
 3029SOL    HW120720   4.315   0.127  15.664 -1.4069 -2.2046 -0.3651
 3029SOL    HW220721   4.314   0.142  15.817 -1.0073  1.6977 -1.8765
 3030SOL     OW20722   0.590   1.423   6.742  0.1025 -0.0002 -0.2548
 3030SOL    HW120723   0.559   1.372   6.817  1.3777  0.5988  0.6729
 3030SOL    HW220724   0.544   1.505   6.762 -0.1003 -0.3605  0.7902
 3031SOL     OW20725   3.776   1.593  16.461 -0.1857  0.1714  0.0594
 3031SOL    HW120726   3.809   1.511  16.424 -1.6897  0.4360 -1.8392
 3031SOL    HW220727   3.689   1.586  16.424 -0.0383  2.8268 -0.7609
 3032SOL     OW20728   0.595   0.914   6.335  0.0360 -0.4810  0.2874
 3032SOL    HW120729   0.569   0.826   6.310  2.1183 -1.6879  2.3460
 3032SOL    HW220730   0.513   0.955   6.363 -0.1559 -1.2685  0.8694
 3033SOL     OW20731   2.155   4.073   5.725  0.4139  0.1495 -0.0709
 3033SOL    HW120732   2.107   4.016   5.665 -1.2721  1.9483 -0.4530
 3033SOL    HW220733   2.241   4.050   5.691  0.7085  0.3000  0.5913
 3034SOL     OW20734   0.776   1.469   4.492  0.1654 -0.5756  0.1327
 3034SOL    HW120735   0.756   1.537   4.556 -1.6099 -1.1308  0.1626
 3034SOL    HW220736   0.772   1.395   4.553  0.8151 -0.9123 -0.2283
 3035SOL     OW20737   2.755   3.599   1.794  0.1670  0.0465 -0.3198
 3035SOL    HW120738   2.686   3.660   1.764 -2.3498 -0.6183  4.1080
 3035SOL    HW220739   2.833   3.654   1.786  1.0372 -1.0725  0.5221
 3036SOL     OW20740   3.712   1.149   2.850 -0.5355 -0.9191 -0.4353
 3036SOL    HW120741   3.757   1.198   2.781  0.3136  0.1009  0.8128
 3036SOL    HW220742   3.628   1.194   2.839  1.1684  1.9839 -1.8151
 3037SOL     OW20743   2.848   1.694   8.423 -0.0785  0.0756  0.3484
 3037SOL    HW120744   2.912   1.633   8.385  1.0495  0.5098  1.5602
 3037SOL    HW220745   2.775   1.637   8.448 -0.7179  0.6967 -0.0826
 3038SOL     OW20746   1.236   4.574   9.702  0.1867 -0.0608  0.2809
 3038SOL    HW120747   1.188   4.649   9.669 -1.9039 -0.8183  1.6246
 3038SOL    HW220748   1.212   4.589   9.793 -3.7082 -1.6370 -0.5004
 3039SOL     OW20749   1.678   1.199   7.570 -0.1803 -0.1377  0.1617
 3039SOL    HW120750   1.604   1.141   7.585 -1.7366  1.7773 -0.1411
 3039SOL    HW220751   1.641   1.276   7.613  3.3671 -0.4384  3.7732
 3040SOL     OW20752   2.467   0.887   8.931  0.3846 -0.6036 -0.1734
 3040SOL    HW120753   2.484   0.873   9.024 -0.5616 -1.5270 -0.1526
 3040SOL    HW220754   2.409   0.963   8.935 -0.5223 -1.1607 -2.5496
 3041SOL     OW20755   1.122   3.487   8.627  0.2485  0.3227 -0.2079
 3041SOL    HW120756   1.133   3.457   8.537 -0.5852 -1.8807  0.4036
 3041SOL    HW220757   1.214   3.498   8.648  0.3197  2.6998 -1.7729
 3042SOL     OW20758   3.292   2.569   5.385 -0.9652 -0.5629 -0.5798
 3042SOL    HW120759   3.266   2.658   5.362  0.5001 -0.1670 -0.6824
 3042SOL    HW220760   3.344   2.546   5.307 -1.6881 -0.2054 -1.1673
 3043SOL     OW20761   0.778   2.781   5.004 -0.1768  0.2723  0.0358
 3043SOL    HW120762   0.686   2.807   5.012 -0.5472 -0.6600 -1.2536
 3043SOL    HW220763   0.763   2.733   4.923 -2.7579 -0.7832  1.1436
 3044SOL     OW20764   2.514   1.457   2.199  0.3140  0.3309  0.2518
 3044SOL    HW120765   2.608   1.437   2.202  0.3495  0.1770 -1.8767
 3044SOL    HW220766   2.483   1.366   2.200  0.3239  0.3294  0.4314
 3045SOL     OW20767   2.788   0.125   5.271  0.1604  0.1234 -0.0801
 3045SOL    HW120768   2.866   0.118   5.325  0.6373 -0.6713 -0.8847
 3045SOL    HW220769   2.800   0.208   5.224 -2.6049  1.2035  1.0712
 3046SOL     OW20770   1.163   0.808   7.197 -0.3569  0.5705 -0.0391
 3046SOL    HW120771   1.130   0.872   7.134  0.1699  0.0807 -0.8132
 3046SOL    HW220772   1.089   0.800   7.258 -0.0259 -0.3965  0.2412
 3047SOL     OW20773   3.813   3.162  17.331 -0.7614 -0.3213  0.1261
 3047SOL    HW120774   3.894   3.211  17.318  0.8977 -2.6166  1.7535
 3047SOL    HW220775   3.817   3.103  17.257  1.6180  1.5013 -1.2027
 3048SOL     OW20776   3.654   0.053   3.908  0.1522 -0.4229  0.2511
 3048SOL    HW120777   3.610   0.076   3.990  0.6998  1.8061 -0.0755
 3048SOL    HW220778   3.686   0.140   3.886  1.7066 -1.3011 -1.0439
 3049SOL     OW20779   0.362   2.698   6.361 -0.2481 -0.1590 -0.7610
 3049SOL    HW120780   0.288   2.640   6.343  0.4108 -1.4097  0.5566
 3049SOL    HW220781   0.319   2.778   6.331 -0.6988  0.2536  0.9515
 3050SOL     OW20782   0.790   2.978   3.569  0.4960  0.0463 -0.0897
 3050SOL    HW120783   0.723   2.990   3.637  1.1232  0.7777  0.3920
 3050SOL    HW220784   0.831   2.896   3.597  0.4385 -0.2073 -0.7590
 3051SOL     OW20785   1.046   3.855  11.636  0.3802 -0.1857  0.7330
 3051SOL    HW120786   1.104   3.916  11.681 -0.8228  1.3865  0.1473
 3051SOL    HW220787   1.021   3.788  11.700 -1.2800  0.8361  1.1387
 3052SOL     OW20788   4.314   3.794   3.012 -0.0998 -0.2904 -0.1715
 3052SOL    HW120789   4.270   3.814   2.930  1.4692  1.6659 -0.5395
 3052SOL    HW220790   4.406   3.775   2.992  0.3673  1.2478  0.4553
 3053SOL     OW20791   2.159   0.918  13.469  0.4374 -0.5158  0.1826
 3053SOL    HW120792   2.148   0.846  13.407  0.0121  1.5781 -2.1884
 3053SOL    HW220793   2.204   0.987  13.419 -1.6632  0.8441  0.1324
 3054SOL     OW20794   1.471   4.116  17.506  0.6732 -0.6236 -0.6306
 3054SOL    HW120795   1.539   4.138  17.569 -1.4047 -0.9350  1.7119
 3054SOL    HW220796   1.454   4.027  17.537 -2.6380 -0.0903 -0.8341
 3055SOL     OW20797   3.008   0.691   5.877  0.6697  0.3907  0.1703
 3055SOL    HW120798   2.975   0.619   5.932 -1.4238  1.4887  0.3650
 3055SOL    HW220799   3.083   0.719   5.929 -1.1131  2.8806  1.3971
 3056SOL     OW20800   2.908   4.021  16.060  0.1800 -0.0131 -0.0231
 3056SOL    HW120801   2.895   4.096  16.002  1.2831  0.6889  0.6526
 3056SOL    HW220802   3.000   4.003  16.043  0.4563  1.5566 -0.2045
 3057SOL     OW20803   1.100   1.769   5.679  0.4290  0.7909  1.1036
 3057SOL    HW120804   1.169   1.703   5.682 -2.9334 -2.7855 -0.1793
 3057SOL    HW220805   1.132   1.818   5.755  0.5513  0.6655  1.1328
 3058SOL     OW20806   2.299   0.377   4.955 -0.0379 -0.1167  0.4819
 3058SOL    HW120807   2.355   0.327   5.013  1.4064 -0.1506 -0.9349
 3058SOL    HW220808   2.354   0.372   4.877 -0.4455 -0.9697  0.2406
 3059SOL     OW20809   2.054   4.548   1.395 -0.2451 -0.0737  0.7096
 3059SOL    HW120810   2.084   4.560   1.486  0.9737 -0.6487  0.3923
 3059SOL    HW220811   2.062   4.453   1.381  0.9685  0.2095 -0.5663
 3060SOL     OW20812   0.109   1.327   6.532 -0.1952  0.7469 -0.3155
 3060SOL    HW120813   0.163   1.373   6.467 -0.8277  2.4708  0.3625
 3060SOL    HW220814   0.048   1.278   6.478 -1.2943  0.9798  0.7141
 3061SOL     OW20815   4.094   0.364  13.440  0.6030  0.2937  0.0832
 3061SOL    HW120816   4.026   0.412  13.486  0.8394  1.3655 -0.6952
 3061SOL    HW220817   4.117   0.437  13.383 -1.1959 -1.3947 -2.7574
 3062SOL     OW20818   0.478   1.747   8.206 -0.1748 -0.1782  0.2591
 3062SOL    HW120819   0.428   1.690   8.148  1.1779 -0.6139 -0.4837
 3062SOL    HW220820   0.479   1.683   8.277  0.3478  1.0368  1.3634
 3063SOL     OW20821   4.490   3.805   5.125 -0.5486 -0.2014 -0.1675
 3063SOL    HW120822   4.457   3.883   5.170 -1.4490 -0.5204 -0.2741
 3063SOL    HW220823   4.490   3.739   5.195  1.9712  1.4511  1.3872
 3064SOL     OW20824   0.319   0.186   4.629 -0.7579 -0.1133 -0.7024
 3064SOL    HW120825   0.250   0.239   4.669  0.9977  0.2102  1.8428
 3064SOL    HW220826   0.316   0.215   4.537  1.2221 -2.0442 -1.3668
 3065SOL     OW20827   3.056   2.735   6.115  0.5369  0.0850 -0.2801
 3065SOL    HW120828   3.057   2.796   6.189 -0.4852 -2.6837  2.0035
 3065SOL    HW220829   3.045   2.796   6.042  1.0075 -0.6534 -0.9687
 3066SOL     OW20830   3.919   2.892   0.585 -0.4414  0.1201  0.3343
 3066SOL    HW120831   3.829   2.916   0.605  0.3675  2.7613  0.8208
 3066SOL    HW220832   3.887   2.819   0.533 -1.5008  1.8547 -1.4820
 3067SOL     OW20833   4.155   3.797   4.414  0.4110 -0.0347  0.2669
 3067SOL    HW120834   4.081   3.855   4.431 -0.4018 -0.3148 -2.2605
 3067SOL    HW220835   4.182   3.781   4.505 -0.3750  0.3304  0.5638
 3068SOL     OW20836   0.907   2.687  16.151  0.3005 -0.1200  0.4205
 3068SOL    HW120837   0.815   2.699  16.129  0.6138  3.2863  0.9220
 3068SOL    HW220838   0.900   2.595  16.175  0.4313 -0.4108 -0.6965
 3069SOL     OW20839   1.690   3.109  14.582  0.0336  0.2200 -0.1985
 3069SOL    HW120840   1.603   3.111  14.621  0.1589  1.7040  0.0090
 3069SOL    HW220841   1.739   3.138  14.658  2.1371  0.0404 -1.4692
 3070SOL     OW20842   1.311   2.822   5.701  0.5301  0.0184 -0.1153
 3070SOL    HW120843   1.231   2.848   5.655  0.8740  0.6046 -0.3835
 3070SOL    HW220844   1.360   2.903   5.691 -1.6110  1.2507 -0.6146
 3071SOL     OW20845   1.565   2.603   7.396  0.1789  0.2142 -0.0313
 3071SOL    HW120846   1.496   2.665   7.369 -0.7007  0.9533  3.9692
 3071SOL    HW220847   1.638   2.662   7.413  1.8722 -1.3724 -1.7310
 3072SOL     OW20848   0.719   0.610  17.449  0.3653 -0.2811  0.4699
 3072SOL    HW120849   0.643   0.573  17.404 -0.1730 -0.8900  1.9206
 3072SOL    HW220850   0.727   0.675  17.379  2.0421 -0.2130  0.7378
 3073SOL     OW20851   3.917   0.178   8.022  0.1603  0.3543 -0.5375
 3073SOL    HW120852   3.962   0.223   8.093  2.4659 -2.7162 -0.0637
 3073SOL    HW220853   3.969   0.098   8.022 -2.2382 -1.1868  0.5477
 3074SOL     OW20854   1.726   2.816   3.710 -0.3658 -0.3156 -0.6264
 3074SOL    HW120855   1.816   2.846   3.720 -1.0174  0.5783  2.6159
 3074SOL    HW220856   1.752   2.726   3.695 -2.2451 -0.7168 -1.4035
 3075SOL     OW20857   3.641   1.604   7.834  0.0835 -0.0246  0.3484
 3075SOL    HW120858   3.638   1.603   7.739  3.1069  0.3368  0.2434
 3075SOL    HW220859   3.707   1.536   7.847 -1.2227 -1.0576  1.7194
 3076SOL     OW20860   1.951   3.218  11.754 -0.2506 -0.1845 -0.3550
 3076SOL    HW120861   1.896   3.234  11.831  2.4730 -0.2754  1.6287
 3076SOL    HW220862   1.986   3.131  11.771 -0.7942 -0.4884 -0.8195
 3077SOL     OW20863   3.811   0.986   8.864 -0.0366 -0.2667 -0.4123
 3077SOL    HW120864   3.868   0.937   8.923 -0.9870 -0.8587 -0.0050
 3077SOL    HW220865   3.838   1.071   8.899  0.8712 -0.6662 -0.1341
 3078SOL     OW20866   0.515   0.153  11.174 -0.2414  0.2076  0.0358
 3078SOL    HW120867   0.460   0.088  11.131 -2.1079  1.4336  0.5520
 3078SOL    HW220868   0.450   0.187  11.236 -1.4824  0.9202 -1.6700
 3079SOL     OW20869   2.080   2.667   1.974  0.1665 -0.4030 -0.6702
 3079SOL    HW120870   2.097   2.677   1.881 -0.3648  3.5665 -0.3418
 3079SOL    HW220871   2.088   2.572   1.964  1.7191 -0.2358 -0.9688
 3080SOL     OW20872   0.156   2.702   3.180  0.1474  0.0495 -0.3666
 3080SOL    HW120873   0.144   2.715   3.086 -0.2443  2.7048  0.0531
 3080SOL    HW220874   0.235   2.647   3.180 -1.0477 -1.6419  1.2440
 3081SOL     OW20875   2.367   1.062   2.973 -0.1502  0.6586  0.1667
 3081SOL    HW120876   2.313   1.127   2.928  0.0179  1.0144  0.4852
 3081SOL    HW220877   2.305   1.003   3.016 -2.6975  1.1324 -2.8661
 3082SOL     OW20878   1.976   0.911   3.519  0.1343 -0.1179  0.0803
 3082SOL    HW120879   2.020   0.990   3.486 -0.1472 -0.6343 -1.5139
 3082SOL    HW220880   1.941   0.945   3.601 -1.4571  1.9382 -1.4480
 3083SOL     OW20881   4.017   2.069   9.053  0.2346 -0.4314  0.4377
 3083SOL    HW120882   4.112   2.073   9.066  0.1215 -2.1781  1.7779
 3083SOL    HW220883   4.016   2.033   8.964 -4.5725  0.2754  0.2225
 3084SOL     OW20884   3.238   2.598   8.855 -0.1559 -0.2241  0.4102
 3084SOL    HW120885   3.191   2.639   8.782  0.3504 -0.2406  0.0668
 3084SOL    HW220886   3.284   2.529   8.805  1.3250  1.1585 -0.1456
 3085SOL     OW20887   2.396   1.763   8.527 -0.2734 -0.7056 -0.6632
 3085SOL    HW120888   2.394   1.805   8.441  1.9740  0.1609 -0.2987
 3085SOL    HW220889   2.323   1.798   8.579 -0.8319  0.0655 -1.9524
 3086SOL     OW20890   2.895   2.241   6.858 -0.1098 -0.0473 -0.8701
 3086SOL    HW120891   2.927   2.270   6.943 -2.0545  0.3520 -0.2820
 3086SOL    HW220892   2.897   2.147   6.878  0.5578  0.6206  2.1169
 3087SOL     OW20893   1.798   2.332   1.930  0.0205  0.3093 -0.1550
 3087SOL    HW120894   1.772   2.350   1.839  1.2936 -1.4365 -0.8635
 3087SOL    HW220895   1.840   2.247   1.921  2.0201  1.5722 -3.0455
 3088SOL     OW20896   2.744   2.543   0.898 -0.1188  0.0067 -0.5761
 3088SOL    HW120897   2.763   2.618   0.843 -2.0853  1.3728  0.6162
 3088SOL    HW220898   2.782   2.466   0.855  1.2998 -0.6257  1.8011
 3089SOL     OW20899   3.929   3.018   4.112  0.1518  0.4660  0.5494
 3089SOL    HW120900   3.905   2.935   4.071  0.2778  0.5748  0.2618
 3089SOL    HW220901   3.850   3.064   4.083  1.3402  2.1717  0.0334
 3090SOL     OW20902   2.578   1.547   9.267  0.2565  0.0784 -0.0224
 3090SOL    HW120903   2.651   1.486   9.261 -0.9984 -1.4892  0.5875
 3090SOL    HW220904   2.623   1.612   9.322  1.0611  0.4318 -1.0994
 3091SOL     OW20905   1.598   0.902  14.288  0.3017 -0.0507  0.2642
 3091SOL    HW120906   1.690   0.908  14.314 -0.0523 -0.7777  1.6922
 3091SOL    HW220907   1.572   0.821  14.332 -1.1031 -0.1447 -0.7347
 3092SOL     OW20908   1.170   4.133   6.164 -0.2725  0.5064 -0.4522
 3092SOL    HW120909   1.158   4.170   6.252 -0.6293  1.2254 -0.8037
 3092SOL    HW220910   1.250   4.082   6.172 -0.8291  0.2231  3.1597
 3093SOL     OW20911   1.147   4.383   2.618 -0.4224 -0.1608 -0.1366
 3093SOL    HW120912   1.133   4.289   2.604 -1.6069  0.1556 -1.0586
 3093SOL    HW220913   1.157   4.403   2.525 -1.2667 -2.0819 -0.6577
 3094SOL     OW20914   4.097   0.926   2.644  0.4016 -0.2064  0.7122
 3094SOL    HW120915   4.102   0.876   2.562 -2.7732  0.1469  0.3233
 3094SOL    HW220916   4.022   0.887   2.689 -0.2541 -1.1601 -1.2022
 3095SOL     OW20917   0.144   4.094  12.770 -0.0978  0.4935  0.1780
 3095SOL    HW120918   0.220   4.141  12.735  1.5123 -0.5224  2.3464
 3095SOL    HW220919   0.125   4.155  12.840 -0.4945 -1.1150  1.4753
 3096SOL     OW20920   0.814   1.961   5.807  0.4185  0.4558  0.7728
 3096SOL    HW120921   0.830   1.916   5.890  0.7365  0.0492  0.4896
 3096SOL    HW220922   0.821   2.053   5.834 -0.6246  0.6301  0.4717
 3097SOL     OW20923   2.425   3.346   3.636  0.4699 -0.1123 -0.2578
 3097SOL    HW120924   2.403   3.439   3.645 -0.2519 -0.2517 -0.6113
 3097SOL    HW220925   2.460   3.321   3.721 -2.3863  0.0101  0.9582
 3098SOL     OW20926   1.464   0.207   6.741  0.0928  0.2573 -0.7402
 3098SOL    HW120927   1.459   0.294   6.702  1.4555  0.5179 -0.3394
 3098SOL    HW220928   1.482   0.238   6.830 -0.0962 -1.6714 -0.0184
 3099SOL     OW20929   0.468   3.976  12.173 -0.1127 -0.1837  0.3144
 3099SOL    HW120930   0.418   3.903  12.135  0.9564 -1.9401  2.3073
 3099SOL    HW220931   0.536   3.979  12.106 -0.4801  2.9933  0.0790
 3100SOL     OW20932   2.663   3.247   5.660 -0.2107 -0.4834  0.4692
 3100SOL    HW120933   2.733   3.207   5.609 -3.2291 -1.6633 -2.7109
 3100SOL    HW220934   2.583   3.231   5.610 -0.1295 -1.5537  0.6847
 3101SOL     OW20935   3.168   0.425   7.266  0.2513  0.0074 -0.4703
 3101SOL    HW120936   3.188   0.400   7.357 -1.0337 -0.2392 -0.2496
 3101SOL    HW220937   3.119   0.349   7.234 -0.3313  0.4762 -0.6829
 3102SOL     OW20938   2.646   0.289  12.361  0.1731 -0.4236 -0.1081
 3102SOL    HW120939   2.680   0.317  12.445 -0.8556 -0.7834  0.4316
 3102SOL    HW220940   2.727   0.244  12.336 -0.2381 -1.1488 -0.1382
 3103SOL     OW20941   3.955   4.343   5.890  0.5475  0.1776 -0.0547
 3103SOL    HW120942   3.923   4.330   5.979  3.1164 -0.2872  0.8070
 3103SOL    HW220943   3.955   4.251   5.866 -1.5425  0.1744 -0.0586
 3104SOL     OW20944   2.334   1.189   8.203 -0.0644  0.1639 -0.1179
 3104SOL    HW120945   2.269   1.220   8.140  0.8019  1.6473 -0.2892
 3104SOL    HW220946   2.300   1.229   8.283 -0.1848  2.1128 -1.1417
 3105SOL     OW20947   2.649   3.849   8.724  0.1125  0.6826 -0.3170
 3105SOL    HW120948   2.597   3.882   8.797  0.5295  0.4289  0.0985
 3105SOL    HW220949   2.610   3.764   8.705  1.2986  0.2840 -1.0413
 3106SOL     OW20950   4.176   2.869  11.257  0.2406  0.0117  0.3160
 3106SOL    HW120951   4.109   2.938  11.263  1.0414  0.7399  0.8871
 3106SOL    HW220952   4.149   2.835  11.172 -0.2256  1.2603 -0.0357
 3107SOL     OW20953   0.089   2.588  17.083  0.0758  0.2285  0.0500
 3107SOL    HW120954   0.139   2.608  17.004 -0.2095  0.6821 -0.0191
 3107SOL    HW220955   0.132   2.508  17.112  0.4356  0.1150 -0.7999
 3108SOL     OW20956   1.691   0.335   2.110 -0.2974  0.1958 -0.8115
 3108SOL    HW120957   1.642   0.357   2.031 -0.9009  0.9309 -0.2352
 3108SOL    HW220958   1.694   0.240   2.105 -1.2371  0.1175  0.1495
 3109SOL     OW20959   1.305   1.357   4.584 -0.5833  0.5919 -0.1015
 3109SOL    HW120960   1.232   1.312   4.542 -1.4403  1.5747  0.3220
 3109SOL    HW220961   1.359   1.407   4.523 -0.3215  1.2704  0.6761
 3110SOL     OW20962   4.001   1.640  16.758  0.3806 -1.2239 -0.5675
 3110SOL    HW120963   3.984   1.689  16.678 -1.5658 -0.8403  0.0800
 3110SOL    HW220964   4.035   1.712  16.812  1.2348 -2.0516  0.0101
 3111SOL     OW20965   1.640   3.625   7.012 -0.4670  0.1895  0.1625
 3111SOL    HW120966   1.680   3.545   7.047 -1.9940 -0.0319  1.4620
 3111SOL    HW220967   1.676   3.685   7.078  1.2988 -0.7308  0.0263
 3112SOL     OW20968   4.474   4.340  14.354  0.6546 -0.8342 -0.6382
 3112SOL    HW120969   4.404   4.317  14.415  0.8914 -0.4466 -0.2255
 3112SOL    HW220970   4.483   4.434  14.369 -0.8179 -0.9382  0.8520
 3113SOL     OW20971   1.087   4.643  14.676  0.4056 -0.4972  0.3550
 3113SOL    HW120972   1.157   4.592  14.717  1.2768  2.6457  2.7064
 3113SOL    HW220973   1.024   4.573  14.659 -0.8389  0.9508 -1.1119
 3114SOL     OW20974   1.067   2.195  13.659 -0.2597  0.1001  0.1363
 3114SOL    HW120975   1.060   2.106  13.692  0.1201 -0.3806 -1.0743
 3114SOL    HW220976   0.977   2.214  13.631  0.1448  1.9275  0.0683
 3115SOL     OW20977   3.193   1.263   2.552  0.4618  0.2398  0.1417
 3115SOL    HW120978   3.173   1.252   2.459 -0.0398 -0.0775  0.2880
 3115SOL    HW220979   3.229   1.177   2.573 -1.6560 -0.2945  1.5416
 3116SOL     OW20980   1.286   3.569   5.478 -0.3991 -0.8126  0.1894
 3116SOL    HW120981   1.255   3.478   5.484 -0.5114 -0.7258  0.9322
 3116SOL    HW220982   1.363   3.552   5.425  0.2884 -0.2457  1.0009
 3117SOL     OW20983   2.525   3.798   8.282 -0.2879  0.1575  0.1167
 3117SOL    HW120984   2.467   3.749   8.340  0.6133 -0.0223  0.8739
 3117SOL    HW220985   2.543   3.875   8.337 -2.7734  1.4566 -0.8753
 3118SOL     OW20986   1.438   3.093   9.261  0.2903  0.1890  0.0467
 3118SOL    HW120987   1.370   3.148   9.222  1.3209  3.0968  2.3544
 3118SOL    HW220988   1.461   3.045   9.181 -2.8586 -1.2252 -0.0133
 3119SOL     OW20989   2.480   1.152   6.477 -0.2662  0.3422 -0.1873
 3119SOL    HW120990   2.437   1.149   6.392  0.3238  1.1945 -0.5083
 3119SOL    HW220991   2.520   1.239   6.470  0.5474 -0.1416 -1.4206
 3120SOL     OW20992   1.958   2.538   9.904 -0.6344 -0.2933 -0.5075
 3120SOL    HW120993   2.002   2.618   9.876 -1.2665  0.1700 -0.1740
 3120SOL    HW220994   1.892   2.574   9.964 -1.0533  2.5712 -2.6863
 3121SOL     OW20995   4.396   1.621   8.912  0.2702  0.4790  0.0250
 3121SOL    HW120996   4.376   1.675   8.988 -0.4761  0.1238  0.0778
 3121SOL    HW220997   4.360   1.674   8.842  0.8937  0.9063  0.0209
 3122SOL     OW20998   4.617   0.703   7.215 -0.5449 -0.2510 -0.1420
 3122SOL    HW120999   4.531   0.664   7.236 -0.8736 -0.3290 -1.6153
 3122SOL    HW221000   4.589   0.789   7.186 -1.0528 -0.0338  0.9855
 3123SOL     OW21001   2.701   1.216   6.936 -0.4776  0.4148  0.4103
 3123SOL    HW121002   2.777   1.192   6.990  0.0085 -1.5622 -1.1402
 3123SOL    HW221003   2.639   1.250   7.000  3.2696  1.1662  3.6255
 3124SOL     OW21004   3.809   2.391   4.199  0.5519 -0.0331  0.1669
 3124SOL    HW121005   3.848   2.471   4.165  0.8977  0.3531  1.4768
 3124SOL    HW221006   3.885   2.342   4.231  2.1761  2.7093  0.5333
 3125SOL     OW21007   3.294   1.906  16.997 -0.1687 -0.2325  0.3108
 3125SOL    HW121008   3.209   1.916  17.040 -0.3007 -1.9100  0.4549
 3125SOL    HW221009   3.340   1.845  17.055 -0.5046 -1.0328 -0.2643
 3126SOL     OW21010   3.438   1.391   9.886  0.7878  0.2241 -0.5199
 3126SOL    HW121011   3.467   1.472   9.843  1.3499  1.3178  1.9050
 3126SOL    HW221012   3.406   1.335   9.815  0.1751  0.5928 -0.5275
 3127SOL     OW21013   0.001   1.980  17.217 -0.0245  0.7864 -0.1063
 3127SOL    HW121014   4.677   1.907  17.210  0.9508 -0.0292 -0.3538
 3127SOL    HW221015   4.691   2.052  17.176  1.0329  1.3508 -0.3706
 3128SOL     OW21016   4.464   2.609   4.906  0.3660  0.5649  0.6835
 3128SOL    HW121017   4.390   2.669   4.901  2.8703  3.5676 -0.1192
 3128SOL    HW221018   4.467   2.585   4.813  4.8312  1.5325  0.6025
 3129SOL     OW21019   0.861   0.726  10.593 -0.0816  0.0463 -0.0891
 3129SOL    HW121020   0.780   0.680  10.569 -0.5354  0.6518  0.2776
 3129SOL    HW221021   0.870   0.682  10.678 -2.8631  1.3852  0.8865
 3130SOL     OW21022   1.819   3.178   6.648  0.3275 -0.4020  0.0071
 3130SOL    HW121023   1.886   3.142   6.706 -1.7594  0.2718  2.8631
 3130SOL    HW221024   1.807   3.104   6.589 -0.0107 -0.0946 -0.3072
 3131SOL     OW21025   3.143   1.950   2.594  0.4097 -0.0540  0.0704
 3131SOL    HW121026   3.174   1.942   2.684 -0.0820  1.7484  0.3854
 3131SOL    HW221027   3.086   1.873   2.592 -0.8917  0.9283 -0.8361
 3132SOL     OW21028   0.073   2.724   6.488 -0.4219  0.0836 -0.8036
 3132SOL    HW121029   0.088   2.751   6.578 -0.6193 -0.9787 -0.4652
 3132SOL    HW221030   0.087   2.811   6.449 -0.6216  0.5950  0.2718
 3133SOL     OW21031   1.892   3.834   2.946  0.1011  0.1864  0.3513
 3133SOL    HW121032   1.817   3.877   2.906 -1.3532 -0.3952  2.4702
 3133SOL    HW221033   1.937   3.791   2.873 -0.2658 -1.1984  0.9285
 3134SOL     OW21034   0.575   0.109   3.603  0.3077 -0.1514  0.3103
 3134SOL    HW121035   0.526   0.028   3.590 -1.4680  0.8586  0.7735
 3134SOL    HW221036   0.504   0.172   3.596 -0.7890 -1.4371  0.0127
 3135SOL     OW21037   0.332   0.287   3.109  0.1895 -0.3217  0.1046
 3135SOL    HW121038   0.400   0.227   3.140  0.9455  0.6828  0.3927
 3135SOL    HW221039   0.331   0.265   3.016 -1.8809 -0.0771  0.0709
 3136SOL     OW21040   0.886   1.695  14.245  0.9548 -0.4602 -0.0393
 3136SOL    HW121041   0.961   1.636  14.244  0.9116 -0.5175  0.0510
 3136SOL    HW221042   0.821   1.651  14.189  0.3728  2.8080 -1.9042
 3137SOL     OW21043   0.661   4.174   5.213  0.6813 -0.2593 -0.2742
 3137SOL    HW121044   0.566   4.173   5.211  0.6977  0.0901 -1.6172
 3137SOL    HW221045   0.681   4.261   5.179 -2.1580 -0.3795 -2.2163
 3138SOL     OW21046   3.551   0.849   5.010 -0.4533 -0.0324  0.3679
 3138SOL    HW121047   3.645   0.830   5.010 -0.3966  0.2828 -3.0727
 3138SOL    HW221048   3.526   0.763   5.044 -3.3401 -0.4489 -2.7840
 3139SOL     OW21049   3.341   3.170  12.149 -0.1623  0.0289  0.1956
 3139SOL    HW121050   3.378   3.160  12.237  1.0632  1.6679 -0.1389
 3139SOL    HW221051   3.420   3.169  12.095  0.4509  0.3820  1.0864
 3140SOL     OW21052   4.466   4.248   7.296 -0.1418  0.5093  0.0975
 3140SOL    HW121053   4.445   4.304   7.221 -0.2748  0.2007 -0.0973
 3140SOL    HW221054   4.382   4.211   7.323  0.1869 -0.9837 -0.8952
 3141SOL     OW21055   3.179   2.881   2.760  0.1079  0.4153  0.4158
 3141SOL    HW121056   3.273   2.891   2.769  0.4124  1.5881 -4.0021
 3141SOL    HW221057   3.152   2.973   2.756 -0.4708  0.1471 -2.0177
 3142SOL     OW21058   0.226   3.160   2.124 -0.2033  0.2943  0.1490
 3142SOL    HW121059   0.180   3.193   2.048  1.4691 -0.3541 -1.1552
 3142SOL    HW221060   0.308   3.211   2.123 -1.0271  1.6221  0.0352
 3143SOL     OW21061   2.389   2.945   7.028 -0.4161  0.2149  0.2785
 3143SOL    HW121062   2.341   3.026   7.043  1.9096  1.6874 -0.2257
 3143SOL    HW221063   2.457   2.947   7.096  0.0527  2.9878 -0.2667
 3144SOL     OW21064   1.029   2.553   5.734  0.2161 -0.1993 -0.3145
 3144SOL    HW121065   1.029   2.613   5.809 -1.9582  0.7445 -1.0845
 3144SOL    HW221066   0.934   2.545   5.736  0.3355 -1.0938  1.8560
 3145SOL     OW21067   3.435   2.516  16.233  0.5606 -0.0399  0.0928
 3145SOL    HW121068   3.373   2.473  16.174 -0.0092  0.0504  0.6242
 3145SOL    HW221069   3.428   2.606  16.202 -0.9146 -1.2236 -2.9997
 3146SOL     OW21070   0.486   1.364   7.263 -0.3282  0.3867 -0.4219
 3146SOL    HW121071   0.524   1.346   7.349  1.6390 -0.9856 -1.5833
 3146SOL    HW221072   0.568   1.395   7.225 -0.2772 -0.2169 -0.8019
 3147SOL     OW21073   2.867   2.054   1.810  0.3090  0.6685 -0.0864
 3147SOL    HW121074   2.955   2.031   1.840  0.6677 -1.0894 -2.5668
 3147SOL    HW221075   2.879   2.033   1.718  0.2298 -0.5461  0.1918
 3148SOL     OW21076   1.237   0.348  12.794 -0.1924  0.3902 -0.1156
 3148SOL    HW121077   1.249   0.362  12.700 -2.2578 -0.5203 -0.5232
 3148SOL    HW221078   1.281   0.265  12.809  2.4071  1.8558  0.4332
 3149SOL     OW21079   2.264   2.014   8.954 -0.1177  0.9309  0.4229
 3149SOL    HW121080   2.260   1.993   9.048  2.6847  0.5353  0.4751
 3149SOL    HW221081   2.200   2.084   8.948 -1.6907 -0.5389  0.1546
 3150SOL     OW21082   3.384   3.369   8.207  0.0513 -0.2282  0.4451
 3150SOL    HW121083   3.393   3.350   8.301 -0.0064  0.8589  0.6677
 3150SOL    HW221084   3.405   3.285   8.167 -1.4457 -0.4914  0.1978
 3151SOL     OW21085   0.858   2.503   7.395 -0.6673  0.0164  0.6435
 3151SOL    HW121086   0.839   2.571   7.459 -2.2121 -0.5368  0.7693
 3151SOL    HW221087   0.777   2.452   7.388 -1.7492  1.8778 -0.1608
 3152SOL     OW21088   0.764   0.338   2.158  0.3776 -0.2719  0.2926
 3152SOL    HW121089   0.802   0.400   2.220 -0.1349  1.2922 -0.9598
 3152SOL    HW221090   0.762   0.257   2.208 -2.1394  0.9054  2.0839
 3153SOL     OW21091   4.313   2.086  17.343 -0.2981 -0.5078  0.1983
 3153SOL    HW121092   4.387   2.060  17.288 -1.7924  0.6173 -2.3383
 3153SOL    HW221093   4.289   2.171  17.306  0.2423 -0.7288 -0.6472
 3154SOL     OW21094   0.267   4.012  11.797  0.2203 -0.1585  0.0599
 3154SOL    HW121095   0.320   3.956  11.854 -1.7837  0.3628  2.4341
 3154SOL    HW221096   0.250   3.961  11.718 -2.0930  0.5659  0.0927
 3155SOL     OW21097   2.564   2.434  15.791 -0.3375  0.6604 -0.0517
 3155SOL    HW121098   2.620   2.504  15.823 -3.5544  2.9079  0.6097
 3155SOL    HW221099   2.591   2.363  15.849 -0.9232  0.1737 -0.3770
 3156SOL     OW21100   2.890   4.435   6.294 -0.0590  0.4855  0.6377
 3156SOL    HW121101   2.808   4.478   6.315 -1.0329 -0.8158 -0.5002
 3156SOL    HW221102   2.889   4.366   6.360  2.0154 -0.9516 -0.8182
 3157SOL     OW21103   4.087   1.260   7.182 -0.9987 -0.5761  0.5785
 3157SOL    HW121104   3.996   1.233   7.187 -1.0865  0.0213  2.2566
 3157SOL    HW221105   4.085   1.315   7.104  0.9881 -2.3419 -0.7263
 3158SOL     OW21106   0.869   1.750   3.922  0.1176  0.3752  0.3308
 3158SOL    HW121107   0.807   1.681   3.944  0.7692  0.4371  2.4428
 3158SOL    HW221108   0.848   1.771   3.831 -1.8032  0.3323  0.7651
 3159SOL     OW21109   4.183   3.528   3.781 -0.3866 -0.3308 -0.1373
 3159SOL    HW121110   4.134   3.452   3.813 -1.3616  0.0850 -0.6592
 3159SOL    HW221111   4.136   3.564   3.706  0.8527  0.6083 -0.4669
 3160SOL     OW21112   2.392   1.482  10.921  0.3155 -0.4381 -0.0053
 3160SOL    HW121113   2.373   1.426  10.996  1.0989  0.7734  1.1008
 3160SOL    HW221114   2.355   1.429  10.851 -1.3331  0.4546  0.2013
 3161SOL     OW21115   4.602   1.850   5.011 -0.9253 -0.0695 -0.4203
 3161SOL    HW121116   4.595   1.829   4.918  1.3854 -0.3182 -0.5177
 3161SOL    HW221117   4.598   1.763   5.051  0.4572  0.0606 -0.0244
 3162SOL     OW21118   3.724   3.941   1.978  0.7559 -0.0567  0.2826
 3162SOL    HW121119   3.775   3.927   2.058 -0.1719 -2.5718  0.4218
 3162SOL    HW221120   3.653   3.888   2.015  1.3887 -1.0419  0.0663
 3163SOL     OW21121   0.689   3.482   3.653 -0.1892 -0.0677  0.2466
 3163SOL    HW121122   0.762   3.543   3.662 -0.5381  0.3682  0.0897
 3163SOL    HW221123   0.741   3.406   3.625  0.5976 -0.3741  2.5090
 3164SOL     OW21124   3.208   3.919  12.592 -0.6592 -0.1411 -0.4443
 3164SOL    HW121125   3.183   3.987  12.530  0.7476  0.2137 -0.6208
 3164SOL    HW221126   3.198   3.978  12.667 -1.7567 -1.2062  0.2519
 3165SOL     OW21127   2.620   4.048   2.364  0.1537 -0.1377  0.1400
 3165SOL    HW121128   2.566   3.981   2.322 -1.4086 -0.7774  3.1678
 3165SOL    HW221129   2.561   4.123   2.354 -0.7903 -0.7194  1.3106
 3166SOL     OW21130   0.787   1.007   7.612  0.7128  0.4615  0.6183
 3166SOL    HW121131   0.736   0.987   7.690  0.1598  1.0240  0.4041
 3166SOL    HW221132   0.831   0.924   7.591 -0.3631  0.6305 -2.3797
 3167SOL     OW21133   1.777   4.225  16.507  0.1256  0.1748 -0.9695
 3167SOL    HW121134   1.799   4.315  16.483  2.7092 -0.3221 -0.4677
 3167SOL    HW221135   1.736   4.235  16.592 -0.7538 -3.5804 -0.9512
 3168SOL     OW21136   2.527   1.644   0.616 -0.0139 -0.1456  0.1933
 3168SOL    HW121137   2.583   1.576   0.654 -0.0759  0.3753  1.1946
 3168SOL    HW221138   2.552   1.717   0.672 -0.1432 -1.0204  1.3775
 3169SOL     OW21139   2.201   0.168  16.070  0.2125 -0.1298  0.2651
 3169SOL    HW121140   2.264   0.184  15.999  0.3449 -0.2723  0.3507
 3169SOL    HW221141   2.167   0.253  16.098 -1.3175 -0.7551  0.2722
 3170SOL     OW21142   4.424   2.265   2.413  0.3748 -1.0327  0.1765
 3170SOL    HW121143   4.376   2.203   2.358 -2.3559  2.8813 -1.8551
 3170SOL    HW221144   4.477   2.304   2.343 -0.6942 -0.6794 -0.4308
 3171SOL     OW21145   2.775   2.118   4.663  0.2264 -0.3807 -0.3217
 3171SOL    HW121146   2.775   2.075   4.749  0.7847  0.4730  0.1134
 3171SOL    HW221147   2.683   2.114   4.637 -0.0597 -0.4115  0.6971
 3172SOL     OW21148   3.429   0.287   9.419 -0.3163  0.1243 -0.4071
 3172SOL    HW121149   3.511   0.336   9.422  0.0074 -0.5764  2.4191
 3172SOL    HW221150   3.463   0.197   9.424 -0.6728  0.0352  0.5578
 3173SOL     OW21151   0.728   1.343   8.679 -0.1031  0.0070  0.0786
 3173SOL    HW121152   0.801   1.402   8.664 -1.0756  1.0527 -0.5821
 3173SOL    HW221153   0.652   1.397   8.656 -1.3475 -1.2662  1.2273
 3174SOL     OW21154   4.344   0.434  12.476  0.0969 -0.1591  0.2802
 3174SOL    HW121155   4.282   0.493  12.520 -1.0440 -1.2881  0.1768
 3174SOL    HW221156   4.289   0.421  12.398  1.1168 -0.6890 -0.3468
 3175SOL     OW21157   2.392   3.665   7.095 -0.6752  0.1125  0.1994
 3175SOL    HW121158   2.334   3.640   7.023  2.1550 -0.1223 -1.9771
 3175SOL    HW221159   2.476   3.671   7.050 -1.1009 -1.2710 -0.7946
 3176SOL     OW21160   0.513   0.648   4.646 -0.2019  0.2903 -0.6129
 3176SOL    HW121161   0.440   0.614   4.698  1.1701  1.3655  1.9988
 3176SOL    HW221162   0.582   0.663   4.710 -1.0350 -0.0738  0.3788
 3177SOL     OW21163   1.208   0.975   1.322 -0.0984 -0.1705  0.0598
 3177SOL    HW121164   1.145   0.928   1.376 -0.5467 -1.5855 -1.6928
 3177SOL    HW221165   1.257   0.895   1.304  0.5205  0.3500 -0.5681
 3178SOL     OW21166   1.552   4.241  14.015  0.4260  0.4397  0.1883
 3178SOL    HW121167   1.458   4.245  14.036  0.5217 -2.8143  1.1902
 3178SOL    HW221168   1.551   4.172  13.949  1.7569 -1.8129  2.5481
 3179SOL     OW21169   1.102   1.105  16.917  0.1185  0.2262  0.2314
 3179SOL    HW121170   1.132   1.172  16.980  1.6545 -2.8340  2.7862
 3179SOL    HW221171   1.181   1.051  16.909  0.8539  1.2072  0.8333
 3180SOL     OW21172   0.040   3.505   2.116  0.4621 -0.4230 -0.5296
 3180SOL    HW121173   0.062   3.571   2.050 -1.5506  0.7083 -0.0800
 3180SOL    HW221174   4.684   3.508   2.132  0.4547  1.6846 -0.8770
 3181SOL     OW21175   1.527   3.756   8.516  0.1116 -0.6437  0.2134
 3181SOL    HW121176   1.446   3.728   8.561 -0.8469 -0.5292 -1.4401
 3181SOL    HW221177   1.536   3.837   8.566  3.1357 -0.7343 -0.1929
 3182SOL     OW21178   4.285   3.072   5.956 -0.1031 -0.1219  0.3537
 3182SOL    HW121179   4.332   3.120   5.888  0.8522 -1.2851  0.2105
 3182SOL    HW221180   4.193   3.070   5.929  0.5086 -1.5369 -1.5744
 3183SOL     OW21181   2.765   1.620  17.637 -0.0012 -0.2497 -0.1630
 3183SOL    HW121182   2.797   1.678  17.568 -1.1757  1.4425  0.6927
 3183SOL    HW221183   2.769   1.681  17.711  1.8885  0.3496 -0.7600
 3184SOL     OW21184   0.090   1.607  17.577  0.3234 -0.0277 -0.2593
 3184SOL    HW121185   0.032   1.638  17.646  1.4990 -0.1187  0.7741
 3184SOL    HW221186   0.176   1.610  17.618 -0.0949  1.1310  0.5242
 3185SOL     OW21187   2.128   2.169   9.956  0.3521  0.0491 -0.1885
 3185SOL    HW121188   2.145   2.076   9.973  2.0447  0.4147  0.1179
 3185SOL    HW221189   2.040   2.180   9.992 -0.1678  0.0405 -1.4783
 3186SOL     OW21190   0.135   1.332   5.392  0.2076 -0.1008 -0.4628
 3186SOL    HW121191   0.145   1.240   5.419 -0.9866  0.0217  0.3817
 3186SOL    HW221192   0.211   1.374   5.433 -1.2901  0.4668  1.7234
 3187SOL     OW21193   1.909   0.979   5.321 -0.0281 -0.0490  0.2994
 3187SOL    HW121194   1.847   0.909   5.300  0.3713  0.0565 -1.2307
 3187SOL    HW221195   1.958   0.928   5.386 -1.3051 -1.0114  0.5135
 3188SOL     OW21196   0.633   2.960  12.255  0.0218 -0.5893 -0.3896
 3188SOL    HW121197   0.637   3.056  12.247  1.8513 -0.5306  1.1776
 3188SOL    HW221198   0.538   2.959  12.271  0.2013  0.5361  0.7687
 3189SOL     OW21199   2.271   4.001   0.505  0.5061  0.0457 -0.6433
 3189SOL    HW121200   2.220   3.944   0.448 -0.4832 -1.0912  1.3610
 3189SOL    HW221201   2.220   3.994   0.586  0.2212 -0.5043 -0.8740
 3190SOL     OW21202   1.149   4.151   3.906  0.1826  0.0352 -0.3525
 3190SOL    HW121203   1.126   4.061   3.880 -1.4137 -0.2694  2.1251
 3190SOL    HW221204   1.135   4.202   3.827 -0.4910 -0.8307 -0.7948
 3191SOL     OW21205   2.069   1.475   6.642  0.2897 -0.0056 -0.0590
 3191SOL    HW121206   2.086   1.448   6.552 -0.9419  1.1424 -0.6206
 3191SOL    HW221207   2.150   1.443   6.682 -0.8377 -3.1677 -0.3061
 3192SOL     OW21208   3.827   3.771  16.977  0.0247  0.0784 -0.3335
 3192SOL    HW121209   3.840   3.819  17.058  1.5531 -0.1926 -0.4123
 3192SOL    HW221210   3.912   3.774  16.933 -0.3955 -0.1629 -1.1787
 3193SOL     OW21211   4.087   1.084   8.704 -0.4013 -0.0106 -0.1313
 3193SOL    HW121212   4.083   1.104   8.797 -1.5203 -2.7159  0.3896
 3193SOL    HW221213   4.010   1.129   8.669 -0.6017 -0.5762 -0.4306
 3194SOL     OW21214   0.405   2.137   2.725 -0.0926  0.3764 -0.0184
 3194SOL    HW121215   0.409   2.042   2.714  2.2539  0.5080 -0.2214
 3194SOL    HW221216   0.406   2.144   2.821  0.0337  1.4935 -0.0982
 3195SOL     OW21217   0.408   1.546   6.065 -0.5839  0.0578  0.3281
 3195SOL    HW121218   0.482   1.512   6.014  0.5856  1.8678  0.8412
 3195SOL    HW221219   0.424   1.502   6.149 -2.6174  0.3809  0.9028
 3196SOL     OW21220   3.169   3.096  13.465 -0.0215 -0.2227  0.3207
 3196SOL    HW121221   3.195   3.095  13.373 -0.2756 -4.0655  0.2740
 3196SOL    HW221222   3.116   3.175  13.477 -0.4442 -0.3682 -0.5663
 3197SOL     OW21223   2.662   2.385   7.439  0.4423  0.2260 -0.5366
 3197SOL    HW121224   2.722   2.341   7.500  0.4960  1.0996  0.0422
 3197SOL    HW221225   2.681   2.337   7.359 -0.4352  1.2095 -1.3370
 3198SOL     OW21226   4.545   3.400  14.569  0.0529  0.2691  0.1523
 3198SOL    HW121227   4.575   3.309  14.575 -1.7858 -0.2703  0.9247
 3198SOL    HW221228   4.487   3.402  14.493 -0.1450  2.7689  0.3854
 3199SOL     OW21229   3.221   4.013  17.109 -0.0576  0.6686 -0.3763
 3199SOL    HW121230   3.187   4.037  17.023 -0.2132  4.0224  0.6342
 3199SOL    HW221231   3.155   4.058  17.162  0.5714  1.3539 -0.1764
 3200SOL     OW21232   2.523   1.224   2.644  0.2098 -0.1971  0.0712
 3200SOL    HW121233   2.454   1.290   2.649  0.8059  0.4583 -0.3209
 3200SOL    HW221234   2.595   1.264   2.693  0.3995  0.0644 -0.4193
 3201SOL     OW21235   0.880   1.925   7.157 -0.1091  0.2310 -0.0165
 3201SOL    HW121236   0.860   1.999   7.213  1.6665 -1.0402  2.3420
 3201SOL    HW221237   0.804   1.926   7.100  0.5194  2.4740 -0.7978
 3202SOL     OW21238   4.101   3.190   0.355  0.6103 -0.4513 -0.6526
 3202SOL    HW121239   4.043   3.114   0.348 -2.6395  1.8387  1.6326
 3202SOL    HW221240   4.090   3.204   0.449  0.9151  2.5638 -1.0443
 3203SOL     OW21241   1.725   1.438  15.185 -0.3135  0.2000 -0.3708
 3203SOL    HW121242   1.750   1.448  15.277  2.0874  0.3269 -1.0514
 3203SOL    HW221243   1.804   1.392  15.158 -0.7106  0.5611 -2.1566
 3204SOL     OW21244   1.657   2.747   9.108 -0.0799 -0.0695 -0.4897
 3204SOL    HW121245   1.683   2.714   9.194  1.4663 -0.1638 -0.9877
 3204SOL    HW221246   1.739   2.766   9.062 -0.1496  0.6341 -0.3265
 3205SOL     OW21247   3.273   1.544  12.323 -0.1502  0.0517 -0.4704
 3205SOL    HW121248   3.332   1.561  12.397  0.0884 -0.0127 -0.6467
 3205SOL    HW221249   3.214   1.616  12.346  0.8660  1.1884 -1.4210
 3206SOL     OW21250   4.256   3.134  11.939 -0.1879  0.0390 -0.1815
 3206SOL    HW121251   4.203   3.087  11.874 -3.9789  1.6019  1.7449
 3206SOL    HW221252   4.234   3.088  12.019  0.1226 -2.7328 -1.7029
 3207SOL     OW21253   3.811   2.297   7.140 -0.4538  0.2877  0.0845
 3207SOL    HW121254   3.771   2.374   7.180 -1.1000  1.3379 -2.5648
 3207SOL    HW221255   3.879   2.336   7.085 -0.6916 -1.9246 -1.8018
 3208SOL     OW21256   1.150   4.010  15.816 -0.3171 -0.4229 -0.3614
 3208SOL    HW121257   1.204   4.069  15.869  0.3916 -0.1771 -1.3407
 3208SOL    HW221258   1.131   4.062  15.738  0.9609  1.9652  0.9155
 3209SOL     OW21259   2.090   4.445   4.323 -0.0303 -0.0182 -0.6336
 3209SOL    HW121260   2.015   4.419   4.376  0.2095  0.4289 -0.0718
 3209SOL    HW221261   2.156   4.381   4.350  2.2114  1.7553 -1.9042
 3210SOL     OW21262   0.982   2.127   5.042 -0.1510  0.2094 -0.7597
 3210SOL    HW121263   0.981   2.115   5.137  0.1501  3.6210 -0.2940
 3210SOL    HW221264   0.940   2.212   5.027  0.3553  0.6772  0.4817
 3211SOL     OW21265   3.883   2.109   1.936  0.1170  0.0292  0.2152
 3211SOL    HW121266   3.867   2.188   1.885 -0.0618  0.8233  1.4827
 3211SOL    HW221267   3.954   2.069   1.885  0.9164 -0.2978  1.5550
 3212SOL     OW21268   3.963   1.136   6.568 -0.1407  0.1501  0.0613
 3212SOL    HW121269   3.912   1.189   6.507  0.9834  0.8230 -0.3072
 3212SOL    HW221270   3.919   1.151   6.652 -0.0178 -0.1768  0.1854
 3213SOL     OW21271   1.644   2.317   0.378 -0.2844 -0.6626  0.1836
 3213SOL    HW121272   1.559   2.352   0.407  0.1642  0.0750  0.6168
 3213SOL    HW221273   1.616   2.262   0.305 -1.6611  0.2350  0.0162
 3214SOL     OW21274   0.646   2.003   7.021 -0.7376 -0.1718 -0.0783
 3214SOL    HW121275   0.673   2.026   6.933  1.4104  1.4235  0.9989
 3214SOL    HW221276   0.577   1.937   7.011  0.5140 -1.0553 -2.8138
 3215SOL     OW21277   4.311   2.556   0.510 -0.2275 -0.3976 -0.3236
 3215SOL    HW121278   4.238   2.558   0.572  0.2346  0.3617  0.2081
 3215SOL    HW221279   4.275   2.610   0.440  0.5859  2.3841  1.4063
 3216SOL     OW21280   1.952   4.046   9.307  0.0220  0.4335  0.4145
 3216SOL    HW121281   1.980   4.123   9.357  1.4947 -0.0407  0.3200
 3216SOL    HW221282   1.892   4.006   9.369  0.8747 -2.8307 -0.8606
 3217SOL     OW21283   2.559   1.163  10.748 -0.4575  0.2123  0.4097
 3217SOL    HW121284   2.486   1.225  10.739  0.3621  1.0490 -0.4822
 3217SOL    HW221285   2.631   1.225  10.740  0.5842 -1.1346 -0.6753
 3218SOL     OW21286   0.599   1.189  13.457 -0.1569 -0.2397  0.0939
 3218SOL    HW121287   0.608   1.278  13.423  1.9071 -0.3048  0.4869
 3218SOL    HW221288   0.688   1.158  13.473 -0.4532 -1.6065 -0.9587
 3219SOL     OW21289   2.142   3.991   2.820  0.2872 -0.4035  0.3264
 3219SOL    HW121290   2.195   4.046   2.762 -1.1378  0.0081 -0.6075
 3219SOL    HW221291   2.059   4.020   2.781  0.4573  1.2135  1.1564
 3220SOL     OW21292   0.470   0.468   8.014  0.2008 -0.8569  0.4262
 3220SOL    HW121293   0.378   0.454   7.993 -0.1501  1.1328  0.6028
 3220SOL    HW221294   0.494   0.548   7.968 -0.9555  0.1651  1.6014
 3221SOL     OW21295   4.025   1.369   5.020 -0.2527  0.4407  0.3593
 3221SOL    HW121296   4.054   1.309   4.951  0.9917 -0.7630  1.9225
 3221SOL    HW221297   4.005   1.444   4.965  0.3261 -0.4188 -1.0161
 3222SOL     OW21298   4.503   2.534   7.516  0.0711 -0.1261  0.6077
 3222SOL    HW121299   4.495   2.446   7.552  0.3957 -1.3366 -2.2546
 3222SOL    HW221300   4.533   2.574   7.597  0.7515  0.0096  0.2912
 3223SOL     OW21301   4.196   4.594   4.638 -0.2162 -0.3500 -0.3356
 3223SOL    HW121302   4.222   4.519   4.585 -1.7070 -1.3934  0.3940
 3223SOL    HW221303   4.117   4.567   4.685  0.1874 -1.4009 -0.2763
 3224SOL     OW21304   0.302   1.287  16.155 -0.2850 -0.9897 -0.5568
 3224SOL    HW121305   0.239   1.340  16.203 -0.5754 -1.7606 -0.0853
 3224SOL    HW221306   0.362   1.251  16.220  1.7361 -1.9770 -2.9690
 3225SOL     OW21307   4.502   2.137   5.277 -0.4070 -0.0417  0.7485
 3225SOL    HW121308   4.485   2.224   5.312  0.5095  0.3598  0.2160
 3225SOL    HW221309   4.577   2.116   5.333 -0.5120  0.1620  0.9673
 3226SOL     OW21310   3.332   0.397   3.076 -0.0032  0.2077 -0.0754
 3226SOL    HW121311   3.252   0.450   3.076  1.6539  2.7166 -0.4622
 3226SOL    HW221312   3.406   0.457   3.089  0.5915 -0.6852  0.6544
 3227SOL     OW21313   3.563   0.433  10.842  0.7065  0.2955  0.2640
 3227SOL    HW121314   3.647   0.405  10.878  1.6844  2.1961 -0.5033
 3227SOL    HW221315   3.563   0.371  10.769 -1.3867  0.7434 -0.1279
 3228SOL     OW21316   1.437   4.656   5.242 -0.0461 -0.2573 -0.3834
 3228SOL    HW121317   1.386   4.735   5.223 -1.8784 -1.8166 -1.8670
 3228SOL    HW221318   1.382   4.591   5.199 -1.1285 -0.0887  0.7663
 3229SOL     OW21319   0.842   2.986   8.063  0.1085  0.0373 -0.1166
 3229SOL    HW121320   0.875   3.066   8.024 -1.8229  0.1499 -1.5208
 3229SOL    HW221321   0.868   2.999   8.154 -2.3253  2.3098  0.2407
 3230SOL     OW21322   0.505   1.602  16.551  0.5361  0.2523 -0.3507
 3230SOL    HW121323   0.527   1.599  16.644 -0.7049  1.0693 -0.0422
 3230SOL    HW221324   0.542   1.519  16.521 -0.9376  0.2414 -2.1619
 3231SOL     OW21325   2.365   0.105  15.295  0.7187  0.8875  0.7682
 3231SOL    HW121326   2.366   0.183  15.240 -1.5746  0.3509 -0.0175
 3231SOL    HW221327   2.363   0.137  15.385  3.0584  1.3001  0.6638
 3232SOL     OW21328   1.440   0.194   5.490  0.0059 -0.5920 -0.3018
 3232SOL    HW121329   1.445   0.105   5.526 -1.8129 -0.8730 -0.7790
 3232SOL    HW221330   1.385   0.175   5.415  0.4853 -0.4696 -0.6838
 3233SOL     OW21331   1.751   0.180   8.898  0.2033 -0.0621 -0.5558
 3233SOL    HW121332   1.677   0.150   8.846 -0.9484 -1.7221  2.0442
 3233SOL    HW221333   1.734   0.150   8.987  3.7543  2.9702  1.1473
 3234SOL     OW21334   3.012   3.564   4.409  0.6429  0.4806  0.5924
 3234SOL    HW121335   2.982   3.638   4.356  1.0877 -0.1513 -0.5429
 3234SOL    HW221336   3.022   3.505   4.334 -0.7955  0.1010  0.7054
 3235SOL     OW21337   3.514   2.200   4.463 -0.0049  0.7040 -0.4764
 3235SOL    HW121338   3.470   2.241   4.388 -1.7998  0.9451  0.7177
 3235SOL    HW221339   3.571   2.275   4.482  0.6581  0.7742 -2.7771
 3236SOL     OW21340   0.638   4.561   7.402 -0.4207 -0.7949  0.0199
 3236SOL    HW121341   0.722   4.550   7.447  0.1894 -0.1758 -0.9482
 3236SOL    HW221342   0.635   4.657   7.402  2.6080 -0.6757  0.8688
 3237SOL     OW21343   3.514   4.593  11.807  0.4267 -0.1893  0.3249
 3237SOL    HW121344   3.425   4.560  11.813 -0.8289  3.0334 -0.3499
 3237SOL    HW221345   3.564   4.516  11.779  0.8767 -0.2795  1.3810
 3238SOL     OW21346   3.577   4.184   8.780  0.1122  0.1984  0.0029
 3238SOL    HW121347   3.606   4.253   8.839 -2.4052 -0.6324  2.1990
 3238SOL    HW221348   3.521   4.121   8.825  1.2159 -1.0264 -0.3319
 3239SOL     OW21349   0.753   1.910  12.250 -0.5519  0.5937  0.2329
 3239SOL    HW121350   0.773   1.935  12.340 -1.0083  1.3477  0.1234
 3239SOL    HW221351   0.801   1.976  12.200 -1.8076  0.9170 -0.5430
 3240SOL     OW21352   0.387   2.162   8.911 -0.1699 -0.3377  0.1979
 3240SOL    HW121353   0.358   2.165   9.003 -2.7455  1.7059 -0.6848
 3240SOL    HW221354   0.408   2.254   8.899 -2.5321  0.1090 -0.6441
 3241SOL     OW21355   1.603   0.750   0.145 -0.2216 -0.3573  0.3688
 3241SOL    HW121356   1.526   0.807   0.147 -1.2994 -1.8240  0.6008
 3241SOL    HW221357   1.608   0.721   0.237  1.2175 -0.5240  0.2413
 3242SOL     OW21358   1.175   4.338   6.362 -0.7344 -0.3219 -0.7787
 3242SOL    HW121359   1.126   4.413   6.327 -1.9945 -1.4576 -1.4061
 3242SOL    HW221360   1.135   4.334   6.449 -0.4242  0.5900 -0.5911
 3243SOL     OW21361   3.566   3.091   5.982 -0.2434  0.4315  0.6242
 3243SOL    HW121362   3.658   3.111   6.000 -0.6085  1.7709  1.0171
 3243SOL    HW221363   3.539   3.062   6.069 -0.2202 -0.3359  0.3696
 3244SOL     OW21364   4.619   1.209  14.838  0.0956 -0.6670  0.1659
 3244SOL    HW121365   4.533   1.245  14.859 -0.5477  0.3793 -4.3284
 3244SOL    HW221366   4.662   1.248  14.915 -1.9755  2.1813 -0.1178
 3245SOL     OW21367   1.779   1.135   3.366  0.0663 -0.4738  0.2024
 3245SOL    HW121368   1.687   1.131   3.339 -0.5494  3.1286  1.7266
 3245SOL    HW221369   1.769   1.125   3.461 -1.1943  0.0867  0.1242
 3246SOL     OW21370   3.273   3.103   4.989  0.0321  0.0147  0.0484
 3246SOL    HW121371   3.299   3.110   4.897 -0.4347 -1.7415 -0.2238
 3246SOL    HW221372   3.273   3.197   5.006 -0.2014  0.4693 -2.4556
 3247SOL     OW21373   0.929   4.681   6.431 -0.6175 -0.5018 -0.5334
 3247SOL    HW121374   1.014   4.705   6.469 -1.3180  0.2100  0.5888
 3247SOL    HW221375   0.959   4.621   6.363  0.3719  0.2478 -0.7692
 3248SOL     OW21376   3.625   1.614   9.706  0.1767 -0.1839 -0.1802
 3248SOL    HW121377   3.650   1.695   9.661  1.6931 -1.5950 -1.8785
 3248SOL    HW221378   3.650   1.641   9.794 -0.0881  0.8764 -0.4261
 3249SOL     OW21379   2.791   4.325   7.947 -0.7144 -0.0640  0.0085
 3249SOL    HW121380   2.859   4.286   8.002 -1.8804  1.2522  2.3474
 3249SOL    HW221381   2.718   4.264   7.958  0.4896 -1.3864  0.6860
 3250SOL     OW21382   1.242   2.531   7.275 -0.5962  0.3553 -0.1100
 3250SOL    HW121383   1.227   2.449   7.322  1.1718 -0.1085 -0.3277
 3250SOL    HW221384   1.184   2.590   7.322 -0.5933  0.2163  0.0678
 3251SOL     OW21385   1.714   3.796   1.054  0.3591  0.5304  0.4456
 3251SOL    HW121386   1.716   3.885   1.018  0.1468  0.2064 -0.3753
 3251SOL    HW221387   1.804   3.767   1.037  0.9929  2.7544  0.0083
 3252SOL     OW21388   2.324   3.540   4.269 -0.1569 -0.1249 -0.4551
 3252SOL    HW121389   2.327   3.596   4.191 -0.4321 -0.6723 -0.8613
 3252SOL    HW221390   2.272   3.587   4.333 -0.8543  2.8343 -3.2238
 3253SOL     OW21391   4.338   2.569  16.990  0.0255 -0.0467 -0.0629
 3253SOL    HW121392   4.317   2.647  17.042  0.4081 -1.5879  2.3794
 3253SOL    HW221393   4.338   2.608  16.902  0.4406  0.3128  0.0954
 3254SOL     OW21394   2.357   3.139   5.919  0.4281 -0.2086  0.2027
 3254SOL    HW121395   2.409   3.217   5.941  1.2179 -0.8051  0.4577
 3254SOL    HW221396   2.415   3.069   5.948 -0.2562 -0.7449  0.2785
 3255SOL     OW21397   3.910   2.043   2.916 -0.9480  0.0085 -0.4396
 3255SOL    HW121398   3.977   1.981   2.887 -0.9456 -0.2190  0.0608
 3255SOL    HW221399   3.868   1.987   2.981  0.1114  0.3243  0.5179
 3256SOL     OW21400   1.628   2.527   2.824  0.1117  0.4269 -0.6893
 3256SOL    HW121401   1.550   2.580   2.804 -0.0252  0.0591 -1.1199
 3256SOL    HW221402   1.666   2.580   2.894  4.0147 -2.9058 -0.3245
 3257SOL     OW21403   2.596   2.629   0.492 -0.1840 -0.2430  0.2179
 3257SOL    HW121404   2.514   2.660   0.456  0.5548 -0.4833 -1.6781
 3257SOL    HW221405   2.561   2.565   0.555  1.1226 -0.0747  1.1354
 3258SOL     OW21406   2.391   2.728  16.840  0.3546 -0.5754  0.2386
 3258SOL    HW121407   2.422   2.658  16.897  1.0650 -0.5943 -0.1651
 3258SOL    HW221408   2.456   2.798  16.850 -1.9614  1.7254 -0.8085
 3259SOL     OW21409   2.953   2.966   3.957  0.1960 -0.5965 -0.1405
 3259SOL    HW121410   3.020   2.899   3.966 -0.4636 -1.4686 -1.7014
 3259SOL    HW221411   2.915   2.967   4.045  0.3675  0.7560 -0.0809
 3260SOL     OW21412   3.127   0.480  13.449  0.0838 -0.4809  0.4097
 3260SOL    HW121413   3.097   0.395  13.479 -0.3103 -0.7279 -0.6798
 3260SOL    HW221414   3.205   0.459  13.398 -1.2539 -0.3095 -1.7008
 3261SOL     OW21415   2.416   0.922   6.615 -0.4568 -0.0061  0.0286
 3261SOL    HW121416   2.336   0.914   6.564 -0.2836  1.6964 -0.4898
 3261SOL    HW221417   2.441   1.006   6.578  0.1810 -0.2275 -0.0463
 3262SOL     OW21418   3.055   0.839   2.933 -0.3572 -0.0249 -0.1422
 3262SOL    HW121419   3.052   0.915   2.991 -0.8439 -0.0095 -0.1900
 3262SOL    HW221420   2.963   0.814   2.925 -0.7679  1.0882  1.0444
 3263SOL     OW21421   3.892   3.303   0.987 -0.8946 -0.2060 -0.3390
 3263SOL    HW121422   3.808   3.294   0.941 -1.5909  0.8343  0.7644
 3263SOL    HW221423   3.904   3.398   0.987 -0.9552 -0.2007  0.6020
 3264SOL     OW21424   0.195   1.831   9.819 -0.3563  0.5713 -0.1739
 3264SOL    HW121425   0.271   1.787   9.858 -0.7082 -0.5706 -0.7621
 3264SOL    HW221426   0.149   1.752   9.790  1.1261 -0.1873 -0.4849
 3265SOL     OW21427   2.778   1.476  15.283  0.0686 -0.1340  0.1349
 3265SOL    HW121428   2.830   1.405  15.244  1.0947  0.6363  0.1002
 3265SOL    HW221429   2.850   1.523  15.324 -0.3299 -0.0055  0.6955
 3266SOL     OW21430   0.395   1.727   1.805 -0.0566  0.5221 -0.1351
 3266SOL    HW121431   0.474   1.756   1.850 -0.4966  0.8295  0.4432
 3266SOL    HW221432   0.353   1.811   1.785  0.2719  0.7618  0.1960
 3267SOL     OW21433   2.989   0.838   2.240  0.7123 -0.4072 -0.1482
 3267SOL    HW121434   2.956   0.830   2.330 -0.1748  1.6720 -0.2806
 3267SOL    HW221435   2.997   0.750   2.203  0.0753 -0.9024  0.8920
 3268SOL     OW21436   3.945   2.721   3.209 -0.3037 -0.1589  0.0331
 3268SOL    HW121437   3.995   2.790   3.252  0.1244  0.3396 -1.2522
 3268SOL    HW221438   3.958   2.643   3.262  1.0031 -0.8811 -1.3552
 3269SOL     OW21439   4.302   2.175  12.691  0.0776  0.2143  0.5217
 3269SOL    HW121440   4.270   2.216  12.610 -1.0420  0.1598  0.9374
 3269SOL    HW221441   4.388   2.150  12.659  0.9262  2.3151  1.1091
 3270SOL     OW21442   3.478   3.189  12.392  0.3161  0.0781  0.1685
 3270SOL    HW121443   3.541   3.242  12.441  0.0521 -0.2835  0.9001
 3270SOL    HW221444   3.476   3.105  12.437  1.6142  0.0911  0.2481
 3271SOL     OW21445   0.424   4.724   6.845  0.3046 -0.1531  0.4066
 3271SOL    HW121446   0.408   0.013   6.935 -2.9493  0.0717 -0.2131
 3271SOL    HW221447   0.508   0.025   6.823  1.0170 -2.0863 -0.3030
 3272SOL     OW21448   0.213   3.042  17.589 -0.0148  0.0901 -0.5017
 3272SOL    HW121449   0.182   3.118  17.638  0.6946  0.1500 -0.1429
 3272SOL    HW221450   0.161   2.976  17.636 -0.8951  0.5676 -0.8050
 3273SOL     OW21451   0.225   4.481  12.503 -0.2643 -0.1511  0.1547
 3273SOL    HW121452   0.209   4.394  12.539  0.2852 -0.9101 -1.4382
 3273SOL    HW221453   0.199   4.466  12.412  0.6223 -1.5793  0.1271
 3274SOL     OW21454   2.161   1.231   4.257  0.1683  0.3263 -0.3576
 3274SOL    HW121455   2.186   1.144   4.287  1.0330  0.2715 -1.2143
 3274SOL    HW221456   2.068   1.228   4.281 -0.4196 -1.2598 -2.8721
 3275SOL     OW21457   3.947   2.151  14.419 -0.3055  0.2811 -0.7392
 3275SOL    HW121458   3.903   2.066  14.416  2.3832 -1.0935 -0.5123
 3275SOL    HW221459   3.965   2.156  14.326 -3.2377  0.8052 -1.2882
 3276SOL     OW21460   0.029   4.471   2.263 -0.9230 -0.0669  0.1236
 3276SOL    HW121461   0.014   4.381   2.234 -0.3126 -0.3497  0.6877
 3276SOL    HW221462   0.020   4.478   2.358 -0.3598  1.5934  0.0620
 3277SOL     OW21463   1.734   2.976   3.464  0.1541  0.2852  0.3130
 3277SOL    HW121464   1.689   2.899   3.499 -1.5971  1.6339  1.0271
 3277SOL    HW221465   1.820   2.939   3.480 -0.1621  0.3293  2.0762
 3278SOL     OW21466   3.285   3.858   7.915 -0.8248 -0.1210 -0.6472
 3278SOL    HW121467   3.248   3.806   7.986  0.6708 -0.7289 -0.3134
 3278SOL    HW221468   3.223   3.824   7.850 -0.5467  2.1930 -2.1148
 3279SOL     OW21469   3.950   3.811   3.702  0.6780  0.1127  0.5426
 3279SOL    HW121470   4.017   3.811   3.770  0.1865  0.7810  1.0373
 3279SOL    HW221471   3.945   3.903   3.677 -0.5866  0.5429  2.3698
 3280SOL     OW21472   2.463   4.107  16.435  0.0319  0.1808  0.0226
 3280SOL    HW121473   2.516   4.103  16.355 -0.5830 -0.1209 -0.3705
 3280SOL    HW221474   2.427   4.018  16.433  2.3142 -0.7029 -1.3333
 3281SOL     OW21475   1.521   4.420   3.627 -0.3660  0.8228  0.2670
 3281SOL    HW121476   1.500   4.365   3.552  0.0184 -0.4232  1.0751
 3281SOL    HW221477   1.479   4.376   3.701 -0.1868 -0.7240 -0.5637
 3282SOL     OW21478   3.039   3.592   2.447 -0.5406  0.1191  0.4868
 3282SOL    HW121479   3.005   3.510   2.481  0.4624 -1.0040 -1.2502
 3282SOL    HW221480   3.042   3.575   2.353 -1.1579  0.9063  0.3194
 3283SOL     OW21481   3.647   2.637  14.982  0.1628 -0.6235 -0.4674
 3283SOL    HW121482   3.603   2.560  14.944  2.9998 -2.0461 -0.8478
 3283SOL    HW221483   3.722   2.630  14.923  1.1633  0.0221  0.7506
 3284SOL     OW21484   4.034   4.447   7.174 -0.3283  0.0366 -0.7350
 3284SOL    HW121485   3.997   4.507   7.238  0.5394  1.7608 -1.8417
 3284SOL    HW221486   4.012   4.358   7.201 -2.0343  0.1448 -1.7746
 3285SOL     OW21487   1.969   3.901   5.544 -0.9856  0.5667  0.0619
 3285SOL    HW121488   1.897   3.960   5.523 -1.0874  0.3094 -0.3034
 3285SOL    HW221489   1.998   3.861   5.462 -1.1650 -2.2906  1.3720
 3286SOL     OW21490   1.957   0.982  15.292  0.3904 -0.3128 -0.2901
 3286SOL    HW121491   1.871   1.023  15.280  0.2642 -0.0112  1.6107
 3286SOL    HW221492   1.983   1.055  15.348 -0.2146  2.3373 -3.4513
 3287SOL     OW21493   2.080   0.093   1.263 -0.6458  0.6424 -0.5977
 3287SOL    HW121494   2.055   0.074   1.172 -0.7095 -0.2723 -0.3911
 3287SOL    HW221495   2.011   0.050   1.313  0.0872  0.6503  0.4116
 3288SOL     OW21496   3.295   2.423   2.838 -0.2071  0.1088  0.1726
 3288SOL    HW121497   3.363   2.372   2.883  0.6027  0.7615 -0.3136
 3288SOL    HW221498   3.310   2.517   2.844  0.9960 -0.0792  0.2478
 3289SOL     OW21499   0.632   2.235   3.472  0.3007  0.6707  0.2796
 3289SOL    HW121500   0.555   2.257   3.525  1.0246  0.0071  1.6190
 3289SOL    HW221501   0.595   2.166   3.418  1.1759 -0.0597  0.6176
 3290SOL     OW21502   3.801   1.498   4.182  0.2489 -0.0261 -0.1082
 3290SOL    HW121503   3.734   1.431   4.200 -0.2270  0.1522 -1.2615
 3290SOL    HW221504   3.813   1.464   4.094 -2.6121  1.1861 -0.9695
 3291SOL     OW21505   4.496   1.913  14.802 -0.3833 -0.0706  0.0936
 3291SOL    HW121506   4.504   1.922  14.897 -0.9845 -2.9717  0.4354
 3291SOL    HW221507   4.448   1.993  14.785 -1.3810 -1.2565 -2.5736
 3292SOL     OW21508   4.019   4.200   3.907 -0.3540  0.0094  0.0985
 3292SOL    HW121509   4.109   4.169   3.912 -0.1283  0.6143 -0.1933
 3292SOL    HW221510   3.991   4.162   3.823 -0.2514  2.5284 -1.0866
 3293SOL     OW21511   2.085   3.346   6.592 -0.3157 -0.2698  0.0189
 3293SOL    HW121512   2.016   3.290   6.628 -0.7420 -1.2612 -2.3391
 3293SOL    HW221513   2.135   3.278   6.546  1.0956 -0.3279  1.6522
 3294SOL     OW21514   2.601   2.297   7.828 -0.2027 -0.6244 -0.3023
 3294SOL    HW121515   2.632   2.207   7.826 -1.2434 -0.9844 -0.3496
 3294SOL    HW221516   2.561   2.302   7.741 -1.3437  1.3713  0.3331
 3295SOL     OW21517   3.544   2.744   7.993  0.3362 -0.1045  0.0806
 3295SOL    HW121518   3.449   2.741   8.002  0.4926 -1.8955  1.0696
 3295SOL    HW221519   3.577   2.726   8.081 -0.6549  0.7224  0.6187
 3296SOL     OW21520   1.491   3.027   4.913  0.1127  0.0918  0.1930
 3296SOL    HW121521   1.477   2.941   4.874  3.5106  0.1796 -1.2222
 3296SOL    HW221522   1.518   3.072   4.833  1.2466  0.3763  0.7406
 3297SOL     OW21523   4.444   0.662   9.073  0.1732  0.0583  0.2483
 3297SOL    HW121524   4.501   0.737   9.091  1.4275 -1.2676  1.8711
 3297SOL    HW221525   4.486   0.619   8.999  1.8370  1.5038  0.3396
 3298SOL     OW21526   4.383   1.568   7.453  0.6456 -0.1132  0.1229
 3298SOL    HW121527   4.317   1.578   7.522  0.9147  0.2090  0.3355
 3298SOL    HW221528   4.452   1.623   7.492  0.4958  0.9257 -1.0613
 3299SOL     OW21529   3.019   4.617   7.933  0.3980  0.8900  0.4507
 3299SOL    HW121530   3.075   4.556   7.885  0.8946  0.9423  0.9717
 3299SOL    HW221531   3.077   4.625   8.008  2.1523  1.3081 -0.9422
 3300SOL     OW21532   0.767   1.509   3.691  0.0078 -0.1704  0.1636
 3300SOL    HW121533   0.828   1.493   3.619  0.7232  1.8406  0.3337
 3300SOL    HW221534   0.788   1.591   3.734  3.9675 -0.7453 -0.6975
 3301SOL     OW21535   4.218   4.606   3.410 -0.3304 -0.4191  0.5874
 3301SOL    HW121536   4.222   4.625   3.317 -2.9768  0.5294  0.6788
 3301SOL    HW221537   4.270   4.526   3.419  1.3238  0.1238 -4.0591
 3302SOL     OW21538   3.027   1.878   3.990 -0.1044  0.3651 -0.7010
 3302SOL    HW121539   3.112   1.864   3.948  0.3325 -1.4827  0.8326
 3302SOL    HW221540   3.050   1.949   4.050 -0.1011 -0.4655  0.2859
 3303SOL     OW21541   0.770   2.232   0.079 -0.1389  0.1582 -0.2218
 3303SOL    HW121542   0.751   2.323   0.055  0.9297 -0.5352 -3.6756
 3303SOL    HW221543   0.735   2.201  17.749  1.0268  1.4011 -1.1791
 3304SOL     OW21544   0.396   0.971   7.753  0.0419 -0.1764  0.5364
 3304SOL    HW121545   0.450   0.939   7.681 -0.0079 -0.2593  0.5360
 3304SOL    HW221546   0.462   1.018   7.804  0.4449 -0.2337  0.0685
 3305SOL     OW21547   0.044   3.717   2.779  0.2856  0.3047  0.0286
 3305SOL    HW121548   0.091   3.787   2.733 -0.8522  3.4730  3.5838
 3305SOL    HW221549   0.063   3.639   2.728  3.8028  1.5896 -0.6218
 3306SOL     OW21550   0.691   2.600   4.791  0.0559  0.0178  0.0483
 3306SOL    HW121551   0.629   2.601   4.719  0.1836  2.5661 -0.0200
 3306SOL    HW221552   0.645   2.562   4.866 -0.6696  1.4468  0.3303
 3307SOL     OW21553   2.971   3.243   3.042 -0.3727  0.2692  0.4522
 3307SOL    HW121554   3.008   3.310   3.101  1.5633 -0.3347 -0.0586
 3307SOL    HW221555   3.033   3.172   3.060 -1.6352 -0.9020  0.1096
 3308SOL     OW21556   1.689   2.391   7.313 -0.1195 -0.2993  0.1950
 3308SOL    HW121557   1.620   2.356   7.256 -0.0395  0.3505 -0.3009
 3308SOL    HW221558   1.654   2.475   7.341  1.6349  0.2463  0.7658
 3309SOL     OW21559   4.431   1.133   9.129  0.3512 -0.5358 -0.3089
 3309SOL    HW121560   4.376   1.211   9.116  0.9393 -0.0777 -0.0214
 3309SOL    HW221561   4.452   1.130   9.222 -2.2278  2.0314  0.3668
 3310SOL     OW21562   0.031   0.089  13.875  0.2733 -0.4013  0.1832
 3310SOL    HW121563   0.074   0.143  13.941  0.8141 -0.7839  0.1430
 3310SOL    HW221564   4.725   0.036  13.941 -0.3184 -2.2107 -1.6415
 3311SOL     OW21565   0.466   4.199  15.573 -0.0725 -0.6372  0.4532
 3311SOL    HW121566   0.502   4.146  15.502 -0.9482 -0.2729 -0.2665
 3311SOL    HW221567   0.535   4.263  15.586 -0.1135  0.3285 -3.9663
 3312SOL     OW21568   0.587   3.478   8.359  0.0193  0.0526  0.5149
 3312SOL    HW121569   0.676   3.498   8.332 -1.2281  0.9456 -3.0354
 3312SOL    HW221570   0.551   3.567   8.362  1.0077  0.3637  2.7147
 3313SOL     OW21571   4.383   0.452   6.493 -0.3391  0.5912 -0.5850
 3313SOL    HW121572   4.471   0.474   6.463 -0.1889 -0.0956 -0.6458
 3313SOL    HW221573   4.346   0.538   6.515 -1.9287 -0.6751  1.6566
 3314SOL     OW21574   4.224   4.627   5.581  0.5929  0.8467 -0.1213
 3314SOL    HW121575   4.261   4.627   5.669 -3.5030  1.0511  1.6249
 3314SOL    HW221576   4.146   4.575   5.601  0.9439  0.7461  1.0119
 3315SOL     OW21577   4.206   0.243   5.979  0.0462  0.1086 -0.1852
 3315SOL    HW121578   4.247   0.206   6.057  0.6774  0.0020 -0.5634
 3315SOL    HW221579   4.265   0.214   5.909  0.6968  0.4914  0.2079
 3316SOL     OW21580   1.269   4.511  12.790 -0.2024  0.4576  0.1775
 3316SOL    HW121581   1.187   4.478  12.751 -0.2189  0.7838 -0.0629
 3316SOL    HW221582   1.274   4.587  12.731  1.5633 -1.3582 -1.9793
 3317SOL     OW21583   4.674   0.840   4.750 -0.4180 -0.1910 -0.2230
 3317SOL    HW121584   4.684   0.747   4.728 -1.3652  0.0441 -1.6816
 3317SOL    HW221585   4.638   0.862   4.664 -1.5787 -0.9603  0.0674
 3318SOL     OW21586   3.693   4.639   4.733  0.0740  0.1473 -0.2363
 3318SOL    HW121587   3.659   4.663   4.819 -3.6547  1.6614 -2.1485
 3318SOL    HW221588   3.682   4.719   4.682 -1.8830  0.1911  0.2610
 3319SOL     OW21589   1.088   2.226   1.821  0.3625  0.6649  0.3575
 3319SOL    HW121590   1.096   2.134   1.797  0.5889  0.1641  2.3157
 3319SOL    HW221591   1.155   2.233   1.889 -1.3688  0.9099  2.0580
 3320SOL     OW21592   3.069   0.731   6.422  0.3514  0.1309  0.1346
 3320SOL    HW121593   3.093   0.746   6.330 -0.9417  0.4630 -0.1446
 3320SOL    HW221594   2.979   0.701   6.418 -0.0217  1.2235  0.2971
 3321SOL     OW21595   2.825   2.455   4.858 -0.5533 -0.4945  0.5440
 3321SOL    HW121596   2.801   2.460   4.765 -0.5787  0.9216  0.6309
 3321SOL    HW221597   2.878   2.375   4.857  0.7711  0.3981 -1.8256
 3322SOL     OW21598   1.865   4.015   3.681  0.2915  0.2404  0.4328
 3322SOL    HW121599   1.816   3.997   3.601  0.0075  0.7986  0.4805
 3322SOL    HW221600   1.797   4.063   3.729  0.4536  2.1072 -1.1911
 3323SOL     OW21601   2.729   3.279   2.890  0.0172 -0.2365  0.0385
 3323SOL    HW121602   2.813   3.250   2.926 -0.1677  0.2549  0.8641
 3323SOL    HW221603   2.725   3.356   2.947 -0.6249  0.3497 -0.7957
 3324SOL     OW21604   3.345   4.669   3.725  0.1426  0.2179  0.3999
 3324SOL    HW121605   3.368   4.719   3.647  0.7616  1.2488  1.2495
 3324SOL    HW221606   3.294   4.735   3.772 -1.7992 -0.8168 -0.2832
 3325SOL     OW21607   0.425   2.948   0.214 -0.3242  0.2267  0.0493
 3325SOL    HW121608   0.345   2.996   0.189 -1.9581 -2.9212 -0.7794
 3325SOL    HW221609   0.421   2.874   0.153  1.2851 -1.0836  1.5718
 3326SOL     OW21610   0.050   2.024  12.396  0.0318 -0.3053 -0.1167
 3326SOL    HW121611   0.123   2.031  12.458  0.3691  0.7145 -0.6350
 3326SOL    HW221612   0.019   1.937  12.421 -0.0794 -0.8632 -2.2225
 3327SOL     OW21613   0.493   1.762  11.916 -0.1121 -0.3570 -0.3499
 3327SOL    HW121614   0.449   1.684  11.882 -0.4914 -0.1535 -0.3249
 3327SOL    HW221615   0.568   1.727  11.965 -1.0321 -0.3425  1.0640
 3328SOL     OW21616   0.662   0.079   6.745 -0.0781  0.1615 -0.4230
 3328SOL    HW121617   0.664   0.081   6.649 -0.0821 -1.5569 -0.4607
 3328SOL    HW221618   0.697   4.734   6.775  2.8760  1.8633  0.8500
 3329SOL     OW21619   3.189   4.198   4.125  0.7751  0.9297  0.2206
 3329SOL    HW121620   3.218   4.108   4.112  1.1724  0.8987  1.3467
 3329SOL    HW221621   3.160   4.188   4.215 -0.5234 -1.4588 -0.4653
 3330SOL     OW21622   0.311   4.680   8.308  0.1147  0.4292  0.2912
 3330SOL    HW121623   0.382   4.702   8.247  2.0333  0.2344  2.4644
 3330SOL    HW221624   0.265   0.025   8.310  0.7507  0.7838  0.1835
 3331SOL     OW21625   3.329   3.613   3.065  0.6936  0.0842  0.6284
 3331SOL    HW121626   3.343   3.540   3.004  1.8543  0.0989  0.8783
 3331SOL    HW221627   3.406   3.663   3.038 -2.9302  3.5813 -3.1009
 3332SOL     OW21628   1.736   3.879   8.407  0.1481 -0.6167 -0.1501
 3332SOL    HW121629   1.723   3.918   8.320 -0.9290 -0.7292 -0.0353
 3332SOL    HW221630   1.658   3.827   8.425  0.5825 -1.7777 -1.6576
 3333SOL     OW21631   2.646   1.868  14.627  0.1328 -0.4798 -0.1076
 3333SOL    HW121632   2.698   1.908  14.697 -0.4318 -1.4799  0.8800
 3333SOL    HW221633   2.641   1.941  14.565  0.1383 -0.6011 -0.2506
 3334SOL     OW21634   4.411   0.607   5.194 -0.3690 -0.1167  0.0564
 3334SOL    HW121635   4.420   0.676   5.128 -1.9289 -1.4259 -1.5312
 3334SOL    HW221636   4.353   0.647   5.259  0.9738 -1.0955  1.8533
 3335SOL     OW21637   3.573   3.513   8.420  0.7067  0.0385 -0.5569
 3335SOL    HW121638   3.626   3.438   8.397  0.2431 -0.3148 -0.4815
 3335SOL    HW221639   3.505   3.484   8.481  1.2353  0.1851  0.1073
 3336SOL     OW21640   3.404   0.573   4.589  0.1895  0.2363 -0.1899
 3336SOL    HW121641   3.497   0.593   4.601  0.0994  0.0100  0.9504
 3336SOL    HW221642   3.358   0.657   4.598 -1.4000 -0.3983 -2.4797
 3337SOL     OW21643   2.435   0.024   2.915  0.1866  0.2597 -0.1157
 3337SOL    HW121644   2.530   0.025   2.907 -0.0461  0.1056 -2.8540
 3337SOL    HW221645   2.435   0.067   3.001 -0.9285  0.0162  0.0096
 3338SOL     OW21646   0.024   3.818   4.892  0.8288  0.6369 -0.1427
 3338SOL    HW121647   0.019   3.911   4.915 -1.9297 -0.3374  3.1870
 3338SOL    HW221648   0.026   3.779   4.979 -1.7723 -0.7341 -0.7044
 3339SOL     OW21649   0.670   3.188   5.710 -0.1477 -0.2188 -0.4034
 3339SOL    HW121650   0.660   3.175   5.616 -0.5385  1.6993 -0.6246
 3339SOL    HW221651   0.579   3.173   5.737  0.2419 -0.2774  0.8468
 3340SOL     OW21652   3.374   2.880  17.417  0.1374  0.9468 -0.2824
 3340SOL    HW121653   3.334   2.938  17.482 -0.1447  0.6968 -0.2304
 3340SOL    HW221654   3.303   2.856  17.359 -0.1154  0.5697  0.1806
 3341SOL     OW21655   1.499   0.373   4.709  0.3131 -0.1605  0.3877
 3341SOL    HW121656   1.452   0.316   4.649 -0.2355 -0.9362  1.5604
 3341SOL    HW221657   1.444   0.447   4.683  0.6728  0.1177  0.4181
 3342SOL     OW21658   4.624   0.044  17.325 -0.1793 -0.1125  0.0406
 3342SOL    HW121659   4.613   0.134  17.355  0.6274 -0.5907  1.7562
 3342SOL    HW221660   4.532   0.026  17.304  0.6713 -1.5429 -2.4029
 3343SOL     OW21661   1.232   1.966   5.843  0.0072 -0.4846  0.7040
 3343SOL    HW121662   1.247   2.058   5.822 -2.5897  0.1689  1.7511
 3343SOL    HW221663   1.319   1.927   5.835  0.1749 -0.1360  0.8536
 3344SOL     OW21664   4.565   4.180   9.622 -0.6122 -0.0111  0.1486
 3344SOL    HW121665   4.595   4.194   9.532  2.7127  1.5264  1.5377
 3344SOL    HW221666   4.487   4.235   9.631  0.6159  2.0479 -1.7400
 3345SOL     OW21667   3.602   1.394   7.209 -0.7776 -0.1361  0.1453
 3345SOL    HW121668   3.541   1.364   7.141  1.2734  1.9960 -2.6177
 3345SOL    HW221669   3.650   1.460   7.160 -4.4114  2.2076 -0.2185
 3346SOL     OW21670   1.616   1.118   4.304 -0.0351  0.0483  0.0046
 3346SOL    HW121671   1.589   1.027   4.319 -0.5323 -0.2814 -2.7418
 3346SOL    HW221672   1.526   1.147   4.285 -0.1656 -1.6463 -2.0306
 3347SOL     OW21673   3.126   1.376   1.063 -0.8388  0.2117 -0.6743
 3347SOL    HW121674   3.094   1.342   1.147 -1.2585  2.6422  0.1489
 3347SOL    HW221675   3.078   1.458   1.075 -0.2966  0.5466 -0.8334
 3348SOL     OW21676   3.638   1.683   4.311  0.4650  0.2776 -0.6694
 3348SOL    HW121677   3.625   1.616   4.378 -0.8390 -2.5414 -3.7250
 3348SOL    HW221678   3.690   1.643   4.241 -0.0677 -1.7670  0.0881
 3349SOL     OW21679   4.029   3.642   2.150  0.5415  0.2426  0.5258
 3349SOL    HW121680   3.980   3.564   2.177  0.6210  0.2402  0.6612
 3349SOL    HW221681   4.081   3.597   2.084  0.8204  2.1936 -0.5968
 3350SOL     OW21682   0.729   4.010  13.504 -0.6330 -0.2201 -0.0369
 3350SOL    HW121683   0.661   4.048  13.449 -2.2153 -1.5535  0.9710
 3350SOL    HW221684   0.793   4.080  13.514 -0.5298 -0.2029 -0.8075
 3351SOL     OW21685   0.863   0.593   5.373 -0.0725 -0.3381 -0.1857
 3351SOL    HW121686   0.847   0.548   5.290 -2.8062 -2.0610  1.2532
 3351SOL    HW221687   0.777   0.635   5.384  1.5506  3.1219 -0.6188
 3352SOL     OW21688   2.930   1.306  17.437 -0.5483 -0.7278 -0.7295
 3352SOL    HW121689   2.916   1.392  17.396  0.1805 -0.6851 -0.8972
 3352SOL    HW221690   2.978   1.328  17.516  0.9028 -2.0711 -1.2222
 3353SOL     OW21691   3.698   2.479  15.908  0.3493  0.0872  0.1191
 3353SOL    HW121692   3.658   2.412  15.852 -0.3814  0.4128  0.2498
 3353SOL    HW221693   3.668   2.442  15.991  0.8910 -0.5697  0.0216
 3354SOL     OW21694   3.061   3.297   2.327 -0.1503  0.3068 -0.2581
 3354SOL    HW121695   3.110   3.352   2.265  0.1972  0.4363  0.1326
 3354SOL    HW221696   3.127   3.288   2.395 -0.7913 -1.4723  0.1134
 3355SOL     OW21697   0.927   0.032   8.210  0.7595 -0.0270 -0.3989
 3355SOL    HW121698   0.979   0.097   8.258  0.2211 -0.4755  0.7912
 3355SOL    HW221699   0.975   4.689   8.220 -1.0104 -0.6776  2.9377
 3356SOL     OW21700   2.533   2.577   4.309 -0.0821 -0.0127  0.3586
 3356SOL    HW121701   2.514   2.552   4.399 -0.6808 -0.2191  0.1755
 3356SOL    HW221702   2.487   2.508   4.260  0.2991  0.6343 -0.9189
 3357SOL     OW21703   2.870   0.929   5.914  0.0990  0.5418 -0.7661
 3357SOL    HW121704   2.915   0.848   5.889 -0.1655  0.6524 -1.5965
 3357SOL    HW221705   2.842   0.921   6.006 -1.3334  0.7993 -1.1810
 3358SOL     OW21706   0.644   0.270  13.302 -0.7417  0.0220 -0.0892
 3358SOL    HW121707   0.571   0.214  13.330 -1.3496  1.5479  1.3488
 3358SOL    HW221708   0.696   0.277  13.383  0.8664 -1.9996 -0.9279
 3359SOL     OW21709   0.930   1.449   5.111  0.2980 -0.2320  1.0926
 3359SOL    HW121710   0.912   1.369   5.161 -0.6579 -1.8108 -1.7963
 3359SOL    HW221711   0.938   1.511   5.184 -2.0406  0.9939  0.3141
 3360SOL     OW21712   2.421   0.243  15.531 -0.2774  0.3363 -0.5438
 3360SOL    HW121713   2.490   0.232  15.597 -2.1317  0.2441  1.3635
 3360SOL    HW221714   2.401   0.336  15.545 -2.0781  0.0747 -1.4364
 3361SOL     OW21715   2.868   0.134   2.392  0.3388 -0.3345 -0.2818
 3361SOL    HW121716   2.829   0.177   2.316  1.7036  1.4614  0.0322
 3361SOL    HW221717   2.904   0.057   2.349  1.8116  0.9403 -1.3062
 3362SOL     OW21718   2.553   2.583  10.047 -0.3209  0.2634 -0.2709
 3362SOL    HW121719   2.593   2.533  10.119  0.5924 -1.9297 -2.3100
 3362SOL    HW221720   2.461   2.595  10.072 -0.6398  1.3938 -2.0188
 3363SOL     OW21721   1.174   4.643  17.335 -0.5786 -0.4153  0.3662
 3363SOL    HW121722   1.171   4.551  17.359  3.0044 -0.3231  1.2306
 3363SOL    HW221723   1.100   4.659  17.276  0.4058 -1.3750 -1.1556
 3364SOL     OW21724   1.835   2.944   3.129 -0.0496  0.2272 -0.4866
 3364SOL    HW121725   1.921   2.904   3.145 -0.8056 -1.1046  0.3301
 3364SOL    HW221726   1.798   2.965   3.215 -0.0308 -0.5478 -0.2876
 3365SOL     OW21727   1.071   4.592   6.789 -0.0689  0.6544 -0.0626
 3365SOL    HW121728   1.088   4.656   6.720 -1.5275  0.8732 -0.2101
 3365SOL    HW221729   1.158   4.567   6.821  0.5462  2.1868 -0.5042
 3366SOL     OW21730   3.965   0.343   7.157  0.2728  0.2503  0.6505
 3366SOL    HW121731   4.037   0.406   7.147  0.0675  0.2794 -0.6315
 3366SOL    HW221732   3.983   0.286   7.083 -0.4973 -0.9786  1.3974
 3367SOL     OW21733   2.723   0.036   1.265 -0.4265  0.3368  0.1374
 3367SOL    HW121734   2.775   0.079   1.197  0.5747  2.9481  2.5153
 3367SOL    HW221735   2.644   0.011   1.218 -1.9361  1.1991  2.1898
 3368SOL     OW21736   3.451   1.696   5.676  0.2156  0.0681 -1.3468
 3368SOL    HW121737   3.496   1.780   5.671 -1.2408  1.0491  1.9339
 3368SOL    HW221738   3.424   1.706   5.585 -1.0077  0.9694 -0.8813
 3369SOL     OW21739   4.457   2.369  12.851  0.3574  0.7070 -0.8001
 3369SOL    HW121740   4.397   2.389  12.923  0.9083 -2.7140  0.6015
 3369SOL    HW221741   4.393   2.317  12.802  0.3417 -0.1633  0.1467
 3370SOL     OW21742   3.643   3.750   8.818 -1.0831 -0.0942  0.1485
 3370SOL    HW121743   3.714   3.813   8.829 -0.2452 -0.8659 -0.8640
 3370SOL    HW221744   3.577   3.813   8.846 -0.9694 -1.6498  3.9078
 3371SOL     OW21745   2.368   3.098   2.160  0.5308  0.7672 -0.3619
 3371SOL    HW121746   2.303   3.147   2.210  2.0081  3.2288 -0.8675
 3371SOL    HW221747   2.311   3.023   2.140 -2.3179  2.6387  0.7533
 3372SOL     OW21748   1.841   0.519  17.594  0.5653  0.3297 -0.4231
 3372SOL    HW121749   1.748   0.529  17.612  0.6117  0.5999 -0.3370
 3372SOL    HW221750   1.863   0.514  17.687  2.1554 -0.5206 -0.8415
 3373SOL     OW21751   2.981   0.806  13.567  0.4476 -0.9754 -0.3866
 3373SOL    HW121752   3.015   0.838  13.484 -1.3778  1.4268 -0.2052
 3373SOL    HW221753   3.015   0.716  13.570  1.6453 -0.5082  0.4736
 3374SOL     OW21754   2.324   3.673   5.712 -0.9426 -0.5485  0.0070
 3374SOL    HW121755   2.379   3.595   5.712  1.1551  0.9588  1.9524
 3374SOL    HW221756   2.266   3.665   5.788  1.0908 -2.6083  1.3542
 3375SOL     OW21757   1.454   0.256   7.070  0.9023 -0.0978  0.7175
 3375SOL    HW121758   1.367   0.297   7.070 -0.1202 -2.2862  2.2835
 3375SOL    HW221759   1.479   0.305   7.149  2.7326 -0.6337  0.4762
 3376SOL     OW21760   1.993   1.795   1.899  0.4149  0.1961 -0.1285
 3376SOL    HW121761   1.916   1.761   1.945 -0.5950  0.5243 -1.5550
 3376SOL    HW221762   2.057   1.780   1.968 -2.2114 -0.1295  2.2118
 3377SOL     OW21763   4.277   3.782   5.578  0.7548  0.8099 -0.4139
 3377SOL    HW121764   4.230   3.801   5.659  2.0284 -2.1502  1.0298
 3377SOL    HW221765   4.284   3.871   5.544  2.2565  0.4679 -1.0081
 3378SOL     OW21766   0.008   4.401   8.591  0.1458 -0.3049  0.3796
 3378SOL    HW121767   4.655   4.424   8.579  0.0999 -1.1029 -0.7551
 3378SOL    HW221768   0.026   4.365   8.505 -4.8454  1.5346 -1.4420
 3379SOL     OW21769   4.680   4.380  14.047 -0.4757 -0.7535  0.3011
 3379SOL    HW121770   4.656   4.300  14.094 -0.9252  0.6643  2.4265
 3379SOL    HW221771   4.603   4.391  13.992  0.5483  0.6595 -0.8406
 3380SOL     OW21772   2.406   2.326   8.136  0.3167  0.4468  0.3877
 3380SOL    HW121773   2.351   2.403   8.126  0.5100  0.2514 -2.3308
 3380SOL    HW221774   2.492   2.361   8.160  1.1381 -0.9609 -0.5146
 3381SOL     OW21775   1.123   4.049   5.619 -0.2729  0.1616 -0.4454
 3381SOL    HW121776   1.120   3.972   5.676  0.0020 -1.7145 -2.9266
 3381SOL    HW221777   1.051   4.029   5.559 -1.9420  1.1804  1.2148
 3382SOL     OW21778   2.274   0.731   7.673  0.2626 -0.0964 -0.5152
 3382SOL    HW121779   2.189   0.765   7.645 -0.8174 -2.8129 -0.5456
 3382SOL    HW221780   2.238   0.643   7.665 -2.3536  0.5226  4.1380
 3383SOL     OW21781   3.262   2.979   4.321 -0.0892 -0.3257 -0.1814
 3383SOL    HW121782   3.330   3.018   4.266 -0.7991  0.8115 -0.2539
 3383SOL    HW221783   3.267   2.884   4.315  4.2645 -0.0983 -0.3810
 3384SOL     OW21784   2.663   1.430  10.745  0.1418 -0.3305  0.4543
 3384SOL    HW121785   2.725   1.422  10.818 -0.1935 -0.4617  0.7195
 3384SOL    HW221786   2.589   1.483  10.774  1.1086 -0.0070  2.3224
 3385SOL     OW21787   3.726   0.847   7.252 -0.4517 -0.3069 -0.2471
 3385SOL    HW121788   3.679   0.786   7.309  0.6738 -0.6037  0.3831
 3385SOL    HW221789   3.686   0.925   7.291 -1.4712 -1.9436  2.0157
 3386SOL     OW21790   1.133   3.666   4.762  0.3042 -0.4206 -0.1771
 3386SOL    HW121791   1.097   3.752   4.737 -0.3296 -0.9458 -1.0833
 3386SOL    HW221792   1.095   3.643   4.847  2.1605 -1.1534  0.4351
 3387SOL     OW21793   1.711   3.547  13.837  0.0337 -0.3126 -0.1674
 3387SOL    HW121794   1.802   3.543  13.804  0.1501  0.4557  0.0643
 3387SOL    HW221795   1.716   3.590  13.922 -0.2496  0.4494 -0.5298
 3388SOL     OW21796   2.539   4.518   1.655  0.2713 -0.0818 -0.1622
 3388SOL    HW121797   2.585   4.499   1.737 -1.4139  1.1344  1.0907
 3388SOL    HW221798   2.502   4.434   1.627 -0.6695  1.0620 -2.3451
 3389SOL     OW21799   3.036   3.764   5.924  0.0096 -0.2670 -0.1866
 3389SOL    HW121800   3.017   3.820   5.849 -0.2494 -0.9807 -0.6542
 3389SOL    HW221801   3.093   3.704   5.876 -1.2459 -2.7470  1.3797
 3390SOL     OW21802   0.707   0.002   9.733 -0.1657 -0.1810  0.0506
 3390SOL    HW121803   0.685   4.672   9.671 -0.0493  0.1650 -0.3808
 3390SOL    HW221804   0.730   4.690   9.811  0.4199  1.5837  1.0377
 3391SOL     OW21805   2.239   1.485  13.983  0.3441 -0.0706 -0.5052
 3391SOL    HW121806   2.335   1.484  13.993  0.3676  0.6284 -0.6575
 3391SOL    HW221807   2.229   1.401  13.938 -0.9969 -0.7861  1.1240
 3392SOL     OW21808   0.047   1.415   0.668  0.4186  0.5705 -0.1566
 3392SOL    HW121809   0.035   1.326   0.702 -0.3683  1.5429  2.1067
 3392SOL    HW221810   4.701   1.458   0.681 -0.8313 -2.5478  2.1051
 3393SOL     OW21811   4.705   1.730   7.033  0.3733  0.1159  0.2974
 3393SOL    HW121812   4.647   1.806   7.028 -1.1151 -1.1006 -0.8296
 3393SOL    HW221813   4.631   1.672   7.052 -0.5240  0.8301 -0.9963
 3394SOL     OW21814   1.236   2.517   6.409 -0.4596 -0.4937  0.0319
 3394SOL    HW121815   1.295   2.448   6.380  0.1341  0.1908 -0.3747
 3394SOL    HW221816   1.306   2.581   6.422  1.3436 -2.3102 -0.6526
 3395SOL     OW21817   1.969   3.432   5.324  0.0360 -0.9486 -0.3397
 3395SOL    HW121818   2.058   3.467   5.322 -0.7294  1.1524  2.3237
 3395SOL    HW221819   1.963   3.406   5.416  0.9741  1.2274  0.3310
 3396SOL     OW21820   0.518   2.499   0.062 -0.1768  0.0709  0.1744
 3396SOL    HW121821   0.476   2.431   0.008 -1.5842  0.4632  0.7676
 3396SOL    HW221822   0.505   2.453   0.145 -0.0830 -1.2564 -0.5439
 3397SOL     OW21823   1.626   1.158   6.034  0.0331 -0.0192  0.1714
 3397SOL    HW121824   1.720   1.141   6.048  0.5956  2.1333 -0.9220
 3397SOL    HW221825   1.625   1.253   6.047  0.8580 -0.1629  1.3380
 3398SOL     OW21826   3.943   4.462   3.846 -0.2260 -0.3829  0.1494
 3398SOL    HW121827   3.959   4.368   3.845  0.2139 -0.3241  1.3695
 3398SOL    HW221828   3.880   4.471   3.917  0.7754  1.8817  0.7690
 3399SOL     OW21829   4.473   4.268   3.162  0.3747  0.3394  0.7518
 3399SOL    HW121830   4.501   4.177   3.159  3.1425  1.2308 -1.0322
 3399SOL    HW221831   4.380   4.259   3.179  0.6741 -1.2670  1.4704
 3400SOL     OW21832   4.529   2.073   2.951  0.2863  0.2752 -0.2584
 3400SOL    HW121833   4.458   2.021   2.989 -0.4866  1.5641  0.0407
 3400SOL    HW221834   4.507   2.160   2.984  1.1741 -0.6548  2.7266
 3401SOL     OW21835   4.241   2.154  16.971 -0.7001  0.3292 -0.1528
 3401SOL    HW121836   4.199   2.148  17.057  2.5190  1.4192  1.4635
 3401SOL    HW221837   4.173   2.186  16.911 -0.4069 -0.4141 -0.8829
 3402SOL     OW21838   0.388   3.400   6.744  0.5334  0.3632  0.5222
 3402SOL    HW121839   0.354   3.322   6.701  1.0660  0.1730  0.4591
 3402SOL    HW221840   0.466   3.409   6.689  0.5474 -0.8598  0.3496
 3403SOL     OW21841   4.196   3.102   1.536  0.6966 -0.1393  0.2800
 3403SOL    HW121842   4.245   3.021   1.548 -0.6210 -0.8475  0.8601
 3403SOL    HW221843   4.227   3.134   1.452 -0.8703  0.1292 -0.1864
 3404SOL     OW21844   3.914   1.823   2.442 -0.0014  0.1294 -0.1517
 3404SOL    HW121845   3.945   1.820   2.351 -1.9434 -2.0265 -0.7412
 3404SOL    HW221846   3.961   1.904   2.463  1.3087 -0.5552 -0.4939
 3405SOL     OW21847   3.427   1.936   2.878 -0.1637 -0.0916  0.0114
 3405SOL    HW121848   3.421   1.958   2.785 -1.1559  1.0595  0.3412
 3405SOL    HW221849   3.389   1.848   2.875  2.0017 -0.9513 -1.4470
 3406SOL     OW21850   3.879   3.898  12.791 -0.0661  0.3886  0.2078
 3406SOL    HW121851   3.856   3.985  12.825 -0.8501  0.3904 -0.3236
 3406SOL    HW221852   3.931   3.931  12.717 -0.3441 -1.6191 -0.8703
 3407SOL     OW21853   3.977   0.583   5.206  0.0542 -0.1083 -0.2873
 3407SOL    HW121854   3.971   0.531   5.286  2.8032 -0.2578 -0.1828
 3407SOL    HW221855   4.048   0.549   5.152 -1.7362  0.7170 -3.1461
 3408SOL     OW21856   0.476   0.478  17.393  0.2909  0.2974  0.1439
 3408SOL    HW121857   0.414   0.551  17.399  1.0520  0.9769 -0.2653
 3408SOL    HW221858   0.411   0.408  17.390  0.8762 -0.3393  2.5028
 3409SOL     OW21859   3.047   3.222   6.165 -0.5125  0.0789  0.0813
 3409SOL    HW121860   2.978   3.282   6.195  0.0777  0.4593  0.6889
 3409SOL    HW221861   3.108   3.284   6.125 -1.4711  1.5760  0.8993
 3410SOL     OW21862   0.519   0.263   2.384 -0.4040  0.1520  0.0243
 3410SOL    HW121863   0.597   0.308   2.353 -0.2110  0.3346  0.7733
 3410SOL    HW221864   0.513   0.180   2.336  0.8250 -0.3464  0.7224
 3411SOL     OW21865   1.077   1.539   3.806 -0.9770  0.1545  0.3386
 3411SOL    HW121866   1.035   1.471   3.859  1.5584 -0.4837  1.5166
 3411SOL    HW221867   1.073   1.616   3.863 -1.9618 -0.2696  0.8364
 3412SOL     OW21868   2.587   4.130   4.960  0.2678 -0.1759 -0.1143
 3412SOL    HW121869   2.683   4.136   4.958  0.0632  2.3731 -1.6557
 3412SOL    HW221870   2.567   4.052   4.910 -2.5295 -0.1030  0.8673
 3413SOL     OW21871   1.225   1.856   6.437 -0.6664  0.0504 -0.0389
 3413SOL    HW121872   1.310   1.898   6.421 -1.2379  1.7358  1.3977
 3413SOL    HW221873   1.244   1.826   6.526 -0.3108 -1.0929 -0.5000
 3414SOL     OW21874   3.411   2.604   1.370 -0.6100  0.5199 -0.1264
 3414SOL    HW121875   3.330   2.587   1.418 -0.9482  0.5680 -0.6834
 3414SOL    HW221876   3.462   2.668   1.419  0.8044 -0.6559 -0.0624
 3415SOL     OW21877   2.419   3.977   3.263  0.2140  0.1642  0.1529
 3415SOL    HW121878   2.397   3.949   3.351 -1.2892  0.0535 -0.2574
 3415SOL    HW221879   2.514   3.989   3.254  0.1327  0.9171  0.2595
 3416SOL     OW21880   0.518   3.782   2.588 -0.0802  0.2913  0.3967
 3416SOL    HW121881   0.504   3.731   2.508  0.1631 -1.5331  1.5397
 3416SOL    HW221882   0.481   3.724   2.654  1.3364 -0.3277  0.6301
 3417SOL     OW21883   1.498   2.956  11.402  0.1768 -0.0519 -0.3879
 3417SOL    HW121884   1.462   2.978  11.316  1.4005 -2.6549 -1.5506
 3417SOL    HW221885   1.491   3.045  11.439  2.4925  0.8556 -2.1019
 3418SOL     OW21886   3.575   0.198  13.289  0.1845  0.4233  0.2088
 3418SOL    HW121887   3.590   0.288  13.259  0.9969  0.2351  0.0511
 3418SOL    HW221888   3.657   0.177  13.334 -1.2281  0.3673  2.7873
 3419SOL     OW21889   1.551   4.690   2.752  0.0092 -0.0054  0.6056
 3419SOL    HW121890   1.615   4.718   2.818  0.9718 -0.7780 -0.0035
 3419SOL    HW221891   1.573   4.597   2.746 -0.3764 -0.1522  1.3284
 3420SOL     OW21892   1.851   3.795   6.404  0.5505  0.5472 -0.0740
 3420SOL    HW121893   1.875   3.702   6.412 -4.0331 -0.6964 -1.1343
 3420SOL    HW221894   1.903   3.836   6.473 -1.9730 -1.2655  2.9219
 3421SOL     OW21895   3.036   1.769   6.798  0.3195  0.8030  0.5892
 3421SOL    HW121896   2.994   1.742   6.880  0.9434  0.3253  0.7553
 3421SOL    HW221897   3.105   1.703   6.789 -1.6816 -1.3381  0.8075
 3422SOL     OW21898   1.825   4.353  14.870 -0.2893 -0.0137  0.2875
 3422SOL    HW121899   1.905   4.359  14.818 -2.0446  0.7861 -2.3831
 3422SOL    HW221900   1.768   4.309  14.806  2.0678 -0.6378 -1.3900
 3423SOL     OW21901   0.766   1.907   1.115 -0.2749  0.5636 -0.3806
 3423SOL    HW121902   0.756   1.837   1.180 -0.5476 -1.1710 -2.2759
 3423SOL    HW221903   0.794   1.861   1.036 -0.6637 -1.0003  0.3740
 3424SOL     OW21904   2.151   1.764  11.362  0.0765 -0.0320  0.0844
 3424SOL    HW121905   2.244   1.753  11.343  0.0977  0.4850 -0.0951
 3424SOL    HW221906   2.135   1.689  11.419 -1.0962  1.7263  2.0576
 3425SOL     OW21907   1.712   2.415   6.805 -0.0821  0.1498 -0.2145
 3425SOL    HW121908   1.622   2.440   6.786 -0.4434 -0.7636  0.3433
 3425SOL    HW221909   1.711   2.320   6.802  1.0077  0.2049 -2.1268
 3426SOL     OW21910   4.266   4.671   7.660  0.3139  0.6963 -0.5592
 3426SOL    HW121911   4.175   4.660   7.689  0.2460  0.3524 -0.9018
 3426SOL    HW221912   4.256   0.017   7.617  0.0259  1.7239  1.5534
 3427SOL     OW21913   3.195   4.508   0.323  0.0704  0.0807  0.4353
 3427SOL    HW121914   3.113   4.486   0.279 -0.1818 -0.7012  1.3078
 3427SOL    HW221915   3.218   4.597   0.296 -2.8847  0.6233 -0.2952
 3428SOL     OW21916   3.132   1.968   6.472  0.1307 -0.2858  0.1006
 3428SOL    HW121917   3.060   1.927   6.520 -1.0352  3.2948  1.4340
 3428SOL    HW221918   3.115   2.061   6.489 -0.0811 -0.5761  1.4644
 3429SOL     OW21919   2.003   1.237   6.984 -0.3392 -0.0495 -0.4690
 3429SOL    HW121920   2.011   1.144   6.962  2.0187 -0.6691  2.9318
 3429SOL    HW221921   2.086   1.238   7.032 -0.4906  1.3381 -0.2426
 3430SOL     OW21922   0.987   1.916   4.876  0.1006  0.0170  0.1958
 3430SOL    HW121923   0.969   1.994   4.926 -0.4457 -0.4714  0.7500
 3430SOL    HW221924   0.933   1.852   4.921  1.0122 -0.6491  0.3454
 3431SOL     OW21925   2.327   1.284  11.100  0.3579  0.6479  0.2822
 3431SOL    HW121926   2.256   1.269  11.037 -0.0291 -1.0266  1.1361
 3431SOL    HW221927   2.390   1.224  11.061 -0.3879  0.1670 -0.1916
 3432SOL     OW21928   0.813   2.976   1.993  0.5610  0.1796  0.4746
 3432SOL    HW121929   0.799   3.037   1.921 -0.5732 -0.8680 -0.1808
 3432SOL    HW221930   0.758   3.017   2.059 -0.9003  1.1592 -1.3680
 3433SOL     OW21931   0.428   1.961   6.530 -0.0858 -0.0234 -0.5268
 3433SOL    HW121932   0.458   1.969   6.621  1.9878 -1.4040 -1.1151
 3433SOL    HW221933   0.346   1.913   6.536  2.1649 -3.7009  0.5022
 3434SOL     OW21934   1.576   4.428   7.709  0.0848 -0.0108 -0.3436
 3434SOL    HW121935   1.615   4.482   7.777  0.2519 -0.0976 -0.3708
 3434SOL    HW221936   1.533   4.489   7.650  1.7884 -0.2118 -1.7685
 3435SOL     OW21937   1.488   4.524   6.636  0.5051 -0.0064 -0.0046
 3435SOL    HW121938   1.436   4.499   6.712 -1.6943 -0.1684 -1.5511
 3435SOL    HW221939   1.492   4.439   6.591  1.6559 -0.8081  1.6326
 3436SOL     OW21940   2.464   3.305   7.709 -0.6298 -0.7838  0.2911
 3436SOL    HW121941   2.400   3.347   7.652 -0.8538  0.6680  1.6042
 3436SOL    HW221942   2.506   3.246   7.647 -1.6161 -0.0825 -1.0429
 3437SOL     OW21943   3.572   0.453   8.606 -1.0006 -0.0297 -0.1413
 3437SOL    HW121944   3.536   0.527   8.654 -2.1979 -1.0344  0.5160
 3437SOL    HW221945   3.517   0.456   8.528 -0.1931  0.2568 -0.6898
 3438SOL     OW21946   4.148   3.024   6.639  0.4870 -0.2026 -0.1245
 3438SOL    HW121947   4.212   2.970   6.686  0.3928  1.6919  2.1757
 3438SOL    HW221948   4.069   2.970   6.646  0.4308  0.4646  4.2757
 3439SOL     OW21949   0.199   3.986   7.583  0.2230  0.1503  0.6582
 3439SOL    HW121950   0.205   3.904   7.535 -0.9845  0.2171  0.3780
 3439SOL    HW221951   0.144   4.037   7.522  0.8995  0.6975  0.4992
 3440SOL     OW21952   3.069   3.728   5.472  0.2786  0.4089 -0.0516
 3440SOL    HW121953   3.071   3.668   5.546 -1.7019  0.8006  0.3065
 3440SOL    HW221954   2.995   3.691   5.424  0.3473 -0.0872  0.2267
 3441SOL     OW21955   2.537   1.963   7.487 -0.5378 -0.2062 -0.0769
 3441SOL    HW121956   2.539   2.028   7.417  0.7255  0.1487  0.2901
 3441SOL    HW221957   2.538   1.876   7.448  0.3909 -0.5483  0.7028
 3442SOL     OW21958   3.783   0.521   1.398 -0.1859 -0.5546  0.0469
 3442SOL    HW121959   3.841   0.480   1.334 -0.2848  0.6398 -0.8076
 3442SOL    HW221960   3.701   0.500   1.352  0.1550 -1.6470 -0.0633
 3443SOL     OW21961   3.966   2.183   6.827 -0.4036  0.1013 -0.2312
 3443SOL    HW121962   3.940   2.096   6.796 -1.6000  0.0534  0.8902
 3443SOL    HW221963   4.028   2.152   6.893 -0.6396  0.4071  0.1327
 3444SOL     OW21964   4.101   0.613  13.981 -0.0956 -0.1703  0.3687
 3444SOL    HW121965   4.075   0.521  13.983  1.5809 -0.6308  0.5684
 3444SOL    HW221966   4.016   0.645  13.951 -0.0606 -1.2537 -0.8796
 3445SOL     OW21967   4.674   1.548  16.117 -0.1068  0.3277  0.0837
 3445SOL    HW121968   4.701   1.510  16.034  1.5614  1.2589  0.2072
 3445SOL    HW221969   4.605   1.608  16.088  0.4271  0.3968 -1.0130
 3446SOL     OW21970   3.826   2.259   6.492  0.0446 -0.5005  0.1555
 3446SOL    HW121971   3.917   2.276   6.518 -1.4601  3.1855  2.9366
 3446SOL    HW221972   3.795   2.349   6.498  0.3353 -0.3893  0.0083
 3447SOL     OW21973   0.425   1.471   6.999 -0.2793  0.0823  0.3722
 3447SOL    HW121974   0.371   1.531   7.051  2.0311  1.2136  1.4309
 3447SOL    HW221975   0.363   1.425   6.943 -0.2775 -0.1335  0.5470
 3448SOL     OW21976   3.919   3.022   5.076 -0.3422 -0.0942  0.0712
 3448SOL    HW121977   3.849   2.992   5.018 -0.7866 -0.0160  0.5568
 3448SOL    HW221978   3.921   2.942   5.130 -3.6954  0.2821  0.7768
 3449SOL     OW21979   1.956   3.350  10.931 -0.2463  0.3940 -0.1642
 3449SOL    HW121980   2.032   3.406  10.912  0.7982 -0.9283  0.1627
 3449SOL    HW221981   1.970   3.331  11.023 -0.6808 -0.4145 -0.2628
 3450SOL     OW21982   1.848   3.747  15.872  0.2814 -0.0230  0.2164
 3450SOL    HW121983   1.871   3.772  15.782 -0.8613  0.2158 -0.0132
 3450SOL    HW221984   1.906   3.809  15.917  0.4356 -0.3351  0.4460
 3451SOL     OW21985   1.329   0.663  13.147 -0.0952 -0.3380 -0.2187
 3451SOL    HW121986   1.351   0.603  13.076  1.2531 -0.1976  0.0632
 3451SOL    HW221987   1.367   0.744  13.111  3.2523 -1.4943  0.7409
 3452SOL     OW21988   4.214   4.450   8.609  1.1292 -0.6399 -0.3817
 3452SOL    HW121989   4.144   4.472   8.670  0.7602 -0.6472 -0.7972
 3452SOL    HW221990   4.287   4.472   8.668  0.7928  1.6426 -0.7952
 3453SOL     OW21991   1.266   4.197   5.445  0.1079  0.1071  0.7145
 3453SOL    HW121992   1.296   4.258   5.512 -1.5833  0.4628  1.1560
 3453SOL    HW221993   1.203   4.152   5.502  0.6980  0.3059  1.5209
 3454SOL     OW21994   0.223   1.008   6.193 -0.5519 -0.6007 -0.1479
 3454SOL    HW121995   0.229   1.070   6.121 -0.0406 -2.5517 -1.7805
 3454SOL    HW221996   0.288   1.039   6.257 -1.0854  0.5315 -0.1579
 3455SOL     OW21997   4.041   1.462   8.633 -0.1867  0.0461  0.5020
 3455SOL    HW121998   4.131   1.438   8.654  0.8964  1.3479 -2.5915
 3455SOL    HW221999   3.999   1.378   8.615  2.3907 -1.1281  0.0192
 3456SOL     OW22000   1.940   3.354   4.005 -0.6954 -0.2802  0.4421
 3456SOL    HW122001   1.886   3.288   4.047  0.5898 -1.8623 -0.3800
 3456SOL    HW222002   2.009   3.364   4.071  0.9051 -1.2705 -1.0719
 3457SOL     OW22003   1.657   3.235   7.787  0.6965 -0.6105 -0.3113
 3457SOL    HW122004   1.643   3.161   7.728 -0.1573 -0.4767 -0.2752
 3457SOL    HW222005   1.614   3.201   7.866  0.5284  2.1252  0.7630
 3458SOL     OW22006   0.779   1.687   1.321  0.3958 -0.4325  0.2633
 3458SOL    HW122007   0.716   1.663   1.388 -0.3375 -1.4794 -0.8163
 3458SOL    HW222008   0.835   1.736   1.381  0.3182  0.1304 -0.1157
 3459SOL     OW22009   3.969   3.396  14.840  0.5070 -0.1709  0.6245
 3459SOL    HW122010   4.014   3.368  14.919 -0.9920 -0.8450  1.2254
 3459SOL    HW222011   3.932   3.312  14.812  1.5280 -0.0139 -1.2374
 3460SOL     OW22012   0.638   4.419   8.909  0.2547 -0.0954 -0.0216
 3460SOL    HW122013   0.700   4.464   8.851  2.0818 -1.5930  0.7614
 3460SOL    HW222014   0.556   4.457   8.877  0.6365  0.5665 -0.2198
 3461SOL     OW22015   1.303   4.468   6.857 -0.4258 -0.0602  0.0143
 3461SOL    HW122016   1.316   4.448   6.950  0.9330  0.6613 -0.0199
 3461SOL    HW222017   1.270   4.383   6.829 -0.2763 -0.5468  1.2958
 3462SOL     OW22018   4.321   2.372   2.821 -0.3638 -0.6120 -0.4683
 3462SOL    HW122019   4.318   2.351   2.915  0.7881  2.0137  0.1596
 3462SOL    HW222020   4.408   2.410   2.817 -2.0227  3.3979  1.2072
 3463SOL     OW22021   3.808   0.358  11.968  0.1624 -0.6067 -0.7254
 3463SOL    HW122022   3.803   0.265  11.986 -5.1484 -0.1679  0.2287
 3463SOL    HW222023   3.798   0.389  12.058 -1.5455  0.1316 -1.1563
 3464SOL     OW22024   1.030   4.476   5.536 -0.4413 -0.9642  0.2467
 3464SOL    HW122025   0.961   4.501   5.597  0.8737  0.7149  1.0185
 3464SOL    HW222026   1.001   4.385   5.523 -1.2965 -0.5432 -0.7475
 3465SOL     OW22027   4.522   1.191   0.306 -0.0031 -0.2777 -0.2358
 3465SOL    HW122028   4.450   1.253   0.291  0.8643  0.9733  0.7574
 3465SOL    HW222029   4.537   1.202   0.400  1.3883 -2.0660 -0.2638
 3466SOL     OW22030   3.273   1.622   7.213 -0.0456  0.0922 -0.3684
 3466SOL    HW122031   3.322   1.638   7.294  0.1880  2.1540 -0.9055
 3466SOL    HW222032   3.194   1.675   7.223 -1.8156 -2.6720  0.1371
 3467SOL     OW22033   0.739   3.499   7.921 -0.0056  0.7141 -0.2066
 3467SOL    HW122034   0.826   3.507   7.881 -1.4938  0.8532 -3.4093
 3467SOL    HW222035   0.704   3.588   7.914  0.2677  0.9390  1.4327
 3468SOL     OW22036   1.486   1.657   4.715  0.4379 -0.7010 -0.3287
 3468SOL    HW122037   1.401   1.693   4.691  0.8814 -0.6228 -1.8198
 3468SOL    HW222038   1.518   1.600   4.644  0.4798 -2.0364  0.7729
 3469SOL     OW22039   3.710   1.234   3.132  0.1156 -0.8421  0.2728
 3469SOL    HW122040   3.785   1.208   3.185  0.5126  1.1676  0.6973
 3469SOL    HW222041   3.728   1.204   3.043 -1.7295  0.2078 -0.4648
 3470SOL     OW22042   0.983   4.113  10.495  0.1154 -0.6054  0.7632
 3470SOL    HW122043   1.051   4.108  10.563  1.3542  0.6941 -0.3615
 3470SOL    HW222044   1.017   4.054  10.428 -1.5153  1.0407 -1.4837
 3471SOL     OW22045   4.314   3.360   5.456 -0.0817 -0.2465 -0.0639
 3471SOL    HW122046   4.329   3.268   5.475 -3.6583 -0.3534  2.3254
 3471SOL    HW222047   4.395   3.392   5.417  1.0144 -1.1039  1.5033
 3472SOL     OW22048   1.866   2.351   7.706  0.1253  0.1142 -0.2007
 3472SOL    HW122049   1.911   2.432   7.686 -1.0380  0.9076  0.3537
 3472SOL    HW222050   1.922   2.292   7.756 -1.7654 -0.5044  1.2116
 3473SOL     OW22051   2.020   2.078   7.554  0.3517  0.4910  0.5550
 3473SOL    HW122052   2.068   2.064   7.472  0.4734  0.0188  0.7077
 3473SOL    HW222053   1.937   2.100   7.510  1.5369  0.6181 -1.6413
 3474SOL     OW22054   1.271   3.459   9.387 -0.2086 -0.1141 -0.2162
 3474SOL    HW122055   1.202   3.436   9.450  1.1503 -3.7514 -0.0527
 3474SOL    HW222056   1.257   3.390   9.322 -1.9853 -1.7511  1.8914
 3475SOL     OW22057   2.010   4.220  15.196  0.6845  0.2028 -0.5896
 3475SOL    HW122058   2.084   4.267  15.233  2.3797 -2.6049 -0.3860
 3475SOL    HW222059   1.969   4.172  15.269 -0.0363 -1.6969 -2.2281
 3476SOL     OW22060   2.155   3.381   5.735 -0.1137 -0.0055 -0.2594
 3476SOL    HW122061   2.060   3.393   5.722  0.1475  0.5127 -1.6924
 3476SOL    HW222062   2.206   3.450   5.692  0.1602 -0.0173  0.0500
 3477SOL     OW22063   2.038   1.244  16.679 -0.2036  0.1531 -0.1180
 3477SOL    HW122064   2.014   1.154  16.701  3.9148 -1.1835 -1.1746
 3477SOL    HW222065   2.050   1.273  16.769  3.0298 -2.0679  0.1757
 3478SOL     OW22066   4.322   4.347  14.873  0.7651 -0.5119 -0.3054
 3478SOL    HW122067   4.375   4.422  14.848 -0.5346  0.1562 -1.0554
 3478SOL    HW222068   4.384   4.292  14.921 -1.1447 -2.5678 -0.2259
 3479SOL     OW22069   3.514   2.112   1.954 -0.3221 -0.0546  0.5546
 3479SOL    HW122070   3.573   2.186   1.938 -1.1460  0.7888  1.3666
 3479SOL    HW222071   3.468   2.147   2.031 -1.0417  1.8285 -0.7359
 3480SOL     OW22072   1.506   3.528   7.580 -0.2167  0.3830  0.2493
 3480SOL    HW122073   1.473   3.453   7.531 -0.6524  0.4024  0.5104
 3480SOL    HW222074   1.588   3.494   7.615  0.3691  1.6744  0.1408
 3481SOL     OW22075   3.224   2.584  11.781 -0.5653 -0.2293 -0.3696
 3481SOL    HW122076   3.283   2.533  11.726  0.1520  2.0425 -1.6952
 3481SOL    HW222077   3.217   2.663  11.727  0.6442 -0.1347 -0.3860
 3482SOL     OW22078   0.374   0.790   8.080  0.0464 -0.0961  0.5883
 3482SOL    HW122079   0.398   0.883   8.070  0.7765 -0.4098 -0.6924
 3482SOL    HW222080   0.438   0.768   8.148 -1.1336 -2.0315  1.0618
 3483SOL     OW22081   0.387   1.857  16.280 -0.3683 -0.2199  0.1787
 3483SOL    HW122082   0.405   1.763  16.274  0.4003 -0.0293 -0.5280
 3483SOL    HW222083   0.363   1.883  16.191  0.9040  2.3923  0.5828
 3484SOL     OW22084   2.554   4.163   2.702  0.0220  0.0323 -0.8917
 3484SOL    HW122085   2.626   4.107   2.672  1.1131  0.3756  1.1095
 3484SOL    HW222086   2.564   4.164   2.797  1.7576  0.7427 -1.0820
 3485SOL     OW22087   4.260   0.912  11.886  0.4624 -0.4302 -0.1205
 3485SOL    HW122088   4.211   0.830  11.876  0.1349 -0.2406 -0.0737
 3485SOL    HW222089   4.248   0.928  11.979  1.3021 -2.2993  0.3147
 3486SOL     OW22090   1.904   4.316   2.600 -0.9217 -0.0495 -0.2324
 3486SOL    HW122091   1.984   4.337   2.552  0.2868 -1.0718  1.3457
 3486SOL    HW222092   1.922   4.229   2.634 -1.6248  1.0165  2.8900
 3487SOL     OW22093   4.440   3.511   4.976 -0.4008 -0.2485  1.0741
 3487SOL    HW122094   4.359   3.561   4.967  0.3789  0.9205  0.5446
 3487SOL    HW222095   4.483   3.566   5.041  3.1724  1.8377 -3.0748
 3488SOL     OW22096   2.248   2.602   9.040 -0.1388 -0.1551  0.3037
 3488SOL    HW122097   2.300   2.531   9.078 -0.0662 -0.5284 -0.4805
 3488SOL    HW222098   2.174   2.599   9.100  0.0576  0.0926  0.5561
 3489SOL     OW22099   4.547   2.478   6.292 -0.1739 -0.6805 -0.8117
 3489SOL    HW122100   4.568   2.559   6.246 -1.5750 -0.2096 -0.6064
 3489SOL    HW222101   4.596   2.489   6.374 -2.0480 -0.7678  0.3060
 3490SOL     OW22102   2.388   1.488   8.447 -0.1216  0.4500  0.2890
 3490SOL    HW122103   2.330   1.521   8.378  0.0489  2.1503  0.9405
 3490SOL    HW222104   2.414   1.572   8.487 -2.4793  0.3189  2.0750
 3491SOL     OW22105   1.465   1.423   1.102 -0.0796 -0.1575  0.2384
 3491SOL    HW122106   1.541   1.481   1.109  0.9457 -1.4250 -0.2724
 3491SOL    HW222107   1.457   1.395   1.193 -1.3530 -1.3589 -0.2354
 3492SOL     OW22108   2.887   0.520   3.217  0.1628 -0.4263 -0.0617
 3492SOL    HW122109   2.822   0.513   3.286  0.5746  3.0381  0.6800
 3492SOL    HW222110   2.892   0.428   3.190 -0.7589  0.2326 -2.5485
 3493SOL     OW22111   4.685   1.104   4.771 -0.2159 -0.3922 -0.3225
 3493SOL    HW122112   0.035   1.115   4.805 -0.4532 -1.6200  0.6876
 3493SOL    HW222113   4.690   1.009   4.758  2.7771 -0.2138 -0.5621
 3494SOL     OW22114   0.688   1.821  13.993  0.2520  0.5372  0.2244
 3494SOL    HW122115   0.609   1.768  13.980  0.2141  0.8338 -0.7630
 3494SOL    HW222116   0.679   1.867  14.076  0.3609  1.2214 -0.1438
 3495SOL     OW22117   4.075   2.630  14.148 -0.0158 -0.1779  0.5878
 3495SOL    HW122118   4.139   2.655  14.082 -0.2143  2.7449  1.4917
 3495SOL    HW222119   4.096   2.536  14.148 -0.5295 -0.2888 -0.8929
 3496SOL     OW22120   0.387   4.567   7.318 -0.0741  0.5786 -0.2429
 3496SOL    HW122121   0.480   4.565   7.342 -0.3728 -0.0381  0.8439
 3496SOL    HW222122   0.347   4.516   7.387 -1.5307  2.4680  0.3153
 3497SOL     OW22123   2.786   1.745   3.986  0.0024 -0.6392 -0.1546
 3497SOL    HW122124   2.756   1.740   3.896  0.2752 -1.5015 -0.1990
 3497SOL    HW222125   2.880   1.765   3.983 -0.6936  2.5366 -0.3578
 3498SOL     OW22126   3.384   1.749   8.908 -0.1114  0.1745  0.2845
 3498SOL    HW122127   3.290   1.731   8.912 -0.2246  0.3680 -1.7098
 3498SOL    HW222128   3.406   1.715   8.995  4.2639 -0.6031 -1.1100
 3499SOL     OW22129   3.063   4.521  15.048 -0.2715  0.4537 -0.1870
 3499SOL    HW122130   3.151   4.515  15.085 -1.4738  2.0385  2.9607
 3499SOL    HW222131   3.010   4.505  15.126  0.1428 -0.8297 -0.1701
 3500SOL     OW22132   4.244   4.605   2.166  0.1480 -0.2980  0.5323
 3500SOL    HW122133   4.171   4.630   2.110  0.8417  0.1878 -0.1599
 3500SOL    HW222134   4.307   4.583   2.098 -0.1667 -0.5907  0.3389
 3501SOL     OW22135   0.520   3.081   4.592  0.1456  0.5467  0.3593
 3501SOL    HW122136   0.610   3.098   4.620  0.5257 -0.7768 -0.0610
 3501SOL    HW222137   0.524   2.991   4.562 -0.7035  0.7676 -0.4052
 3502SOL     OW22138   1.617   3.757  13.662 -0.0062 -0.6644  0.0086
 3502SOL    HW122139   1.693   3.785  13.611  0.6741 -2.6044 -0.0344
 3502SOL    HW222140   1.646   3.698  13.731 -1.7021 -1.1981  0.2701
 3503SOL     OW22141   2.858   4.477   7.727 -0.6160  0.4991  0.2244
 3503SOL    HW122142   2.900   4.544   7.780  0.4831 -0.2789  0.3380
 3503SOL    HW222143   2.857   4.416   7.802 -0.3642  1.7502  1.2431
 3504SOL     OW22144   1.947   1.656   3.013 -0.2390  0.4662 -0.0421
 3504SOL    HW122145   1.899   1.574   3.010  0.8846 -0.3037  2.7254
 3504SOL    HW222146   2.024   1.625   3.060  0.0407 -1.2536 -1.6319
 3505SOL     OW22147   3.831   3.699   5.145  0.4753  0.2124 -0.4306
 3505SOL    HW122148   3.831   3.678   5.052  2.1468  0.9600 -0.6022
 3505SOL    HW222149   3.923   3.676   5.157  0.1504 -0.6323  0.4526
 3506SOL     OW22150   3.258   2.235   3.488  0.5532 -0.1720 -0.6551
 3506SOL    HW122151   3.311   2.315   3.495 -1.5057  1.0766  0.8186
 3506SOL    HW222152   3.216   2.253   3.404  2.5010 -1.3355 -1.8662
 3507SOL     OW22153   0.420   2.751   0.033 -0.0534 -0.3760  0.2263
 3507SOL    HW122154   0.335   2.731  17.746 -0.2093  0.1352  0.3089
 3507SOL    HW222155   0.455   2.670   0.069 -3.4071 -0.3301  3.5800
 3508SOL     OW22156   1.114   1.038  10.035 -0.7758  0.2161  0.5301
 3508SOL    HW122157   1.039   1.029  10.095 -0.6082  0.8268  0.8338
 3508SOL    HW222158   1.171   0.962  10.046  0.3492  0.8421 -1.0615
 3509SOL     OW22159   2.993   2.600  11.933 -0.3733 -0.3697 -0.2768
 3509SOL    HW122160   3.077   2.592  11.887  0.4818  1.8669  0.8713
 3509SOL    HW222161   2.943   2.649  11.868 -1.1896 -1.1856 -0.2608
 3510SOL     OW22162   1.130   1.020   2.551  0.1921  0.6419  0.0633
 3510SOL    HW122163   1.204   0.960   2.542  0.1392  0.5632  0.1567
 3510SOL    HW222164   1.105   1.051   2.464  2.4113  2.8466  0.1982
 3511SOL     OW22165   3.439   0.744   6.710  0.7105  0.6482  0.5133
 3511SOL    HW122166   3.382   0.720   6.784 -0.2618 -0.1070 -0.4947
 3511SOL    HW222167   3.461   0.660   6.671  2.1290  1.4033 -0.3136
 3512SOL     OW22168   0.039   3.758  16.423  0.2539  0.5235  0.7629
 3512SOL    HW122169   0.043   3.799  16.337  1.9169 -0.6003  0.2963
 3512SOL    HW222170   4.684   3.760  16.443  0.1051  0.3414  0.0949
 3513SOL     OW22171   1.898   0.374   6.038 -0.3407  0.1506  0.4813
 3513SOL    HW122172   1.853   0.458   6.046  1.0695  0.7456  2.2760
 3513SOL    HW222173   1.837   0.327   5.981 -0.4532 -0.1245  0.8272
 3514SOL     OW22174   4.074   4.194  13.186  0.3071  0.4794  0.4057
 3514SOL    HW122175   4.134   4.140  13.239 -0.4323  1.8564  2.6288
 3514SOL    HW222176   4.026   4.243  13.252 -1.1108 -0.9295  0.4253
 3515SOL     OW22177   4.528   3.668  10.551 -0.6611  0.0394 -0.0822
 3515SOL    HW122178   4.445   3.696  10.511 -0.3999  2.4504  1.0920
 3515SOL    HW222179   4.531   3.687  10.644  0.8226 -2.9666  0.4957
 3516SOL     OW22180   3.255   2.813  13.984  0.4601  0.5015  0.1962
 3516SOL    HW122181   3.347   2.819  13.957  0.7109 -0.5916  0.8276
 3516SOL    HW222182   3.218   2.759  13.914  0.5323  2.7762 -1.6210
 3517SOL     OW22183   4.055   4.735   1.977 -0.0052  0.3033 -0.8820
 3517SOL    HW122184   4.021   0.074   2.022 -0.6880 -0.3523 -0.2693
 3517SOL    HW222185   3.984   4.703   1.921 -0.3164  1.1733 -0.9861
 3518SOL     OW22186   4.038   1.542   7.354  0.1325  0.4233  0.2461
 3518SOL    HW122187   4.081   1.504   7.278  0.0885  0.4199  0.2225
 3518SOL    HW222188   4.109   1.549   7.417 -0.3360  2.2194  0.5975
 3519SOL     OW22189   2.591   3.799  16.321  0.6482  0.7492 -0.1225
 3519SOL    HW122190   2.669   3.776  16.271  1.4903  0.4420  1.3397
 3519SOL    HW222191   2.532   3.725  16.310  1.9584 -0.4037  0.5543
 3520SOL     OW22192   4.535   4.583  14.920  0.2396  0.0283 -0.1785
 3520SOL    HW122193   4.490   4.642  14.859  0.9497  0.2019 -0.5317
 3520SOL    HW222194   4.565   4.650  14.982  1.1995  1.1538 -1.8678
 3521SOL     OW22195   3.452   4.120  14.316  0.1053 -0.4078 -0.1931
 3521SOL    HW122196   3.400   4.191  14.277 -0.7890 -0.9816 -0.0505
 3521SOL    HW222197   3.384   4.053  14.312 -1.7771  1.5418 -1.0558
 3522SOL     OW22198   4.378   0.368   3.853  0.0172 -0.0785  0.0322
 3522SOL    HW122199   4.355   0.424   3.779  0.3051  0.7327  0.5498
 3522SOL    HW222200   4.438   0.304   3.815  1.8187 -0.3941  3.3843
 3523SOL     OW22201   4.156   3.831   7.122  0.7016 -0.1685 -0.1865
 3523SOL    HW122202   4.169   3.926   7.117 -0.0087 -0.0497  0.2365
 3523SOL    HW222203   4.245   3.805   7.146  0.9764  0.8870 -0.0850
 3524SOL     OW22204   1.759   3.022  15.267 -0.2409 -0.6674  0.1252
 3524SOL    HW122205   1.783   3.001  15.177 -0.6809 -2.3940  0.4199
 3524SOL    HW222206   1.664   3.031  15.274 -0.0114  1.9401 -0.1110
 3525SOL     OW22207   2.539   3.181  16.684 -0.1623 -0.3592  0.1165
 3525SOL    HW122208   2.444   3.174  16.668 -0.4326  1.2823  1.0244
 3525SOL    HW222209   2.574   3.094  16.665  2.4148  0.8451 -0.5912
 3526SOL     OW22210   2.345   4.668   5.129 -0.3999  0.7229  0.0475
 3526SOL    HW122211   2.324   0.022   5.117 -0.2920  0.3466 -2.9678
 3526SOL    HW222212   2.437   4.687   5.150 -0.6377  0.1855  1.5751
 3527SOL     OW22213   1.069   3.509   7.276 -0.1231  0.1979  0.1857
 3527SOL    HW122214   1.094   3.601   7.269 -3.0177  0.9964  0.4993
 3527SOL    HW222215   1.100   3.475   7.192 -3.0011  1.2975 -1.3009
 3528SOL     OW22216   2.863   2.151   8.398  0.4486 -0.1680  0.4409
 3528SOL    HW122217   2.945   2.104   8.410  0.2452 -0.9393 -1.1105
 3528SOL    HW222218   2.838   2.177   8.486 -0.0565  0.8140  0.0128
 3529SOL     OW22219   0.261   3.161  14.595 -0.7435  0.0731  0.2373
 3529SOL    HW122220   0.288   3.071  14.609 -1.4665  0.1983  2.4280
 3529SOL    HW222221   0.314   3.185  14.518 -0.0965 -0.2952  0.5655
 3530SOL     OW22222   0.644   2.618   4.125  0.1193  0.2620  0.1010
 3530SOL    HW122223   0.602   2.609   4.210  0.4212 -0.4681  0.1738
 3530SOL    HW222224   0.637   2.711   4.104  2.7491  0.7241  1.2848
 3531SOL     OW22225   3.816   0.127  11.540 -0.1029 -0.1642  0.0966
 3531SOL    HW122226   3.777   0.073  11.471  2.7973 -0.4653 -1.3039
 3531SOL    HW222227   3.755   0.102  11.610 -0.4812  0.4562 -0.0168
 3532SOL     OW22228   3.979   1.673   3.756 -0.0995 -0.0936  0.3811
 3532SOL    HW122229   3.923   1.751   3.757  0.5301  0.3642 -0.9767
 3532SOL    HW222230   4.054   1.695   3.812 -0.2836 -2.5310  1.5826
 3533SOL     OW22231   1.948   0.744   4.161 -0.3521 -0.4359 -0.1686
 3533SOL    HW122232   1.940   0.684   4.235  2.8919 -1.3694 -0.5821
 3533SOL    HW222233   1.871   0.711   4.114  0.5280  1.1261 -2.7270
 3534SOL     OW22234   2.638   2.739  15.064  0.6311  0.1391  0.3488
 3534SOL    HW122235   2.593   2.677  15.121 -3.3286  1.4186 -1.4134
 3534SOL    HW222236   2.653   2.817  15.118  1.3617 -1.2181  2.0975
 3535SOL     OW22237   3.362   2.272   1.751 -0.0558 -0.2209 -0.1520
 3535SOL    HW122238   3.429   2.207   1.731 -1.2324 -1.8041  1.0158
 3535SOL    HW222239   3.290   2.231   1.703 -0.2851 -0.5165  0.4421
 3536SOL     OW22240   3.409   1.560   2.160 -0.6121 -0.0004 -0.0076
 3536SOL    HW122241   3.465   1.625   2.118 -1.2717  0.7562  0.2597
 3536SOL    HW222242   3.415   1.587   2.252 -2.0151  1.8021 -0.4402
 3537SOL     OW22243   3.386   0.071  16.936 -0.1146 -0.4374 -0.2407
 3537SOL    HW122244   3.341   0.003  16.887  0.0342 -1.3188  0.8507
 3537SOL    HW222245   3.467   0.027  16.961 -1.4169 -0.7609  3.4675
 3538SOL     OW22246   0.493   0.032   8.128  0.1678 -0.3226  0.3465
 3538SOL    HW122247   0.530   0.119   8.140 -0.2703 -0.1884  0.7298
 3538SOL    HW222248   0.573   4.723   8.107 -0.1568 -0.7834  0.1582
 3539SOL     OW22249   1.194   1.567   3.539  0.1640  0.1840 -0.0266
 3539SOL    HW122250   1.172   1.589   3.630 -1.4415 -0.7259 -0.1966
 3539SOL    HW222251   1.180   1.651   3.496 -0.4352  0.7545  1.2846
 3540SOL     OW22252   0.429   2.230   7.313  0.0842  0.1918 -0.3591
 3540SOL    HW122253   0.397   2.309   7.270  1.8943  0.2803 -1.5193
 3540SOL    HW222254   0.364   2.241   7.383  0.9722 -2.2140  0.8632
 3541SOL     OW22255   3.411   3.816   4.362  0.3163  0.2883  0.0403
 3541SOL    HW122256   3.468   3.801   4.286  1.0811  1.0918  0.4515
 3541SOL    HW222257   3.412   3.732   4.408  1.4214 -0.2813 -1.0266
 3542SOL     OW22258   4.381   1.441   7.067  0.2083  0.0105  0.7577
 3542SOL    HW122259   4.291   1.473   7.069 -0.4821 -1.9429  1.2107
 3542SOL    HW222260   4.400   1.444   7.161  1.9537 -0.7341  0.4211
 3543SOL     OW22261   1.134   0.172   8.401  0.3381 -0.2860 -0.7362
 3543SOL    HW122262   1.194   0.245   8.386  2.3243 -1.4992  1.4796
 3543SOL    HW222263   1.186   0.097   8.428 -1.3108 -1.6233 -1.2647
 3544SOL     OW22264   3.255   1.436   1.980 -0.1013 -0.1281  0.2420
 3544SOL    HW122265   3.298   1.509   2.025  2.3320 -2.3814  1.5572
 3544SOL    HW222266   3.281   1.369   2.044  0.3483  0.6290  0.8504
 3545SOL     OW22267   3.197   1.534   6.778  0.1994 -0.1356 -0.4201
 3545SOL    HW122268   3.156   1.454   6.813  0.6038 -0.4401 -0.6363
 3545SOL    HW222269   3.268   1.555   6.838 -1.5467  1.8114  0.9645
 3546SOL     OW22270   2.900   3.875   2.931 -0.0501 -0.9783 -0.3661
 3546SOL    HW122271   2.910   3.964   2.897  3.0204 -0.8034  0.9882
 3546SOL    HW222272   2.892   3.821   2.852 -0.7314 -1.0570 -0.2466
 3547SOL     OW22273   1.856   0.150   1.571  0.5972 -0.5233 -0.0572
 3547SOL    HW122274   1.920   0.175   1.639 -0.1428 -0.9879  0.8095
 3547SOL    HW222275   1.772   0.188   1.595  1.7220  0.5651  2.2476
 3548SOL     OW22276   2.830   3.599   4.626 -0.0224 -0.0085 -0.3819
 3548SOL    HW122277   2.780   3.525   4.661 -1.0837  0.4080 -1.0184
 3548SOL    HW222278   2.888   3.567   4.557 -0.3981  1.0275 -1.1912
 3549SOL     OW22279   3.691   3.351  12.502 -0.3853  0.1680  0.1274
 3549SOL    HW122280   3.764   3.412  12.498 -0.1568 -0.0913  0.2622
 3549SOL    HW222281   3.725   3.264  12.480 -0.5613  0.0814  0.2005
 3550SOL     OW22282   2.930   0.701   7.590  0.2135  0.7827  0.0218
 3550SOL    HW122283   2.994   0.630   7.583 -0.4606  0.3586 -2.0145
 3550SOL    HW222284   2.859   0.665   7.536 -0.8166  1.4933  0.8947
 3551SOL     OW22285   1.612   0.763  17.398 -0.1028  0.3965  0.0123
 3551SOL    HW122286   1.550   0.749  17.469  1.3794  0.5272  1.3353
 3551SOL    HW222287   1.683   0.815  17.436  0.7923 -1.9983  1.5953
 3552SOL     OW22288   4.024   1.200   7.761  0.1084 -0.0223  0.2644
 3552SOL    HW122289   3.943   1.244   7.737  0.4652 -0.4525 -1.6745
 3552SOL    HW222290   4.079   1.276   7.781  1.4039 -0.6147 -1.0864
 3553SOL     OW22291   1.411   2.652   5.004 -0.4578  0.1887 -0.4459
 3553SOL    HW122292   1.499   2.633   5.038 -0.0900  0.2687 -1.3535
 3553SOL    HW222293   1.437   2.684   4.918  1.7604 -1.7348 -0.5275
 3554SOL     OW22294   0.589   0.201   7.144  0.3304 -0.0417  0.0730
 3554SOL    HW122295   0.505   0.158   7.126  0.0273  1.4508 -2.0585
 3554SOL    HW222296   0.636   0.139   7.200  0.4958 -2.0752 -2.2917
 3555SOL     OW22297   2.823   2.722  13.257  0.5654  0.2567  0.3794
 3555SOL    HW122298   2.751   2.765  13.303  0.9729  0.6458  0.6481
 3555SOL    HW222299   2.898   2.772  13.288  1.4039 -1.1899  0.7135
 3556SOL     OW22300   0.635   3.524   9.341  0.3408 -0.1831 -0.1973
 3556SOL    HW122301   0.730   3.534   9.348  0.2272 -0.1025  1.1812
 3556SOL    HW222302   0.623   3.537   9.435  0.6412 -2.9669  0.2468
 3557SOL     OW22303   3.732   1.271   4.429 -0.3001 -0.0686 -0.3130
 3557SOL    HW122304   3.809   1.218   4.407 -0.6480 -1.0023  0.7224
 3557SOL    HW222305   3.674   1.263   4.354 -0.8260  1.1520 -0.0400
 3558SOL     OW22306   0.740   3.637   5.330  0.2696  0.7513 -0.0035
 3558SOL    HW122307   0.828   3.673   5.344  0.4119 -0.4095  1.9486
 3558SOL    HW222308   0.760   3.544   5.322  0.3299  0.7914 -0.3279
 3559SOL     OW22309   2.923   0.109  10.139 -0.3027  0.6083 -0.2467
 3559SOL    HW122310   2.993   0.043  10.141 -0.8390  0.0839  0.8528
 3559SOL    HW222311   2.845   0.055  10.146  0.2458 -0.2337 -0.7584
 3560SOL     OW22312   2.719   2.466  13.177  0.0953  0.4830 -0.9978
 3560SOL    HW122313   2.636   2.514  13.180 -1.4632 -2.0562 -2.9484
 3560SOL    HW222314   2.768   2.542  13.207 -3.0154  1.7069  1.0089
 3561SOL     OW22315   4.131   0.023   0.951  0.3645 -0.1076 -0.6292
 3561SOL    HW122316   4.161   0.087   1.017  0.2728 -0.1445 -0.5521
 3561SOL    HW222317   4.036   0.030   0.962  0.1405  0.7340 -3.0781
 3562SOL     OW22318   0.760   4.250   3.572  0.2352  0.3025  0.3060
 3562SOL    HW122319   0.730   4.293   3.652 -2.1085 -0.9094  0.1082
 3562SOL    HW222320   0.690   4.186   3.557  0.5791  0.3870 -1.7025
 3563SOL     OW22321   4.317   4.301  10.319 -0.0160  0.7455 -0.1729
 3563SOL    HW122322   4.398   4.337  10.354  0.1923 -0.8755  0.9979
 3563SOL    HW222323   4.268   4.379  10.292  1.4708  2.1736  1.2881
 3564SOL     OW22324   2.638   0.970   8.505  0.2736 -0.4038  0.0226
 3564SOL    HW122325   2.628   0.878   8.481 -0.2365 -0.0141 -1.2718
 3564SOL    HW222326   2.548   0.987   8.533  0.4864 -0.1660  0.5615
 3565SOL     OW22327   2.158   1.557   7.927  0.0953  0.2271  0.7081
 3565SOL    HW122328   2.246   1.574   7.895 -0.0585  0.0172  0.1740
 3565SOL    HW222329   2.111   1.602   7.857  0.4297  1.8730  1.5551
 3566SOL     OW22330   2.194   1.701   9.016 -0.2981  0.2284 -0.2673
 3566SOL    HW122331   2.134   1.632   8.987 -2.2958  1.0480  1.8883
 3566SOL    HW222332   2.244   1.722   8.937  1.2688  1.6960  1.1042
 3567SOL     OW22333   1.137   2.352   6.675  0.0690  0.1957 -0.5574
 3567SOL    HW122334   1.207   2.392   6.624 -0.8035  2.1880 -0.2105
 3567SOL    HW222335   1.180   2.305   6.747 -0.5203 -0.7919 -0.8539
 3568SOL     OW22336   1.987   0.244  16.673  0.6566  0.0625  0.2373
 3568SOL    HW122337   1.894   0.246  16.697  0.8178  1.0035  0.7637
 3568SOL    HW222338   1.981   0.177  16.604 -1.8714 -1.3097  1.7732
 3569SOL     OW22339   4.551   1.837   2.279 -0.5854 -0.1040 -0.1891
 3569SOL    HW122340   4.550   1.808   2.370  1.1853 -0.4046 -0.2744
 3569SOL    HW222341   4.456   1.842   2.266 -0.7004  2.2691  1.3986
 3570SOL     OW22342   3.003   3.856   2.482 -0.2353  0.2889 -0.1113
 3570SOL    HW122343   3.018   3.762   2.472  3.4152  1.2451 -3.5511
 3570SOL    HW222344   2.937   3.868   2.550  0.8142  1.1293  0.7363
 3571SOL     OW22345   3.944   0.701   6.313 -0.0833  0.1694 -0.4155
 3571SOL    HW122346   3.884   0.772   6.338 -2.5829 -0.9337 -3.2655
 3571SOL    HW222347   3.991   0.693   6.396 -1.2764 -0.6885  0.1708
 3572SOL     OW22348   3.599   4.378   4.685  0.3024  0.0234 -0.0015
 3572SOL    HW122349   3.684   4.348   4.653  0.1185  1.6391 -1.9710
 3572SOL    HW222350   3.609   4.472   4.695  1.2055 -0.2166  1.3383
 3573SOL     OW22351   2.632   2.640   8.803  0.0185  0.0923  0.8903
 3573SOL    HW122352   2.602   2.592   8.725  0.9977  0.8541  0.0446
 3573SOL    HW222353   2.604   2.584   8.876  1.5776 -1.0094  0.6355
 3574SOL     OW22354   4.238   2.305   0.756  0.2300 -0.6031 -0.2280
 3574SOL    HW122355   4.230   2.400   0.752 -0.1480 -0.5504  1.6915
 3574SOL    HW222356   4.234   2.309   0.851  1.1500 -1.6810 -0.1535
 3575SOL     OW22357   1.902   2.555   1.460 -0.5415  0.5003 -0.3358
 3575SOL    HW122358   1.860   2.540   1.376 -2.7535  2.6437  0.3848
 3575SOL    HW222359   1.894   2.650   1.456  0.8020  0.6516  0.4677
 3576SOL     OW22360   4.311   1.335   8.975 -0.4250 -0.6982 -0.7374
 3576SOL    HW122361   4.399   1.367   8.995 -0.3571  0.0201 -2.1610
 3576SOL    HW222362   4.256   1.402   9.015  0.9800  0.2150 -0.3068
 3577SOL     OW22363   2.390   2.282   8.742 -0.5746 -0.4447  0.1558
 3577SOL    HW122364   2.309   2.238   8.717 -0.8884 -0.2888  0.8802
 3577SOL    HW222365   2.448   2.210   8.717  0.3310  0.5105 -0.4703
 3578SOL     OW22366   3.888   1.218   6.111 -0.1632 -0.0737 -0.7240
 3578SOL    HW122367   3.844   1.221   6.196  1.0905 -1.1435 -0.0399
 3578SOL    HW222368   3.968   1.265   6.134  0.7900 -2.5827  1.1205
 3579SOL     OW22369   3.831   4.253   7.232 -0.3078  0.0663 -0.0181
 3579SOL    HW122370   3.783   4.265   7.150  0.5895 -0.5198 -0.6412
 3579SOL    HW222371   3.851   4.159   7.238  0.7259  0.2270 -0.7704
 3580SOL     OW22372   0.733   0.911   2.735  0.2233  0.0615 -0.0218
 3580SOL    HW122373   0.804   0.879   2.679  1.2521  0.6586  0.9186
 3580SOL    HW222374   0.660   0.875   2.685 -1.2317 -1.0447  2.9214
 3581SOL     OW22375   2.409   1.052  12.968  0.4892  0.1873 -0.0498
 3581SOL    HW122376   2.397   1.025  12.877 -1.8927 -1.0598  0.6365
 3581SOL    HW222377   2.428   0.967  13.008  1.5020  0.7610  0.6975
 3582SOL     OW22378   2.944   1.375   4.407  0.1055  0.2925 -0.0846
 3582SOL    HW122379   2.985   1.372   4.321 -0.8107 -2.5013 -0.4320
 3582SOL    HW222380   2.974   1.461   4.436 -1.3989  0.4097  1.1742
 3583SOL     OW22381   3.453   0.437   4.086  0.3251  0.0611  0.1333
 3583SOL    HW122382   3.400   0.413   4.162 -1.1984  2.6550 -0.0905
 3583SOL    HW222383   3.387   0.434   4.017  0.3433 -1.3051  0.1860
 3584SOL     OW22384   2.634   4.097   7.932 -0.0438  0.0588 -0.3315
 3584SOL    HW122385   2.577   4.036   7.978  1.4611  0.3927  1.9324
 3584SOL    HW222386   2.637   4.053   7.847  1.2200  0.9422 -0.7415
 3585SOL     OW22387   1.984   0.980  16.745  0.8520  0.5003 -0.0353
 3585SOL    HW122388   1.974   0.908  16.806  2.2459  1.2602  1.1022
 3585SOL    HW222389   1.969   0.945  16.657  1.0777  2.1042 -0.7165
 3586SOL     OW22390   1.493   2.716  13.339 -0.8541 -0.2111  0.1740
 3586SOL    HW122391   1.502   2.788  13.402 -0.3836 -0.9464  0.9343
 3586SOL    HW222392   1.409   2.741  13.301 -0.4208  1.1591  0.0849
 3587SOL     OW22393   0.068   4.117  16.576  0.3153 -0.0349 -0.1779
 3587SOL    HW122394   0.086   4.039  16.629 -2.3518 -0.5420 -0.0554
 3587SOL    HW222395   0.122   4.182  16.621 -3.2718  1.1922  2.3402
 3588SOL     OW22396   3.719   1.436  17.498 -0.1609  0.3705 -0.2587
 3588SOL    HW122397   3.628   1.412  17.513 -0.1448  2.3654  2.8900
 3588SOL    HW222398   3.724   1.530  17.517  0.8538 -0.2593  2.5620
 3589SOL     OW22399   0.247   0.576   7.549  0.3615 -0.0003  0.2844
 3589SOL    HW122400   0.246   0.655   7.604 -0.0463 -1.2628  2.0824
 3589SOL    HW222401   0.152   0.571   7.538  0.3921  0.0457  0.0034
 3590SOL     OW22402   0.741   1.511   3.982 -0.2086  0.1808 -0.1786
 3590SOL    HW122403   0.727   1.428   4.027 -0.6729  0.7072  0.6473
 3590SOL    HW222404   0.746   1.478   3.893  0.1089  0.9867 -0.4598
 3591SOL     OW22405   1.568   2.837  12.219  0.1547  0.1075 -0.6411
 3591SOL    HW122406   1.571   2.879  12.133  1.2259  2.3626  0.4937
 3591SOL    HW222407   1.483   2.870  12.246  0.0811  1.3899 -2.4322
 3592SOL     OW22408   3.501   4.449   7.103  0.1899  0.0560 -0.1693
 3592SOL    HW122409   3.535   4.417   7.187  0.1507  0.2808 -0.0662
 3592SOL    HW222410   3.409   4.425   7.112  0.0430  0.4041 -0.7793
 3593SOL     OW22411   2.579   0.398   5.386  0.0259 -0.0575  0.4615
 3593SOL    HW122412   2.667   0.416   5.420  0.1049  0.7926 -0.1808
 3593SOL    HW222413   2.549   0.489   5.394  0.1852  0.1904 -1.7786
 3594SOL     OW22414   4.158   2.365   7.379  0.5427 -0.8143 -0.2526
 3594SOL    HW122415   4.106   2.297   7.335 -1.1977  0.1872  0.2707
 3594SOL    HW222416   4.131   2.453   7.355  0.2307 -0.8087  0.1136
 3595SOL     OW22417   1.996   2.961   1.411  0.1314  0.1414 -0.2337
 3595SOL    HW122418   1.918   2.989   1.459 -1.0210 -2.3981 -0.6442
 3595SOL    HW222419   2.057   3.008   1.468  0.1949 -1.3707  0.9380
 3596SOL     OW22420   3.213   0.430   9.382  0.5009  0.2056 -0.1177
 3596SOL    HW122421   3.241   0.412   9.292  1.7960  0.0712  0.3053
 3596SOL    HW222422   3.282   0.379   9.424  1.3695  0.7304 -0.8996
 3597SOL     OW22423   2.619   4.303   4.613 -0.3628  0.2524  0.0315
 3597SOL    HW122424   2.533   4.268   4.589 -1.3971  0.8148  2.8935
 3597SOL    HW222425   2.610   4.340   4.701 -2.4079 -2.1142  0.8336
 3598SOL     OW22426   4.429   0.992  11.119  0.6564  0.4043 -0.4325
 3598SOL    HW122427   4.468   0.934  11.054 -0.0012  0.5805 -0.9882
 3598SOL    HW222428   4.390   1.062  11.066 -0.3798  1.6594  1.9750
 3599SOL     OW22429   2.661   2.567  17.671  0.0247  0.2449 -1.2014
 3599SOL    HW122430   2.723   2.610  17.730  0.6541 -2.3121 -0.0049
 3599SOL    HW222431   2.714   2.550  17.593  2.4678 -0.8892  0.6828
 3600SOL     OW22432   2.900   4.106   5.904 -0.0762 -0.6103  0.1660
 3600SOL    HW122433   2.808   4.116   5.881 -0.4658 -0.4412  1.8338
 3600SOL    HW222434   2.894   4.090   5.998  0.0878  0.4096  0.3420
 3601SOL     OW22435   0.599   0.395   7.361  0.1058  0.3869  0.1968
 3601SOL    HW122436   0.590   0.319   7.303 -1.9082  0.8494 -0.0744
 3601SOL    HW222437   0.547   0.370   7.437 -2.7236  0.1581 -1.8205
 3602SOL     OW22438   3.546   2.266   1.119  0.3694  0.0331  0.0558
 3602SOL    HW122439   3.457   2.231   1.120  0.4448 -0.1869 -1.0786
 3602SOL    HW222440   3.562   2.300   1.031 -1.8640  1.3817  0.1811
 3603SOL     OW22441   0.738   0.583   8.496  0.1442 -0.3434 -0.2649
 3603SOL    HW122442   0.830   0.586   8.522 -0.4544 -2.0844  2.1453
 3603SOL    HW222443   0.737   0.636   8.417 -0.0879  0.3302  0.1886
 3604SOL     OW22444   0.839   1.272   9.597 -0.4857  0.3906 -0.2993
 3604SOL    HW122445   0.839   1.321   9.515 -1.0241  1.2964  0.2509
 3604SOL    HW222446   0.802   1.332   9.661  0.1428  1.2366 -0.7220
 3605SOL     OW22447   4.460   4.117   0.813  0.3926 -0.2481  0.1387
 3605SOL    HW122448   4.452   4.026   0.841  0.5682 -0.2781  0.0907
 3605SOL    HW222449   4.402   4.161   0.875  1.4291  2.9164 -1.1560
 3606SOL     OW22450   4.522   2.204   6.311 -0.0079  0.2188  0.1732
 3606SOL    HW122451   4.476   2.188   6.228 -0.6607  2.6588  0.0521
 3606SOL    HW222452   4.529   2.300   6.314  1.2651  0.2091 -1.7867
 3607SOL     OW22453   2.201   3.951   8.448  0.1019  0.0946  0.5185
 3607SOL    HW122454   2.122   3.899   8.457 -1.0780  1.5939 -1.3552
 3607SOL    HW222455   2.254   3.875   8.422 -0.5643  0.3603 -1.5885
 3608SOL     OW22456   1.609   3.057   1.253  0.0044  0.2259  0.2976
 3608SOL    HW122457   1.554   3.002   1.308 -1.5042  0.3517 -1.0694
 3608SOL    HW222458   1.652   3.117   1.313 -0.3906  2.7238 -1.8873
 3609SOL     OW22459   2.083   3.465   5.042 -0.2775 -0.6567 -0.0363
 3609SOL    HW122460   2.012   3.458   5.105  0.7008  0.4774  1.1929
 3609SOL    HW222461   2.132   3.543   5.067  0.1634 -0.8855 -0.1882
 3610SOL     OW22462   4.586   4.574   0.779 -0.3136 -0.3048 -0.2205
 3610SOL    HW122463   4.603   4.513   0.851  0.2398 -1.6306 -1.4618
 3610SOL    HW222464   4.494   4.593   0.794 -0.0150  1.5569 -0.7872
 3611SOL     OW22465   1.013   0.475   8.158  0.4807  0.2344  0.1236
 3611SOL    HW122466   1.001   0.416   8.232 -0.6094  1.1660  0.6926
 3611SOL    HW222467   0.932   0.527   8.162  0.2444 -0.1622  0.4937
 3612SOL     OW22468   1.058   0.676   4.486 -0.4663 -0.1194 -0.0475
 3612SOL    HW122469   0.994   0.682   4.415 -0.2260 -1.4182 -0.3607
 3612SOL    HW222470   1.123   0.741   4.460 -0.0831 -0.6800 -0.4689
 3613SOL     OW22471   1.013   4.077   2.292  0.3383 -0.0192 -0.1199
 3613SOL    HW122472   0.952   4.148   2.270 -0.3254  0.1624  2.3135
 3613SOL    HW222473   1.091   4.093   2.239 -0.9587  0.1296 -2.0052
 3614SOL     OW22474   1.363   2.769   8.277 -0.1008  0.2454 -0.1034
 3614SOL    HW122475   1.294   2.834   8.291  0.9420  1.0060  1.4514
 3614SOL    HW222476   1.395   2.764   8.367  0.7349 -0.7505 -0.4562
 3615SOL     OW22477   2.371   0.232   8.433  0.2843  0.1946 -0.1600
 3615SOL    HW122478   2.282   0.200   8.441  1.2268 -1.7976  2.4471
 3615SOL    HW222479   2.358   0.323   8.460 -2.6852 -1.0012  2.3858
 3616SOL     OW22480   0.286   3.865   3.616 -0.2431 -0.4223 -0.1310
 3616SOL    HW122481   0.353   3.806   3.650  0.2290  0.5732  0.6729
 3616SOL    HW222482   0.222   3.807   3.574 -0.6511 -0.9461  1.2155
 3617SOL     OW22483   4.672   0.071   6.445  0.3921  0.3077 -0.5313
 3617SOL    HW122484   4.690   4.728   6.491 -0.3198  0.0207 -0.7658
 3617SOL    HW222485   4.701   0.138   6.508  1.1819 -0.2820 -0.2757
 3618SOL     OW22486   0.434   3.846   8.972  0.3472 -0.7538  0.6618
 3618SOL    HW122487   0.412   3.797   9.051  0.6419  0.3320  1.4198
 3618SOL    HW222488   0.530   3.841   8.975  0.3823 -1.1337 -0.9588
 3619SOL     OW22489   3.084   1.029   1.115 -0.0137  0.3500  0.0913
 3619SOL    HW122490   3.176   1.029   1.142 -0.1022  0.2569  0.3905
 3619SOL    HW222491   3.093   1.024   1.019  2.3926 -2.5822  0.4712
 3620SOL     OW22492   3.264   4.234   3.126 -0.4949  0.1301 -0.1911
 3620SOL    HW122493   3.302   4.308   3.175  0.2202 -1.3261  1.4594
 3620SOL    HW222494   3.288   4.163   3.185  1.1139  2.2176  1.6689
 3621SOL     OW22495   2.475   4.494   2.532 -0.2852  0.9615  0.7269
 3621SOL    HW122496   2.479   4.589   2.530 -0.3111  0.9320 -0.7263
 3621SOL    HW222497   2.498   4.481   2.624  2.5706 -2.1269 -0.4520
 3622SOL     OW22498   0.703   0.353   3.157 -0.0809  0.2241 -0.4419
 3622SOL    HW122499   0.622   0.356   3.207  0.9812  0.1944  1.2780
 3622SOL    HW222500   0.711   0.258   3.148  0.9124  0.3956 -1.4259
 3623SOL     OW22501   2.032   3.518  14.484  0.4608 -0.0379 -1.0427
 3623SOL    HW122502   1.957   3.545  14.537  0.8955 -1.7456  0.4337
 3623SOL    HW222503   2.050   3.449  14.548  0.1033  0.6035 -0.2468
 3624SOL     OW22504   3.494   2.667   0.614  0.3851 -0.3448  0.4229
 3624SOL    HW122505   3.491   2.678   0.709  1.6970 -0.0559  0.4287
 3624SOL    HW222506   3.415   2.719   0.598 -0.4900 -0.7072  3.5815
 3625SOL     OW22507   0.609   3.927   7.811 -0.1792  0.0341 -0.1592
 3625SOL    HW122508   0.640   3.938   7.721 -1.5245  0.9213 -0.5160
 3625SOL    HW222509   0.539   3.992   7.803  0.1792  0.3603 -0.6484
 3626SOL     OW22510   0.455   3.690   4.358  0.1158 -0.4216  0.3292
 3626SOL    HW122511   0.502   3.725   4.433  1.1399  0.2664 -0.6321
 3626SOL    HW222512   0.489   3.743   4.286 -0.5788 -0.3725  0.0366
 3627SOL     OW22513   0.985   3.767   6.472  0.5969 -0.3944 -0.1402
 3627SOL    HW122514   1.023   3.703   6.532  0.9695 -0.6896 -0.6885
 3627SOL    HW222515   0.932   3.714   6.412 -1.6762 -0.0048  1.5398
 3628SOL     OW22516   3.028   4.335   4.391 -0.8679 -0.3136 -0.6830
 3628SOL    HW122517   3.120   4.358   4.376 -0.1203 -2.1397  1.0553
 3628SOL    HW222518   2.989   4.417   4.361 -0.5013 -0.9513 -2.8833
 3629SOL     OW22519   0.983   4.252   6.552 -0.8428  0.2267  0.5189
 3629SOL    HW122520   0.965   4.161   6.529 -2.2538 -0.4723  4.3420
 3629SOL    HW222521   0.909   4.304   6.520 -0.5509  0.6719  0.5609
 3630SOL     OW22522   4.391   3.940   8.816  0.3968  0.3203  0.2960
 3630SOL    HW122523   4.383   3.850   8.784 -1.3574  0.0926  1.3938
 3630SOL    HW222524   4.455   3.929   8.886  0.5828 -1.1945 -0.1044
 3631SOL     OW22525   0.931   3.187   2.385 -0.3710 -0.6908 -0.1227
 3631SOL    HW122526   0.955   3.149   2.470  0.1520 -1.1119 -0.4542
 3631SOL    HW222527   1.015   3.205   2.343  0.6391 -0.5362  1.9330
 3632SOL     OW22528   3.280   1.502   2.600 -0.1334 -0.2436 -0.5857
 3632SOL    HW122529   3.369   1.486   2.567  0.2856  2.6034 -0.8060
 3632SOL    HW222530   3.233   1.425   2.568 -2.1835  0.4086  0.8506
 3633SOL     OW22531   0.062   1.438   9.366  0.1298 -0.2980  0.1592
 3633SOL    HW122532   0.123   1.474   9.431  0.5123 -2.3510  0.9210
 3633SOL    HW222533   0.106   1.465   9.286 -0.4451 -1.2790 -0.4799
 3634SOL     OW22534   3.598   3.887  16.907  0.2329 -0.7091  0.3620
 3634SOL    HW122535   3.681   3.841  16.922  1.1718  0.7658 -0.3305
 3634SOL    HW222536   3.630   3.975  16.929  2.1451 -0.9126 -1.5671
 3635SOL     OW22537   2.897   1.540   7.752 -0.4996  0.5784 -0.2213
 3635SOL    HW122538   2.958   1.527   7.680 -0.7735 -1.1220 -0.1360
 3635SOL    HW222539   2.824   1.488   7.718 -1.6365  0.8499  1.7999
 3636SOL     OW22540   1.718   0.880   5.631 -0.6270  0.1421 -0.0827
 3636SOL    HW122541   1.627   0.854   5.647 -0.1144 -1.4647  0.2752
 3636SOL    HW222542   1.756   0.794   5.611 -1.7479 -1.0044  2.6786
 3637SOL     OW22543   1.255   0.370   1.320  0.6609 -0.3997 -0.3015
 3637SOL    HW122544   1.176   0.316   1.320  0.0130  0.5492 -1.1567
 3637SOL    HW222545   1.323   0.302   1.318  2.1222  1.1290 -2.2433
 3638SOL     OW22546   3.216   3.134   3.069 -0.5666 -0.4447 -0.2069
 3638SOL    HW122547   3.239   3.042   3.076 -2.2019 -0.8273  0.2494
 3638SOL    HW222548   3.297   3.165   3.108 -1.5511  1.9039 -0.0027
 3639SOL     OW22549   1.389   4.175  14.850 -0.4089  0.0268  0.5673
 3639SOL    HW122550   1.449   4.231  14.802 -0.6122 -0.2436  0.0056
 3639SOL    HW222551   1.311   4.196  14.798 -0.7948  0.8065  1.4644
 3640SOL     OW22552   2.318   3.431  14.958 -0.4855  0.5428  0.0637
 3640SOL    HW122553   2.302   3.339  14.936 -0.4644  0.3418  0.8847
 3640SOL    HW222554   2.229   3.466  14.965 -0.5310  0.8645 -2.1423
 3641SOL     OW22555   2.903   3.914   7.725 -0.0809 -0.0638 -0.2021
 3641SOL    HW122556   2.975   3.919   7.787  0.1644  0.2314 -0.5104
 3641SOL    HW222557   2.869   3.829   7.754  0.2293 -0.0925  0.0677
 3642SOL     OW22558   3.770   4.667   9.217 -0.4026 -0.0978 -0.3367
 3642SOL    HW122559   3.848   4.636   9.262  0.0448 -2.1050 -2.4868
 3642SOL    HW222560   3.794   0.015   9.183  2.3339 -0.8821 -0.3936
 3643SOL     OW22561   3.727   4.379   8.913  0.3183 -0.3338  0.2080
 3643SOL    HW122562   3.675   4.412   8.986  0.9826  0.8985  0.1245
 3643SOL    HW222563   3.816   4.396   8.944  0.5942 -1.3801 -0.0156
 3644SOL     OW22564   3.898   2.912   7.918  0.2457 -0.0359  0.4267
 3644SOL    HW122565   3.981   2.947   7.949 -0.3882  1.3690  0.5368
 3644SOL    HW222566   3.886   2.843   7.983 -0.5462 -0.4542 -0.1672
 3645SOL     OW22567   3.036   1.690  12.383  0.5962  0.4566 -0.1114
 3645SOL    HW122568   2.973   1.727  12.321  0.6956  1.4305  0.3669
 3645SOL    HW222569   2.966   1.669  12.446 -0.5611 -1.2751 -1.9628
 3646SOL     OW22570   3.940   3.389   1.374 -0.2727 -0.3120 -0.1443
 3646SOL    HW122571   3.847   3.410   1.371 -0.5083 -1.4419 -0.8399
 3646SOL    HW222572   3.945   3.305   1.421  2.2270  1.3911  2.6755
 3647SOL     OW22573   2.151   2.545  12.075 -0.0151  0.2665  0.5256
 3647SOL    HW122574   2.193   2.604  12.137 -0.6145  0.5469  0.6671
 3647SOL    HW222575   2.119   2.469  12.123  0.0003 -0.3510 -0.4489
 3648SOL     OW22576   0.826   4.697   8.878  0.5502 -0.2971  0.0193
 3648SOL    HW122577   0.809   4.617   8.828 -0.4967 -0.3381  0.4358
 3648SOL    HW222578   0.736   4.717   8.902  0.6358  0.3115 -0.1876
 3649SOL     OW22579   0.875   0.412   7.677  0.0775  0.0661 -0.0970
 3649SOL    HW122580   0.912   0.443   7.760  1.2610  0.7084 -0.8687
 3649SOL    HW222581   0.884   0.318   7.692  0.4870  0.1207  0.0237
 3650SOL     OW22582   4.641   3.246   5.734 -0.3927 -0.1015 -0.0659
 3650SOL    HW122583   4.660   3.319   5.794  1.3777  0.3610 -1.1856
 3650SOL    HW222584   4.548   3.264   5.724 -0.2812  1.1866  1.1896
 3651SOL     OW22585   1.585   1.612   9.719  0.2698  0.5598  0.7082
 3651SOL    HW122586   1.655   1.598   9.782  0.5601 -0.9742  0.0346
 3651SOL    HW222587   1.612   1.544   9.657  0.9613  0.9449  0.5827
 3652SOL     OW22588   1.885   4.084   2.157  0.4427 -0.5472 -0.9146
 3652SOL    HW122589   1.896   3.991   2.135 -1.3996 -0.5792 -1.7042
 3652SOL    HW222590   1.971   4.092   2.199 -0.1971 -0.2753  0.3534
 3653SOL     OW22591   4.044   2.568   1.025  0.5981  0.1725 -0.2007
 3653SOL    HW122592   4.057   2.608   0.939 -0.4239  0.5070 -0.1982
 3653SOL    HW222593   4.106   2.495   1.020  0.6614  0.1079  1.4552
 3654SOL     OW22594   4.713   2.939   7.984  0.3507  0.7645 -0.1866
 3654SOL    HW122595   0.003   2.897   7.904  0.6467 -1.7737  1.2525
 3654SOL    HW222596   0.058   2.949   8.029  0.6400  1.2405 -0.8357
 3655SOL     OW22597   3.473   1.104   5.924 -0.0373 -0.0643  0.6608
 3655SOL    HW122598   3.449   1.112   5.832 -0.1109  0.4505  0.7221
 3655SOL    HW222599   3.404   1.162   5.958 -1.4110 -1.6678  0.6206
 3656SOL     OW22600   3.168   0.545  17.000  0.1378 -0.3614 -0.2840
 3656SOL    HW122601   3.230   0.615  17.018  1.2946 -1.6151  0.7182
 3656SOL    HW222602   3.229   0.471  17.006  0.7207  0.1527  0.2082
 3657SOL     OW22603   3.347   1.002  12.501 -0.0239  0.0667  0.9083
 3657SOL    HW122604   3.365   1.069  12.436  0.7413  0.2416  1.3016
 3657SOL    HW222605   3.388   0.926  12.460  2.3167  0.5227  2.4065
 3658SOL     OW22606   2.679   4.334   6.958  0.0877  0.6307  0.2064
 3658SOL    HW122607   2.733   4.275   7.011  1.5579  0.2022 -1.7915
 3658SOL    HW222608   2.591   4.327   6.996  0.2707  1.9497  0.8733
 3659SOL     OW22609   0.943   2.902   4.535 -0.3681 -0.5213 -0.6016
 3659SOL    HW122610   0.995   2.902   4.455 -1.5526  0.6780 -1.3632
 3659SOL    HW222611   0.898   2.986   4.529  0.2409 -0.2652 -1.6131
 3660SOL     OW22612   3.659   0.626  11.689  0.6593 -0.1999  0.2193
 3660SOL    HW122613   3.651   0.531  11.698 -1.8744  0.0196  0.3566
 3660SOL    HW222614   3.665   0.642  11.595 -1.1706  1.4020  0.3743
 3661SOL     OW22615   0.484   4.286   5.461 -0.3358 -0.4631 -0.0431
 3661SOL    HW122616   0.405   4.339   5.456 -0.4083 -0.4276  1.6150
 3661SOL    HW222617   0.555   4.341   5.429 -0.3267 -0.2067  0.4206
 3662SOL     OW22618   1.150   1.184   3.665 -0.0286  0.0807  0.6054
 3662SOL    HW122619   1.154   1.225   3.578 -3.3044 -0.2317  0.3179
 3662SOL    HW222620   1.077   1.123   3.653 -0.5155  0.7171  0.2939
 3663SOL     OW22621   0.881   4.005   6.924  0.3418  0.7226 -0.3494
 3663SOL    HW122622   0.936   3.992   6.846  1.4771 -1.5847  0.8217
 3663SOL    HW222623   0.934   4.063   6.979 -1.0056  0.2010  1.4836
 3664SOL     OW22624   0.584   0.946   4.750 -0.8957 -0.4248  0.3460
 3664SOL    HW122625   0.618   0.865   4.788 -1.3324 -1.6890 -1.9190
 3664SOL    HW222626   0.549   0.995   4.824 -0.0205 -0.1148  0.5559
 3665SOL     OW22627   0.560   3.382  14.372  0.2637  0.1390  0.1590
 3665SOL    HW122628   0.473   3.342  14.358  0.0067  0.2385  1.5443
 3665SOL    HW222629   0.583   3.417  14.286 -0.0013  2.4486  1.0362
 3666SOL     OW22630   2.317   2.362  12.569 -0.1538  0.1694 -0.0092
 3666SOL    HW122631   2.379   2.430  12.540 -0.2030  1.0577  1.9726
 3666SOL    HW222632   2.341   2.304  12.496 -0.1735  0.1143  0.0284
 3667SOL     OW22633   2.446   0.463   3.268  0.2046  0.0800  0.1923
 3667SOL    HW122634   2.526   0.443   3.220 -0.8984 -0.5423 -1.4002
 3667SOL    HW222635   2.454   0.553   3.299 -2.4549 -0.4343  2.4450
 3668SOL     OW22636   4.198   0.625   8.524  0.1333 -0.1193  0.2448
 3668SOL    HW122637   4.149   0.705   8.538 -0.9670 -0.8348  0.4879
 3668SOL    HW222638   4.204   0.644   8.430 -0.3002 -2.6793 -0.3153
 3669SOL     OW22639   0.392   1.886   3.842  0.0687 -0.1860 -0.0437
 3669SOL    HW122640   0.424   1.973   3.866  2.6852 -1.2381  0.2441
 3669SOL    HW222641   0.298   1.903   3.844 -0.4639 -2.9363 -1.4428
 3670SOL     OW22642   0.837   1.542   8.357  0.1387 -0.0400 -0.3785
 3670SOL    HW122643   0.790   1.590   8.288  0.3007  0.1967 -0.3249
 3670SOL    HW222644   0.801   1.576   8.439  0.0343  1.2355 -0.9512
 3671SOL     OW22645   3.693   3.005   7.762  0.1345  0.4721 -0.6919
 3671SOL    HW122646   3.738   2.976   7.842  0.2371 -0.6316 -1.1439
 3671SOL    HW222647   3.715   3.098   7.763 -0.2094  0.5058  1.7618
 3672SOL     OW22648   1.766   0.631   6.415  0.1480  0.4956 -0.2244
 3672SOL    HW122649   1.833   0.567   6.392  0.0636 -0.2103  1.4917
 3672SOL    HW222650   1.703   0.606   6.347 -1.3010  0.0224  1.2914
 3673SOL     OW22651   1.390   1.679   6.674  0.2626  0.3406  0.3312
 3673SOL    HW122652   1.451   1.629   6.728  2.3731  0.2921 -2.0888
 3673SOL    HW222653   1.452   1.751   6.662 -1.7765  1.7390 -1.6249
 3674SOL     OW22654   0.206   1.595   7.127  0.1819  0.2408 -0.4431
 3674SOL    HW122655   0.127   1.618   7.078 -2.3107 -1.7602  2.6496
 3674SOL    HW222656   0.253   1.679   7.120  0.9843 -0.3227 -1.7112
 3675SOL     OW22657   0.227   0.169   3.673  0.6994  0.0304 -0.0601
 3675SOL    HW122658   0.274   0.224   3.610 -1.0966 -0.0277 -1.4687
 3675SOL    HW222659   0.142   0.213   3.677  0.4388 -0.5487  0.7388
 3676SOL     OW22660   0.930   0.677   2.140  0.5781  0.0538  0.3933
 3676SOL    HW122661   0.905   0.762   2.176 -1.5725 -0.3609 -0.1125
 3676SOL    HW222662   0.890   0.626   2.211  0.7883 -0.0718  0.4203
 3677SOL     OW22663   1.699   1.846   6.150  0.3184  0.2161  0.9175
 3677SOL    HW122664   1.604   1.834   6.149  0.5484 -1.5644  0.7241
 3677SOL    HW222665   1.713   1.765   6.100  5.2622  1.6557 -0.0207
 3678SOL     OW22666   2.778   2.229   8.650 -0.4138 -0.3347 -0.7131
 3678SOL    HW122667   2.689   2.194   8.654 -1.0726  1.4857  0.4686
 3678SOL    HW222668   2.795   2.248   8.742 -0.0432 -1.0716 -0.6276
 3679SOL     OW22669   0.506   3.975   6.944  0.0475  0.1194 -0.9446
 3679SOL    HW122670   0.523   4.024   6.863  3.0676  0.2555 -0.1987
 3679SOL    HW222671   0.585   3.996   6.993  0.2946 -0.6403 -1.0248
 3680SOL     OW22672   2.964   4.420   1.792 -0.1897  0.3656 -0.3175
 3680SOL    HW122673   3.051   4.380   1.794  0.0314  0.6428 -3.6003
 3680SOL    HW222674   2.986   4.508   1.823  1.9901 -0.7907  1.4117
 3681SOL     OW22675   4.022   1.181  16.829 -0.9157  0.0267 -0.4093
 3681SOL    HW122676   3.973   1.258  16.801 -2.7333 -1.1432 -0.4209
 3681SOL    HW222677   4.041   1.208  16.918 -0.4866  0.1196 -0.5284
 3682SOL     OW22678   3.346   4.603   9.953 -0.2897  0.7116 -0.2536
 3682SOL    HW122679   3.413   4.602   9.884  1.5666  1.8856  1.5373
 3682SOL    HW222680   3.356   4.517   9.994  2.4246  1.0722 -0.1745
 3683SOL     OW22681   3.490   0.481   7.758 -0.3144 -0.0407 -0.1540
 3683SOL    HW122682   3.532   0.442   7.834 -0.4265  1.2915  0.5887
 3683SOL    HW222683   3.527   0.430   7.686 -0.0159 -1.8370  1.2817
 3684SOL     OW22684   1.452   4.677   7.623 -0.5027  0.2044 -0.3151
 3684SOL    HW122685   1.489   0.022   7.652 -1.1288 -0.0449  1.1550
 3684SOL    HW222686   1.359   4.694   7.613 -0.4016 -0.2581 -2.0124
 3685SOL     OW22687   3.339   1.219   7.817  0.4436  0.3154 -0.3040
 3685SOL    HW122688   3.322   1.209   7.911  0.3034 -0.4154 -0.4154
 3685SOL    HW222689   3.261   1.178   7.782 -0.1691  1.3224 -0.1349
 3686SOL     OW22690   0.624   0.275   8.122 -0.4761  0.0984 -0.6289
 3686SOL    HW122691   0.627   0.298   8.215  1.3560  0.7138 -0.8502
 3686SOL    HW222692   0.597   0.355   8.077  0.5620  1.7538  1.7442
 3687SOL     OW22693   1.883   2.917   4.305 -0.1955 -0.0302  0.1520
 3687SOL    HW122694   1.954   2.969   4.344 -0.5427  1.3802 -1.0702
 3687SOL    HW222695   1.827   2.909   4.382 -1.8037 -0.2530 -1.0306
 3688SOL     OW22696   4.685   3.489   5.576  0.6960 -0.0133  0.1512
 3688SOL    HW122697   0.005   3.532   5.638  0.5908 -0.5484  0.6293
 3688SOL    HW222698   4.681   3.400   5.612 -2.9012  0.2556  0.4019
 3689SOL     OW22699   1.002   0.759  10.360 -0.2480 -0.3441 -0.0147
 3689SOL    HW122700   1.026   0.851  10.360 -0.9641 -0.1350 -2.9243
 3689SOL    HW222701   0.968   0.754  10.449  0.1000 -0.7433  0.0975
 3690SOL     OW22702   0.370   1.602   8.033  0.2527 -0.1909 -0.5343
 3690SOL    HW122703   0.285   1.560   8.019  0.8718 -2.6736  3.1964
 3690SOL    HW222704   0.365   1.664   7.960 -0.8649  0.6086  0.2190
 3691SOL     OW22705   0.975   1.757   2.430 -0.5086  0.1970  0.2203
 3691SOL    HW122706   1.027   1.727   2.355  2.1698  1.3451  1.6226
 3691SOL    HW222707   0.961   1.677   2.480 -4.0597 -0.9211 -2.5468
 3692SOL     OW22708   4.645   2.162  16.749 -0.0878 -0.2157  0.3348
 3692SOL    HW122709   4.708   2.234  16.742  1.8614 -1.9424  0.2600
 3692SOL    HW222710   4.699   2.090  16.781 -1.4668 -1.0991  0.6719
 3693SOL     OW22711   2.455   2.932  17.308 -0.3466 -0.4462  0.1253
 3693SOL    HW122712   2.501   2.867  17.255 -0.4619 -0.5245  0.1202
 3693SOL    HW222713   2.441   2.880  17.387  3.7209 -1.1704  0.3658
 3694SOL     OW22714   3.748   2.068   9.129 -0.0596  0.1821  0.1673
 3694SOL    HW122715   3.725   2.158   9.152 -0.6406 -0.3838  1.8445
 3694SOL    HW222716   3.839   2.085   9.107  0.6586 -1.7755  1.6618
 3695SOL     OW22717   4.633   1.457   4.076  0.7948 -0.6812  0.3442
 3695SOL    HW122718   4.721   1.488   4.101  1.3034 -1.0421 -0.9815
 3695SOL    HW222719   4.634   1.475   3.982 -0.2775  0.0745  0.4829
 3696SOL     OW22720   1.857   2.434   5.201 -0.4814  0.4792 -0.0502
 3696SOL    HW122721   1.889   2.419   5.112  1.2211 -0.5063  0.7259
 3696SOL    HW222722   1.932   2.396   5.246 -2.6775 -3.8636 -0.1340
 3697SOL     OW22723   2.302   3.091   6.773 -0.6107  0.4958 -0.2292
 3697SOL    HW122724   2.209   3.116   6.767 -0.5934  1.2745  2.8040
 3697SOL    HW222725   2.322   3.125   6.861 -2.6564 -1.9032  1.1844
 3698SOL     OW22726   2.854   0.134  16.854 -0.3009  0.5155  0.2183
 3698SOL    HW122727   2.911   0.070  16.897 -1.0187  0.2988  0.8261
 3698SOL    HW222728   2.853   0.201  16.922  1.5833  0.3271  0.4296
 3699SOL     OW22729   2.264   2.052   5.446 -0.1449  0.1378  0.5169
 3699SOL    HW122730   2.206   2.095   5.509  0.2326 -0.5472  1.3415
 3699SOL    HW222731   2.340   2.050   5.504  1.0153  1.1550 -0.9642
 3700SOL     OW22732   0.599   0.881   8.993 -0.2599  0.5268  0.4713
 3700SOL    HW122733   0.548   0.809   9.029 -3.3351  1.7779 -1.4147
 3700SOL    HW222734   0.638   0.850   8.911 -2.5470  2.5898 -1.3783
 3701SOL     OW22735   2.339   2.537   8.771 -0.5759 -0.3685  0.1364
 3701SOL    HW122736   2.371   2.447   8.767 -2.0525 -0.8851 -0.2076
 3701SOL    HW222737   2.334   2.538   8.866 -3.2122 -2.1285  0.0256
 3702SOL     OW22738   4.653   3.663  14.057  0.4916  0.4854  0.4179
 3702SOL    HW122739   4.584   3.686  13.994 -0.1541 -0.4441  0.7839
 3702SOL    HW222740   4.670   3.750  14.094 -0.1973  1.2523 -1.0669
 3703SOL     OW22741   2.220   3.145   4.128  0.3730 -0.4792  0.2845
 3703SOL    HW122742   2.309   3.109   4.128  1.3734  2.0264 -0.3103
 3703SOL    HW222743   2.188   3.126   4.040  1.3458  1.6002 -0.5095
 3704SOL     OW22744   2.447   2.140   3.315 -0.6745 -0.0260 -0.5200
 3704SOL    HW122745   2.504   2.067   3.294  0.3405  0.6146  0.0436
 3704SOL    HW222746   2.513   2.201   3.348 -1.5285  0.7476 -0.2431
 3705SOL     OW22747   1.482   1.352   1.352  0.2798 -0.2304 -0.4744
 3705SOL    HW122748   1.429   1.293   1.405 -0.3668  0.4157 -0.4116
 3705SOL    HW222749   1.573   1.330   1.374  0.4868  0.6301 -0.4941
 3706SOL     OW22750   4.180   3.923   3.220 -0.4671 -0.0626 -0.2095
 3706SOL    HW122751   4.093   3.954   3.194 -0.7490  0.2213  1.0923
 3706SOL    HW222752   4.200   3.870   3.143  1.2244  3.1315 -1.9505
 3707SOL     OW22753   1.565   1.516   5.197 -0.0614 -0.4321  0.1861
 3707SOL    HW122754   1.513   1.552   5.125  1.3420 -0.6451 -0.9170
 3707SOL    HW222755   1.542   1.423   5.188 -1.0067 -0.0921 -0.9155
 3708SOL     OW22756   4.373   3.316   6.459  0.1812 -0.3874  0.2874
 3708SOL    HW122757   4.420   3.345   6.538 -2.0831 -0.9456  1.8298
 3708SOL    HW222758   4.306   3.384   6.448  1.1247  0.3727 -0.7668
 3709SOL     OW22759   3.497   0.413   0.209  0.0504  0.1144  0.2277
 3709SOL    HW122760   3.575   0.383   0.256  1.1770  1.9060 -0.4840
 3709SOL    HW222761   3.478   0.493   0.260 -1.1781 -0.3558  0.5080
 3710SOL     OW22762   1.119   0.497   4.772 -0.0375 -0.7752  0.6212
 3710SOL    HW122763   1.200   0.498   4.721 -0.4761  1.1956 -0.0105
 3710SOL    HW222764   1.148   0.476   4.861  1.4235  0.8556  0.5247
 3711SOL     OW22765   0.343   1.237  15.882 -0.3580 -0.0779  0.2640
 3711SOL    HW122766   0.270   1.178  15.863 -0.9565  0.6624  0.2649
 3711SOL    HW222767   0.316   1.252  15.972  0.4438  2.2400  0.1096
 3712SOL     OW22768   3.077   0.943   9.367 -0.1926 -0.2110  0.4162
 3712SOL    HW122769   3.151   0.935   9.306 -1.5181  1.0867 -1.3796
 3712SOL    HW222770   3.039   0.856   9.359 -0.1683 -0.2125  0.3079
 3713SOL     OW22771   4.590   1.594   0.785  0.0377 -0.9565  0.0534
 3713SOL    HW122772   4.549   1.678   0.765  1.6827  0.5419  2.9340
 3713SOL    HW222773   4.666   1.618   0.839  0.5259 -0.8267 -0.6984
 3714SOL     OW22774   3.050   1.221   7.203  0.0466 -0.4955  0.5358
 3714SOL    HW122775   2.982   1.224   7.270 -0.9178  2.8050 -0.5904
 3714SOL    HW222776   3.121   1.274   7.240 -0.0797  0.2703 -0.3270
 3715SOL     OW22777   0.035   0.220   7.160 -0.3753  0.3857 -0.0818
 3715SOL    HW122778   0.026   0.168   7.240 -1.7131 -1.2493 -1.2784
 3715SOL    HW222779   0.089   0.290   7.195  2.2127 -1.6101 -0.0463
 3716SOL     OW22780   1.875   0.647  17.350  0.2543  0.0484 -0.3559
 3716SOL    HW122781   1.794   0.697  17.362  0.0741  0.6353 -4.0387
 3716SOL    HW222782   1.887   0.606  17.436  0.8696  3.0003  0.9467
 3717SOL     OW22783   1.686   3.016  13.714  0.4100  0.1907 -0.4316
 3717SOL    HW122784   1.703   3.105  13.684 -1.2668  0.5804 -0.1824
 3717SOL    HW222785   1.667   3.042  13.804 -0.3241  0.6037 -0.7077
 3718SOL     OW22786   0.724   0.744  10.098  0.4947 -0.3110  0.3116
 3718SOL    HW122787   0.722   0.678  10.029 -1.4183  1.0170 -0.8768
 3718SOL    HW222788   0.796   0.706  10.150 -1.1406 -3.5826  0.1788
 3719SOL     OW22789   3.548   4.235   3.630  0.3779  0.2010 -0.3507
 3719SOL    HW122790   3.462   4.214   3.594  0.9571  0.4752 -1.9168
 3719SOL    HW222791   3.560   4.329   3.612 -0.1181  0.3455  0.0646
 3720SOL     OW22792   3.726   3.462   3.457 -0.3614 -0.2889 -0.2308
 3720SOL    HW122793   3.669   3.463   3.380  0.0250 -2.3128 -0.5347
 3720SOL    HW222794   3.701   3.549   3.487 -2.2606 -0.1026 -2.3733
 3721SOL     OW22795   2.322   1.488  10.444 -0.3779  0.1818  0.1187
 3721SOL    HW122796   2.371   1.563  10.476  0.1842 -0.4673  0.7792
 3721SOL    HW222797   2.381   1.450  10.379 -0.7816  0.2188 -0.2699
 3722SOL     OW22798   1.441   1.393   2.901 -0.0418 -0.3032 -0.0596
 3722SOL    HW122799   1.530   1.424   2.915  0.2623 -1.6165  0.8702
 3722SOL    HW222800   1.449   1.359   2.812  3.1735 -1.2358  0.6103
 3723SOL     OW22801   1.251   1.452   6.570 -0.0104  0.5428  0.0847
 3723SOL    HW122802   1.304   1.405   6.634 -0.3604 -1.9453 -1.4382
 3723SOL    HW222803   1.273   1.538   6.604  0.3278  0.5954 -0.2693
 3724SOL     OW22804   1.528   4.399  15.179 -0.0844  0.3029 -0.3137
 3724SOL    HW122805   1.530   4.462  15.107  0.1392 -0.0076 -0.5764
 3724SOL    HW222806   1.606   4.347  15.161  0.8188  1.1519  1.1954
 3725SOL     OW22807   2.915   4.153  16.555  0.6257 -0.0887 -0.3174
 3725SOL    HW122808   2.891   4.104  16.477  0.9256  2.0568 -1.7585
 3725SOL    HW222809   2.999   4.173  16.514  0.1697 -2.8418 -2.5471
 3726SOL     OW22810   1.104   4.052   7.821 -0.4556  0.4588 -0.2120
 3726SOL    HW122811   1.099   4.148   7.821 -0.7649  0.4431 -0.9272
 3726SOL    HW222812   1.089   4.049   7.726 -1.1362  1.7233 -0.1500
 3727SOL     OW22813   2.364   3.234  10.973 -0.2377 -0.2774 -0.0069
 3727SOL    HW122814   2.449   3.191  10.959  0.4282  0.5933  1.3542
 3727SOL    HW222815   2.318   3.196  10.899 -0.3572 -0.1823  0.0192
 3728SOL     OW22816   0.448   3.918   5.197 -0.1857 -0.3933  0.1052
 3728SOL    HW122817   0.518   3.939   5.135 -0.3720 -0.5986 -0.1752
 3728SOL    HW222818   0.394   3.872   5.132  1.1524 -1.2108 -0.4187
 3729SOL     OW22819   2.212   2.066   9.719 -0.2391  0.0209  0.6189
 3729SOL    HW122820   2.252   1.983   9.746 -1.1308 -0.1861  1.2886
 3729SOL    HW222821   2.198   2.110   9.803  0.7169  2.2492 -0.3776
 3730SOL     OW22822   0.603   3.153   6.374 -0.3431 -0.3069 -0.6208
 3730SOL    HW122823   0.582   3.109   6.456  1.6652  2.1163  1.1660
 3730SOL    HW222824   0.534   3.219   6.383 -0.9820 -1.2519  1.3392
 3731SOL     OW22825   1.787   1.664  10.500  0.1674  0.2223 -0.3022
 3731SOL    HW122826   1.821   1.743  10.541  0.8576 -0.1659 -0.1319
 3731SOL    HW222827   1.752   1.699  10.418 -0.9548 -3.0711 -1.2330
 3732SOL     OW22828   1.651   4.159   7.622 -0.0743  0.2864 -0.6130
 3732SOL    HW122829   1.561   4.133   7.601 -0.2539 -0.2731  0.8119
 3732SOL    HW222830   1.652   4.253   7.639  1.6629 -0.3403  2.8988
 3733SOL     OW22831   0.450   3.370   7.690  0.0725  0.3505  0.2875
 3733SOL    HW122832   0.358   3.345   7.699  0.7041 -1.6993  1.1023
 3733SOL    HW222833   0.461   3.405   7.778 -1.4219  2.1119 -0.2472
 3734SOL     OW22834   0.068   2.150   9.224  0.5727 -0.7658  0.5035
 3734SOL    HW122835   4.727   2.124   9.270  0.3821  0.7605  1.0138
 3734SOL    HW222836   0.036   2.228   9.179  1.3143 -0.3080  0.7551
 3735SOL     OW22837   1.378   1.053  16.906 -0.3342 -0.3047  0.3128
 3735SOL    HW122838   1.409   1.012  16.826  1.4033  1.5929 -0.0060
 3735SOL    HW222839   1.443   1.013  16.964 -0.0652 -0.9913 -0.4754
 3736SOL     OW22840   3.828   2.642  12.160  0.0229  0.1343  0.1322
 3736SOL    HW122841   3.833   2.548  12.178 -1.1486 -0.0641 -0.5982
 3736SOL    HW222842   3.917   2.658  12.128  0.0471  0.4860  0.3664
 3737SOL     OW22843   1.292   0.480   7.501 -0.2366 -0.0546 -0.2831
 3737SOL    HW122844   1.237   0.467   7.423 -1.1416 -0.7040  0.4594
 3737SOL    HW222845   1.316   0.397   7.543 -0.7049  0.2187  0.5130
 3738SOL     OW22846   3.940   1.655   9.250 -0.5352 -0.8221 -0.5885
 3738SOL    HW122847   3.968   1.704   9.327  0.9100  1.9779 -2.8571
 3738SOL    HW222848   4.014   1.594   9.244 -0.1140 -0.4024  0.3014
 3739SOL     OW22849   2.748   0.824   2.597 -0.0934  0.3047 -0.4579
 3739SOL    HW122850   2.698   0.773   2.533 -0.7826 -1.5299  1.5161
 3739SOL    HW222851   2.671   0.865   2.636  0.8065  0.8338  0.7746
 3740SOL     OW22852   1.449   2.906   1.427  0.8789  0.0496 -0.4276
 3740SOL    HW122853   1.373   2.868   1.383  0.9027 -0.9190  0.3779
 3740SOL    HW222854   1.402   2.936   1.505  0.8945  0.7014 -0.6687
 3741SOL     OW22855   0.697   1.085   3.652 -0.0607 -0.1353  0.3252
 3741SOL    HW122856   0.662   1.174   3.652 -1.6175 -0.7516  0.2233
 3741SOL    HW222857   0.614   1.040   3.671  0.3536 -1.1134 -0.1894
 3742SOL     OW22858   2.136   3.034   7.216  0.0159 -0.1004 -0.5606
 3742SOL    HW122859   2.128   2.942   7.189 -4.2489  0.1745 -0.1801
 3742SOL    HW222860   2.197   3.029   7.290 -0.3825 -0.8669 -0.2811
 3743SOL     OW22861   2.738   1.807   3.724 -0.4704  0.0569  0.3028
 3743SOL    HW122862   2.832   1.811   3.708 -0.1325  0.7020  2.4017
 3743SOL    HW222863   2.706   1.820   3.635  0.9357 -1.0898 -0.3672
 3744SOL     OW22864   3.227   0.478   0.160 -0.6164 -0.3744 -0.2831
 3744SOL    HW122865   3.322   0.466   0.159 -0.5417  0.3277 -1.2312
 3744SOL    HW222866   3.231   0.557   0.107  0.7689  0.3011  0.8324
 3745SOL     OW22867   3.964   3.493   7.598 -0.1183 -0.3394  0.1248
 3745SOL    HW122868   3.886   3.529   7.639  1.7191  1.1026  2.3342
 3745SOL    HW222869   3.992   3.437   7.670 -0.7817 -2.6565 -1.4049
 3746SOL     OW22870   1.785   2.070  14.859  0.0084  0.3166  0.1490
 3746SOL    HW122871   1.787   1.978  14.886  2.5327  0.1204 -0.7333
 3746SOL    HW222872   1.712   2.079  14.798  2.7488 -0.3817 -3.1997
 3747SOL     OW22873   1.584   0.623   7.768 -0.3662 -0.2937  0.0634
 3747SOL    HW122874   1.679   0.633   7.763 -0.3409 -0.5125  0.1214
 3747SOL    HW222875   1.560   0.602   7.858  1.1913 -0.2902  0.4746
 3748SOL     OW22876   0.666   2.083  16.351  0.1652 -0.2377  0.4423
 3748SOL    HW122877   0.709   1.999  16.368  1.1950  0.1101 -0.4532
 3748SOL    HW222878   0.598   2.044  16.296  0.4547  0.7324 -0.5991
 3749SOL     OW22879   3.140   3.751  14.245  0.3270 -0.1307  0.3157
 3749SOL    HW122880   3.082   3.705  14.306 -1.5104 -0.8538 -1.9902
 3749SOL    HW222881   3.078   3.758  14.173 -0.0097 -1.4934  0.4710
 3750SOL     OW22882   0.446   1.442   3.959 -0.1654 -0.2358 -0.1937
 3750SOL    HW122883   0.477   1.524   3.997  0.3452  0.0750 -1.3067
 3750SOL    HW222884   0.355   1.462   3.937 -0.1411  0.1195  0.0321
 3751SOL     OW22885   3.223   3.854   6.549  0.5571 -0.0843 -0.1126
 3751SOL    HW122886   3.296   3.887   6.602 -0.3192  0.6802  0.6147
 3751SOL    HW222887   3.278   3.831   6.474  1.3027  2.1618 -0.2630
 3752SOL     OW22888   2.453   0.661   5.746  0.8425  0.2929 -0.5636
 3752SOL    HW122889   2.437   0.629   5.835  0.8622 -0.8312 -0.9764
 3752SOL    HW222890   2.530   0.715   5.760 -0.2696  1.6591  0.3381
 3753SOL     OW22891   4.111   3.216   6.121 -0.2478 -0.0847  0.0576
 3753SOL    HW122892   4.128   3.251   6.209 -0.8744 -1.8329  0.8947
 3753SOL    HW222893   4.187   3.172   6.083  0.9652  0.0741  2.2960
 3754SOL     OW22894   3.845   4.601  13.411  0.0879 -1.0888  0.3695
 3754SOL    HW122895   3.871   4.512  13.387  0.2780 -1.2196  1.0408
 3754SOL    HW222896   3.911   4.610  13.479  0.2112  2.6717 -0.2585
 3755SOL     OW22897   1.615   4.456   0.386  0.0662 -0.2152  0.3134
 3755SOL    HW122898   1.571   4.495   0.461  0.5258  0.4587  0.2308
 3755SOL    HW222899   1.540   4.462   0.326  0.9593  1.1452 -0.6606
 3756SOL     OW22900   2.235   0.572  16.080 -0.1402 -0.0791 -0.4604
 3756SOL    HW122901   2.211   0.507  16.146  2.3124 -2.0829 -1.5912
 3756SOL    HW222902   2.179   0.647  16.101  0.9793  0.8873 -0.9165
 3757SOL     OW22903   3.417   3.206   0.211  0.2214 -0.1094 -0.7713
 3757SOL    HW122904   3.454   3.133   0.162 -0.1423  1.0471 -2.7398
 3757SOL    HW222905   3.388   3.160   0.290 -1.7627 -1.2929 -2.2144
 3758SOL     OW22906   4.163   4.499  16.406 -0.2584 -0.4124  0.2300
 3758SOL    HW122907   4.099   4.446  16.357 -0.1796 -1.3320  1.1213
 3758SOL    HW222908   4.166   4.581  16.357  0.3365 -1.0183 -0.7565
 3759SOL     OW22909   1.305   3.564   3.148 -0.2102 -0.3470 -0.1782
 3759SOL    HW122910   1.217   3.526   3.153  0.2656 -1.4420 -0.1030
 3759SOL    HW222911   1.319   3.589   3.239  0.1547 -1.2078  0.0000
 3760SOL     OW22912   2.494   1.095   3.619  0.0081  0.0193  0.5010
 3760SOL    HW122913   2.526   1.039   3.690 -1.0253 -0.1801  0.8071
 3760SOL    HW222914   2.402   1.069   3.620 -0.0303  0.2044  1.3895
 3761SOL     OW22915   0.780   4.245   5.696 -0.2333 -0.4761 -0.7299
 3761SOL    HW122916   0.785   4.198   5.612  0.9284 -0.3809 -0.7125
 3761SOL    HW222917   0.818   4.173   5.747  1.4023  0.0083 -1.2427
 3762SOL     OW22918   4.569   3.881   4.512 -0.4868  0.0869  0.5133
 3762SOL    HW122919   4.610   3.965   4.533 -1.5527  0.7143  0.0628
 3762SOL    HW222920   4.604   3.859   4.426  1.0824  0.5202  1.0377
 3763SOL     OW22921   1.417   4.254   1.580  0.8363  0.2833 -0.4503
 3763SOL    HW122922   1.371   4.279   1.660 -0.8487  0.1949 -1.4031
 3763SOL    HW222923   1.506   4.242   1.613  1.0324 -1.1515 -1.5112
 3764SOL     OW22924   3.408   3.579   5.029 -0.3548  0.6337  0.2393
 3764SOL    HW122925   3.458   3.528   4.966  0.0225  1.0881  0.1737
 3764SOL    HW222926   3.439   3.669   5.018 -0.1354  0.1818 -2.6783
 3765SOL     OW22927   2.989   3.024   4.338  0.0090 -0.6889 -0.2557
 3765SOL    HW122928   3.073   3.051   4.301 -0.8131  1.2309 -0.6942
 3765SOL    HW222929   3.018   2.964   4.407 -1.6661 -1.3315 -0.1160
 3766SOL     OW22930   3.629   1.064  13.160 -0.0261 -0.2930  0.0403
 3766SOL    HW122931   3.700   1.043  13.221 -1.0344 -1.4314  0.8353
 3766SOL    HW222932   3.577   0.983  13.164  0.9692 -1.0005 -1.2954
 3767SOL     OW22933   1.719   2.957   2.222  0.0060  0.1037  0.1839
 3767SOL    HW122934   1.788   2.911   2.270 -0.7957  0.6685  1.8655
 3767SOL    HW222935   1.670   2.881   2.188 -0.1822 -0.5633  1.9317
 3768SOL     OW22936   1.463   3.405  10.711 -0.0321 -0.6683  0.4942
 3768SOL    HW122937   1.438   3.356  10.790 -0.6139 -0.0671  0.6871
 3768SOL    HW222938   1.378   3.414  10.667  0.9599 -1.2813 -1.5519
 3769SOL     OW22939   0.493   2.276  12.269  0.1957 -0.4759  0.9713
 3769SOL    HW122940   0.422   2.297  12.330 -1.4361 -1.1503 -0.7122
 3769SOL    HW222941   0.570   2.273  12.326  0.4773  1.1376  0.6560
 3770SOL     OW22942   3.401   1.265   2.912 -0.1489  0.7932 -0.0305
 3770SOL    HW122943   3.397   1.176   2.945  0.8690  0.5965 -0.4522
 3770SOL    HW222944   3.311   1.294   2.929 -1.2583 -0.9394 -3.0407
 3771SOL     OW22945   2.400   1.117   8.502  0.5726  0.0386 -0.0907
 3771SOL    HW122946   2.451   1.179   8.449  0.7426 -0.2613 -0.2732
 3771SOL    HW222947   2.407   1.151   8.591 -0.4989 -1.0186  0.3915
 3772SOL     OW22948   3.688   3.029   2.334  0.0343  0.4336  0.2231
 3772SOL    HW122949   3.693   2.954   2.394  0.8329 -0.4845 -0.9760
 3772SOL    HW222950   3.779   3.038   2.304 -0.0178  3.5117  1.0088
 3773SOL     OW22951   1.734   2.005   8.172  0.1201 -0.2722 -0.9004
 3773SOL    HW122952   1.652   2.025   8.125 -0.7976 -0.6868  0.5257
 3773SOL    HW222953   1.735   1.910   8.162 -0.0615 -0.5542  1.7732
 3774SOL     OW22954   1.271   3.261   6.824  0.0412  0.4565 -0.2504
 3774SOL    HW122955   1.358   3.299   6.812  0.7071 -1.0438 -0.1505
 3774SOL    HW222956   1.226   3.255   6.740  2.1554  1.0038 -1.4294
 3775SOL     OW22957   0.177   0.654   1.661  0.2714  0.0034 -0.4313
 3775SOL    HW122958   0.249   0.642   1.723 -0.6053  0.0195  0.5734
 3775SOL    HW222959   0.151   0.562   1.649 -0.4161 -0.3235  3.7112
 3776SOL     OW22960   2.499   3.633   1.511 -0.1406 -0.0297 -0.0885
 3776SOL    HW122961   2.583   3.601   1.478  0.8336  2.3580  0.0836
 3776SOL    HW222962   2.524   3.709   1.563 -1.5922 -0.2991  0.9822
 3777SOL     OW22963   0.413   0.473  15.309  0.5557  0.2479  0.0910
 3777SOL    HW122964   0.492   0.520  15.282  0.2501  1.2209  0.8918
 3777SOL    HW222965   0.460   0.391  15.319  1.3081  0.8433  1.4479
 3778SOL     OW22966   0.931   2.407   8.904 -0.0614  0.3038  0.8954
 3778SOL    HW122967   1.001   2.393   8.967  0.5864  1.6697  0.4584
 3778SOL    HW222968   0.980   2.424   8.824  0.8991 -3.0800  0.7481
 3779SOL     OW22969   2.724   0.293   8.276  0.2105  0.9150 -0.0861
 3779SOL    HW122970   2.700   0.229   8.342 -0.5819  1.5424  0.2292
 3779SOL    HW222971   2.697   0.248   8.196  1.1840  1.3398 -0.6610
 3780SOL     OW22972   3.464   4.554  15.875  0.2081 -0.0918  0.0841
 3780SOL    HW122973   3.401   4.560  15.947 -0.4393 -3.4651 -0.2287
 3780SOL    HW222974   3.522   4.626  15.900  2.0082 -0.9643 -1.6753
 3781SOL     OW22975   4.703   1.662   4.349  0.0973 -0.3552 -0.5787
 3781SOL    HW122976   0.055   1.669   4.380  0.8060 -0.1107 -2.6536
 3781SOL    HW222977   4.723   1.657   4.255 -0.8766  0.2571 -0.8212
 3782SOL     OW22978   0.912   2.781   8.459 -0.8172 -0.3088 -0.1920
 3782SOL    HW122979   0.845   2.845   8.437 -0.9624  0.3277  2.0956
 3782SOL    HW222980   0.914   2.717   8.388  1.1329  0.0597 -0.4757
 3783SOL     OW22981   3.182   4.181  16.451  0.7248  0.0428 -0.0215
 3783SOL    HW122982   3.209   4.106  16.504 -1.5556  0.4050  1.6142
 3783SOL    HW222983   3.248   4.170  16.382  1.5904  0.4772  0.7424
 3784SOL     OW22984   3.324   1.654   7.665 -0.2883 -0.0255  0.2342
 3784SOL    HW122985   3.312   1.675   7.757  0.3793  1.9942 -0.1504
 3784SOL    HW222986   3.369   1.569   7.667 -0.3616 -0.0646  0.2373
 3785SOL     OW22987   2.205   0.664   9.552  0.1132  0.0393  0.6640
 3785SOL    HW122988   2.224   0.670   9.459  0.3273  0.6828  0.7487
 3785SOL    HW222989   2.114   0.696   9.555 -1.1629 -3.7248  1.7047
 3786SOL     OW22990   2.410   3.876   9.529  0.1205 -0.2897 -0.0215
 3786SOL    HW122991   2.341   3.921   9.579 -1.1988  0.2092 -2.3192
 3786SOL    HW222992   2.366   3.792   9.533 -1.3184  0.4587  0.0145
 3787SOL     OW22993   2.489   3.249  10.556 -0.7936 -0.6310 -0.0189
 3787SOL    HW122994   2.546   3.325  10.570  0.4030 -1.5959  0.3101
 3787SOL    HW222995   2.514   3.237  10.465 -0.9238  2.7521 -0.4910
 3788SOL     OW22996   4.044   3.173   9.015  0.4330 -0.0730 -0.1221
 3788SOL    HW122997   4.098   3.242   9.055 -0.4817 -0.0489  1.0735
 3788SOL    HW222998   4.108   3.150   8.948  1.0149  1.6966 -0.1877
 3789SOL     OW22999   1.870   0.477   2.215 -0.3526 -0.4743 -0.6455
 3789SOL    HW123000   1.825   0.438   2.140  1.3679 -2.6334 -0.5577
 3789SOL    HW223001   1.860   0.407   2.279  0.1555  1.3319  1.4238
 3790SOL     OW23002   3.638   0.502   3.056  0.2397 -0.2726  0.2021
 3790SOL    HW123003   3.733   0.494   3.046 -0.1501 -1.8024 -2.1384
 3790SOL    HW223004   3.621   0.445   3.131  2.6642  2.0154  2.4998
 3791SOL     OW23005   1.477   3.068   5.687 -0.9549 -0.4644 -0.5952
 3791SOL    HW123006   1.501   3.048   5.596 -3.4717  1.2860 -1.6620
 3791SOL    HW223007   1.416   3.142   5.678 -0.7245 -0.1995  0.0284
 3792SOL     OW23008   4.401   3.343  14.337  0.2298 -0.0144 -0.1310
 3792SOL    HW123009   4.311   3.320  14.359  0.0439  0.5386 -0.3177
 3792SOL    HW223010   4.395   3.385  14.251 -2.2647  3.1630  1.5913
 3793SOL     OW23011   3.225   2.309  16.864  0.0495 -0.4242  0.5960
 3793SOL    HW123012   3.306   2.345  16.827  0.8113 -0.3922  2.3025
 3793SOL    HW223013   3.233   2.318  16.959  0.3556  0.9456  0.4519
 3794SOL     OW23014   2.583   3.338   7.942 -0.0114 -0.0664 -0.2791
 3794SOL    HW123015   2.531   3.338   7.861  1.5879 -0.9989 -1.2948
 3794SOL    HW223016   2.513   3.325   8.006  0.7251  0.6597  0.6783
 3795SOL     OW23017   0.841   1.639   5.776  0.6886  0.1353 -0.1048
 3795SOL    HW123018   0.859   1.725   5.737 -0.7956  0.6211  0.2691
 3795SOL    HW223019   0.914   1.636   5.838  0.5057 -1.3617  0.0459
 3796SOL     OW23020   1.671   1.113  12.164 -0.4135 -0.3324 -0.0538
 3796SOL    HW123021   1.664   1.130  12.258 -0.0097 -0.9511  0.0851
 3796SOL    HW223022   1.761   1.083  12.160 -0.1278  0.2369  2.1906
 3797SOL     OW23023   3.717   4.467  11.046  0.6536  0.1275 -0.2384
 3797SOL    HW123024   3.673   4.386  11.020  0.8248 -0.7769  2.3203
 3797SOL    HW223025   3.657   4.535  11.017  2.6558  1.8819 -0.2276
 3798SOL     OW23026   1.205   2.969   6.046 -0.6938  0.2979 -0.1419
 3798SOL    HW123027   1.182   3.053   6.005 -0.0170 -0.1117 -1.3680
 3798SOL    HW223028   1.212   2.985   6.140 -0.1436  1.9971 -0.4702
 3799SOL     OW23029   2.264   3.391  10.286 -0.1456  0.1349 -0.2296
 3799SOL    HW123030   2.197   3.447  10.325 -1.9203 -0.5755 -2.2871
 3799SOL    HW223031   2.346   3.434  10.313 -1.1569  1.2340  1.1139
 3800SOL     OW23032   0.463   3.529   3.043 -0.3453 -0.0492  0.4244
 3800SOL    HW123033   0.458   3.609   3.095  4.2530 -0.6011  1.6647
 3800SOL    HW223034   0.482   3.568   2.958  1.1461 -1.8908 -0.0884
 3801SOL     OW23035   0.098   1.954   7.360 -0.4429 -0.2997 -0.2539
 3801SOL    HW123036   0.156   1.893   7.406 -0.5834 -0.6038 -0.4798
 3801SOL    HW223037   0.081   2.011   7.435 -0.1168  0.9082 -1.1027
 3802SOL     OW23038   4.268   4.451  16.663  0.2803 -0.3472  0.2298
 3802SOL    HW123039   4.345   4.395  16.663  0.6178  0.1258 -1.0702
 3802SOL    HW223040   4.250   4.451  16.569 -1.3738  1.4978  0.5560
 3803SOL     OW23041   3.736   1.039   5.918  0.7461  0.3948  0.1438
 3803SOL    HW123042   3.803   1.094   5.959  0.0124 -0.3646  2.3731
 3803SOL    HW223043   3.651   1.072   5.946 -0.0462 -1.7919  0.2624
 3804SOL     OW23044   4.033   4.412   3.394  0.0490  0.2936 -0.3287
 3804SOL    HW123045   4.090   4.488   3.396 -0.9210  1.0336 -0.5661
 3804SOL    HW223046   4.078   4.367   3.322 -0.1246  0.2655 -0.4208
 3805SOL     OW23047   3.125   1.966   1.869  0.3339 -0.5952  0.0368
 3805SOL    HW123048   3.060   1.896   1.880  0.4492 -0.6309  0.5053
 3805SOL    HW223049   3.211   1.925   1.884  0.2560 -0.7068  0.1821
 3806SOL     OW23050   2.887   2.189   5.135 -0.2658  0.6548 -0.4245
 3806SOL    HW123051   2.841   2.130   5.194 -0.1537 -0.8285 -1.8296
 3806SOL    HW223052   2.836   2.172   5.055  1.3386  0.1337 -1.3376
 3807SOL     OW23053   1.419   1.114  15.761 -0.2679 -0.1923 -0.3272
 3807SOL    HW123054   1.342   1.067  15.729 -0.7559  0.3852 -0.0148
 3807SOL    HW223055   1.390   1.205  15.763  2.9998  0.7685  3.9193
 3808SOL     OW23056   1.203   4.681  14.275 -0.1466 -0.2015 -0.3636
 3808SOL    HW123057   1.250   0.005  14.329  0.4360  0.7281 -1.9356
 3808SOL    HW223058   1.272   4.632  14.231 -0.5183 -0.7489 -0.3310
 3809SOL     OW23059   3.964   3.666  15.884 -0.0524  0.7307 -0.3706
 3809SOL    HW123060   3.977   3.625  15.970  0.1680  1.2019 -0.1844
 3809SOL    HW223061   4.023   3.737  15.906  1.4109 -0.2330 -1.2195
 3810SOL     OW23062   4.032   1.098  16.561  0.5374  0.1331  0.3963
 3810SOL    HW123063   4.040   1.106  16.656 -3.0204 -1.0998  0.8248
 3810SOL    HW223064   3.948   1.052  16.553  1.4429 -1.6662  1.6343
 3811SOL     OW23065   1.338   1.904   2.085  0.0532 -0.4569  0.3523
 3811SOL    HW123066   1.338   1.880   2.178 -0.3924 -2.1803 -0.0826
 3811SOL    HW223067   1.259   1.857   2.056 -0.6866  1.1207 -0.1857
 3812SOL     OW23068   4.155   2.722   5.836  0.0540 -0.5552 -0.7531
 3812SOL    HW123069   4.069   2.724   5.795  0.0546 -1.9357 -0.8341
 3812SOL    HW223070   4.168   2.630   5.813 -0.0158 -0.5621 -0.7667
 3813SOL     OW23071   0.347   2.642   5.169  0.5132 -0.4362 -0.1977
 3813SOL    HW123072   0.268   2.588   5.179 -0.0698  0.5870  0.7511
 3813SOL    HW223073   0.331   2.725   5.215  0.8271 -0.9222  0.7986
 3814SOL     OW23074   1.854   4.398   4.493  0.2357  0.2727 -0.2648
 3814SOL    HW123075   1.838   4.354   4.577 -0.6996  1.3856  0.1322
 3814SOL    HW223076   1.780   4.456   4.481  1.1688  1.7714  1.2075
 3815SOL     OW23077   0.743   0.006   3.398 -0.6552 -0.1455 -0.2676
 3815SOL    HW123078   0.700   0.036   3.478 -0.6896 -1.7694  0.3298
 3815SOL    HW223079   0.787   4.662   3.421 -0.8822 -0.1421  0.1800
 3816SOL     OW23080   0.665   4.188   7.949  0.4927  0.1436  0.8461
 3816SOL    HW123081   0.697   4.097   7.948 -0.1070 -0.0588 -1.5410
 3816SOL    HW223082   0.581   4.171   7.992  1.5338  0.3711  2.9650
 3817SOL     OW23083   4.414   2.649   4.615 -0.2432  0.1634 -0.1592
 3817SOL    HW123084   4.334   2.597   4.618 -0.9924  1.2553 -1.0349
 3817SOL    HW223085   4.450   2.640   4.526 -2.9020 -1.1265 -1.1070
 3818SOL     OW23086   0.006   3.889   5.608  0.2627  0.0485 -0.6425
 3818SOL    HW123087   0.088   3.843   5.590 -0.4582 -0.8107 -1.6718
 3818SOL    HW223088   4.725   3.959   5.546 -1.2939  1.2153  1.1772
 3819SOL     OW23089   3.504   3.980  10.344 -0.5952  0.1087 -0.4918
 3819SOL    HW123090   3.424   3.928  10.334 -0.2543 -0.3999 -0.5604
 3819SOL    HW223091   3.526   3.977  10.251 -1.0425 -0.7878 -0.5723
 3820SOL     OW23092   3.208   2.572  13.827  0.3162  0.5486  0.1973
 3820SOL    HW123093   3.194   2.501  13.889  2.8316  0.7062  0.9441
 3820SOL    HW223094   3.115   2.594  13.818  0.1214  0.3795  1.9091
 3821SOL     OW23095   3.796   1.950  16.819  0.2551 -0.6446 -0.2119
 3821SOL    HW123096   3.875   1.972  16.869 -0.3897 -2.1122  1.4571
 3821SOL    HW223097   3.829   1.900  16.744 -1.1046 -0.9183 -0.6288
 3822SOL     OW23098   0.073   0.127   2.531 -0.0317 -0.2268  0.0721
 3822SOL    HW123099   4.723   0.142   2.498  0.1449  0.0859 -0.2557
 3822SOL    HW223100   0.112   0.204   2.490 -1.6011 -1.5516 -3.9137
 3823SOL     OW23101   3.009   1.958   0.544 -0.2091  0.4921 -0.2764
 3823SOL    HW123102   3.063   2.033   0.569 -0.7553  1.4360 -1.9621
 3823SOL    HW223103   3.039   1.893   0.608 -1.7195  0.5699  0.5061
 3824SOL     OW23104   1.992   2.750  11.365  0.4883 -0.1808  0.4598
 3824SOL    HW123105   1.968   2.708  11.448  1.2160  1.6934  1.6197
 3824SOL    HW223106   1.921   2.734  11.304  1.7864 -1.9698 -0.6111
 3825SOL     OW23107   1.206   0.052   7.057 -0.1265  0.0759  0.0738
 3825SOL    HW123108   1.202   0.075   6.964  1.3720 -0.2170 -0.0602
 3825SOL    HW223109   1.216   0.137   7.099 -1.1415  0.2627 -0.0588
 3826SOL     OW23110   4.642   1.314   2.557 -0.2300 -1.3276  0.0529
 3826SOL    HW123111   4.708   1.256   2.593  2.1811  0.5408 -1.3839
 3826SOL    HW223112   4.704   1.362   2.502  0.8112 -0.9924  1.5167
 3827SOL     OW23113   1.786   0.469  13.932 -0.3744 -0.2796 -0.0105
 3827SOL    HW123114   1.842   0.523  13.876 -0.3174 -0.2302  0.0939
 3827SOL    HW223115   1.852   0.432  13.990 -1.8221 -1.0579  1.1232
 3828SOL     OW23116   0.505   1.969   7.313 -0.4148 -0.5463 -0.6653
 3828SOL    HW123117   0.455   2.051   7.316 -2.0371 -1.5143 -1.4270
 3828SOL    HW223118   0.594   2.006   7.313 -0.5995 -0.0843  1.2622
 3829SOL     OW23119   3.709   3.134   4.398 -0.3549  0.2935 -0.2222
 3829SOL    HW123120   3.772   3.103   4.463  0.4350 -2.3984 -2.2680
 3829SOL    HW223121   3.727   3.228   4.409  1.8569 -0.1854  0.2922
 3830SOL     OW23122   3.621   2.441  14.358  0.4099 -0.0680 -0.3479
 3830SOL    HW123123   3.661   2.415  14.441 -0.1172 -0.0189 -0.0819
 3830SOL    HW223124   3.690   2.481  14.305  0.0106  4.2595  2.3843
 3831SOL     OW23125   3.565   3.082   5.283  0.5442  0.2802  0.4317
 3831SOL    HW123126   3.539   3.173   5.269  0.4534  0.4810  1.9939
 3831SOL    HW223127   3.650   3.085   5.327  1.9460 -1.1065 -2.1752
 3832SOL     OW23128   4.489   0.315   7.203  0.4393 -0.1153  0.1650
 3832SOL    HW123129   4.558   0.286   7.262  0.4324  0.4566  0.4649
 3832SOL    HW223130   4.479   0.238   7.148  2.1193 -0.5324  0.4488
 3833SOL     OW23131   0.416   0.891   3.412  0.0615 -0.0308 -0.3387
 3833SOL    HW123132   0.473   0.825   3.373 -1.4395 -0.9203 -1.0229
 3833SOL    HW223133   0.422   0.970   3.357 -0.1519  1.0397  1.1955
 3834SOL     OW23134   3.678   0.540  17.138 -0.5166  0.0788 -0.2448
 3834SOL    HW123135   3.681   0.504  17.050 -0.5047 -0.3712 -0.0570
 3834SOL    HW223136   3.632   0.468  17.179  1.8408  0.1751  2.5967
 3835SOL     OW23137   3.848   0.345   7.772  0.1035  0.1779  0.1917
 3835SOL    HW123138   3.815   0.262   7.736  1.2293 -1.3283  2.6551
 3835SOL    HW223139   3.906   0.305   7.836 -0.6706  1.1436  1.4878
 3836SOL     OW23140   2.227   2.591   4.056  0.6104  0.1003  0.2828
 3836SOL    HW123141   2.208   2.637   4.137 -1.6935  0.0306 -0.2058
 3836SOL    HW223142   2.289   2.528   4.092  2.6000  0.9003 -1.7586
 3837SOL     OW23143   1.461   3.427   8.533 -0.5667 -0.4240 -0.2215
 3837SOL    HW123144   1.545   3.462   8.507 -0.4352 -0.3264  0.3307
 3837SOL    HW223145   1.447   3.469   8.618  1.4262  0.7705 -0.5067
 3838SOL     OW23146   3.043   4.228  14.411  0.0843  0.4139 -0.2425
 3838SOL    HW123147   2.997   4.312  14.412  1.1358  0.9976 -0.2346
 3838SOL    HW223148   2.976   4.172  14.450  1.0320 -0.3029  0.3653
 3839SOL     OW23149   3.766   3.456  15.947  0.3494 -0.0420 -0.2892
 3839SOL    HW123150   3.826   3.442  16.021  0.1898 -0.4904 -0.2395
 3839SOL    HW223151   3.797   3.533  15.900 -2.0573  0.9775 -0.2003
 3840SOL     OW23152   1.365   2.333  12.699  0.0997  0.4865 -0.9075
 3840SOL    HW123153   1.417   2.304  12.624  4.7789 -0.8014  2.8097
 3840SOL    HW223154   1.432   2.375  12.753  0.4815  0.3800 -1.2980
 3841SOL     OW23155   1.268   4.486  16.092 -0.4466  0.3546  0.1832
 3841SOL    HW123156   1.229   4.533  16.018  2.7132  1.3118 -0.8727
 3841SOL    HW223157   1.295   4.558  16.150 -0.5001  1.2454 -0.9082
 3842SOL     OW23158   2.273   1.681   2.838  0.2190 -0.3431 -0.0119
 3842SOL    HW123159   2.212   1.669   2.764 -0.7197  1.0164  0.5396
 3842SOL    HW223160   2.228   1.638   2.910 -0.1568  2.5865  1.5090
 3843SOL     OW23161   4.491   3.044   2.650  0.4339 -0.1811  0.3870
 3843SOL    HW123162   4.547   3.118   2.625 -0.0925 -0.3345 -1.2176
 3843SOL    HW223163   4.438   3.035   2.571 -2.5799  1.0998  2.2358
 3844SOL     OW23164   0.340   3.197   3.748  0.4147 -0.1897  0.1544
 3844SOL    HW123165   0.351   3.138   3.673 -0.0620  0.8104 -0.7045
 3844SOL    HW223166   0.270   3.260   3.728 -0.1798 -0.8970  0.0107
 3845SOL     OW23167   0.226   0.828   9.772 -0.2381  0.0394 -0.3976
 3845SOL    HW123168   0.154   0.883   9.803 -1.0910 -1.9347  1.1325
 3845SOL    HW223169   0.260   0.875   9.696 -0.3119  0.3284 -0.2538
 3846SOL     OW23170   2.029   4.667   5.256 -0.6500  0.3488  0.2980
 3846SOL    HW123171   1.994   4.585   5.222 -0.7198  0.4797  0.0567
 3846SOL    HW223172   2.074   4.697   5.177 -0.1471  0.6297  0.6872
 3847SOL     OW23173   3.472   2.720  12.150 -0.0634 -0.0051  0.0085
 3847SOL    HW123174   3.415   2.742  12.223 -1.4186 -1.2039 -0.6827
 3847SOL    HW223175   3.447   2.628  12.157 -0.2102  0.0422  0.1045
 3848SOL     OW23176   3.298   1.358   8.542 -0.2666  0.4775 -0.3280
 3848SOL    HW123177   3.223   1.387   8.490 -0.4569 -0.5082 -0.5928
 3848SOL    HW223178   3.253   1.320   8.618  0.0349  1.0471  0.1315
 3849SOL     OW23179   3.099   4.603   6.364 -0.2237  0.2797  0.0703
 3849SOL    HW123180   3.026   4.544   6.342 -1.6478  1.3347  1.9181
 3849SOL    HW223181   3.077   4.627   6.454 -3.3550  0.9383 -0.8722
 3850SOL     OW23182   0.519   1.748   2.251 -0.4890  0.3145 -0.1802
 3850SOL    HW123183   0.530   1.658   2.282 -1.2642 -0.1924 -1.3697
 3850SOL    HW223184   0.609   1.769   2.227 -0.0236 -0.1653  1.1335
 3851SOL     OW23185   2.491   2.073   2.993  0.0166 -0.3338 -0.4502
 3851SOL    HW123186   2.397   2.091   2.995 -0.3763 -2.6809  1.7656
 3851SOL    HW223187   2.492   1.978   2.981  0.2413 -0.2927 -0.7584
 3852SOL     OW23188   3.367   3.204  17.414  0.2957 -0.2582  0.0772
 3852SOL    HW123189   3.326   3.231  17.331 -1.5110  2.1568  1.7688
 3852SOL    HW223190   3.418   3.139  17.366  0.4799 -1.1449  1.4739
 3853SOL     OW23191   2.692   3.956   9.609  0.5161  0.8530 -0.1568
 3853SOL    HW123192   2.747   3.901   9.554 -1.1054  0.3828 -1.2939
 3853SOL    HW223193   2.611   3.942   9.562  0.0725  0.5034  0.7059
 3854SOL     OW23194   1.762   0.437   9.463 -0.5618 -0.4333 -0.1323
 3854SOL    HW123195   1.775   0.442   9.558 -1.8642 -0.3490  0.0465
 3854SOL    HW223196   1.667   0.438   9.450 -0.3538 -1.5613 -1.8165
 3855SOL     OW23197   4.333   2.459   3.960 -0.3732  1.3395 -0.1600
 3855SOL    HW123198   4.427   2.470   3.976  0.0485 -1.8466 -0.5718
 3855SOL    HW223199   4.310   2.367   3.972 -0.1589  1.1631 -1.0876
 3856SOL     OW23200   2.695   1.178   6.208  0.0523 -0.0633 -0.0634
 3856SOL    HW123201   2.665   1.260   6.169  0.3805  1.0547  2.0544
 3856SOL    HW223202   2.740   1.213   6.285 -1.2407 -2.0528  1.6000
 3857SOL     OW23203   0.851   3.693  13.081 -0.6427  0.1685  0.1540
 3857SOL    HW123204   0.791   3.724  13.149 -1.1274  0.3820 -0.3663
 3857SOL    HW223205   0.927   3.679  13.137 -0.2683 -1.1778 -0.7107
 3858SOL     OW23206   2.303   2.993  12.264 -0.2853 -0.5421  0.1038
 3858SOL    HW123207   2.327   3.030  12.349  0.1231  1.9324 -1.0994
 3858SOL    HW223208   2.281   3.069  12.211  1.9178  0.2495  0.3301
 3859SOL     OW23209   0.840   4.492   3.432  0.1553  0.1459  0.2120
 3859SOL    HW123210   0.920   4.460   3.390  0.9433  3.5245 -0.9116
 3859SOL    HW223211   0.792   4.419   3.471  1.6735 -1.5610 -1.1125
 3860SOL     OW23212   1.528   3.991  12.170  0.2829  0.2038 -0.2133
 3860SOL    HW123213   1.565   4.062  12.119 -2.6355  1.2672 -0.8115
 3860SOL    HW223214   1.580   3.918  12.135  1.1331  0.9803 -0.5705
 3861SOL     OW23215   2.420   3.692   3.427 -0.6655 -0.3100  0.0257
 3861SOL    HW123216   2.400   3.648   3.509  3.1988 -0.5844  0.8510
 3861SOL    HW223217   2.402   3.783   3.453  0.7342  0.7458 -2.6022
 3862SOL     OW23218   1.701   1.677   1.771 -0.4570 -0.1974  0.1758
 3862SOL    HW123219   1.655   1.594   1.778  0.6601 -0.7312  1.0292
 3862SOL    HW223220   1.742   1.692   1.856  2.0398 -1.9603 -0.7237
 3863SOL     OW23221   0.798   0.872   8.402 -0.3481  0.3001  0.7830
 3863SOL    HW123222   0.770   0.907   8.487 -2.8985 -0.7653  0.3524
 3863SOL    HW223223   0.893   0.877   8.416 -0.1784  2.5328 -1.1205
 3864SOL     OW23224   3.822   0.223  17.745  0.6087 -0.4041 -0.0387
 3864SOL    HW123225   3.728   0.205  17.737  1.0072 -1.6400 -1.9313
 3864SOL    HW223226   3.850   0.156   0.053 -1.5138 -1.6226 -0.3847
 3865SOL     OW23227   4.124   0.390   1.605 -0.3417  0.2074  0.1731
 3865SOL    HW123228   4.075   0.472   1.616 -1.5308 -0.5945  0.9555
 3865SOL    HW223229   4.094   0.338   1.680 -1.7118 -1.5866 -1.6450
 3866SOL     OW23230   3.588   2.723  10.442 -0.2218  0.4970  0.3063
 3866SOL    HW123231   3.599   2.633  10.474  0.6707 -0.7987 -3.6110
 3866SOL    HW223232   3.673   2.759  10.467 -0.1583  1.5635 -1.4548
 3867SOL     OW23233   3.749   0.894   8.177  0.3236  0.1931 -0.3273
 3867SOL    HW123234   3.797   0.816   8.148 -1.3304 -0.9280 -0.0404
 3867SOL    HW223235   3.661   0.884   8.139 -0.2594 -0.6031  1.2208
 3868SOL     OW23236   0.166   3.125   5.143 -0.0764 -0.4894  0.6537
 3868SOL    HW123237   0.119   3.043   5.161 -2.1179  0.7584  1.0696
 3868SOL    HW223238   0.197   3.135   5.232 -1.0947  0.4127  0.9063
 3869SOL     OW23239   0.246   1.396  16.956  0.0338 -0.0044  0.2507
 3869SOL    HW123240   0.235   1.459  17.028  0.2468 -1.5580  1.6372
 3869SOL    HW223241   0.157   1.362  16.953 -0.0627  0.2571  0.1501
 3870SOL     OW23242   3.939   3.502   2.441  0.1913  0.0769 -0.2973
 3870SOL    HW123243   4.018   3.476   2.489 -0.5786  1.3294  1.6643
 3870SOL    HW223244   3.958   3.596   2.437  1.4859 -0.1577  0.1309
 3871SOL     OW23245   0.429   1.900   7.605 -0.0478 -0.4538  0.1168
 3871SOL    HW123246   0.389   1.873   7.522  0.3325  1.7011 -0.7745
 3871SOL    HW223247   0.463   1.986   7.581 -0.1857 -0.2154  0.7818
 3872SOL     OW23248   1.533   0.668  16.033  0.3417 -0.2690  0.0853
 3872SOL    HW123249   1.449   0.705  16.005 -0.2746 -2.4971 -1.0280
 3872SOL    HW223250   1.512   0.629  16.118 -3.3789 -0.9161 -1.1283
 3873SOL     OW23251   4.100   3.166   0.870  0.7207  0.3740 -0.3016
 3873SOL    HW123252   4.012   3.191   0.899  0.9959  0.4843  0.4567
 3873SOL    HW223253   4.093   3.174   0.775  1.2648  2.6616 -0.1320
 3874SOL     OW23254   0.837   0.859   8.762  0.4161 -0.1293 -0.7344
 3874SOL    HW123255   0.866   0.928   8.703 -1.2044  0.6450 -0.6159
 3874SOL    HW223256   0.756   0.828   8.723 -0.3023  2.6389 -1.4041
 3875SOL     OW23257   0.209   3.459   3.629 -0.4517 -0.5937  0.6362
 3875SOL    HW123258   0.196   3.509   3.710 -1.5570  0.0626  0.0630
 3875SOL    HW223259   0.191   3.537   3.575  0.2196 -1.1348 -0.3696
 3876SOL     OW23260   3.545   4.085   4.289 -0.5786 -0.0145  0.5326
 3876SOL    HW123261   3.530   3.996   4.319  0.5934  0.0426  1.2938
 3876SOL    HW223262   3.541   4.075   4.194  1.3195 -1.1278  0.5622
 3877SOL     OW23263   2.010   3.134   2.257 -0.1554 -0.3034 -0.1623
 3877SOL    HW123264   2.027   3.062   2.317 -0.0285 -0.8967 -0.9160
 3877SOL    HW223265   2.060   3.206   2.295  0.6060 -0.1544 -1.4627
 3878SOL     OW23266   1.785   3.881   9.455 -0.0795  0.1941 -0.5544
 3878SOL    HW123267   1.864   3.856   9.504 -0.0106  3.0569  0.8211
 3878SOL    HW223268   1.750   3.937   9.524  1.0387  0.4930 -0.2192
 3879SOL     OW23269   3.220   2.369   2.126  0.0576 -0.4085 -0.1535
 3879SOL    HW123270   3.196   2.409   2.210  0.6330 -3.4778  1.4620
 3879SOL    HW223271   3.309   2.339   2.144 -0.1171  0.0684  1.5204
 3880SOL     OW23272   2.819   3.188   3.358 -0.2845 -0.4325 -0.0604
 3880SOL    HW123273   2.724   3.202   3.361 -0.1336  1.1034 -2.7316
 3880SOL    HW223274   2.825   3.092   3.359  0.5183 -0.3864 -1.8084
 3881SOL     OW23275   0.007   2.834  12.381  0.0272  0.2568  0.4082
 3881SOL    HW123276   4.690   2.815  12.457  0.5043 -1.4517  0.3231
 3881SOL    HW223277   0.075   2.892  12.416 -0.0788  0.4289  0.3281
 3882SOL     OW23278   4.184   3.056   2.107 -0.3961 -0.1107  0.2256
 3882SOL    HW123279   4.187   3.030   2.015 -0.4650  0.1305  0.1536
 3882SOL    HW223280   4.241   2.987   2.140  0.1535 -0.1435 -0.7782
 3883SOL     OW23281   3.828   0.100   7.648 -0.3266 -0.1749  0.1698
 3883SOL    HW123282   3.894   0.042   7.686  0.1210  0.1861 -0.0751
 3883SOL    HW223283   3.769   0.026   7.633 -0.0112  0.1495 -2.6222
 3884SOL     OW23284   1.049   1.272   3.332  0.6457 -0.1619 -0.3443
 3884SOL    HW123285   1.056   1.268   3.236  0.3400  0.0207 -0.3770
 3884SOL    HW223286   1.016   1.183   3.342  1.2313 -0.3786 -0.3917
 3885SOL     OW23287   1.472   4.234   5.256 -0.0878  0.1329 -0.2378
 3885SOL    HW123288   1.467   4.307   5.194  3.4099 -0.6098 -1.3874
 3885SOL    HW223289   1.386   4.232   5.298 -0.9228  2.0382 -1.8885
 3886SOL     OW23290   3.979   0.937  16.204  0.2813 -0.6094 -0.2899
 3886SOL    HW123291   4.063   0.894  16.184 -0.4026 -2.1524  0.1012
 3886SOL    HW223292   4.006   1.018  16.246  0.4188 -0.5740 -0.4467
 3887SOL     OW23293   3.895   4.132   2.526 -0.3832 -0.7169 -0.0031
 3887SOL    HW123294   3.970   4.170   2.572 -1.8413  0.9415  1.0042
 3887SOL    HW223295   3.821   4.173   2.571  0.6451  1.6416 -0.4571
 3888SOL     OW23296   4.090   4.401   9.219  0.4017 -0.3726 -0.6578
 3888SOL    HW123297   4.087   4.375   9.311  0.7414 -0.4132 -0.6560
 3888SOL    HW223298   4.159   4.466   9.208 -1.4652  1.7277  0.1083
 3889SOL     OW23299   2.178   2.446   7.248 -0.6697  0.0895  0.5121
 3889SOL    HW123300   2.084   2.457   7.234 -0.5192  1.2515  0.3565
 3889SOL    HW223301   2.179   2.418   7.339  0.4366  1.5695  0.9650
 3890SOL     OW23302   0.357   2.195   2.996 -0.4056 -0.3376 -0.5623
 3890SOL    HW123303   0.335   2.111   3.036 -1.6593 -0.3983 -1.3780
 3890SOL    HW223304   0.271   2.236   2.999  1.3950  3.3179  1.1677
 3891SOL     OW23305   4.480   1.650   4.527 -0.3348  0.0011  0.6218
 3891SOL    HW123306   4.551   1.667   4.465  0.3096 -0.6594  1.1846
 3891SOL    HW223307   4.414   1.604   4.475  1.4414 -0.0114 -1.6200
 3892SOL     OW23308   0.808   2.637   8.669 -0.0127 -0.0851 -0.3957
 3892SOL    HW123309   0.714   2.650   8.678 -0.0331  0.8933 -1.8646
 3892SOL    HW223310   0.830   2.687   8.590 -1.2573  0.0780 -0.6377
 3893SOL     OW23311   0.644   4.359   3.814  0.3672  0.2600 -0.5660
 3893SOL    HW123312   0.612   4.415   3.884 -0.1058 -0.9769  0.2157
 3893SOL    HW223313   0.568   4.365   3.756  0.0679  1.3695 -0.0575
 3894SOL     OW23314   2.716   0.578   7.454 -0.3948 -0.7985 -0.0373
 3894SOL    HW123315   2.640   0.607   7.505 -0.0867  0.1884 -0.1276
 3894SOL    HW223316   2.714   0.486   7.479 -1.9615 -1.1677 -1.6121
 3895SOL     OW23317   2.105   0.336   6.834  0.0587 -0.0695  0.0133
 3895SOL    HW123318   2.070   0.425   6.828 -1.4205 -0.7568 -1.5352
 3895SOL    HW223319   2.167   0.328   6.762 -1.6679 -1.7761 -1.2501
 3896SOL     OW23320   3.385   1.316   1.156  0.2828 -0.6201 -0.9751
 3896SOL    HW123321   3.433   1.348   1.080  1.3864 -0.5793 -0.2529
 3896SOL    HW223322   3.307   1.365   1.130 -0.3068 -0.6923  0.6838
 3897SOL     OW23323   0.485   4.615   7.705  0.1795  0.2767 -0.0129
 3897SOL    HW123324   0.456   4.653   7.788 -5.0494  0.2118 -1.8599
 3897SOL    HW223325   0.551   4.679   7.677  0.9866 -1.1373 -1.3498
 3898SOL     OW23326   2.739   0.479  15.899 -0.3997 -0.9523 -0.3646
 3898SOL    HW123327   2.654   0.489  15.943 -0.6083 -2.0412 -0.5237
 3898SOL    HW223328   2.768   0.404  15.950 -0.7913 -2.5139 -2.4247
 3899SOL     OW23329   2.246   0.703  12.306  0.7040 -0.1957  0.1681
 3899SOL    HW123330   2.265   0.765  12.376  1.1030  0.0899 -0.1895
 3899SOL    HW223331   2.171   0.656  12.342 -0.7525  1.8058 -0.2185
 3900SOL     OW23332   4.327   2.380   8.484 -0.6751 -0.2412 -0.1526
 3900SOL    HW123333   4.292   2.295   8.459 -0.2357 -0.7665  1.0409
 3900SOL    HW223334   4.421   2.366   8.484 -0.6378  0.0723  1.6454
 3901SOL     OW23335   3.633   1.499   4.508  0.0318  0.0160  0.2916
 3901SOL    HW123336   3.660   1.409   4.487 -0.7923  0.1917 -1.5173
 3901SOL    HW223337   3.560   1.482   4.569  1.2117 -0.4300  1.5902
 3902SOL     OW23338   3.848   2.442   3.097 -0.0324  0.1683  0.6750
 3902SOL    HW123339   3.870   2.383   3.169  0.0264 -1.1354 -0.3865
 3902SOL    HW223340   3.909   2.419   3.026 -0.2576 -1.3276  0.9673
 3903SOL     OW23341   2.764   1.074   9.129 -0.2486  0.2479 -0.8315
 3903SOL    HW123342   2.682   1.118   9.151 -0.6290 -0.1391 -1.4896
 3903SOL    HW223343   2.827   1.122   9.183 -0.8618  1.2978 -1.0401
 3904SOL     OW23344   0.569   2.896  17.570 -0.0031 -0.0788 -0.7854
 3904SOL    HW123345   0.532   2.830  17.629  1.7205 -1.5253 -1.3357
 3904SOL    HW223346   0.591   2.836  17.498  3.0238  0.4132 -0.2796
 3905SOL     OW23347   2.125   2.576   2.658  0.3737  0.0375  0.1294
 3905SOL    HW123348   2.190   2.525   2.608  0.1941  1.1771 -1.2747
 3905SOL    HW223349   2.171   2.660   2.659 -1.3488  0.9503  0.6442
 3906SOL     OW23350   0.204   3.554   8.998  0.3085  0.8950 -0.6948
 3906SOL    HW123351   0.263   3.483   8.976  0.0992  0.5390 -0.0871
 3906SOL    HW223352   0.190   3.536   9.090 -0.4435 -0.2459 -1.0299
 3907SOL     OW23353   2.575   1.755  12.543 -0.1167  0.8254 -0.7024
 3907SOL    HW123354   2.578   1.849  12.561  1.1646  0.8077 -0.8416
 3907SOL    HW223355   2.512   1.726  12.610  0.6655 -1.1271 -0.8126
 3908SOL     OW23356   0.156   1.544   8.396  0.2911  0.1229  0.3130
 3908SOL    HW123357   0.147   1.633   8.361 -0.6785 -0.4596 -0.8983
 3908SOL    HW223358   0.251   1.544   8.401  0.2931  0.8535  0.2513
 3909SOL     OW23359   2.778   0.184  11.022  0.1603 -0.4480 -0.3864
 3909SOL    HW123360   2.740   0.098  11.038 -0.9878  0.5141  2.0599
 3909SOL    HW223361   2.719   0.232  11.080  2.4562  3.2878 -1.1148
 3910SOL     OW23362   1.597   1.130   7.276 -0.0306 -0.8372 -0.3698
 3910SOL    HW123363   1.634   1.042   7.274  1.7395 -0.0829 -0.6537
 3910SOL    HW223364   1.629   1.164   7.359  0.5364  0.9504 -1.3148
 3911SOL     OW23365   0.204   3.757   5.938  0.5604 -0.5591  0.8410
 3911SOL    HW123366   0.249   3.836   5.909  0.6946 -0.4014  1.4959
 3911SOL    HW223367   0.127   3.764   5.882  0.8362  2.1161  0.7846
 3912SOL     OW23368   3.730   3.082   0.529 -0.2352  1.0345 -0.4781
 3912SOL    HW123369   3.706   3.043   0.444  1.3168  2.2948 -1.4921
 3912SOL    HW223370   3.642   3.113   0.553 -0.4910 -1.3829  1.7139
 3913SOL     OW23371   4.078   4.492   3.006  0.7633  0.2943 -0.1143
 3913SOL    HW123372   4.079   4.469   2.913 -1.2067 -0.0330 -0.0595
 3913SOL    HW223373   4.057   4.586   3.001  2.2198  0.5747 -0.8363
 3914SOL     OW23374   1.426   3.698   5.740 -0.0340 -0.0094 -0.3400
 3914SOL    HW123375   1.400   3.790   5.740 -0.7033 -0.1926 -0.4645
 3914SOL    HW223376   1.422   3.673   5.648  0.0590 -2.0251  0.2085
 3915SOL     OW23377   3.333   4.695   5.775 -0.4574  0.7448  0.5228
 3915SOL    HW123378   3.412   0.010   5.773 -1.0274  1.5559 -0.5495
 3915SOL    HW223379   3.356   4.636   5.703  1.0866  0.4554  1.2598
 3916SOL     OW23380   3.666   4.351   0.801 -0.8192  0.2946 -0.1732
 3916SOL    HW123381   3.609   4.298   0.745  1.3586 -1.7697 -0.4458
 3916SOL    HW223382   3.628   4.324   0.884 -1.0503  0.3975 -0.2450
 3917SOL     OW23383   3.875   2.122   5.319 -0.2951 -0.4512 -0.1668
 3917SOL    HW123384   3.842   2.102   5.407  3.0752 -1.4796  0.8717
 3917SOL    HW223385   3.904   2.034   5.294  3.3916  0.2130  1.8020
 3918SOL     OW23386   2.149   1.935   6.052  0.1162  0.4041  0.3138
 3918SOL    HW123387   2.113   1.940   5.963 -3.0071  1.7590  1.6189
 3918SOL    HW223388   2.243   1.945   6.038  0.0688  1.6095  0.8579
 3919SOL     OW23389   3.413   1.461   8.852 -0.5335  0.4105  1.0075
 3919SOL    HW123390   3.492   1.513   8.834 -0.6190  0.3828  0.5507
 3919SOL    HW223391   3.441   1.377   8.814  3.7697  2.7989 -1.1598
 3920SOL     OW23392   1.764   1.155   9.392 -0.2911 -0.3408  0.5116
 3920SOL    HW123393   1.829   1.102   9.344  1.0054  1.5270  0.2268
 3920SOL    HW223394   1.835   1.211   9.423 -0.7540  1.3202 -1.4160
 3921SOL     OW23395   1.779   4.530   5.392 -0.1221 -0.3460 -0.4010
 3921SOL    HW123396   1.804   4.611   5.348  0.4228  1.0907  2.5534
 3921SOL    HW223397   1.699   4.553   5.439 -0.6288  1.3116 -2.0861
 3922SOL     OW23398   4.152   1.185   3.538  0.1297 -0.3290 -0.0823
 3922SOL    HW123399   4.090   1.130   3.491  2.9051 -2.3028 -1.4124
 3922SOL    HW223400   4.092   1.222   3.603 -1.2382 -2.4325 -0.1415
 3923SOL     OW23401   1.401   4.382   2.733 -0.5763 -0.4273 -0.6100
 3923SOL    HW123402   1.467   4.399   2.666 -0.3938  3.2786  0.4921
 3923SOL    HW223403   1.317   4.389   2.687 -1.7983  0.1026  1.6858
 3924SOL     OW23404   0.052   4.710   5.712 -0.0163 -0.2791 -0.3033
 3924SOL    HW123405   0.092   4.623   5.716 -3.0356 -1.6087  1.4577
 3924SOL    HW223406   0.009   4.715   5.798  0.1199  0.8557 -0.3111
 3925SOL     OW23407   4.551   0.618   6.337  0.0150 -0.2531  0.5081
 3925SOL    HW123408   4.578   0.708   6.356  1.8250 -0.1617 -2.4379
 3925SOL    HW223409   4.477   0.647   6.283  0.5483  0.1857  0.0114
 3926SOL     OW23410   3.749   3.396   8.000  0.0429 -0.4039 -0.3833
 3926SOL    HW123411   3.762   3.491   8.001 -1.0163 -0.2922  2.2669
 3926SOL    HW223412   3.659   3.395   7.967 -0.0468  2.3018 -0.2555
 3927SOL     OW23413   4.347   2.162  14.785  0.7437 -0.2028 -0.4095
 3927SOL    HW123414   4.279   2.227  14.765 -0.2922 -0.7086  1.3608
 3927SOL    HW223415   4.420   2.199  14.737  1.9128 -2.3341 -0.2882
 3928SOL     OW23416   3.728   1.122   9.594 -0.3815  0.3897 -0.1588
 3928SOL    HW123417   3.791   1.190   9.616  0.5988 -0.1095 -1.4357
 3928SOL    HW223418   3.783   1.058   9.550  1.0268 -0.4635  2.8223
 3929SOL     OW23419   4.620   0.170   5.235 -0.1797  0.4813 -0.3855
 3929SOL    HW123420   4.580   0.120   5.164 -1.1934 -1.4691  1.5870
 3929SOL    HW223421   4.550   0.234   5.252  1.9370  2.4194  1.0819
 3930SOL     OW23422   3.824   1.332   6.412 -0.7486  0.2098  0.1639
 3930SOL    HW123423   3.735   1.342   6.444 -1.7545 -2.0399 -1.9064
 3930SOL    HW223424   3.832   1.406   6.351  0.0667  1.7157  2.1224
 3931SOL     OW23425   3.861   4.458   4.422  0.2077 -0.1518 -0.5811
 3931SOL    HW123426   3.833   4.380   4.373 -0.9930 -0.6454  0.8650
 3931SOL    HW223427   3.817   4.531   4.379 -0.4061  0.8638  1.7655
 3932SOL     OW23428   1.226   4.050  12.089 -0.0259  0.3960 -0.2889
 3932SOL    HW123429   1.288   3.980  12.073  0.3438  0.3504  1.3020
 3932SOL    HW223430   1.215   4.067  11.996  1.8383 -3.1138 -1.1219
 3933SOL     OW23431   1.879   3.846  15.232 -0.1323 -0.2701 -0.1317
 3933SOL    HW123432   1.822   3.921  15.246  1.0653  0.8324 -1.1714
 3933SOL    HW223433   1.956   3.892  15.265 -1.8334  1.5923  1.2466
 3934SOL     OW23434   2.863   3.847   4.210 -0.3742  0.3325 -0.0730
 3934SOL    HW123435   2.945   3.893   4.225 -0.4105  0.8126 -1.3042
 3934SOL    HW223436   2.799   3.917   4.197 -0.7311 -0.0337 -0.2917
 3935SOL     OW23437   3.870   1.372   5.293  0.0802 -0.2462  0.6566
 3935SOL    HW123438   3.916   1.431   5.352  1.6365 -1.1605  0.3766
 3935SOL    HW223439   3.901   1.417   5.214 -2.0248  0.8936  0.4930
 3936SOL     OW23440   0.783   2.679   7.623  0.1234  0.4092  0.1159
 3936SOL    HW123441   0.798   2.762   7.667 -1.8341  0.6228  0.3801
 3936SOL    HW223442   0.803   2.617   7.693  2.8052  1.6895  0.4798
 3937SOL     OW23443   3.909   3.973   8.038 -0.2311  0.1017  0.1468
 3937SOL    HW123444   3.931   3.939   8.124 -2.4089 -0.2429  0.5869
 3937SOL    HW223445   3.997   3.993   8.007  0.0479 -1.3847 -0.0018
 3938SOL     OW23446   2.807   1.534   3.492  0.2248  0.4621 -0.3555
 3938SOL    HW123447   2.752   1.583   3.553 -1.3129 -1.0060 -0.5507
 3938SOL    HW223448   2.803   1.578   3.407  0.2538  0.8221 -0.1685
 3939SOL     OW23449   1.791   4.056   1.903  0.1360  0.0845 -0.4241
 3939SOL    HW123450   1.799   4.078   1.996 -1.6413  0.4254 -0.3484
 3939SOL    HW223451   1.884   4.037   1.894  0.2611  0.0707  0.8492
 3940SOL     OW23452   4.687   1.427   7.444  0.4064  0.1762 -0.3327
 3940SOL    HW123453   4.658   1.360   7.382 -0.2762 -0.3403  0.5452
 3940SOL    HW223454   4.703   1.513   7.406  1.9199  0.4112  0.7878
 3941SOL     OW23455   0.318   3.896   7.160 -0.1410  0.2162 -0.4727
 3941SOL    HW123456   0.248   3.864   7.103 -2.0140  1.2480  1.2603
 3941SOL    HW223457   0.369   3.960   7.109 -0.2938 -0.1208 -1.0541
 3942SOL     OW23458   0.231   3.722   5.556 -0.2309  0.8388 -0.1419
 3942SOL    HW123459   0.300   3.670   5.513 -1.7338 -0.9751 -0.3771
 3942SOL    HW223460   0.220   3.794   5.493  1.6985  0.0922 -1.3391
 3943SOL     OW23461   4.537   0.265   8.593 -0.3774  0.0868 -0.6408
 3943SOL    HW123462   4.584   0.332   8.542  0.7593  0.6314  1.0773
 3943SOL    HW223463   4.510   0.292   8.681  0.4633 -0.2249 -0.2818
 3944SOL     OW23464   4.180   0.385  14.099 -0.3972 -0.3860  0.0259
 3944SOL    HW123465   4.252   0.441  14.071  0.2878 -0.5802  1.3647
 3944SOL    HW223466   4.224   0.332  14.166  0.2357  0.3738  0.2138
 3945SOL     OW23467   1.979   3.764   7.366  0.1244 -0.0035  0.0105
 3945SOL    HW123468   1.982   3.859   7.375 -1.5835 -0.1027  1.5581
 3945SOL    HW223469   2.030   3.750   7.286  0.5941 -0.5826  0.4060
 3946SOL     OW23470   2.961   1.423   1.585 -0.8364  0.1138 -0.0710
 3946SOL    HW123471   2.984   1.514   1.606 -0.1885  0.1352 -0.9387
 3946SOL    HW223472   2.985   1.374   1.664 -0.8010 -2.2344 -1.5690
 3947SOL     OW23473   2.314   2.496  10.206 -0.1629 -0.2341 -0.3909
 3947SOL    HW123474   2.232   2.451  10.185 -0.3893  0.2340 -0.5054
 3947SOL    HW223475   2.325   2.483  10.301 -0.6835  2.2982  0.0210
 3948SOL     OW23476   3.508   3.351   7.840  0.3071  0.2963  0.7752
 3948SOL    HW123477   3.449   3.289   7.797 -0.0793  1.6908 -0.7494
 3948SOL    HW223478   3.466   3.434   7.815 -1.0208 -0.9714 -1.2921
 3949SOL     OW23479   0.369   0.555   3.003  0.0218 -0.0412 -0.7544
 3949SOL    HW123480   0.457   0.532   2.971  0.4685  0.9836 -0.2648
 3949SOL    HW223481   0.365   0.503   3.084  2.0351  2.5701  1.0352
 3950SOL     OW23482   4.596   3.678   0.351 -0.3488 -0.3515 -0.0231
 3950SOL    HW123483   4.592   3.713   0.440  0.5429 -0.1553 -0.0583
 3950SOL    HW223484   4.620   3.588   0.372 -0.1636 -0.6787 -1.6098
 3951SOL     OW23485   4.282   1.131   4.257  0.8283  0.0867 -0.4175
 3951SOL    HW123486   4.222   1.189   4.210  2.1782  0.4061 -1.7068
 3951SOL    HW223487   4.258   1.048   4.217  0.5822 -0.2427  0.4006
 3952SOL     OW23488   2.544   2.462   3.344  0.1102  0.1742  0.2408
 3952SOL    HW123489   2.627   2.494   3.308  0.1334  1.0960  1.1294
 3952SOL    HW223490   2.576   2.416   3.421  0.7909  0.5520  0.1825
 3953SOL     OW23491   1.394   2.887   3.236 -0.1968 -0.0757  0.1118
 3953SOL    HW123492   1.402   2.821   3.167 -1.8269  1.3338 -1.4557
 3953SOL    HW223493   1.426   2.832   3.307  0.3187  0.9392  0.6689
 3954SOL     OW23494   1.106   2.704   7.430  0.3037 -0.3074  0.5475
 3954SOL    HW123495   1.015   2.734   7.431  0.5712  0.4847  1.0239
 3954SOL    HW223496   1.127   2.748   7.512  2.9392  0.3068 -0.4731
 3955SOL     OW23497   0.848   0.264  13.111  0.3787  0.1085 -0.2924
 3955SOL    HW123498   0.812   0.298  13.029 -0.6555  1.1305  0.6006
 3955SOL    HW223499   0.770   0.259  13.166 -1.0879  0.7560 -2.2923
 3956SOL     OW23500   3.514   1.148   8.141 -0.3059 -0.1932 -0.1504
 3956SOL    HW123501   3.483   1.149   8.232 -0.4449 -1.2988 -0.1900
 3956SOL    HW223502   3.506   1.059   8.106 -2.3160 -0.8497  1.9728
 3957SOL     OW23503   1.907   0.820   6.536  0.3504 -0.0855 -0.2795
 3957SOL    HW123504   1.864   0.736   6.522 -1.0370  0.1761  2.4540
 3957SOL    HW223505   1.850   0.866   6.597  2.0912  1.8726 -0.1130
 3958SOL     OW23506   3.202   3.292   7.136 -0.0359  0.2236  0.1577
 3958SOL    HW123507   3.218   3.201   7.162 -1.3192 -1.0197 -3.4415
 3958SOL    HW223508   3.237   3.332   7.216  1.7891 -0.3545 -0.3410
 3959SOL     OW23509   0.384   1.823  16.006  0.9168  0.5256 -0.2735
 3959SOL    HW123510   0.361   1.739  15.967 -1.5662  0.4825  1.2711
 3959SOL    HW223511   0.342   1.886  15.946 -2.0448 -1.0809  0.1469
 3960SOL     OW23512   3.882   0.473  15.600  0.4403 -0.1894  0.2538
 3960SOL    HW123513   3.805   0.500  15.650  1.6818  0.5016  1.8032
 3960SOL    HW223514   3.957   0.464  15.658  1.9868  2.5133 -1.3092
 3961SOL     OW23515   4.211   0.134  12.343  0.4404  0.4880 -0.1642
 3961SOL    HW123516   4.258   0.136  12.427  1.0527  0.9823 -0.5151
 3961SOL    HW223517   4.150   0.205  12.364  0.2517  0.2385  0.1302
 3962SOL     OW23518   1.734   0.110   9.164  0.3380  0.4575 -0.4005
 3962SOL    HW123519   1.640   0.130   9.158  0.3813  0.8214  0.2318
 3962SOL    HW223520   1.768   0.130   9.251  0.8622 -1.2518 -0.2204
 3963SOL     OW23521   3.442   3.244   6.695  0.6321  0.1085  0.6855
 3963SOL    HW123522   3.397   3.164   6.722  1.1644 -1.1492 -2.1641
 3963SOL    HW223523   3.531   3.213   6.678  0.5269 -0.0743  0.4651
 3964SOL     OW23524   1.003   0.839   3.916 -0.4031  0.3722  0.4184
 3964SOL    HW123525   0.928   0.848   3.857 -0.6865  1.8744  1.0023
 3964SOL    HW223526   0.976   0.903   3.982 -0.2688 -1.5479  2.3112
 3965SOL     OW23527   1.463   1.467   9.410  0.1374  0.1894 -0.5034
 3965SOL    HW123528   1.475   1.396   9.347 -1.3012 -0.9001  0.4268
 3965SOL    HW223529   1.542   1.471   9.463 -0.5213 -2.8891  0.7365
 3966SOL     OW23530   0.068   2.998   9.069 -0.4369  0.0483 -0.0316
 3966SOL    HW123531   0.141   3.002   9.006  1.7748  0.3076  2.5374
 3966SOL    HW223532   0.108   3.060   9.130 -1.5503  0.4696  0.2615
 3967SOL     OW23533   0.199   3.742   8.415  0.1184  0.7206  0.5348
 3967SOL    HW123534   0.159   3.786   8.490 -0.7476 -0.3310  0.7007
 3967SOL    HW223535   0.152   3.789   8.346  0.4279  1.7030  1.0005
 3968SOL     OW23536   2.778   3.120   1.494  0.3049 -0.5204  0.7762
 3968SOL    HW123537   2.791   3.184   1.564 -0.8824  1.0272 -0.4070
 3968SOL    HW223538   2.697   3.161   1.464  0.0071 -0.8184  1.1755
 3969SOL     OW23539   4.024   2.160  17.157 -0.3715 -0.3442 -0.5616
 3969SOL    HW123540   3.950   2.107  17.126  1.0352 -3.4097  1.3331
 3969SOL    HW223541   3.989   2.218  17.224  0.7345 -1.1558  0.7155
 3970SOL     OW23542   0.794   2.123  14.010  0.2190 -0.3257 -0.3492
 3970SOL    HW123543   0.762   2.171  13.934  0.7852  0.1854 -0.2618
 3970SOL    HW223544   0.866   2.184  14.027 -0.4292 -0.0619  1.3751
 3971SOL     OW23545   1.440   2.691   9.966  0.3641 -0.0837  0.1306
 3971SOL    HW123546   1.487   2.683   9.883 -1.5786 -1.2806 -0.8651
 3971SOL    HW223547   1.375   2.750   9.927 -0.0316 -0.3480  0.3949
 3972SOL     OW23548   2.166   1.206   3.769  0.0463  0.3160 -0.1656
 3972SOL    HW123549   2.210   1.240   3.846  2.1604  0.2090 -1.3312
 3972SOL    HW223550   2.127   1.129   3.810  0.1050  1.5568  2.1899
 3973SOL     OW23551   1.956   3.830   7.785 -0.0710  0.4263 -0.1050
 3973SOL    HW123552   1.986   3.806   7.872 -2.7809 -3.0510 -0.1544
 3973SOL    HW223553   2.025   3.886   7.749 -0.5382  2.7322  2.5750
 3974SOL     OW23554   4.350   2.091   1.971  0.5952 -0.4036 -0.4886
 3974SOL    HW123555   4.279   2.154   1.959  1.8231  1.3967  1.7046
 3974SOL    HW223556   4.416   2.160   1.984 -0.4599  0.6789 -0.8546
 3975SOL     OW23557   0.025   1.246  16.928 -0.2026 -0.3866  0.3489
 3975SOL    HW123558   4.717   1.186  16.870  1.0935  0.8525 -1.9621
 3975SOL    HW223559   0.040   1.189  17.004 -0.1791 -0.8481 -0.0004
 3976SOL     OW23560   0.802   1.912   8.600  0.6809 -0.5889  0.0866
 3976SOL    HW123561   0.765   1.903   8.688 -0.0914 -2.4627 -0.4367
 3976SOL    HW223562   0.730   1.936   8.542  1.2346 -2.1271 -1.2188
 3977SOL     OW23563   4.502   3.405   6.703 -0.6414  0.0006  0.3324
 3977SOL    HW123564   4.457   3.340   6.756  0.1189 -2.4125 -1.9457
 3977SOL    HW223565   4.594   3.386   6.723 -0.5534 -0.3531 -0.3977
 3978SOL     OW23566   4.303   1.804   7.304 -0.0091  0.3898 -0.0133
 3978SOL    HW123567   4.331   1.724   7.349 -0.8048  1.2461  1.9959
 3978SOL    HW223568   4.242   1.760   7.243 -0.6201  0.3423  0.6256
 3979SOL     OW23569   1.439   1.287   4.005  0.3327  0.3564 -0.3894
 3979SOL    HW123570   1.510   1.348   3.984 -0.1284  1.1506  0.3708
 3979SOL    HW223571   1.387   1.308   3.927  1.4109 -0.1615 -1.2457
 3980SOL     OW23572   3.340   0.778  17.026  0.1371  0.4022  0.0241
 3980SOL    HW123573   3.280   0.847  16.999 -1.7975 -1.2156  0.2293
 3980SOL    HW223574   3.376   0.760  16.939 -0.6688 -2.7400  0.3619
 3981SOL     OW23575   4.280   1.801   2.215  0.4864  0.5947 -0.1148
 3981SOL    HW123576   4.229   1.721   2.229 -1.6355  2.0457  0.5379
 3981SOL    HW223577   4.293   1.791   2.120 -1.5222  0.3274 -0.3641
 3982SOL     OW23578   1.680   2.791  13.067 -0.1386  1.1468  0.6857
 3982SOL    HW123579   1.623   2.823  12.997  2.8209  0.7535 -1.8888
 3982SOL    HW223580   1.631   2.806  13.148 -2.5673 -0.0793 -0.5834
 3983SOL     OW23581   1.133   2.626   6.948 -0.3967  0.0003 -0.2841
 3983SOL    HW123582   1.078   2.584   7.014 -2.2525  1.8453 -0.6408
 3983SOL    HW223583   1.218   2.600   6.982 -0.6294  1.5234  1.4765
 3984SOL     OW23584   3.581   3.119   2.669  0.4324 -0.0539 -0.2379
 3984SOL    HW123585   3.509   3.129   2.607 -0.2866 -0.3063  0.5490
 3984SOL    HW223586   3.637   3.194   2.648 -0.2665 -0.6702 -4.2504
 3985SOL     OW23587   0.137   3.672   3.444  0.6390  0.5722 -0.0645
 3985SOL    HW123588   0.133   3.610   3.372  0.8627  1.6441 -0.9975
 3985SOL    HW223589   0.047   3.676   3.475  0.4076 -2.9270 -0.3071
 3986SOL     OW23590   0.280   0.248  11.832  0.2542  0.2459  0.6833
 3986SOL    HW123591   0.204   0.235  11.888 -0.4005 -1.5827 -0.5967
 3986SOL    HW223592   0.330   0.314  11.880 -0.5123  1.7098 -0.5450
 3987SOL     OW23593   2.433   2.776   2.635  0.2297  0.1576  0.8604
 3987SOL    HW123594   2.386   2.857   2.615  2.1948  0.8959 -0.7291
 3987SOL    HW223595   2.404   2.761   2.725 -1.1507 -0.5369  0.2985
 3988SOL     OW23596   4.177   3.945   7.633 -0.0889 -0.3750 -0.0023
 3988SOL    HW123597   4.185   3.913   7.543  3.3472  0.2966  0.0460
 3988SOL    HW223598   4.135   4.030   7.619 -1.6824 -1.0610  0.6598
 3989SOL     OW23599   3.887   3.494  17.660  0.2501 -0.2808 -0.3214
 3989SOL    HW123600   3.810   3.439  17.646 -0.4289  0.3258  1.0762
 3989SOL    HW223601   3.913   3.451  17.742  0.0087 -1.8962 -1.0958
 3990SOL     OW23602   4.436   1.214   4.852  0.0007  0.0934 -0.0269
 3990SOL    HW123603   4.490   1.195   4.776  2.6171 -2.2026  2.4142
 3990SOL    HW223604   4.477   1.176   4.930  1.8981  0.9435 -0.6248
 3991SOL     OW23605   4.602   4.038   2.749 -0.0922  0.8422  0.0723
 3991SOL    HW123606   4.528   4.094   2.773 -0.5196  0.4433 -0.3065
 3991SOL    HW223607   4.678   4.076   2.793  0.4086 -0.7033  0.5449
 3992SOL     OW23608   0.145   2.410   4.754 -0.2304  0.1640 -0.4087
 3992SOL    HW123609   0.135   2.459   4.836 -0.8182  2.8368 -2.1058
 3992SOL    HW223610   0.240   2.400   4.761 -0.0623  0.7573 -1.9661
 3993SOL     OW23611   1.852   3.952   2.455  0.0143  0.0401  0.1000
 3993SOL    HW123612   1.883   4.003   2.381  1.2082  0.4230  0.8466
 3993SOL    HW223613   1.835   3.863   2.422  3.3177 -0.1044 -1.2117
 3994SOL     OW23614   4.153   0.824  17.024  0.3435 -0.3738 -0.4212
 3994SOL    HW123615   4.109   0.771  16.958  0.0994 -1.7589  0.8491
 3994SOL    HW223616   4.103   0.807  17.104  1.1338 -0.0984  0.1305
 3995SOL     OW23617   0.616   1.263  15.954  0.2474  0.1204  0.1088
 3995SOL    HW123618   0.602   1.357  15.949  1.5502  0.1439 -2.6967
 3995SOL    HW223619   0.564   1.233  16.029 -0.5183 -0.0161 -0.4816
 3996SOL     OW23620   2.348   0.970   7.794 -0.1707  0.2833 -0.3161
 3996SOL    HW123621   2.334   0.891   7.741  2.1845  0.2407 -0.8674
 3996SOL    HW223622   2.273   1.021   7.765  0.5448  0.1606 -2.3293
 3997SOL     OW23623   4.162   3.794  15.007  0.2947 -0.3537 -0.3419
 3997SOL    HW123624   4.245   3.805  14.961  0.7396  1.9384  1.0372
 3997SOL    HW223625   4.138   3.720  14.951  1.3706  0.7446 -2.2517
 3998SOL     OW23626   2.463   0.001   5.634 -0.0059  0.1219 -0.5384
 3998SOL    HW123627   2.396   4.680   5.600  0.6222  0.7549 -2.8730
 3998SOL    HW223628   2.512   4.689   5.699  1.6349  2.3056 -0.0592
 3999SOL     OW23629   3.499   2.125  10.981 -0.4241 -0.0669 -0.3113
 3999SOL    HW123630   3.496   2.172  10.897  1.7105  1.6954  0.5816
 3999SOL    HW223631   3.461   2.196  11.033  1.3219 -0.2234  1.1916
 4000SOL     OW23632   1.014   0.045  13.881 -0.3295 -0.9587 -0.0481
 4000SOL    HW123633   0.920   0.049  13.900 -0.1998  1.7908 -0.0201
 4000SOL    HW223634   1.055   0.122  13.920 -1.6720 -0.0122 -0.5128
 4001SOL     OW23635   2.336   3.884  16.508  0.0003  0.0626  0.7229
 4001SOL    HW123636   2.271   3.819  16.535  0.1601 -1.0940 -1.6953
 4001SOL    HW223637   2.419   3.836  16.516  0.6510  0.9667 -0.7362
 4002SOL     OW23638   1.728   1.815   8.470  0.0088  0.2929 -0.7100
 4002SOL    HW123639   1.722   1.749   8.539 -0.5460  1.3103  0.2146
 4002SOL    HW223640   1.660   1.779   8.414 -1.2063 -2.6503  2.6801
 4003SOL     OW23641   2.149   1.663   3.548 -0.2348 -0.0680 -0.2672
 4003SOL    HW123642   2.087   1.714   3.600 -1.1952 -0.7696 -0.7285
 4003SOL    HW223643   2.138   1.580   3.595  1.2063  0.9504  1.8393
 4004SOL     OW23644   3.058   2.313  12.098  0.4129 -0.6774 -0.1279
 4004SOL    HW123645   3.069   2.341  12.008 -1.3357 -0.9787 -0.4374
 4004SOL    HW223646   3.068   2.399  12.139 -0.0773 -1.2980  1.3031
 4005SOL     OW23647   3.553   0.099   2.236 -0.4261  0.1075 -0.1128
 4005SOL    HW123648   3.594   0.179   2.267  0.7005  0.2084 -1.8331
 4005SOL    HW223649   3.627   0.045   2.207  0.0017  1.2965 -1.2472
 4006SOL     OW23650   0.876   1.275   8.288  0.9049  0.1461 -0.4676
 4006SOL    HW123651   0.944   1.246   8.349  0.4902  3.5728  1.6233
 4006SOL    HW223652   0.870   1.369   8.303  0.0943  0.1846 -1.0103
 4007SOL     OW23653   3.513   0.984   5.252  0.5615 -0.2921  0.5654
 4007SOL    HW123654   3.577   1.047   5.219  2.4805 -1.5489  1.8738
 4007SOL    HW223655   3.494   0.924   5.180  2.0722 -1.4741  1.1376
 4008SOL     OW23656   0.806   1.732   6.474 -0.7413  0.1363  0.0043
 4008SOL    HW123657   0.859   1.787   6.417 -0.0923 -1.3679 -0.8431
 4008SOL    HW223658   0.864   1.656   6.481 -0.1989  0.6875  1.4033
 4009SOL     OW23659   1.299   4.068   4.876 -0.3856 -0.8395  0.3095
 4009SOL    HW123660   1.274   3.980   4.906 -0.8568 -0.8709 -0.1628
 4009SOL    HW223661   1.362   4.045   4.807 -2.3680 -0.7095 -1.5550
 4010SOL     OW23662   2.368   3.918   2.506  0.0444 -0.4702  0.1031
 4010SOL    HW123663   2.355   3.970   2.585 -1.0823 -0.1829 -0.2783
 4010SOL    HW223664   2.347   3.830   2.538  1.8166 -0.1134  2.3062
 4011SOL     OW23665   1.622   3.144   8.027 -0.4066  0.2027  0.2281
 4011SOL    HW123666   1.706   3.107   8.001 -1.0407  0.3821 -2.0582
 4011SOL    HW223667   1.575   3.075   8.073 -0.8401 -0.5985 -1.4637
 4012SOL     OW23668   3.409   0.586   7.081  0.3807 -0.1734  0.2542
 4012SOL    HW123669   3.377   0.653   7.021  0.4924  1.3986  1.9512
 4012SOL    HW223670   3.398   0.629   7.166 -0.2463  1.1787 -0.5060
 4013SOL     OW23671   3.662   4.256   6.986 -0.0421  0.1429  0.2983
 4013SOL    HW123672   3.623   4.344   6.987  0.9270  0.6012 -1.5305
 4013SOL    HW223673   3.595   4.212   7.038  1.3977 -2.9879 -0.5174
 4014SOL     OW23674   1.194   2.010   4.724 -0.2412  0.6445  0.0301
 4014SOL    HW123675   1.248   2.042   4.797 -0.1826 -2.8922  1.5275
 4014SOL    HW223676   1.107   2.008   4.764 -0.9468 -1.3857 -1.6302
 4015SOL     OW23677   4.370   4.517   5.149  0.3942 -0.3372  0.1837
 4015SOL    HW123678   4.400   4.531   5.239 -0.3939  0.0343  0.3895
 4015SOL    HW223679   4.364   4.422   5.142 -2.5539 -0.0606 -1.3678
 4016SOL     OW23680   3.618   3.341  10.359 -0.1643 -0.3672  0.3398
 4016SOL    HW123681   3.673   3.281  10.309  1.1388 -0.2718  1.6423
 4016SOL    HW223682   3.658   3.332  10.446  2.5495  0.2667 -0.8247
 4017SOL     OW23683   3.618   3.295  11.087  0.5886 -0.0419  0.1426
 4017SOL    HW123684   3.592   3.300  11.179  0.0462 -1.0914  0.0514
 4017SOL    HW223685   3.712   3.277  11.092  0.2834 -1.5108  0.7196
 4018SOL     OW23686   0.212   0.939   5.205 -0.4387 -0.1014 -0.3179
 4018SOL    HW123687   0.154   1.009   5.233 -0.2968 -0.2408  0.3335
 4018SOL    HW223688   0.166   0.902   5.130 -2.6359  2.4012 -0.1959
 4019SOL     OW23689   4.729   2.249   4.589 -0.0633 -0.2503 -0.4578
 4019SOL    HW123690   0.027   2.162   4.602  0.6822 -0.1342 -1.7757
 4019SOL    HW223691   0.045   2.302   4.648  0.7620 -0.4865 -1.0125
 4020SOL     OW23692   3.197   3.631  10.221  0.4501 -0.4904 -0.0809
 4020SOL    HW123693   3.161   3.555  10.267  1.2787 -1.0830 -0.4281
 4020SOL    HW223694   3.133   3.662  10.157 -0.4635  0.8661  1.4797
 4021SOL     OW23695   0.191   0.733   3.441  0.1160 -0.6284  0.0936
 4021SOL    HW123696   0.118   0.795   3.447  0.7756  0.2172 -0.5445
 4021SOL    HW223697   0.259   0.801   3.438  1.2155 -1.8579 -2.6691
 4022SOL     OW23698   0.025   3.963  14.682 -0.0137  0.0735 -0.3060
 4022SOL    HW123699   4.731   4.029  14.621 -2.1400 -2.2320 -1.6823
 4022SOL    HW223700   4.682   3.925  14.716  0.0653 -0.7700 -1.0575
 4023SOL     OW23701   1.307   3.838   7.400 -0.6945  0.2532 -0.1669
 4023SOL    HW123702   1.376   3.808   7.340 -0.4547 -1.0457  0.7599
 4023SOL    HW223703   1.229   3.817   7.349  0.2694  0.3993 -1.7040
 4024SOL     OW23704   0.851   2.619   2.578 -0.9363  0.2167 -0.7713
 4024SOL    HW123705   0.880   2.551   2.638  0.9482  0.6341 -1.2107
 4024SOL    HW223706   0.767   2.580   2.553 -0.5315 -1.0761 -0.0643
 4025SOL     OW23707   4.184   0.514   6.068  0.6617 -1.2708  0.6365
 4025SOL    HW123708   4.206   0.445   6.005  1.9974  0.1721 -0.4867
 4025SOL    HW223709   4.146   0.458   6.136 -1.6487  1.1899  1.3315
 4026SOL     OW23710   3.053   4.608   2.272  0.3274 -0.4460 -0.0999
 4026SOL    HW123711   3.133   4.559   2.253  0.2768 -0.9295  0.9017
 4026SOL    HW223712   3.024   4.563   2.351 -1.4936 -0.0322 -0.5326
 4027SOL     OW23713   2.990   4.581   6.636 -0.3445  0.1788 -0.5063
 4027SOL    HW123714   2.937   4.530   6.697  0.8511 -2.1528 -1.3893
 4027SOL    HW223715   3.074   4.565   6.679  1.3481 -0.4322 -4.0085
 4028SOL     OW23716   0.452   0.691   2.197 -0.3059  0.3533 -0.0778
 4028SOL    HW123717   0.477   0.610   2.152 -0.5984 -0.5836  1.4563
 4028SOL    HW223718   0.479   0.660   2.283  1.1816  0.0035 -0.6719
 4029SOL     OW23719   0.321   4.556  11.449  0.0011 -0.5770  0.3401
 4029SOL    HW123720   0.393   4.594  11.398  0.4990 -1.7901  0.1350
 4029SOL    HW223721   0.309   4.621  11.518  1.6522 -0.8909  0.9439
 4030SOL     OW23722   3.442   3.335  15.338 -0.4779  0.4178 -0.2785
 4030SOL    HW123723   3.507   3.315  15.271 -0.5997  2.2706 -0.9694
 4030SOL    HW223724   3.477   3.304  15.422  0.9253 -0.9793 -1.3890
 4031SOL     OW23725   0.611   1.427  13.335  0.0499  0.1295  0.1233
 4031SOL    HW123726   0.644   1.495  13.276  0.4968 -0.1826  0.0124
 4031SOL    HW223727   0.602   1.483  13.412 -0.5337 -0.4092  0.4506
 4032SOL     OW23728   2.232   1.222  13.809  0.1725 -0.4300  0.2683
 4032SOL    HW123729   2.304   1.224  13.746  0.6220 -1.0231  0.7541
 4032SOL    HW223730   2.197   1.138  13.781  0.2357 -0.2073 -0.4847
 4033SOL     OW23731   0.478   3.134  17.608  0.1703  0.0735 -0.5229
 4033SOL    HW123732   0.393   3.090  17.594 -0.3986  0.9530  0.2094
 4033SOL    HW223733   0.522   3.052  17.584 -1.1723 -0.9518  0.4890
 4034SOL     OW23734   3.324   3.631   2.027  0.2156  0.4282  1.0138
 4034SOL    HW123735   3.364   3.591   1.950  0.6912 -2.0212  2.5203
 4034SOL    HW223736   3.322   3.548   2.075 -2.0549  0.3219  0.7279
 4035SOL     OW23737   2.660   2.366   3.920  0.0861 -0.1455 -0.7422
 4035SOL    HW123738   2.597   2.328   3.859 -0.4638  1.3031 -1.0878
 4035SOL    HW223739   2.647   2.459   3.898  0.2681  0.0868  0.1015
 4036SOL     OW23740   1.426   0.167   2.637 -0.1466  0.7963  0.0643
 4036SOL    HW123741   1.482   0.096   2.668  2.1423  1.1765 -3.1786
 4036SOL    HW223742   1.364   0.175   2.710 -1.7334  0.1080 -1.2057
 4037SOL     OW23743   1.579   3.685  15.904 -0.5425  0.0550 -0.0402
 4037SOL    HW123744   1.674   3.694  15.895 -0.6523 -0.5112 -1.8085
 4037SOL    HW223745   1.542   3.772  15.891  1.1223  0.7247 -0.2413
 4038SOL     OW23746   1.687   1.952  11.488 -0.6074 -0.1449 -0.5918
 4038SOL    HW123747   1.612   1.988  11.441 -1.5173 -0.9106  0.2605
 4038SOL    HW223748   1.731   1.903  11.419  2.1213 -1.0899  1.7893
 4039SOL     OW23749   2.996   2.954   7.433  0.4371  0.0861  0.4581
 4039SOL    HW123750   2.935   2.914   7.495 -0.6137  1.9016  0.5856
 4039SOL    HW223751   3.021   3.035   7.478  1.6538 -0.6860  1.1819
 4040SOL     OW23752   2.990   0.287   2.837  0.7060 -0.5673 -0.3713
 4040SOL    HW123753   3.036   0.291   2.753  1.7677  0.0786  0.2495
 4040SOL    HW223754   2.963   0.379   2.833 -0.9600 -1.0487 -0.4495
 4041SOL     OW23755   2.585   0.887  14.570  0.5807 -0.0915 -0.5478
 4041SOL    HW123756   2.627   0.872  14.655  2.0192  0.0950 -1.2141
 4041SOL    HW223757   2.497   0.859  14.594  1.6234 -4.1375 -1.3956
 4042SOL     OW23758   4.449   0.917   7.536 -0.1225  0.4541 -0.3424
 4042SOL    HW123759   4.481   1.006   7.523  0.9494  0.1355  0.0290
 4042SOL    HW223760   4.382   0.914   7.468  1.3289 -1.6685 -1.6832
 4043SOL     OW23761   3.646   4.554  14.412 -0.1516 -0.5143 -0.4342
 4043SOL    HW123762   3.660   4.462  14.390  0.1609 -0.7753  0.8125
 4043SOL    HW223763   3.680   4.604  14.339  1.2866 -1.8996 -0.7020
 4044SOL     OW23764   3.326   0.615   1.492  0.5188 -0.2048  0.0094
 4044SOL    HW123765   3.271   0.681   1.450  0.0550  0.0720  1.0540
 4044SOL    HW223766   3.351   0.661   1.572 -0.2861 -0.5191  0.4329
 4045SOL     OW23767   1.531   4.144   4.644 -0.2340  0.5361  0.3124
 4045SOL    HW123768   1.598   4.177   4.703 -0.4891 -0.0712  0.9381
 4045SOL    HW223769   1.578   4.145   4.560  0.0818  0.3541  0.4880
 4046SOL     OW23770   1.918   4.506  15.296  0.1508  0.6653  0.0366
 4046SOL    HW123771   1.888   4.415  15.293  1.5334  0.1587  1.4596
 4046SOL    HW223772   1.864   4.554  15.233  1.3137  0.4071 -1.1641
 4047SOL     OW23773   1.893   2.554   3.593 -0.1645 -0.0271 -0.6386
 4047SOL    HW123774   1.816   2.549   3.536 -0.7689 -0.4097  0.2064
 4047SOL    HW223775   1.965   2.579   3.536 -0.2596  0.2083 -0.6583
 4048SOL     OW23776   1.653   2.360   5.745 -0.3790 -0.0368 -0.3129
 4048SOL    HW123777   1.614   2.275   5.762  0.7090 -0.0780  1.9542
 4048SOL    HW223778   1.612   2.356   5.658  0.2252 -2.2166 -0.4880
 4049SOL     OW23779   0.031   2.948   0.863 -0.8240 -0.0088  0.3671
 4049SOL    HW123780   4.719   2.999   0.800  0.2696  0.0622 -0.4471
 4049SOL    HW223781   4.705   2.891   0.905  0.2143 -0.7435  0.9522
 4050SOL     OW23782   0.261   1.351  13.501 -0.7538 -0.6146  0.3429
 4050SOL    HW123783   0.337   1.383  13.550 -0.1487  0.6424 -1.4080
 4050SOL    HW223784   0.288   1.273  13.454  2.9161 -0.1822  1.7254
 4051SOL     OW23785   2.944   2.755  10.624  0.0804  0.5006 -0.0073
 4051SOL    HW123786   2.961   2.664  10.600  0.6837  0.0407  2.1558
 4051SOL    HW223787   3.032   2.790  10.611 -0.0757  0.8688 -0.0653
 4052SOL     OW23788   1.568   3.799   4.556  0.0855 -0.0611  0.1441
 4052SOL    HW123789   1.604   3.729   4.501  0.2879  1.8537 -2.1726
 4052SOL    HW223790   1.585   3.882   4.511 -1.7325  0.2135 -0.0265
 4053SOL     OW23791   1.912   4.006  16.619 -0.2143 -0.0504 -0.0271
 4053SOL    HW123792   1.962   4.062  16.678  0.5351  2.2041 -2.8168
 4053SOL    HW223793   1.878   4.065  16.552 -0.8541  0.2655  0.5710
 4054SOL     OW23794   4.724   2.608   7.980  0.2393 -0.0626  0.3946
 4054SOL    HW123795   0.018   2.533   8.029  0.4207 -0.6576 -0.6265
 4054SOL    HW223796   0.064   2.660   7.964 -0.4350  0.2018 -2.0586
 4055SOL     OW23797   1.846   0.621   1.342  0.1867 -0.2667  0.2547
 4055SOL    HW123798   1.777   0.590   1.401  0.1064 -0.1839  0.2033
 4055SOL    HW223799   1.907   0.547   1.353  0.0566 -0.2666  0.9879
 4056SOL     OW23800   4.725   3.015   2.158  0.4905  0.0272  0.0669
 4056SOL    HW123801   4.680   3.072   2.220 -0.2145  0.1317 -0.5454
 4056SOL    HW223802   0.074   3.054   2.164  0.6238 -0.3009  0.2665
 4057SOL     OW23803   1.465   3.405   1.153 -0.4218 -0.5141 -0.7080
 4057SOL    HW123804   1.435   3.319   1.181  0.8525 -1.6073 -2.6948
 4057SOL    HW223805   1.526   3.425   1.224 -0.8358  0.8149 -0.7161
 4058SOL     OW23806   3.055   0.177   6.948  0.0700 -0.0288 -0.3394
 4058SOL    HW123807   3.098   0.250   6.992  1.2111 -0.1564 -1.2410
 4058SOL    HW223808   3.095   0.177   6.861  1.3937 -2.2608  0.2713
 4059SOL     OW23809   2.059   0.496  11.166 -0.0820 -0.6054  0.1670
 4059SOL    HW123810   2.149   0.523  11.147 -0.5361 -0.7340 -2.1450
 4059SOL    HW223811   2.063   0.470  11.258  1.1760  1.3681  0.6597
 4060SOL     OW23812   4.276   2.269   6.054  0.1565  0.3428 -0.1084
 4060SOL    HW123813   4.293   2.231   5.967 -0.4028  1.3935 -0.6723
 4060SOL    HW223814   4.333   2.346   6.050 -1.2226  1.4160  0.9617
 4061SOL     OW23815   2.918   2.440   2.392  0.3175 -0.7303 -0.1624
 4061SOL    HW123816   2.930   2.346   2.375  1.8791 -0.2091 -1.9305
 4061SOL    HW223817   3.007   2.473   2.380 -0.1484  0.4390 -0.3967
 4062SOL     OW23818   4.532   2.425   4.416  0.1450  0.1752  0.3877
 4062SOL    HW123819   4.603   2.403   4.476 -0.3881  0.5305  1.1406
 4062SOL    HW223820   4.485   2.342   4.415 -1.3535  1.0094  2.0619
 4063SOL     OW23821   4.080   0.687   3.047  0.8766 -0.4046  0.3483
 4063SOL    HW123822   4.149   0.691   2.980 -0.1773  1.3685 -0.6102
 4063SOL    HW223823   4.048   0.776   3.037 -0.8398 -0.7499  2.5871
 4064SOL     OW23824   0.027   4.692   2.089 -0.4428 -0.5166 -0.4879
 4064SOL    HW123825   0.081   4.650   2.022 -0.1760 -1.5468  0.3680
 4064SOL    HW223826   0.010   4.615   2.144  0.9541 -0.6547 -0.2511
 4065SOL     OW23827   1.034   4.296  16.037 -0.4405 -0.5137  0.2492
 4065SOL    HW123828   1.098   4.358  16.071  1.3351 -1.7308 -0.8821
 4065SOL    HW223829   1.047   4.216  16.088 -0.2876 -0.9453 -0.4663
 4066SOL     OW23830   4.244   2.569  12.676  0.4004 -0.3969 -0.1967
 4066SOL    HW123831   4.278   2.497  12.624  0.8316 -0.0175 -0.4358
 4066SOL    HW223832   4.183   2.599  12.608 -0.5772 -0.3181  0.7030
 4067SOL     OW23833   2.551   2.448   8.998  0.1309 -0.3326 -0.1473
 4067SOL    HW123834   2.473   2.437   9.051  0.6376 -1.8060  0.2706
 4067SOL    HW223835   2.573   2.360   8.970 -0.4470  0.2775 -2.5403
 4068SOL     OW23836   1.414   3.359   5.226 -0.1435 -0.2199 -0.0877
 4068SOL    HW123837   1.412   3.414   5.147 -1.4000  0.5708  0.4995
 4068SOL    HW223838   1.370   3.277   5.205 -0.9594  0.3300 -0.5230
 4069SOL     OW23839   2.297   0.977  10.319 -0.4255  0.3056  0.1956
 4069SOL    HW123840   2.218   1.005  10.366 -0.3207  1.6784 -0.4397
 4069SOL    HW223841   2.362   1.028  10.367  3.3354 -3.7566 -0.5477
 4070SOL     OW23842   3.292   2.922   7.730 -0.1597 -0.1367 -0.7452
 4070SOL    HW123843   3.233   2.866   7.781  1.0788 -0.2878  0.5091
 4070SOL    HW223844   3.369   2.864   7.732 -0.1205 -0.1498 -2.4052
 4071SOL     OW23845   4.314   2.829   7.072 -0.4788 -0.7164 -0.8489
 4071SOL    HW123846   4.375   2.864   7.137 -2.2385 -2.1532  1.5722
 4071SOL    HW223847   4.295   2.741   7.104  0.0306  0.1153  1.7551
 4072SOL     OW23848   0.589   1.831   6.341 -0.1664  0.5971  0.4231
 4072SOL    HW123849   0.660   1.803   6.399  1.2568  2.3837 -0.4185
 4072SOL    HW223850   0.529   1.871   6.404 -2.4418  1.0463 -2.0540
 4073SOL     OW23851   0.135   4.718  12.240 -0.1942  0.0495  0.2222
 4073SOL    HW123852   0.083   0.037  12.295 -1.2712  1.7308 -2.5295
 4073SOL    HW223853   0.092   4.634  12.257  0.3785 -0.6776 -1.8846
 4074SOL     OW23854   4.185   0.050   7.408 -0.8751 -0.1773  0.8732
 4074SOL    HW123855   4.098   0.009   7.413 -1.3953  1.0870  1.9467
 4074SOL    HW223856   4.161   0.141   7.424 -0.8080  0.4307 -2.4747
 4075SOL     OW23857   2.783   2.036   0.231 -0.3939  0.2649 -0.1829
 4075SOL    HW123858   2.754   2.015   0.320  3.9075 -0.8222  0.9675
 4075SOL    HW223859   2.704   2.025   0.179 -0.1342 -1.4792 -0.2295
 4076SOL     OW23860   4.653   4.736   3.124  0.0479 -0.6203 -0.4736
 4076SOL    HW123861   0.009   0.011   3.130  0.0294 -1.1752  1.0548
 4076SOL    HW223862   4.652   4.640   3.128  1.8004 -0.6069  0.3167
 4077SOL     OW23863   2.973   3.611  14.422  0.6421 -0.0662 -0.1871
 4077SOL    HW123864   2.913   3.680  14.393 -0.6365  0.1798  3.0988
 4077SOL    HW223865   2.938   3.591  14.509  0.5868 -1.6550 -0.5653
 4078SOL     OW23866   1.217   0.348   7.157 -0.0132  0.5233 -0.4883
 4078SOL    HW123867   1.134   0.393   7.140 -0.1862  0.2385 -0.4073
 4078SOL    HW223868   1.192   0.308   7.240 -1.2122  1.6396 -0.3101
 4079SOL     OW23869   2.486   2.925  14.242 -0.2129 -0.1256  0.4464
 4079SOL    HW123870   2.569   2.878  14.246 -0.8752 -1.3832 -0.3751
 4079SOL    HW223871   2.461   2.923  14.335  0.8971 -1.3577  0.7198
 4080SOL     OW23872   3.696   0.050  11.790 -0.0568  0.5680  0.5689
 4080SOL    HW123873   3.770   4.735  11.816  0.7428  0.7567 -1.3590
 4080SOL    HW223874   3.631   4.718  11.785  1.1841 -0.6494  1.4731
 4081SOL     OW23875   0.686   2.255  12.460 -0.1094 -0.1915 -0.1204
 4081SOL    HW123876   0.774   2.286  12.480 -0.0416  0.5609 -1.5975
 4081SOL    HW223877   0.660   2.235  12.550  0.0653 -0.2443 -0.0823
 4082SOL     OW23878   1.679   3.260   5.009  0.5536 -0.2311 -0.3327
 4082SOL    HW123879   1.708   3.331   5.067 -1.0516  0.1013  0.0628
 4082SOL    HW223880   1.651   3.202   5.080 -0.5402  0.3213 -0.3080
 4083SOL     OW23881   4.278   1.662   0.679 -0.0236  0.1701 -0.0921
 4083SOL    HW123882   4.274   1.749   0.639  0.4426  1.1120  1.9080
 4083SOL    HW223883   4.222   1.611   0.621 -3.1535  0.9761  2.2093
 4084SOL     OW23884   4.048   3.170   3.323  0.1867 -0.2526 -0.0850
 4084SOL    HW123885   4.101   3.092   3.340 -0.0001 -0.7456 -1.8396
 4084SOL    HW223886   4.103   3.230   3.272  0.3996 -0.1305  0.2822
 4085SOL     OW23887   3.704   1.915  15.831  0.5661  0.2507 -0.5582
 4085SOL    HW123888   3.611   1.927  15.814  0.1536 -0.8205  0.9853
 4085SOL    HW223889   3.746   1.965  15.761  0.9697  1.1935  0.3543
 4086SOL     OW23890   0.472   2.557  11.814 -0.3302 -1.1638 -0.0628
 4086SOL    HW123891   0.537   2.625  11.830  0.1041 -1.7472  0.6736
 4086SOL    HW223892   0.472   2.514  11.900  0.9564 -3.1809 -1.0760
 4087SOL     OW23893   2.206   0.827  15.837 -0.6375  0.1249  0.6125
 4087SOL    HW123894   2.233   0.914  15.865  0.1122  0.9177 -2.6350
 4087SOL    HW223895   2.136   0.817  15.902 -0.0972  1.5835  1.4208
 4088SOL     OW23896   2.143   3.690   9.138 -0.0142  0.3277 -0.7324
 4088SOL    HW123897   2.085   3.763   9.115 -0.4681 -0.6151 -2.5622
 4088SOL    HW223898   2.141   3.637   9.059  0.5960 -1.2177  0.2964
 4089SOL     OW23899   3.340   0.953   3.083  0.1504  0.0203 -0.0522
 4089SOL    HW123900   3.265   0.940   3.141 -1.1692 -1.1643 -2.0817
 4089SOL    HW223901   3.382   0.867   3.075  1.5056  0.7882 -1.1878
 4090SOL     OW23902   2.215   3.732  10.602  0.1843  0.1737  0.1289
 4090SOL    HW123903   2.210   3.694  10.690 -1.3119  1.8475  0.7720
 4090SOL    HW223904   2.215   3.662  10.537 -0.0580  2.3695 -2.2217
 4091SOL     OW23905   1.751   0.336   4.613 -0.6794  0.2418 -0.4847
 4091SOL    HW123906   1.664   0.361   4.642 -1.1539 -0.3086 -1.4467
 4091SOL    HW223907   1.743   0.312   4.520  1.4876 -1.5802 -0.2105
 4092SOL     OW23908   1.167   0.023   3.177 -0.0380 -0.2621 -0.3667
 4092SOL    HW123909   1.133   4.677   3.146  0.6468 -0.4866 -0.4917
 4092SOL    HW223910   1.245   0.036   3.123  0.6315  0.9594  0.8985
 4093SOL     OW23911   1.699   3.440   1.721 -0.2575  0.0301  0.2489
 4093SOL    HW123912   1.662   3.521   1.757  2.5287  0.3569  2.3710
 4093SOL    HW223913   1.714   3.391   1.801 -0.0073  0.2969  0.3674
 4094SOL     OW23914   2.383   2.462   6.285  0.1942  0.5309  0.4360
 4094SOL    HW123915   2.439   2.533   6.254  0.3995  0.3071  0.2973
 4094SOL    HW223916   2.404   2.386   6.232  1.7346  1.5715 -0.4545
 4095SOL     OW23917   3.060   1.702   2.634 -0.5313 -0.1055  0.3079
 4095SOL    HW123918   3.007   1.656   2.699  0.4541 -1.8720 -0.1289
 4095SOL    HW223919   3.106   1.632   2.588  0.7828  1.2999 -0.5137
 4096SOL     OW23920   3.128   4.729   2.559  0.5336  0.4103  0.0074
 4096SOL    HW123921   3.188   4.710   2.487  0.1109 -0.5070 -0.1104
 4096SOL    HW223922   3.080   4.647   2.573  0.8827  0.6179  2.5231
 4097SOL     OW23923   3.969   3.993   7.295  0.3395  0.7378  0.2687
 4097SOL    HW123924   3.895   3.962   7.348  0.4793 -0.6402 -0.3584
 4097SOL    HW223925   4.001   3.915   7.250  0.9417  0.9118  0.4004
 4098SOL     OW23926   2.200   2.049   3.343  0.3104 -0.2278  0.2338
 4098SOL    HW123927   2.220   2.103   3.420  0.6042 -1.3138  0.9185
 4098SOL    HW223928   2.274   2.077   3.290 -0.5053  1.4560 -0.0258
 4099SOL     OW23929   3.646   0.664   4.753  0.1061  0.3970 -0.5809
 4099SOL    HW123930   3.669   0.716   4.830  2.1203  0.8042 -1.4633
 4099SOL    HW223931   3.660   0.577   4.790  1.5225  0.7685 -0.2822
 4100SOL     OW23932   0.251   1.105   8.678 -1.0004  0.0128  0.7355
 4100SOL    HW123933   0.242   1.080   8.586  0.1884  2.2814  0.0202
 4100SOL    HW223934   0.218   1.194   8.682 -2.8417 -0.6054 -0.2931
 4101SOL     OW23935   3.838   3.778   3.155 -0.0724  0.0656  0.1720
 4101SOL    HW123936   3.808   3.848   3.213 -3.1319  1.1500 -2.7026
 4101SOL    HW223937   3.902   3.739   3.214  1.4759 -0.1510 -1.6297
 4102SOL     OW23938   2.467   4.312   4.204  0.4658  0.1241 -0.4685
 4102SOL    HW123939   2.492   4.399   4.235 -0.4809  1.4291 -3.4463
 4102SOL    HW223940   2.553   4.291   4.168  0.8560  0.2906  0.3524
 4103SOL     OW23941   0.505   3.337   9.200 -0.0740 -0.2909 -0.0320
 4103SOL    HW123942   0.582   3.280   9.201 -1.0561 -1.6432 -0.9392
 4103SOL    HW223943   0.532   3.402   9.264 -1.5404  0.3934 -0.1225
 4104SOL     OW23944   0.350   2.397  10.243  0.5506  0.1155 -0.9100
 4104SOL    HW123945   0.387   2.364  10.160 -0.7137 -0.9920 -1.0460
 4104SOL    HW223946   0.394   2.340  10.305 -2.1577 -1.7365 -0.6679
 4105SOL     OW23947   0.574   0.165  12.655 -0.1788  0.0625 -0.4554
 4105SOL    HW123948   0.508   0.206  12.711 -0.8781  0.8327 -1.8650
 4105SOL    HW223949   0.525   0.158  12.574 -2.1004  0.6332  0.6694
 4106SOL     OW23950   0.589   1.276   8.417 -0.6356 -0.3985  0.0721
 4106SOL    HW123951   0.672   1.256   8.374 -1.2638 -0.1696 -1.2241
 4106SOL    HW223952   0.583   1.198   8.472 -1.4099 -0.4638 -0.1131
 4107SOL     OW23953   0.430   2.710   4.667 -0.2283 -0.1415 -0.0906
 4107SOL    HW123954   0.349   2.723   4.617 -0.5109  1.4392  0.7655
 4107SOL    HW223955   0.421   2.781   4.730  3.8866  1.1388 -0.9980
 4108SOL     OW23956   2.583   0.675   2.479  0.0376  0.1701  0.1302
 4108SOL    HW123957   2.491   0.664   2.453 -0.3701  0.7666  1.3491
 4108SOL    HW223958   2.614   0.585   2.467  0.4060  0.3820 -0.4909
 4109SOL     OW23959   3.376   1.154   6.465 -0.3249  0.1663 -0.3109
 4109SOL    HW123960   3.347   1.089   6.528  0.1333  1.7424  1.5374
 4109SOL    HW223961   3.460   1.115   6.440 -0.2882 -0.1504  0.3089
 4110SOL     OW23962   2.775   3.949   6.824  0.1003  0.0562 -0.1740
 4110SOL    HW123963   2.856   3.952   6.772  1.5358 -0.6652  1.9915
 4110SOL    HW223964   2.811   3.942   6.913 -0.8026 -0.7508  0.1271
 4111SOL     OW23965   0.897   4.192   0.815 -0.3844 -0.3160  0.0524
 4111SOL    HW123966   0.845   4.273   0.813  1.9500  1.1635 -1.5237
 4111SOL    HW223967   0.884   4.160   0.726 -2.2211  2.0473 -0.5448
 4112SOL     OW23968   4.591   0.956  10.131 -0.0249 -0.3617 -0.0622
 4112SOL    HW123969   4.530   0.894  10.171  0.0079  0.0193  0.5968
 4112SOL    HW223970   4.610   1.011  10.207  0.8473 -0.1241 -0.4537
 4113SOL     OW23971   0.776   0.528   3.407 -0.3934 -0.2047 -0.3564
 4113SOL    HW123972   0.845   0.531   3.473 -0.2222  0.1844 -0.5575
 4113SOL    HW223973   0.821   0.522   3.323 -2.6438 -0.4907 -1.5601
 4114SOL     OW23974   3.330   1.131  10.784  0.2852  0.0339 -0.2941
 4114SOL    HW123975   3.403   1.073  10.807 -0.8870 -2.2764 -2.3773
 4114SOL    HW223976   3.349   1.148  10.692  0.4571  1.5275  0.0186
 4115SOL     OW23977   2.849   4.624   2.752 -0.3153  0.3092 -0.3596
 4115SOL    HW123978   2.838   4.529   2.743  1.9768 -0.0538  0.8232
 4115SOL    HW223979   2.839   4.650   2.661  0.8173  1.7862 -0.0558
 4116SOL     OW23980   1.145   0.746   8.705  0.4937 -0.4078  0.0053
 4116SOL    HW123981   1.071   0.804   8.725  1.7351  1.5715 -1.1928
 4116SOL    HW223982   1.208   0.815   8.685  0.2775 -0.0261  0.6389
 4117SOL     OW23983   3.489   0.722   5.392 -0.1222  0.0478  0.2895
 4117SOL    HW123984   3.542   0.738   5.469  0.6516  5.0051 -1.2836
 4117SOL    HW223985   3.478   0.811   5.358 -1.2703  0.0918  0.7794
 4118SOL     OW23986   0.023   1.947  11.842 -0.9262  0.6968  0.0507
 4118SOL    HW123987   0.025   1.978  11.933  1.9309  1.1153 -0.1482
 4118SOL    HW223988   0.083   2.013  11.807 -0.0687  0.9516  1.9821
 4119SOL     OW23989   0.785   1.822  16.273  0.0440 -0.6374  0.0354
 4119SOL    HW123990   0.822   1.760  16.336 -0.6000  0.4770  1.4985
 4119SOL    HW223991   0.793   1.770  16.193 -3.6872 -0.3726 -0.5382
 4120SOL     OW23992   0.139   4.349   4.037 -0.1447  0.7763  0.5203
 4120SOL    HW123993   0.135   4.444   4.044  0.8305  1.1825 -4.3930
 4120SOL    HW223994   0.191   4.335   4.116  0.3125 -1.1486 -0.1082
 4121SOL     OW23995   1.024   3.705   5.415 -0.1533  0.6020  0.3034
 4121SOL    HW123996   1.115   3.689   5.442 -0.4073  2.0714  2.0870
 4121SOL    HW223997   1.008   3.792   5.452 -0.5886  0.9411 -0.6980
 4122SOL     OW23998   3.761   0.444   2.172  0.0850 -0.7526 -0.7067
 4122SOL    HW123999   3.806   0.507   2.228 -0.0259  0.6119 -2.1372
 4122SOL    HW224000   3.752   0.379   2.241 -1.2393 -1.2267 -1.3363
 4123SOL     OW24001   4.252   3.028   5.140 -0.5909  0.1471  0.4940
 4123SOL    HW124002   4.158   3.026   5.126 -0.7444 -2.0240  1.7737
 4123SOL    HW224003   4.262   3.118   5.172 -0.0769  0.4871 -0.6372
 4124SOL     OW24004   1.037   4.459   9.105  0.1405  0.6968 -1.2508
 4124SOL    HW124005   1.083   4.400   9.045 -0.9926 -0.0623 -1.3913
 4124SOL    HW224006   0.985   4.394   9.153 -0.3581  2.7852  0.9762
 4125SOL     OW24007   0.640   2.299   7.058  0.1930 -0.0022 -0.2558
 4125SOL    HW124008   0.657   2.206   7.075  3.0885  0.7543  0.9044
 4125SOL    HW224009   0.597   2.288   6.973  0.7225 -0.1507 -0.5024
 4126SOL     OW24010   0.228   1.214  11.232  0.3247 -0.2973  0.1798
 4126SOL    HW124011   0.244   1.123  11.209  0.5103  0.1498 -1.4994
 4126SOL    HW224012   0.212   1.213  11.326  1.1937  0.3884  0.3463
 4127SOL     OW24013   0.471   2.738   9.056  0.2357 -0.4652  0.3335
 4127SOL    HW124014   0.463   2.830   9.082  0.0958 -0.2926 -0.3230
 4127SOL    HW224015   0.566   2.734   9.046  0.5394  1.6173  2.4578
 4128SOL     OW24016   2.223   3.767  10.894  0.4934  0.2045 -0.5664
 4128SOL    HW124017   2.183   3.853  10.904 -1.0697 -0.6962  1.0517
 4128SOL    HW224018   2.279   3.757  10.971 -0.0239  1.8293  0.0240
 4129SOL     OW24019   4.062   3.914  16.349  0.8997  0.3676  0.2160
 4129SOL    HW124020   4.037   3.980  16.284  0.4319  0.3245  0.3549
 4129SOL    HW224021   4.078   3.963  16.430  0.5404  1.6427 -0.4761
 4130SOL     OW24022   1.125   3.201   4.259  0.3272 -0.0775 -0.1559
 4130SOL    HW124023   1.163   3.208   4.171 -1.2373  1.0256 -0.7487
 4130SOL    HW224024   1.112   3.107   4.271 -1.2133  0.4052  1.9615
 4131SOL     OW24025   2.651   1.388   7.303  0.8653 -0.7943  0.5568
 4131SOL    HW124026   2.686   1.326   7.239 -0.5299 -1.5158  0.4873
 4131SOL    HW224027   2.728   1.412   7.353  2.9271 -5.6070 -0.3772
 4132SOL     OW24028   4.356   2.078   0.248 -0.4500  0.0866  0.2904
 4132SOL    HW124029   4.288   2.113   0.191  0.2497  2.6393  1.0562
 4132SOL    HW224030   4.350   2.135   0.324 -0.9341 -0.9869  1.0552
 4133SOL     OW24031   3.001   2.631   5.754  0.2443 -0.5652  0.0329
 4133SOL    HW124032   2.997   2.579   5.834 -1.9077 -1.8001 -0.8850
 4133SOL    HW224033   3.080   2.590   5.721  1.8162  1.5281  1.1841
 4134SOL     OW24034   2.762   4.281   2.119 -0.0755 -0.0193  0.0248
 4134SOL    HW124035   2.688   4.248   2.067 -1.0557 -0.1702  1.5145
 4134SOL    HW224036   2.726   4.260   2.205 -1.9158 -0.3545 -0.8153
 4135SOL     OW24037   4.687   3.915   9.641  1.0005 -0.1063 -0.0082
 4135SOL    HW124038   4.705   3.927   9.734 -2.5676  0.2497  0.6421
 4135SOL    HW224039   4.631   3.990   9.624  0.5935 -0.2540  0.7062
 4136SOL     OW24040   0.108   2.043   8.702 -0.4557  0.1896 -0.1609
 4136SOL    HW124041   0.173   1.974   8.713  0.6021  1.1574 -0.3507
 4136SOL    HW224042   0.113   2.100   8.779  2.0844  0.0998 -0.2692
 4137SOL     OW24043   3.561   2.985   3.244 -0.0996  0.1054  0.5261
 4137SOL    HW124044   3.647   2.996   3.283 -0.0376  0.3303  0.3288
 4137SOL    HW224045   3.578   2.992   3.150 -2.3368  0.9121  0.1837
 4138SOL     OW24046   3.432   1.132   5.661 -0.0971 -0.0982 -0.0068
 4138SOL    HW124047   3.342   1.115   5.632 -0.0563  0.7240 -0.6139
 4138SOL    HW224048   3.497   1.084   5.610 -1.8635 -2.2664 -0.2243
 4139SOL     OW24049   3.942   4.033   8.938 -0.0226  0.1179 -0.0210
 4139SOL    HW124050   3.905   3.980   8.867  0.4119 -0.3881  0.1309
 4139SOL    HW224051   3.962   4.115   8.893 -1.3653 -1.0673 -2.7777
 4140SOL     OW24052   0.080   1.756   7.971  0.7403  0.3972 -0.0583
 4140SOL    HW124053   0.150   1.770   7.908 -0.2488  0.4473 -1.1577
 4140SOL    HW224054   0.108   1.803   8.049 -2.4510  0.0850  1.2848
 4141SOL     OW24055   4.359   1.086   2.564 -0.1539  0.3562  0.4412
 4141SOL    HW124056   4.278   1.047   2.596  1.8137 -2.0976  2.4313
 4141SOL    HW224057   4.413   1.007   2.558 -1.0002 -0.2597  1.0605
 4142SOL     OW24058   3.060   1.261   8.702  0.1249  0.1594 -0.4180
 4142SOL    HW124059   2.994   1.209   8.656 -0.4603  1.7953 -1.4442
 4142SOL    HW224060   3.008   1.312   8.764 -2.6031 -2.4716 -0.5601
 4143SOL     OW24061   3.005   4.163   8.053 -0.2135  0.4257 -0.2306
 4143SOL    HW124062   3.034   4.195   8.138 -0.5265  0.5884 -0.1845
 4143SOL    HW224063   2.939   4.099   8.081  0.2133 -0.5509 -1.4357
 4144SOL     OW24064   3.221   2.234   3.878  0.0649  0.5318  0.1330
 4144SOL    HW124065   3.312   2.261   3.880  0.5932 -1.3834  2.2669
 4144SOL    HW224066   3.230   2.158   3.936  1.3011  0.2705 -0.4004
 4145SOL     OW24067   2.687   1.139  17.480 -0.4647 -0.3321 -0.5000
 4145SOL    HW124068   2.701   1.053  17.440  1.4817  0.1616 -0.8598
 4145SOL    HW224069   2.767   1.186  17.457 -0.3064  0.2555  1.2490
 4146SOL     OW24070   1.034   4.559   2.784 -0.2890 -0.1397 -0.3097
 4146SOL    HW124071   1.106   4.621   2.774  1.2582 -2.2402 -2.0021
 4146SOL    HW224072   1.065   4.487   2.728 -2.8760 -1.0240 -0.5950
 4147SOL     OW24073   4.059   0.336  12.423  0.0018  0.2922  0.0594
 4147SOL    HW124074   3.977   0.387  12.423 -0.6738 -0.7877  2.0229
 4147SOL    HW224075   4.044   0.304  12.512 -0.4515 -1.4073 -0.6270
 4148SOL     OW24076   0.041   0.941   8.743 -0.0940  0.0569 -0.7531
 4148SOL    HW124077   0.115   0.992   8.711  0.7565 -0.2655  0.6738
 4148SOL    HW224078   4.722   1.002   8.790  0.7354  0.0356  0.2923
 4149SOL     OW24079   1.235   3.506   7.586 -0.5884  0.0852  0.2156
 4149SOL    HW124080   1.331   3.502   7.589 -0.6956 -2.0414  0.9779
 4149SOL    HW224081   1.229   3.552   7.502  1.4650  0.2515  0.1571
 4150SOL     OW24082   3.910   3.128   2.179  0.3719  0.2015 -0.0403
 4150SOL    HW124083   3.876   3.074   2.108  1.1745 -0.7405  0.2953
 4150SOL    HW224084   4.005   3.127   2.166  0.3806 -0.2252  0.0709
 4151SOL     OW24085   3.270   2.155   3.052  0.1319 -0.1451  0.4090
 4151SOL    HW124086   3.300   2.102   3.125 -0.1977  0.0989  0.7192
 4151SOL    HW224087   3.270   2.241   3.095 -1.3492 -0.9935  2.0868
 4152SOL     OW24088   3.253   3.485   1.123  0.1235 -0.3209 -0.4159
 4152SOL    HW124089   3.274   3.398   1.089 -1.3833 -0.1156 -1.8111
 4152SOL    HW224090   3.209   3.522   1.047 -2.3602  0.4673  1.4093
 4153SOL     OW24091   2.205   4.546   3.851  0.1329 -0.0714  0.2088
 4153SOL    HW124092   2.151   4.610   3.805  1.0315  1.3856  1.1619
 4153SOL    HW224093   2.138   4.493   3.893  0.2051 -1.0739 -0.9468
 4154SOL     OW24094   2.560   2.832   4.345  0.0582 -0.0811 -0.0405
 4154SOL    HW124095   2.473   2.818   4.381 -0.1926 -0.3869 -0.7779
 4154SOL    HW224096   2.577   2.740   4.327 -0.4886 -0.1324 -0.2856
 4155SOL     OW24097   3.888   0.874  12.656  0.5978  0.1560 -0.5661
 4155SOL    HW124098   3.854   0.963  12.659 -0.8820 -0.4187 -0.1809
 4155SOL    HW224099   3.957   0.871  12.722 -0.7129 -1.4992  0.7403
 4156SOL     OW24100   3.724   1.995   8.565 -0.4814  0.3307 -0.6425
 4156SOL    HW124101   3.698   1.943   8.641  3.4416  1.3754  1.3852
 4156SOL    HW224102   3.713   1.941   8.487  1.1999  0.0506 -0.6680
 4157SOL     OW24103   1.658   2.846   4.172 -0.8410 -0.1691 -0.2262
 4157SOL    HW124104   1.738   2.888   4.205 -1.5585  0.2680  0.9469
 4157SOL    HW224105   1.599   2.918   4.195 -0.3629  0.0006  0.4642
 4158SOL     OW24106   1.737   0.632   0.505 -0.8421 -0.0568  0.3669
 4158SOL    HW124107   1.756   0.722   0.534 -1.8921  0.0001  0.8631
 4158SOL    HW224108   1.649   0.647   0.472  0.4567  2.3797 -2.0327
 4159SOL     OW24109   2.233   2.192  12.794  0.7227  0.1621  0.3324
 4159SOL    HW124110   2.230   2.250  12.718  2.0746  0.4502  0.5029
 4159SOL    HW224111   2.314   2.221  12.837 -0.8830  3.4478  1.1199
 4160SOL     OW24112   2.181   2.646   5.243  0.6565 -0.0309  0.0978
 4160SOL    HW124113   2.275   2.640   5.265  1.1421  2.1723 -1.4977
 4160SOL    HW224114   2.157   2.558   5.215 -2.0017  1.0653 -1.0042
 4161SOL     OW24115   2.862   1.366   6.364  0.6695  0.7948 -0.1443
 4161SOL    HW124116   2.837   1.456   6.383  0.3516  0.7781 -0.4827
 4161SOL    HW224117   2.905   1.374   6.279  1.8950 -0.8329  0.3170
 4162SOL     OW24118   0.927   2.502  11.504  0.0584  0.5007 -0.0500
 4162SOL    HW124119   0.863   2.431  11.502  1.4073 -0.7321  0.4668
 4162SOL    HW224120   0.954   2.475  11.592 -1.1411 -0.8087 -0.0836
 4163SOL     OW24121   0.065   4.613   4.718 -0.2559 -0.4429  0.1049
 4163SOL    HW124122   0.109   4.534   4.686  0.4664  0.5443 -1.3469
 4163SOL    HW224123   0.123   4.655   4.782 -2.6970  1.5985  0.9741
 4164SOL     OW24124   0.431   3.070   8.323  0.0018  0.1622  0.2265
 4164SOL    HW124125   0.379   3.149   8.339 -4.5436 -2.9140  0.3810
 4164SOL    HW224126   0.386   2.996   8.362 -1.2301  0.0675 -1.3583
 4165SOL     OW24127   1.284   1.954   7.879 -0.1980 -0.3690  0.3916
 4165SOL    HW124128   1.243   2.014   7.817  2.0408 -0.4917 -1.2187
 4165SOL    HW224129   1.325   1.885   7.827  2.3894  1.1302  0.4247
 4166SOL     OW24130   1.791   3.307  11.947 -0.4533 -0.2313  0.0300
 4166SOL    HW124131   1.807   3.277  12.036  2.2655 -2.6097 -1.2819
 4166SOL    HW224132   1.779   3.402  11.952  1.5109 -0.0070  0.1702
 4167SOL     OW24133   0.795   3.371   2.959 -0.1190 -0.0952  0.2093
 4167SOL    HW124134   0.795   3.350   3.053 -1.4147  1.3599  0.5399
 4167SOL    HW224135   0.868   3.433   2.957  1.4329 -1.8673  1.7899
 4168SOL     OW24136   1.738   1.617   3.859 -0.5041  0.1933 -0.4285
 4168SOL    HW124137   1.659   1.635   3.807 -0.9879 -0.3696  0.1104
 4168SOL    HW224138   1.695   1.570   3.931 -0.5807 -0.5128 -0.9389
 4169SOL     OW24139   0.044   1.210   9.160 -0.6545  0.4280 -0.1112
 4169SOL    HW124140   0.072   1.292   9.120  0.0747  0.0563 -0.3586
 4169SOL    HW224141   4.688   1.219   9.166 -0.6261  1.3889 -1.1301
 4170SOL     OW24142   4.372   4.173   8.954  0.2360 -0.6969  0.6416
 4170SOL    HW124143   4.371   4.108   8.885  3.0661 -0.1424  0.0813
 4170SOL    HW224144   4.341   4.249   8.905  1.0924 -1.2768 -0.7848
 4171SOL     OW24145   3.674   0.094   8.674 -0.0116  0.0821 -0.0680
 4171SOL    HW124146   3.682   0.007   8.713  0.1605 -0.7637 -1.9955
 4171SOL    HW224147   3.598   0.085   8.617  0.5015 -2.5535 -0.3287
 4172SOL     OW24148   2.835   2.700   2.391  0.2604 -0.4407  0.0817
 4172SOL    HW124149   2.813   2.607   2.395  2.8885 -1.1155 -1.2771
 4172SOL    HW224150   2.916   2.708   2.441  0.9964 -2.1089 -0.8373
 4173SOL     OW24151   3.313   0.809   2.811  0.2434 -0.0803 -0.2881
 4173SOL    HW124152   3.321   0.885   2.753  0.2693  0.7330  0.7658
 4173SOL    HW224153   3.219   0.817   2.827  0.6143  0.4712  1.6799
 4174SOL     OW24154   2.812   4.401   6.016  0.0345  0.0309  0.9364
 4174SOL    HW124155   2.851   4.404   6.103  0.2346  0.2033  0.8448
 4174SOL    HW224156   2.748   4.472   6.014 -1.2423 -1.2181 -2.1831
 4175SOL     OW24157   4.423   3.620   6.246 -0.3829 -0.1726 -0.3072
 4175SOL    HW124158   4.442   3.710   6.218  1.2896 -0.7897 -1.1557
 4175SOL    HW224159   4.383   3.588   6.165  1.8357 -1.3532 -0.9166
 4176SOL     OW24160   3.890   3.877   2.191  0.3170  0.0420  0.0026
 4176SOL    HW124161   3.961   3.812   2.186  0.5885  0.3083  0.4712
 4176SOL    HW224162   3.940   3.932   2.250  0.8467  1.4678 -1.7795
 4177SOL     OW24163   3.235   1.281   6.234  0.2519 -0.5506 -0.8724
 4177SOL    HW124164   3.327   1.266   6.257 -0.6478 -1.8061  1.9620
 4177SOL    HW224165   3.200   1.353   6.287  0.7584 -1.2346  0.3946
 4178SOL     OW24166   1.571   2.341   9.916  0.0056  0.7226 -0.0067
 4178SOL    HW124167   1.652   2.290   9.910  0.4936  1.3184  1.3418
 4178SOL    HW224168   1.575   2.379   9.828  2.2919 -1.6256 -0.9100
 4179SOL     OW24169   1.142   4.189   5.881 -0.2274  0.1205 -0.1699
 4179SOL    HW124170   1.153   4.108   5.832 -1.8235 -1.1299  1.5202
 4179SOL    HW224171   1.145   4.157   5.971 -1.6543 -1.8365 -0.8170
 4180SOL     OW24172   1.197   1.591   6.229 -0.3823 -1.1834 -0.0979
 4180SOL    HW124173   1.276   1.589   6.176 -0.9410 -2.1589 -0.8924
 4180SOL    HW224174   1.214   1.664   6.289 -2.7159 -0.7287 -0.0062
 4181SOL     OW24175   2.148   2.714   4.290  0.1953 -0.0586 -1.1245
 4181SOL    HW124176   2.067   2.668   4.312  0.1420  1.0617  1.0537
 4181SOL    HW224177   2.123   2.806   4.304 -1.7638 -0.9930  1.4668
 4182SOL     OW24178   3.138   0.764   6.147  0.0106  0.0842 -0.3253
 4182SOL    HW124179   3.225   0.775   6.108 -0.5628  1.9336 -1.0694
 4182SOL    HW224180   3.102   0.848   6.120 -1.4762  0.1124  1.7894
 4183SOL     OW24181   4.719   3.731  12.698  0.4627 -0.0460  0.6112
 4183SOL    HW124182   0.028   3.657  12.659 -1.4847 -0.0177 -1.8316
 4183SOL    HW224183   4.730   3.799  12.632 -0.6410 -1.6868 -1.2763
 4184SOL     OW24184   1.119   4.149   4.622 -0.6418 -0.7756  0.0657
 4184SOL    HW124185   1.119   4.164   4.716  2.1601  1.4785 -0.2777
 4184SOL    HW224186   1.187   4.211   4.595 -1.7378  0.4142  0.0952
 4185SOL     OW24187   0.989   2.778   3.622 -0.0866  0.2332  0.5266
 4185SOL    HW124188   1.079   2.752   3.642  0.3568  1.9169  0.7239
 4185SOL    HW224189   0.962   2.733   3.542  0.7842 -1.2768  1.0954
 4186SOL     OW24190   3.535   3.282  12.792 -0.0935  0.8093 -0.3681
 4186SOL    HW124191   3.582   3.285  12.708 -0.4704 -0.9942 -0.6365
 4186SOL    HW224192   3.468   3.346  12.769 -0.9968 -0.6499 -1.8384
 4187SOL     OW24193   1.624   1.134  15.001  0.4469  0.1859 -0.2286
 4187SOL    HW124194   1.618   1.039  14.994  1.7657  0.1705 -1.1293
 4187SOL    HW224195   1.691   1.161  14.938 -0.7171  3.2727 -0.1334
 4188SOL     OW24196   3.491   2.207   8.472  0.3119  0.1313  0.2001
 4188SOL    HW124197   3.524   2.260   8.399 -3.7679  2.3812 -0.0138
 4188SOL    HW224198   3.564   2.147   8.486  1.6735  1.8272  0.3159
 4189SOL     OW24199   3.584   4.376  15.699  0.0437  0.4991 -0.5685
 4189SOL    HW124200   3.523   4.304  15.717  0.9813 -0.0710  0.3585
 4189SOL    HW224201   3.547   4.449  15.748  0.0218  0.0074  0.1625
 4190SOL     OW24202   4.269   1.304   8.697 -0.0098  0.1081 -0.1782
 4190SOL    HW124203   4.207   1.232   8.712  2.0941 -1.1425  2.6938
 4190SOL    HW224204   4.292   1.333   8.785 -1.0760 -0.6648  0.3659
 4191SOL     OW24205   2.804   0.742   1.001 -0.1242 -0.4985  0.3411
 4191SOL    HW124206   2.858   0.742   0.922 -1.8569 -0.4321 -0.8397
 4191SOL    HW224207   2.759   0.826   0.992 -0.2777 -0.6032  0.1535
 4192SOL     OW24208   2.765   2.846   6.264 -0.1132  0.4107 -0.4042
 4192SOL    HW124209   2.788   2.922   6.210 -0.9430  0.6627 -0.4028
 4192SOL    HW224210   2.792   2.889   6.345  1.0713  1.4831 -1.3642
 4193SOL     OW24211   0.199   3.055   3.938 -0.3833 -0.6456 -0.1733
 4193SOL    HW124212   0.272   3.109   3.907  0.1449 -0.2906  1.6749
 4193SOL    HW224213   0.144   3.058   3.860 -0.3470 -2.1390 -0.2477
 4194SOL     OW24214   3.912   2.506   8.365  0.2166 -0.2522 -0.3917
 4194SOL    HW124215   3.896   2.415   8.392 -3.2643  0.1997 -0.9813
 4194SOL    HW224216   3.825   2.544   8.375 -0.1113 -0.7139 -1.4425
 4195SOL     OW24217   2.228   4.003   7.103  0.0535 -0.3326  0.4593
 4195SOL    HW124218   2.139   4.036   7.103  0.8471  1.8344  0.5978
 4195SOL    HW224219   2.235   3.994   7.008 -0.3652  1.9605  0.2150
 4196SOL     OW24220   2.947   4.419   3.490  0.1875  0.4689  0.5435
 4196SOL    HW124221   2.996   4.455   3.416 -0.8218  1.0424  0.1448
 4196SOL    HW224222   3.018   4.426   3.553  1.9559 -1.4090 -1.2447
 4197SOL     OW24223   1.319   3.929   7.893  0.4075 -0.1653 -0.0634
 4197SOL    HW124224   1.227   3.955   7.883  0.5809  0.1236 -0.9081
 4197SOL    HW224225   1.345   4.004   7.945  0.4731  0.5729 -1.1607
 4198SOL     OW24226   0.697   0.721   4.838 -0.7934  0.0719  0.0592
 4198SOL    HW124227   0.700   0.681   4.925  2.4316 -1.5112 -0.7788
 4198SOL    HW224228   0.789   0.715   4.812 -0.3022  0.6480  1.6353
 4199SOL     OW24229   3.540   3.652   2.573  0.4698  0.1625  0.2827
 4199SOL    HW124230   3.568   3.710   2.643  0.5068  1.5180 -0.8469
 4199SOL    HW224231   3.606   3.677   2.509 -0.3554 -0.5066 -0.8508
 4200SOL     OW24232   1.363   0.941   8.658  0.1953 -0.4252 -0.1750
 4200SOL    HW124233   1.439   0.899   8.697  0.2664 -0.8337 -0.7492
 4200SOL    HW224234   1.404   1.027   8.663  3.3150 -1.9390  0.2299
 4201SOL     OW24235   0.157   3.368  17.551  0.1371  0.1199  0.0841
 4201SOL    HW124236   0.107   3.292  17.521 -2.1065  0.4209  3.0732
 4201SOL    HW224237   0.105   3.429  17.499 -0.5974 -0.5761  0.0029
 4202SOL     OW24238   0.330   2.522   7.008  0.0105  0.4011 -0.2037
 4202SOL    HW124239   0.315   2.616   7.020 -1.6478  0.2402 -1.0378
 4202SOL    HW224240   0.372   2.537   6.923 -0.6552  1.2829 -0.3753
 4203SOL     OW24241   4.523   3.733  13.816 -0.3998  0.4651  0.9582
 4203SOL    HW124242   4.443   3.764  13.859 -1.1101 -0.6048  0.3961
 4203SOL    HW224243   4.503   3.675  13.742  1.2047 -0.7804  1.4867
 4204SOL     OW24244   3.570   3.379  14.858  0.1928  0.5348 -0.3109
 4204SOL    HW124245   3.634   3.430  14.809 -0.9450 -0.1392 -2.4967
 4204SOL    HW224246   3.576   3.293  14.816  0.6037 -0.2793  1.4392
 4205SOL     OW24247   4.038   2.813  14.336 -0.1666 -0.0414  0.3793
 4205SOL    HW124248   4.049   2.752  14.263 -0.2085  0.8369 -0.3548
 4205SOL    HW224249   4.132   2.824  14.350 -0.7147  0.6300  3.6344
 4206SOL     OW24250   4.044   2.110   7.971  0.4877  0.1137 -0.2246
 4206SOL    HW124251   4.051   2.194   8.017  1.1916  1.2840 -2.4930
 4206SOL    HW224252   4.064   2.148   7.886  1.0497 -1.0737 -0.6097
 4207SOL     OW24253   0.159   1.726   5.123 -0.1194 -0.0551 -0.5925
 4207SOL    HW124254   0.089   1.696   5.181  0.9581  0.1742  0.8324
 4207SOL    HW224255   0.201   1.781   5.190  1.8054 -3.6472  1.1614
 4208SOL     OW24256   3.594   4.242  10.280 -0.1508  0.5779  0.2272
 4208SOL    HW124257   3.651   4.185  10.228 -0.8449  1.5689 -1.6032
 4208SOL    HW224258   3.565   4.182  10.349 -1.9807 -0.7683 -1.6988
 4209SOL     OW24259   1.392   1.345   5.983 -0.5788 -0.1194  0.2251
 4209SOL    HW124260   1.374   1.254   6.007  0.3164 -0.3352  0.1039
 4209SOL    HW224261   1.417   1.320   5.894  0.7960 -1.1710  0.8964
 4210SOL     OW24262   4.592   3.505   9.558 -0.4851 -0.2546 -0.4155
 4210SOL    HW124263   4.623   3.556   9.633 -1.9205 -1.0105  0.7233
 4210SOL    HW224264   4.619   3.556   9.482 -0.0872 -2.3350 -1.6612
 4211SOL     OW24265   1.893   1.238   1.272  0.3326  0.3291 -0.2147
 4211SOL    HW124266   1.828   1.220   1.340 -0.4908  0.6304 -0.9275
 4211SOL    HW224267   1.973   1.198   1.304  1.3040  1.7467 -0.8721
 4212SOL     OW24268   1.571   4.271  14.671 -0.0973 -0.1264  0.0401
 4212SOL    HW124269   1.557   4.349  14.617  3.7602  0.3434 -0.2821
 4212SOL    HW224270   1.657   4.244  14.637 -0.1519 -0.4754  0.1823
 4213SOL     OW24271   2.986   2.877   6.773 -0.2264  0.0677 -0.1556
 4213SOL    HW124272   2.904   2.835   6.800  0.0539 -0.1726  0.3280
 4213SOL    HW224273   3.014   2.931   6.847 -0.0576 -2.2149  1.4460
 4214SOL     OW24274   3.299   4.608  16.788  0.1030 -0.1977  0.0253
 4214SOL    HW124275   3.308   4.529  16.842  0.4058  0.0016  0.2649
 4214SOL    HW224276   3.226   4.577  16.736  0.8353 -1.3870 -0.2900
 4215SOL     OW24277   1.966   3.913   4.175  0.5825 -0.3648  0.0856
 4215SOL    HW124278   2.014   3.850   4.230  0.9567 -1.8484 -1.9327
 4215SOL    HW224279   2.048   3.947   4.138  0.9475 -1.2207  0.0906
 4216SOL     OW24280   3.577   1.655   6.354 -0.1790 -0.5756  0.0503
 4216SOL    HW124281   3.574   1.712   6.278  0.0076  0.2224  0.6355
 4216SOL    HW224282   3.664   1.617   6.339 -0.7540 -0.9434 -2.3313
 4217SOL     OW24283   2.253   1.622   9.560  0.2974 -0.3703 -0.1620
 4217SOL    HW124284   2.238   1.616   9.466  0.4976  2.1745 -0.3343
 4217SOL    HW224285   2.208   1.541   9.585  0.5243  0.6987  3.6883
 4218SOL     OW24286   2.822   2.383   0.543  0.6658 -0.2865 -0.0539
 4218SOL    HW124287   2.858   2.365   0.630 -1.0221  0.2760  0.7454
 4218SOL    HW224288   2.727   2.376   0.553  0.8725 -0.5921  1.6308
 4219SOL     OW24289   3.288   4.497   2.206 -0.3112  0.4818 -0.2426
 4219SOL    HW124290   3.367   4.481   2.154 -0.9084  2.0256 -1.6148
 4219SOL    HW224291   3.316   4.463   2.291  1.5078  0.5250 -0.8212
 4220SOL     OW24292   2.602   3.369  17.157  0.2203 -0.1893 -0.4074
 4220SOL    HW124293   2.537   3.301  17.178  2.3798 -1.3392  2.4460
 4220SOL    HW224294   2.574   3.443  17.211 -0.2793 -0.0511 -0.8525
 4221SOL     OW24295   0.839   1.185   4.345  0.0004 -0.5665  0.7873
 4221SOL    HW124296   0.744   1.185   4.352 -0.2017 -1.7693 -1.7941
 4221SOL    HW224297   0.863   1.136   4.423  0.1473 -3.9708 -1.3884
 4222SOL     OW24298   1.983   2.454   8.974  0.4945  0.1437 -0.6753
 4222SOL    HW124299   2.037   2.485   9.047  0.5439 -0.6534 -0.3756
 4222SOL    HW224300   1.900   2.464   9.021  1.3295 -0.0143  0.8168
 4223SOL     OW24301   0.907   0.330   8.374  0.3303 -0.1753 -0.5049
 4223SOL    HW124302   0.977   0.270   8.403  2.5353  1.2372 -2.8682
 4223SOL    HW224303   0.940   0.407   8.419  1.0498 -0.7390 -0.0492
 4224SOL     OW24304   3.536   2.930  16.623 -0.1041 -0.2435 -0.0569
 4224SOL    HW124305   3.589   2.948  16.700  0.2151  0.6916 -0.4833
 4224SOL    HW224306   3.502   2.843  16.641 -0.7773  0.1125  0.3803
 4225SOL     OW24307   0.545   0.770   5.967  0.3336 -0.1358  0.5625
 4225SOL    HW124308   0.566   0.864   5.961  0.3016 -0.0869  1.2688
 4225SOL    HW224309   0.469   0.771   6.024 -0.2059 -1.3926 -0.1428
 4226SOL     OW24310   1.506   0.797   7.556  0.3083 -0.1744  0.3947
 4226SOL    HW124311   1.521   0.725   7.617 -0.1399 -0.1190  0.5759
 4226SOL    HW224312   1.478   0.750   7.477  0.6064  2.2706 -1.1876
 4227SOL     OW24313   4.102   4.495   1.127  0.7672  0.6561 -0.2228
 4227SOL    HW124314   4.076   4.465   1.040 -1.3900  0.2267  0.5636
 4227SOL    HW224315   4.193   4.519   1.111  0.5703  0.1379 -2.1021
 4228SOL     OW24316   1.648   3.805   7.539 -0.4249 -0.3162  0.1415
 4228SOL    HW124317   1.569   3.841   7.579  2.1414  2.1941  2.9287
 4228SOL    HW224318   1.661   3.733   7.601  2.7944 -0.4645 -0.7120
 4229SOL     OW24319   1.146   2.319   7.388  0.4747  0.3831 -0.0546
 4229SOL    HW124320   1.060   2.297   7.425 -0.1886  0.4439 -1.5521
 4229SOL    HW224321   1.189   2.235   7.375  0.6851  0.9309 -2.9580
 4230SOL     OW24322   4.042   2.079  16.555 -0.4671 -0.4861  0.0489
 4230SOL    HW124323   3.976   2.066  16.487  1.5686  0.0418 -2.0157
 4230SOL    HW224324   4.121   2.101  16.505 -0.8866 -1.3995 -1.0172
 4231SOL     OW24325   1.636   1.945   3.999 -0.1847  0.1335 -0.2784
 4231SOL    HW124326   1.619   1.979   3.911 -1.1390 -1.3438 -0.6792
 4231SOL    HW224327   1.560   1.888   4.013 -1.1963  1.5907  0.1432
 4232SOL     OW24328   4.351   2.045   7.728  0.1085 -0.2149  0.0644
 4232SOL    HW124329   4.318   2.042   7.638 -0.5406  1.2096  0.2368
 4232SOL    HW224330   4.294   1.979   7.768 -1.4755  0.5668 -0.9044
 4233SOL     OW24331   2.633   2.182  11.007  0.3352  0.4806  0.3735
 4233SOL    HW124332   2.581   2.220  10.937  0.6469  0.3193  0.0541
 4233SOL    HW224333   2.668   2.102  10.967 -0.8718  1.0349 -1.7815
 4234SOL     OW24334   1.913   1.597   5.543  0.2683 -0.0400  0.0956
 4234SOL    HW124335   1.828   1.592   5.498 -0.0002  4.0428  0.2073
 4234SOL    HW224336   1.977   1.645   5.491  1.4180  0.0791  1.6163
 4235SOL     OW24337   4.299   4.576   9.194  0.2709 -0.6072  0.3001
 4235SOL    HW124338   4.386   4.577   9.233  0.5194  0.5763 -0.2588
 4235SOL    HW224339   4.293   4.669   9.169  0.0005 -0.3623  1.2656
 4236SOL     OW24340   2.471   4.408   8.852  0.1215 -0.2998 -0.1599
 4236SOL    HW124341   2.527   4.389   8.928 -0.5532  1.3576  0.7578
 4236SOL    HW224342   2.476   4.500   8.878 -0.4039 -0.1468 -0.5973
 4237SOL     OW24343   2.300   0.733   6.162 -0.2207 -0.3622 -0.2325
 4237SOL    HW124344   2.227   0.765   6.214 -0.0906  0.4634 -0.5648
 4237SOL    HW224345   2.364   0.794   6.197  0.4864 -0.5506 -1.1993
 4238SOL     OW24346   2.011   3.900   9.074 -0.2026  0.3816 -0.5694
 4238SOL    HW124347   2.043   3.984   9.040 -0.4070  0.5349 -0.3792
 4238SOL    HW224348   1.987   3.924   9.163 -0.9324 -1.1928 -0.3539
 4239SOL     OW24349   2.826   2.920   7.162 -0.7259 -0.0207 -0.1818
 4239SOL    HW124350   2.735   2.934   7.189  0.3133  1.2321  2.6723
 4239SOL    HW224351   2.852   3.011   7.144  0.8772 -0.5172 -0.2966
 4240SOL     OW24352   2.142   4.241   5.141  0.2089 -0.4208 -0.2532
 4240SOL    HW124353   2.205   4.302   5.180  0.2120 -1.4638  1.3447
 4240SOL    HW224354   2.060   4.276   5.175  0.1913  1.1173 -1.8856
 4241SOL     OW24355   2.765   0.831   9.059 -0.3483 -0.5639 -0.3659
 4241SOL    HW124356   2.773   0.925   9.078  0.2663 -0.5728 -0.5779
 4241SOL    HW224357   2.678   0.807   9.092 -0.2793 -2.4562 -1.5686
 4242SOL     OW24358   0.866   1.259   4.657 -0.4934 -0.0847 -0.3960
 4242SOL    HW124359   0.798   1.261   4.725  0.2350 -1.3405  0.3593
 4242SOL    HW224360   0.855   1.166   4.639 -1.8765  0.5233 -2.6797
 4243SOL     OW24361   1.708   3.544   2.230 -0.3084 -0.0039 -0.6690
 4243SOL    HW124362   1.689   3.451   2.246  0.4695 -0.0319  0.1311
 4243SOL    HW224363   1.790   3.556   2.278 -0.2176 -0.2475 -0.7597
 4244SOL     OW24364   1.235   2.845   8.903  0.6418 -0.0904 -0.0602
 4244SOL    HW124365   1.172   2.775   8.888  0.0971  0.0367  1.7239
 4244SOL    HW224366   1.270   2.831   8.815 -2.7520 -0.0891 -1.4170
 4245SOL     OW24367   1.595   0.057   8.684 -0.4199 -0.2880  0.4603
 4245SOL    HW124368   1.577   4.720   8.628 -0.2339  1.0165 -1.3394
 4245SOL    HW224369   1.508   0.081   8.714 -0.6885  0.3340 -0.8454
 4246SOL     OW24370   4.321   2.641   2.052  0.1537  0.3260 -0.0862
 4246SOL    HW124371   4.395   2.622   2.109 -0.8696  1.6055  1.6848
 4246SOL    HW224372   4.352   2.616   1.965  0.4548 -1.2193  0.4633
 4247SOL     OW24373   0.089   3.299   9.363  0.1475 -0.6315  0.0973
 4247SOL    HW124374   0.114   3.290   9.455 -0.6586 -3.2013  0.0682
 4247SOL    HW224375   0.008   3.247   9.360 -0.6430  0.5880  0.0260
 4248SOL     OW24376   2.529   1.218   7.846  0.1228 -0.2726 -0.4936
 4248SOL    HW124377   2.465   1.148   7.833  0.1671  0.0837 -2.5725
 4248SOL    HW224378   2.598   1.181   7.902 -0.3953  2.3544  1.8549
 4249SOL     OW24379   3.493   1.166   8.432  0.1856  0.0327  0.2316
 4249SOL    HW124380   3.432   1.237   8.454  0.4201 -0.2009  1.6249
 4249SOL    HW224381   3.515   1.133   8.518  0.0081  0.4283  0.4313
 4250SOL     OW24382   1.452   0.986   5.259  0.2104 -0.1545 -0.7660
 4250SOL    HW124383   1.396   0.911   5.277 -0.7441  0.8289  0.2919
 4250SOL    HW224384   1.512   0.985   5.334 -1.2075 -1.2003  0.3517
 4251SOL     OW24385   3.589   0.733   1.596  0.0061  0.8086 -0.2076
 4251SOL    HW124386   3.542   0.809   1.561  0.2743  1.2478  0.3843
 4251SOL    HW224387   3.591   0.680   1.517  2.5921  0.7781 -0.1235
 4252SOL     OW24388   0.517   0.175   3.281 -0.1429 -0.2974 -0.1742
 4252SOL    HW124389   0.593   0.140   3.327 -0.6547 -2.0202 -0.6183
 4252SOL    HW224390   0.454   0.188   3.351 -1.1665  1.6924 -1.4668
 4253SOL     OW24391   0.415   2.570   3.790 -0.1158  0.3128 -0.1172
 4253SOL    HW124392   0.356   2.643   3.805 -0.1295  0.0375  1.1057
 4253SOL    HW224393   0.498   2.616   3.773  0.4552 -0.3720  0.8194
 4254SOL     OW24394   2.871   3.843  11.543  0.4305  0.2436 -0.1342
 4254SOL    HW124395   2.865   3.767  11.485  0.3585 -1.6836  2.4103
 4254SOL    HW224396   2.821   3.799  11.612 -1.0184  2.0235 -0.0848
 4255SOL     OW24397   1.584   3.368   5.686 -0.2290 -0.4807  0.1738
 4255SOL    HW124398   1.583   3.407   5.598 -0.2814 -1.8599 -0.4398
 4255SOL    HW224399   1.490   3.360   5.702 -0.6493  0.9625 -1.4681
 4256SOL     OW24400   3.750   0.414  12.247  0.1964  0.2172  0.3648
 4256SOL    HW124401   3.716   0.501  12.270  1.6823  1.1401 -0.9194
 4256SOL    HW224402   3.718   0.357  12.317  0.1434  0.3882  0.4812
 4257SOL     OW24403   0.787   1.311  16.349  0.3230 -0.1733 -0.3654
 4257SOL    HW124404   0.793   1.216  16.350  1.8657 -0.0613  0.6199
 4257SOL    HW224405   0.839   1.329  16.427  1.8001  0.0694 -1.4103
 4258SOL     OW24406   0.161   4.323   6.815 -0.0818 -0.5802 -0.4986
 4258SOL    HW124407   0.231   4.359   6.870  2.6421 -0.0130 -4.3493
 4258SOL    HW224408   0.108   4.403   6.816  0.0413 -0.5028 -0.2577
 4259SOL     OW24409   2.850   2.298   4.101 -0.0482  0.2583  0.5040
 4259SOL    HW124410   2.894   2.381   4.121  1.5273 -0.1730 -1.2130
 4259SOL    HW224411   2.789   2.331   4.035  0.1192  3.0094  1.7166
 4260SOL     OW24412   0.034   1.651   2.369 -0.2090  0.0587 -0.0181
 4260SOL    HW124413   4.696   1.690   2.327 -1.3998 -2.3916 -0.1170
 4260SOL    HW224414   0.046   1.703   2.449 -3.3159  0.5739  0.1029
 4261SOL     OW24415   1.806   2.206   7.469  0.0199 -0.0390 -0.2977
 4261SOL    HW124416   1.809   2.243   7.557  1.8460  0.4991 -0.5881
 4261SOL    HW224417   1.784   2.284   7.418  1.7118  1.2495  0.9618
 4262SOL     OW24418   2.984   4.397  12.874  0.6313  0.2649  0.5814
 4262SOL    HW124419   3.073   4.374  12.848 -0.2277 -1.4237 -0.8595
 4262SOL    HW224420   2.984   4.354  12.959  1.6227 -2.0039 -0.5562
 4263SOL     OW24421   3.285   0.414  12.168 -0.0667 -0.2888  0.5443
 4263SOL    HW124422   3.353   0.399  12.102  1.0662  0.9459  1.4171
 4263SOL    HW224423   3.237   0.332  12.178 -2.0257  0.8102  0.1250
 4264SOL     OW24424   1.459   0.538   6.378  0.3727 -0.3326  0.0607
 4264SOL    HW124425   1.481   0.624   6.415 -0.1255 -0.1018 -0.1729
 4264SOL    HW224426   1.454   0.484   6.457  2.5888 -2.8710 -1.5353
 4265SOL     OW24427   2.786   0.627   6.416 -0.2004 -0.7961 -0.2009
 4265SOL    HW124428   2.743   0.704   6.379 -1.9690 -0.7661  1.9038
 4265SOL    HW224429   2.711   0.571   6.398 -0.8222 -0.5386  1.5910
 4266SOL     OW24430   2.998   2.093   3.199 -0.4867  0.3436 -0.1361
 4266SOL    HW124431   2.972   2.154   3.130  0.1302 -1.3569 -1.8687
 4266SOL    HW224432   2.988   2.007   3.158 -0.2721  0.8972 -1.3485
 4267SOL     OW24433   4.291   2.220   5.706 -0.3939  0.2829  0.0795
 4267SOL    HW124434   4.328   2.133   5.697 -0.6475  0.2116 -0.2799
 4267SOL    HW224435   4.204   2.204   5.669 -1.7013  0.1296  3.1486
 4268SOL     OW24436   0.781   2.029  17.028  0.3814  0.3859  0.4394
 4268SOL    HW124437   0.691   2.059  17.016  1.1268  2.6544  0.4600
 4268SOL    HW224438   0.801   1.989  16.944  0.4978  0.7550  0.2920
 4269SOL     OW24439   0.046   0.380   3.999  0.3499 -0.0316 -0.3273
 4269SOL    HW124440   4.700   0.403   4.038  0.9871 -0.0063  1.0517
 4269SOL    HW224441   0.021   0.330   3.921  1.0620 -1.7447  0.5487
 4270SOL     OW24442   4.710   1.633   5.276  0.2405  0.2065 -0.1964
 4270SOL    HW124443   4.677   1.603   5.360  0.8978  2.7709  0.9826
 4270SOL    HW224444   4.639   1.623   5.213 -0.4793  1.1404  0.4539
 4271SOL     OW24445   2.512   0.168   8.995  0.5720 -0.0725  0.7022
 4271SOL    HW124446   2.602   0.198   9.004  0.3221  1.1179 -0.6028
 4271SOL    HW224447   2.492   0.215   8.914 -1.4089 -2.7446 -0.3491
 4272SOL     OW24448   0.874   1.633  14.934 -0.3322 -0.1105 -0.1309
 4272SOL    HW124449   0.835   1.642  15.021 -0.7119 -1.5888 -0.1489
 4272SOL    HW224450   0.839   1.708  14.887  1.0341 -0.6963 -2.0806
 4273SOL     OW24451   0.802   4.529   5.669  0.2760  0.5219  0.5196
 4273SOL    HW124452   0.778   4.436   5.669 -1.7929  1.0633  1.3447
 4273SOL    HW224453   0.733   4.574   5.718 -1.7518 -0.0901 -1.7416
 4274SOL     OW24454   3.177   2.347   3.244 -0.1515  0.5866 -0.3204
 4274SOL    HW124455   3.081   2.346   3.251 -0.0526  1.3773  1.0693
 4274SOL    HW224456   3.193   2.441   3.235 -1.3035  0.5970 -2.3989
 4275SOL     OW24457   0.238   2.620   8.988  0.4181  0.0388  0.3764
 4275SOL    HW124458   0.215   2.615   8.895  0.6876 -0.7552  0.3541
 4275SOL    HW224459   0.310   2.683   8.995  0.6346 -0.2716  0.9419
 4276SOL     OW24460   2.676   1.055   4.344 -0.0453 -0.3699  0.7521
 4276SOL    HW124461   2.635   0.973   4.314  0.1666 -0.3819  0.5042
 4276SOL    HW224462   2.740   1.064   4.274 -3.5113  2.5507 -2.0643
 4277SOL     OW24463   3.665   0.101   8.047  0.5136 -0.0116  0.2505
 4277SOL    HW124464   3.636   0.010   8.056  3.2080 -0.8122  0.7240
 4277SOL    HW224465   3.757   0.087   8.027  0.3604  0.3091 -0.6631
 4278SOL     OW24466   0.684   1.244   7.461 -0.4774  0.6174 -0.1941
 4278SOL    HW124467   0.765   1.265   7.508  0.4526 -0.6816 -1.1880
 4278SOL    HW224468   0.705   1.150   7.457  0.7718  0.7906  1.9352
 4279SOL     OW24469   1.622   0.757  16.759  0.5651  0.5623  0.6528
 4279SOL    HW124470   1.679   0.754  16.682 -0.6032  0.5357 -0.2057
 4279SOL    HW224471   1.652   0.830  16.814  0.6408  0.3785  0.8569
 4280SOL     OW24472   1.971   2.138   9.176 -0.0488  0.0693 -0.0032
 4280SOL    HW124473   1.895   2.122   9.120  0.1879 -1.0086 -0.0193
 4280SOL    HW224474   1.973   2.232   9.191 -0.8438  0.4245 -2.1591
 4281SOL     OW24475   2.867   1.181  12.359 -0.2161  0.0736 -0.1264
 4281SOL    HW124476   2.885   1.142  12.445 -0.5102 -0.2769 -0.2254
 4281SOL    HW224477   2.909   1.114  12.304 -0.9917  0.4858 -1.2019
 4282SOL     OW24478   3.422   2.502   6.902  0.2701  0.3653 -0.5870
 4282SOL    HW124479   3.494   2.445   6.932 -0.6158 -1.0639 -1.1841
 4282SOL    HW224480   3.346   2.447   6.923  1.3485 -0.4217  1.3673
 4283SOL     OW24481   4.271   0.957  12.175 -0.0078  0.1564  0.3619
 4283SOL    HW124482   4.263   0.915  12.261  0.8198 -1.8319 -0.5178
 4283SOL    HW224483   4.349   1.012  12.181 -1.0289  1.6459 -0.1740
 4284SOL     OW24484   0.491   2.464   7.474  0.7350 -0.1230 -0.3122
 4284SOL    HW124485   0.467   2.552   7.502  0.0040 -0.7445  1.0034
 4284SOL    HW224486   0.518   2.472   7.382  1.0384 -0.2060 -0.2305
 4285SOL     OW24487   2.889   3.323   5.284  0.1338 -0.3456  0.4493
 4285SOL    HW124488   2.984   3.327   5.301  0.6587 -2.3486 -2.1181
 4285SOL    HW224489   2.869   3.404   5.330 -0.3252  0.9437 -2.0317
 4286SOL     OW24490   1.901   1.962   4.006 -0.3717 -0.5719 -0.3158
 4286SOL    HW124491   1.922   1.868   4.011 -1.0206 -0.6681  0.7420
 4286SOL    HW224492   1.808   1.957   4.026 -1.3151  2.2143 -4.2150
 4287SOL     OW24493   0.725   4.244   9.637  0.3324  0.7179 -0.1891
 4287SOL    HW124494   0.674   4.215   9.562 -0.1457 -3.6640  1.8273
 4287SOL    HW224495   0.767   4.158   9.639 -3.1953 -0.9541  1.8196
 4288SOL     OW24496   2.716   3.592   3.358  0.4498  0.6344 -0.1828
 4288SOL    HW124497   2.661   3.635   3.423 -1.2077  0.4246 -1.4574
 4288SOL    HW224498   2.713   3.650   3.282  2.9678  1.1718  0.1256
 4289SOL     OW24499   3.133   3.864   4.331 -0.0470  0.2005 -0.0244
 4289SOL    HW124500   3.143   3.921   4.408  0.8702  0.7331 -0.5337
 4289SOL    HW224501   3.217   3.819   4.335  0.9686  2.0857  0.1172
 4290SOL     OW24502   0.385   4.049   8.070 -0.1410 -0.0348  0.0878
 4290SOL    HW124503   0.355   3.988   8.138  1.1909  0.9276  1.5479
 4290SOL    HW224504   0.340   4.009   7.995  0.5516 -0.3658 -0.1467
 4291SOL     OW24505   4.580   0.445   0.501 -0.3026 -0.2828 -0.2522
 4291SOL    HW124506   4.539   0.360   0.516 -0.5940  0.2423  1.9345
 4291SOL    HW224507   4.590   0.436   0.406 -2.4008 -0.1405 -0.4805
 4292SOL     OW24508   3.801   1.027  17.018  0.2565  0.2706  0.4505
 4292SOL    HW124509   3.838   0.946  17.052  1.6321  0.3353 -0.8682
 4292SOL    HW224510   3.803   1.003  16.925 -1.0633 -0.5620  0.6408
 4293SOL     OW24511   3.591   3.267  15.845  0.2571  0.3656 -0.7257
 4293SOL    HW124512   3.642   3.288  15.767 -0.5415 -1.3262 -1.7125
 4293SOL    HW224513   3.633   3.325  15.908 -0.8739  0.2108  0.1743
 4294SOL     OW24514   1.611   3.295   3.349  0.1003 -0.3936 -0.0545
 4294SOL    HW124515   1.598   3.318   3.441 -0.5753  0.5116 -0.3772
 4294SOL    HW224516   1.706   3.281   3.346  0.1113 -0.2077 -0.5921
 4295SOL     OW24517   3.415   0.097  11.915 -0.5394 -0.6390 -0.3821
 4295SOL    HW124518   3.403   0.061  12.003 -1.2039 -0.2264 -0.3077
 4295SOL    HW224519   3.449   0.019  11.869  0.1259 -0.6437  0.1198
 4296SOL     OW24520   4.666   2.333   1.703  0.1101 -0.7016  0.4370
 4296SOL    HW124521   4.679   2.244   1.670 -0.3018 -0.6078  0.0219
 4296SOL    HW224522   4.570   2.336   1.705  0.1226 -0.1936  0.1038
 4297SOL     OW24523   4.452   0.539   9.309 -0.3326 -0.1198 -0.4975
 4297SOL    HW124524   4.434   0.574   9.222 -3.7597 -0.7747 -0.0495
 4297SOL    HW224525   4.547   0.547   9.318 -0.2991 -1.8331  0.7330
 4298SOL     OW24526   0.045   3.502   3.222 -0.1820  0.3168 -0.3117
 4298SOL    HW124527   0.015   3.443   3.292 -2.1304  0.9825 -0.5833
 4298SOL    HW224528   0.035   3.449   3.143 -1.5547  0.4409 -0.2275
 4299SOL     OW24529   4.721   2.975   6.255 -0.1670 -0.0259  0.0085
 4299SOL    HW124530   4.629   2.964   6.232 -0.0141  1.6322 -1.3996
 4299SOL    HW224531   4.725   3.060   6.300  0.0850  0.1639 -0.3705
 4300SOL     OW24532   0.912   1.985  11.525 -0.7003 -0.5256  0.3603
 4300SOL    HW124533   0.904   1.894  11.498  1.0727 -0.5409 -0.1305
 4300SOL    HW224534   0.956   2.034  11.455  0.3367 -1.0592  0.6375
 4301SOL     OW24535   2.705   0.749  17.177 -0.5967  0.3382  0.1438
 4301SOL    HW124536   2.662   0.808  17.115 -2.4564 -0.4269  0.7082
 4301SOL    HW224537   2.792   0.747  17.136 -0.6666  0.5099 -0.0129
 4302SOL     OW24538   1.645   2.741   3.037 -0.1848  0.6522  0.8542
 4302SOL    HW124539   1.718   2.705   3.086  1.0810  1.8055 -0.1821
 4302SOL    HW224540   1.666   2.834   3.049  0.2395  0.7986 -0.9603
 4303SOL     OW24541   2.861   2.412   6.649 -0.2154  0.2814 -0.0387
 4303SOL    HW124542   2.873   2.328   6.693  0.4293  0.3794 -0.0309
 4303SOL    HW224543   2.806   2.464   6.708  1.3403 -1.4858  2.9800
 4304SOL     OW24544   0.566   4.591  12.778  0.1242  0.4231 -0.4219
 4304SOL    HW124545   0.604   4.678  12.790 -0.4542  0.6975 -0.5554
 4304SOL    HW224546   0.492   4.608  12.720  0.6420 -0.8180 -1.4442
 4305SOL     OW24547   2.932   2.245   0.337 -0.1187  0.0947 -0.3703
 4305SOL    HW124548   2.882   2.169   0.306 -0.6601  0.1457  0.3814
 4305SOL    HW224549   2.876   2.279   0.406 -2.2811  0.0466 -2.1081
 4306SOL     OW24550   1.079   1.296   4.441  0.2564  0.0832 -0.3149
 4306SOL    HW124551   1.008   1.281   4.504  0.3332  0.4501 -0.1431
 4306SOL    HW224552   1.028   1.343   4.375 -1.1535 -2.2477 -0.9142
 4307SOL     OW24553   4.571   2.901   9.058 -0.0249  0.1564 -0.0768
 4307SOL    HW124554   4.520   2.978   9.034  0.4640  0.5277  0.0778
 4307SOL    HW224555   4.660   2.933   9.072  0.4618 -1.9763  1.6282
 4308SOL     OW24556   3.789   1.934   2.124 -0.1972  0.0787 -0.2932
 4308SOL    HW124557   3.801   1.973   2.038  0.8828  2.9275  1.1474
 4308SOL    HW224558   3.807   2.012   2.177  0.7771 -1.0633  1.0465
 4309SOL     OW24559   0.874   2.284  12.700 -0.4148  0.4470 -0.3882
 4309SOL    HW124560   0.932   2.298  12.626 -1.4495  0.4412 -1.2060
 4309SOL    HW224561   0.906   2.349  12.763  0.9203 -0.6704  0.0659
 4310SOL     OW24562   3.390   1.277  11.982  0.3356 -0.3896  0.1981
 4310SOL    HW124563   3.340   1.254  12.060 -0.3634 -0.0178 -0.1380
 4310SOL    HW224564   3.467   1.220  11.987  0.6657  0.0601  0.3194
 4311SOL     OW24565   0.443   2.315   3.611 -0.0917  0.2564  0.0912
 4311SOL    HW124566   0.431   2.384   3.676 -0.5653 -0.7045  1.0229
 4311SOL    HW224567   0.393   2.247   3.656  1.1793 -1.4023 -0.9967
 4312SOL     OW24568   3.774   0.683  11.934 -0.2169  0.0978  0.2155
 4312SOL    HW124569   3.857   0.637  11.924 -0.4963 -0.4007  0.1861
 4312SOL    HW224570   3.748   0.669  11.843  1.4812  0.4818 -0.3219
 4313SOL     OW24571   3.628   0.394  16.912  0.0736 -1.0707  0.5339
 4313SOL    HW124572   3.583   0.374  16.829 -0.3032  2.4130 -0.1074
 4313SOL    HW224573   3.707   0.341  16.902  0.6235 -0.7350  3.1641
 4314SOL     OW24574   2.467   3.599  13.029  0.0197 -0.3679 -0.1115
 4314SOL    HW124575   2.391   3.587  13.086 -1.0289  0.9737 -1.2263
 4314SOL    HW224576   2.442   3.539  12.958  0.8513 -0.9329  0.0808
 4315SOL     OW24577   2.589   1.911  12.298 -0.0287  0.2138  0.2418
 4315SOL    HW124578   2.565   1.842  12.359  0.5709 -2.3610 -2.4126
 4315SOL    HW224579   2.685   1.914  12.308  0.0764 -2.3675  0.0461
 4316SOL     OW24580   4.562   1.540  13.252  0.1643  0.4867 -0.1032
 4316SOL    HW124581   4.630   1.601  13.221 -0.8704  1.3676 -0.6367
 4316SOL    HW224582   4.613   1.459  13.261 -1.1135 -0.2601  0.3107
 4317SOL     OW24583   0.130   0.317   5.647  0.0747  0.1533  0.5135
 4317SOL    HW124584   0.124   0.222   5.639  1.1571  0.1983 -0.7903
 4317SOL    HW224585   0.112   0.328   5.740 -0.3522 -0.4014  0.4950
 4318SOL     OW24586   0.884   0.946  16.864 -0.2254 -0.3217  0.6770
 4318SOL    HW124587   0.815   1.011  16.849  1.9513  1.7108 -0.5714
 4318SOL    HW224588   0.957   1.004  16.883  0.1042 -0.8725  1.0621
 4319SOL     OW24589   3.278   1.878  12.408 -0.0357 -0.3251  0.3280
 4319SOL    HW124590   3.194   1.859  12.450 -0.8570 -1.2421 -1.7301
 4319SOL    HW224591   3.269   1.847  12.317 -3.2263  0.9439  0.1953
 4320SOL     OW24592   0.337   1.724  12.193  0.7794  0.1046  0.0498
 4320SOL    HW124593   0.386   1.805  12.210 -1.3094  1.3376  0.1478
 4320SOL    HW224594   0.374   1.666  12.260  1.5426 -0.4046 -0.8097
 4321SOL     OW24595   2.163   0.559  11.872  0.5861 -0.1888  0.4191
 4321SOL    HW124596   2.075   0.546  11.908  0.8688  0.7106  1.4586
 4321SOL    HW224597   2.204   0.553  11.958  0.5558 -1.5349  0.3384
 4322SOL     OW24598   2.954   0.724   6.822  0.3983  0.0243 -0.2066
 4322SOL    HW124599   2.905   0.653   6.781 -1.4690  0.1634  1.7271
 4322SOL    HW224600   2.957   0.787   6.751  0.4528 -1.6347 -1.6657
 4323SOL     OW24601   1.381   1.303   8.946 -0.1571  0.1519  0.1841
 4323SOL    HW124602   1.435   1.380   8.931  0.5889 -0.4227 -0.0336
 4323SOL    HW224603   1.445   1.232   8.946 -0.2634  0.0535  0.6124
 4324SOL     OW24604   0.744   0.423  12.878 -0.3408  0.6418  0.0734
 4324SOL    HW124605   0.654   0.413  12.844  0.0671 -0.7100 -0.6214
 4324SOL    HW224606   0.741   0.510  12.916  1.1563 -0.7380  3.3275
 4325SOL     OW24607   0.266   3.064  17.330  0.3163 -0.1934  0.7139
 4325SOL    HW124608   0.242   3.055  17.422  0.0260 -1.9584  0.4765
 4325SOL    HW224609   0.184   3.079  17.282 -1.0861  1.9957  3.7933
 4326SOL     OW24610   3.170   2.224   4.371 -0.4741  0.4843 -0.5914
 4326SOL    HW124611   3.174   2.307   4.418 -1.1277  0.2836 -0.1814
 4326SOL    HW224612   3.127   2.171   4.437  0.4792  1.0270  0.4524
 4327SOL     OW24613   0.742   0.122   5.419  0.3385 -0.2613 -0.1419
 4327SOL    HW124614   0.814   0.059   5.410 -0.3194 -0.9007 -0.8768
 4327SOL    HW224615   0.749   0.156   5.508 -0.7231  0.9269 -0.5054
 4328SOL     OW24616   0.927   3.396  12.412 -0.3496  0.0858 -0.0038
 4328SOL    HW124617   0.831   3.393  12.412 -0.3603  0.7777  1.8906
 4328SOL    HW224618   0.943   3.477  12.459 -0.4307  0.3580 -0.4438
 4329SOL     OW24619   4.376   1.531  12.529  0.5755 -0.0181  0.4295
 4329SOL    HW124620   4.424   1.497  12.605 -1.1637  0.2932  1.6708
 4329SOL    HW224621   4.437   1.600  12.503  0.5976  0.1255  0.8688
 4330SOL     OW24622   0.957   1.780   1.509 -0.4234 -0.2564  0.1936
 4330SOL    HW124623   0.903   1.812   1.582 -0.2615 -1.2238  0.7384
 4330SOL    HW224624   1.015   1.714   1.546 -2.0107 -2.5912 -1.5290
 4331SOL     OW24625   0.665   1.478   5.957  0.6099  0.5991 -0.1678
 4331SOL    HW124626   0.711   1.546   5.907  1.9532 -1.8159 -2.2611
 4331SOL    HW224627   0.734   1.431   6.003 -0.9728 -2.2818 -0.7633
 4332SOL     OW24628   2.566   0.727   6.745 -0.3322 -0.7696 -0.6053
 4332SOL    HW124629   2.649   0.770   6.769 -0.8684 -0.8948  1.5118
 4332SOL    HW224630   2.514   0.804   6.720  1.1984 -0.7251 -3.6544
 4333SOL     OW24631   0.252   4.162  13.372  0.2356  0.0401  0.2039
 4333SOL    HW124632   0.221   4.241  13.417 -0.4885  0.2182 -0.6157
 4333SOL    HW224633   0.227   4.088  13.427 -0.5848  0.6940  0.7006
 4334SOL     OW24634   3.566   2.449  14.805 -0.4298 -0.3519 -0.1184
 4334SOL    HW124635   3.481   2.409  14.784 -0.0597 -1.0997 -0.1864
 4334SOL    HW224636   3.614   2.396  14.742  1.7976  2.9577 -1.1896
 4335SOL     OW24637   2.647   2.702   1.923  0.1736  0.4147 -0.0856
 4335SOL    HW124638   2.697   2.627   1.956 -0.2227  0.9911  1.8159
 4335SOL    HW224639   2.585   2.722   1.993 -0.4597 -3.5668  0.5263
 4336SOL     OW24640   4.537   1.176   4.204 -0.3628 -0.1607 -0.1970
 4336SOL    HW124641   4.540   1.270   4.188 -0.2960 -0.5164 -2.3304
 4336SOL    HW224642   4.448   1.158   4.235  1.2004 -3.7586  2.2074
 4337SOL     OW24643   1.465   4.053   9.606  0.3678 -0.3555  0.6952
 4337SOL    HW124644   1.441   4.140   9.639 -0.3093  1.5595 -4.8577
 4337SOL    HW224645   1.532   4.018   9.664  0.8796 -1.8584 -0.7977
 4338SOL     OW24646   4.483   3.161   9.860  0.1087  0.2395  1.1291
 4338SOL    HW124647   4.543   3.202   9.797  0.7199  0.1170  1.6292
 4338SOL    HW224648   4.546   3.131   9.926  1.7223 -1.7251 -1.3095
 4339SOL     OW24649   3.752   2.521   6.465  0.1766  0.6024  0.2250
 4339SOL    HW124650   3.781   2.593   6.410 -1.0629  1.5500  0.8067
 4339SOL    HW224651   3.656   2.528   6.460 -0.0313 -1.0445  1.4715
 4340SOL     OW24652   4.316   3.724  14.063  0.4788  0.0339 -0.5817
 4340SOL    HW124653   4.224   3.743  14.080  0.7428  0.5183  0.3405
 4340SOL    HW224654   4.316   3.634  14.031 -0.0473  0.3153 -1.3629
 4341SOL     OW24655   0.406   2.068  15.835 -0.3044 -0.6871  0.2840
 4341SOL    HW124656   0.359   2.103  15.911  1.1027 -1.3077  1.4465
 4341SOL    HW224657   0.342   2.086  15.766 -2.9911  0.8535  3.1270
 4342SOL     OW24658   0.411   3.687   9.209 -0.0344  0.3174 -0.5520
 4342SOL    HW124659   0.337   3.630   9.227 -1.3896  2.4918  0.7734
 4342SOL    HW224660   0.482   3.628   9.234 -2.0236 -1.0019  1.8678
 4343SOL     OW24661   2.878   4.700  17.072 -0.7958 -0.5507  0.4426
 4343SOL    HW124662   2.911   4.633  17.012  4.7677  3.2347 -0.7456
 4343SOL    HW224663   2.959   4.733  17.112  0.1549  1.4965 -3.0944
 4344SOL     OW24664   1.566   3.366   3.605  0.2475 -0.2873  0.0897
 4344SOL    HW124665   1.488   3.379   3.659 -0.2958  1.0731 -1.0057
 4344SOL    HW224666   1.604   3.285   3.640  0.0977 -0.8547 -1.0580
 4345SOL     OW24667   1.610   3.570   4.773 -0.0763  0.2246  1.2992
 4345SOL    HW124668   1.577   3.653   4.738  0.6792 -0.6464 -1.4780
 4345SOL    HW224669   1.703   3.594   4.785  0.0587  0.6190 -0.5187
 4346SOL     OW24670   3.036   2.585  12.204  0.2227 -0.1548 -0.2099
 4346SOL    HW124671   2.991   2.584  12.119 -1.1131  1.1144  0.4826
 4346SOL    HW224672   3.105   2.649  12.186 -0.3797  1.0217  1.6789
 4347SOL     OW24673   1.892   4.657  16.716  0.2285 -0.3950 -0.2655
 4347SOL    HW124674   1.808   4.701  16.732  0.4836  0.2604 -0.7288
 4347SOL    HW224675   1.916   4.697  16.632  0.2875  1.5189  0.6703
 4348SOL     OW24676   0.461   0.878  12.502  0.3881  0.2420  0.0491
 4348SOL    HW124677   0.494   0.906  12.417  1.7900 -0.3232  0.4083
 4348SOL    HW224678   0.460   0.785  12.479  0.1619  0.8760 -2.5266
 4349SOL     OW24679   1.500   1.611   6.914 -0.4078 -0.3462  0.0647
 4349SOL    HW124680   1.522   1.533   6.964  0.5260  0.1431  0.4150
 4349SOL    HW224681   1.424   1.636   6.968 -0.2518 -1.1833  0.6635
 4350SOL     OW24682   1.232   0.299  11.668 -0.9395  0.3544 -0.2107
 4350SOL    HW124683   1.259   0.387  11.694  2.0815  0.4225 -3.4832
 4350SOL    HW224684   1.276   0.310  11.583  0.9917 -0.4466  0.6969
 4351SOL     OW24685   2.649   0.859   5.785  0.1112 -1.0276  0.3758
 4351SOL    HW124686   2.725   0.877   5.840 -0.5120  3.7059 -0.3425
 4351SOL    HW224687   2.678   0.833   5.698  1.0347  0.5424  0.2218
 4352SOL     OW24688   3.835   4.419  12.697 -0.1330  0.2514  0.4446
 4352SOL    HW124689   3.846   4.404  12.603  1.2811  1.3547  0.4417
 4352SOL    HW224690   3.742   4.440  12.688 -0.1405  0.8887  1.9817
 4353SOL     OW24691   0.096   2.107   3.090  0.0112 -0.0564  0.2418
 4353SOL    HW124692   0.062   2.196   3.081  0.4595  0.1826  0.9534
 4353SOL    HW224693   0.038   2.086   3.163  2.4527 -2.9273  1.3134
 4354SOL     OW24694   3.244   1.212   9.754 -0.3221  0.2921 -0.0693
 4354SOL    HW124695   3.228   1.254   9.670 -0.4661  0.8375  0.2303
 4354SOL    HW224696   3.156   1.194   9.786  0.2748 -0.4431  1.1749
 4355SOL     OW24697   1.764   3.924  12.420  0.6025  0.2805  0.3667
 4355SOL    HW124698   1.742   4.003  12.372 -0.3383  0.0920  0.4828
 4355SOL    HW224699   1.830   3.959  12.480 -0.1944 -0.1247  1.4697
 4356SOL     OW24700   4.074   1.802   4.605  0.6051 -0.3757  0.6122
 4356SOL    HW124701   3.983   1.783   4.627  0.8756  0.9579  2.8482
 4356SOL    HW224702   4.125   1.772   4.680  2.0573 -2.8552 -1.3450
 4357SOL     OW24703   2.550   4.587  12.285  0.3758 -0.1962 -0.1312
 4357SOL    HW124704   2.511   4.594  12.198  1.0744 -0.5827 -0.4751
 4357SOL    HW224705   2.533   4.673  12.323  0.3911 -0.2300 -0.0470
 4358SOL     OW24706   0.348   4.395  10.965 -0.6479  0.3195 -0.0627
 4358SOL    HW124707   0.372   4.393  11.058  0.7844  0.0705 -0.4308
 4358SOL    HW224708   0.254   4.409  10.976 -0.4184  3.9990 -2.9423
 4359SOL     OW24709   2.322   1.777   3.757 -0.5077 -0.1109 -0.2861
 4359SOL    HW124710   2.404   1.778   3.708 -0.8790  1.2487 -0.8683
 4359SOL    HW224711   2.271   1.735   3.687  1.4110  0.5927 -2.0939
 4360SOL     OW24712   4.550   2.869   1.977  0.5536  0.5988 -0.0999
 4360SOL    HW124713   4.609   2.928   2.024  0.7312 -1.2052  1.9261
 4360SOL    HW224714   4.596   2.868   1.893  1.2412 -1.7152  0.2894
 4361SOL     OW24715   0.687   2.013   2.447 -0.3148  0.1863 -0.6777
 4361SOL    HW124716   0.610   1.972   2.487 -0.7621 -0.6594 -2.3646
 4361SOL    HW224717   0.671   2.103   2.474  3.2448  0.0314  1.9681
 4362SOL     OW24718   0.260   2.078   3.326 -0.3830  0.0934  0.4712
 4362SOL    HW124719   0.242   2.151   3.385  1.7813  0.9929 -0.0135
 4362SOL    HW224720   0.316   2.033   3.388 -2.4514 -2.6640  0.3411
 4363SOL     OW24721   0.345   1.593   5.000  0.1103 -0.4005 -0.0172
 4363SOL    HW124722   0.268   1.634   5.038  1.2161  0.5400  1.2201
 4363SOL    HW224723   0.398   1.593   5.079  0.3743 -0.0561 -0.1930
 4364SOL     OW24724   1.865   4.009  12.066 -0.5641  0.1643  0.6811
 4364SOL    HW124725   1.824   4.070  12.128 -1.9179 -0.9567  0.8807
 4364SOL    HW224726   1.908   4.071  12.007 -0.3320 -2.4214 -1.8521
 4365SOL     OW24727   2.516   3.016  10.773  0.5162 -0.1625 -0.1619
 4365SOL    HW124728   2.576   3.003  10.699 -0.2311 -3.0668 -0.2594
 4365SOL    HW224729   2.563   3.094  10.801  1.5734 -1.5562  1.9710
 4366SOL     OW24730   1.219   1.296   2.311 -0.2526  0.2917  0.4663
 4366SOL    HW124731   1.278   1.275   2.384 -1.6115 -1.5196  1.0609
 4366SOL    HW224732   1.195   1.210   2.278 -1.1392  0.5661  0.4089
 4367SOL     OW24733   1.442   0.475   8.818 -0.0406 -0.3416 -0.0253
 4367SOL    HW124734   1.349   0.487   8.797  0.4601  1.3342 -1.3224
 4367SOL    HW224735   1.435   0.409   8.887  0.6364  2.4566  2.7644
 4368SOL     OW24736   3.594   2.647  17.534 -0.4853  0.2805  0.1532
 4368SOL    HW124737   3.530   2.601  17.588  0.2837  0.1285  0.9427
 4368SOL    HW224738   3.549   2.715  17.484 -1.1570 -0.1220  0.2154
 4369SOL     OW24739   2.015   2.855   3.758 -0.2163 -0.3263  0.4336
 4369SOL    HW124740   2.065   2.880   3.680  0.4120  0.8131  1.1989
 4369SOL    HW224741   2.057   2.911   3.823 -0.5037  1.8192 -1.2238
 4370SOL     OW24742   1.540   3.322   6.755  0.7516 -0.0187  0.1636
 4370SOL    HW124743   1.594   3.243   6.744 -0.4092 -0.5001 -2.0257
 4370SOL    HW224744   1.598   3.380   6.706 -2.0454  0.3597 -2.6643
 4371SOL     OW24745   2.546   4.615  11.178  0.1022 -1.1517 -0.4888
 4371SOL    HW124746   2.567   4.700  11.217 -1.8509 -0.9120  0.0492
 4371SOL    HW224747   2.543   4.563  11.258 -0.5915 -0.4602 -0.0593
 4372SOL     OW24748   1.486   1.373  15.041 -0.5178 -0.1848 -0.6686
 4372SOL    HW124749   1.568   1.410  15.076 -0.6194  0.5099 -1.1789
 4372SOL    HW224750   1.516   1.283  15.036  3.1159  0.8631  1.7714
 4373SOL     OW24751   2.669   0.062   0.512 -0.0632  0.3666 -0.0044
 4373SOL    HW124752   2.615   0.118   0.568 -1.6743 -1.7352  0.5453
 4373SOL    HW224753   2.716   0.140   0.482  3.1991 -0.9682  1.5533
 4374SOL     OW24754   3.027   0.178   1.367 -0.4489 -0.5563 -0.1389
 4374SOL    HW124755   3.117   0.154   1.345 -0.6556  1.0974 -2.8233
 4374SOL    HW224756   3.009   0.101   1.420 -0.7533 -0.3669  0.0328
 4375SOL     OW24757   2.717   2.145   8.117 -0.3199 -0.2963 -0.0981
 4375SOL    HW124758   2.772   2.168   8.192  1.0533  0.1228 -1.2321
 4375SOL    HW224759   2.629   2.135   8.154 -0.7598 -1.0156 -1.3327
 4376SOL     OW24760   1.928   4.688   2.732  0.3377 -0.1870  0.4330
 4376SOL    HW124761   1.996   4.695   2.799  1.8758 -0.7045 -1.0711
 4376SOL    HW224762   1.855   4.683   2.795 -0.4715  0.4150 -0.4601
 4377SOL     OW24763   2.334   0.920   8.183 -0.1692  0.0550  0.2223
 4377SOL    HW124764   2.315   1.013   8.192 -0.4307 -0.3257  3.7170
 4377SOL    HW224765   2.295   0.899   8.268  0.9337 -0.1397  0.6779
 4378SOL     OW24766   3.210   4.566   6.811 -0.2716 -0.1729  0.7223
 4378SOL    HW124767   3.231   4.647   6.765 -3.0148  0.2663  0.2572
 4378SOL    HW224768   3.264   4.500   6.766  0.6982  0.3594  1.1106
 4379SOL     OW24769   0.555   1.897  15.569  0.4237 -0.0542 -0.2580
 4379SOL    HW124770   0.590   1.982  15.543 -3.4728  2.0419  1.3335
 4379SOL    HW224771   0.599   1.896  15.654 -0.2016  1.9676  0.0792
 4380SOL     OW24772   1.760   2.859  15.029  0.9994  0.4863 -0.2903
 4380SOL    HW124773   1.679   2.864  14.977  2.1245 -0.5049 -2.1236
 4380SOL    HW224774   1.815   2.802  14.976 -0.7226 -0.2912 -1.2425
 4381SOL     OW24775   1.814   1.909  10.585  0.2837 -0.0177  0.5823
 4381SOL    HW124776   1.867   1.956  10.650  3.4342  0.7937 -2.5184
 4381SOL    HW224777   1.785   1.973  10.520 -0.2072 -0.3477  0.4768
 4382SOL     OW24778   2.146   0.185   4.682  0.4541  0.6805  0.6531
 4382SOL    HW124779   2.133   0.244   4.609 -1.3407 -0.0254  0.4138
 4382SOL    HW224780   2.242   0.184   4.686  0.5160  0.5068 -0.8217
 4383SOL     OW24781   2.174   1.739   7.688  0.1013  0.3283  0.5103
 4383SOL    HW124782   2.200   1.831   7.693  1.1230  0.1505 -1.4877
 4383SOL    HW224783   2.236   1.712   7.620  1.0866  0.2125  1.4533
 4384SOL     OW24784   3.778   0.751   5.400  0.1336 -0.4129 -0.5454
 4384SOL    HW124785   3.788   0.828   5.344  1.4569 -0.2738 -0.1091
 4384SOL    HW224786   3.817   0.704   5.327  1.7659  1.3485 -0.7928
 4385SOL     OW24787   3.054   1.799   7.224 -0.3446 -0.1227  0.3048
 4385SOL    HW124788   3.103   1.880   7.214  0.8322 -0.9153 -0.4062
 4385SOL    HW224789   3.007   1.817   7.305 -1.4205 -2.4203  0.2055
 4386SOL     OW24790   1.218   1.629   1.985 -0.2654  0.0420  0.7846
 4386SOL    HW124791   1.283   1.627   1.915 -1.2405 -2.3007 -0.0550
 4386SOL    HW224792   1.155   1.694   1.954 -0.3306  1.3568  3.7096
 4387SOL     OW24793   1.335   4.173  14.226  0.2711  0.2282 -0.2150
 4387SOL    HW124794   1.243   4.186  14.203 -0.5749 -1.3883  2.1934
 4387SOL    HW224795   1.320   4.123  14.307 -2.8034  2.1885  0.4336
 4388SOL     OW24796   3.366   0.297   3.702  0.5383  0.3696 -0.1985
 4388SOL    HW124797   3.451   0.272   3.737  0.3122 -0.5751 -0.3246
 4388SOL    HW224798   3.388   0.388   3.683 -0.5213  0.5290 -0.6894
 4389SOL     OW24799   1.035   3.945   8.438 -0.1827  0.1044  0.1359
 4389SOL    HW124800   0.957   3.984   8.477 -0.7944 -1.5350  0.5497
 4389SOL    HW224801   0.998   3.891   8.367  0.1005 -0.6615  0.5720
 4390SOL     OW24802   3.720   0.758  15.129  0.2459 -0.2906  0.2488
 4390SOL    HW124803   3.687   0.701  15.198  1.7467 -0.3873  0.8726
 4390SOL    HW224804   3.642   0.783  15.079  0.1927 -0.7029  0.1254
 4391SOL     OW24805   1.245   3.084  11.709  0.0879  0.0462 -0.3956
 4391SOL    HW124806   1.170   3.143  11.713  0.4258  0.4291  0.2500
 4391SOL    HW224807   1.208   2.999  11.732 -0.2449  0.0337 -0.9798
 4392SOL     OW24808   4.206   0.295   4.858 -0.5623 -0.1973 -0.5729
 4392SOL    HW124809   4.202   0.332   4.947 -0.7915 -0.9370 -0.2796
 4392SOL    HW224810   4.140   0.228   4.870 -2.6408  1.4198 -3.0081
 4393SOL     OW24811   3.123   3.236   6.631 -0.2813  0.7206  0.0028
 4393SOL    HW124812   3.081   3.322   6.640  1.9686  2.0846 -2.6026
 4393SOL    HW224813   3.211   3.259   6.663 -0.1188  1.7806 -1.2028
 4394SOL     OW24814   3.901   1.076  12.090 -0.4268 -0.6620 -0.1400
 4394SOL    HW124815   3.895   0.988  12.125  2.1705 -0.8963 -0.2796
 4394SOL    HW224816   3.967   1.104  12.153 -0.1315 -0.4812 -0.5261
 4395SOL     OW24817   3.727   3.139   5.551 -0.5049 -0.2381 -0.5710
 4395SOL    HW124818   3.705   3.229   5.573  0.1163 -0.4961  1.0895
 4395SOL    HW224819   3.806   3.113   5.599 -0.9381 -0.1581  0.1658
 4396SOL     OW24820   1.329   4.453  14.450 -0.0478  0.1296  0.2486
 4396SOL    HW124821   1.237   4.474  14.436  0.0577  1.2169  1.2036
 4396SOL    HW224822   1.367   4.487  14.369  0.8619  0.8667  0.9733
 4397SOL     OW24823   2.090   1.056   6.499  0.6717 -0.3174  0.3179
 4397SOL    HW124824   2.054   0.969   6.515 -1.0064  0.4408  0.5928
 4397SOL    HW224825   2.029   1.114   6.545 -1.8498 -2.3901 -0.4728
 4398SOL     OW24826   1.465   1.919   6.371  0.1028 -0.1139  0.2558
 4398SOL    HW124827   1.528   1.988   6.352  1.5562 -1.8569 -1.2588
 4398SOL    HW224828   1.454   1.897   6.279 -0.0224  2.8509 -0.4104
 4399SOL     OW24829   1.693   1.416   4.719  0.1540  0.4395  0.2600
 4399SOL    HW124830   1.764   1.459   4.767  1.4042 -0.8915 -0.4094
 4399SOL    HW224831   1.737   1.365   4.651 -3.2504 -1.2416 -0.6445
 4400SOL     OW24832   0.693   1.229   3.202  0.2826 -0.3478  0.1611
 4400SOL    HW124833   0.686   1.285   3.125  1.1136  0.6117  0.7802
 4400SOL    HW224834   0.660   1.284   3.273  2.6339  1.7327 -0.3340
 4401SOL     OW24835   2.530   3.500   2.129 -0.2542  0.3619  0.2835
 4401SOL    HW124836   2.550   3.555   2.205  1.3905 -0.9974  0.8351
 4401SOL    HW224837   2.613   3.453   2.120 -0.5677 -0.1657  0.1980
 4402SOL     OW24838   1.595   1.639   3.610 -0.3237 -0.2868  0.6710
 4402SOL    HW124839   1.537   1.563   3.614 -0.3591 -0.3378 -0.5791
 4402SOL    HW224840   1.555   1.701   3.548 -0.9948 -1.5232 -0.1329
 4403SOL     OW24841   3.921   4.483   4.704  0.2134 -0.1328 -0.3333
 4403SOL    HW124842   3.850   4.547   4.708 -0.2511 -0.6026 -1.0585
 4403SOL    HW224843   3.911   4.454   4.613  0.2739  1.2222 -0.7708
 4404SOL     OW24844   0.002   2.915   4.888  0.3196 -0.5926 -0.3567
 4404SOL    HW124845   4.653   2.895   4.856  0.0382  0.0255  0.0268
 4404SOL    HW224846   4.720   2.973   4.962 -3.3094 -1.6212 -0.5572
 4405SOL     OW24847   2.786   1.256   3.211 -0.5470  0.5257 -0.1001
 4405SOL    HW124848   2.864   1.265   3.156 -1.5358 -2.0398 -1.9626
 4405SOL    HW224849   2.742   1.191   3.156 -2.5417  1.3105  0.5824
 4406SOL     OW24850   3.667   2.556  15.544 -0.1338 -0.0192  0.0688
 4406SOL    HW124851   3.574   2.577  15.558 -0.6415 -2.1503 -0.0720
 4406SOL    HW224852   3.664   2.563  15.448 -1.3340 -0.6293  0.0658
 4407SOL     OW24853   0.640   4.014  14.391 -0.8417 -0.5243  0.0373
 4407SOL    HW124854   0.568   3.950  14.389 -2.1762  0.9749 -0.0201
 4407SOL    HW224855   0.619   4.062  14.311 -0.9321 -1.5120 -0.5281
 4408SOL     OW24856   4.106   4.164   8.709 -0.0324 -0.0390 -0.1039
 4408SOL    HW124857   4.041   4.218   8.664 -0.5013  0.7327  1.4883
 4408SOL    HW224858   4.190   4.203   8.684 -0.2880 -0.0479 -0.9543
 4409SOL     OW24859   2.534   0.940   2.739  0.0084 -0.3634  0.3081
 4409SOL    HW124860   2.479   0.973   2.810 -0.3811  0.4288 -0.3652
 4409SOL    HW224861   2.523   1.010   2.674  0.4626  0.1479  0.7834
 4410SOL     OW24862   3.876   2.025   3.347  0.1161 -0.2142 -0.4539
 4410SOL    HW124863   3.923   1.965   3.404  1.2260 -1.0495 -2.2347
 4410SOL    HW224864   3.855   2.094   3.409  0.1097 -1.3237  0.7693
 4411SOL     OW24865   2.239   4.378  12.316 -0.5533  0.4032 -1.0284
 4411SOL    HW124866   2.300   4.306  12.337 -0.6347  0.6919  0.1742
 4411SOL    HW224867   2.261   4.438  12.387 -1.0331 -0.6428  0.0109
 4412SOL     OW24868   1.030   1.980   1.301  0.4110 -0.1600  0.0895
 4412SOL    HW124869   0.995   1.908   1.354  2.0216 -0.8395  0.2170
 4412SOL    HW224870   1.008   2.050   1.363  3.7944  2.1772 -1.3222
 4413SOL     OW24871   2.439   2.084   4.079  0.1811 -0.7037  0.1978
 4413SOL    HW124872   2.353   2.066   4.041 -0.0417 -1.9860  1.2974
 4413SOL    HW224873   2.499   2.057   4.009  0.7760 -2.6568  1.4579
 4414SOL     OW24874   2.737   3.461   9.694 -0.2776 -0.6978 -0.4598
 4414SOL    HW124875   2.737   3.555   9.710 -0.6038 -0.8892  0.6670
 4414SOL    HW224876   2.826   3.437   9.667 -0.2648 -1.7227  0.4984
 4415SOL     OW24877   2.143   2.978   4.329  0.4386 -0.0480 -0.0023
 4415SOL    HW124878   2.123   3.055   4.277 -0.1746 -0.1597  0.0608
 4415SOL    HW224879   2.152   3.013   4.418 -0.0140 -1.2581  0.5228
 4416SOL     OW24880   1.741   2.594   4.025  0.0547 -0.1902  0.2357
 4416SOL    HW124881   1.831   2.581   3.995  0.7379 -2.2406  3.2217
 4416SOL    HW224882   1.755   2.669   4.082 -0.1737  0.3632 -0.4278
 4417SOL     OW24883   1.976   4.378   8.671 -0.3963 -0.1235 -0.1492
 4417SOL    HW124884   2.063   4.391   8.709  0.5733 -1.1979 -1.9478
 4417SOL    HW224885   1.936   4.305   8.718 -0.2554 -0.4920 -0.5921
 4418SOL     OW24886   0.771   1.680   7.514  0.4016  0.2538 -0.6828
 4418SOL    HW124887   0.844   1.653   7.459  1.7385  0.5768  0.9344
 4418SOL    HW224888   0.706   1.712   7.451 -1.7496 -1.8262  0.4931
 4419SOL     OW24889   1.422   4.444   6.109  0.6464  0.0624 -0.5399
 4419SOL    HW124890   1.455   4.359   6.138 -0.5075  0.0432  0.7009
 4419SOL    HW224891   1.350   4.462   6.169  2.2007  0.5517  1.1700
 4420SOL     OW24892   1.465   2.825   3.504 -0.2134 -0.1185  0.5902
 4420SOL    HW124893   1.483   2.869   3.587  1.6960  0.3278 -0.0537
 4420SOL    HW224894   1.408   2.751   3.525  1.1224 -1.2032  0.3712
 4421SOL     OW24895   3.811   2.175  17.714 -0.0056 -0.8999  0.3466
 4421SOL    HW124896   3.728   2.193  17.669  0.1122 -4.2855 -1.1980
 4421SOL    HW224897   3.834   2.086  17.688 -1.2652 -2.0741  3.2124
 4422SOL     OW24898   2.051   4.443  10.247  0.1710 -0.1206 -0.4150
 4422SOL    HW124899   2.072   4.496  10.324  0.2472 -0.2936 -0.3173
 4422SOL    HW224900   1.962   4.417  10.271  0.3663  0.1991  0.6510
 4423SOL     OW24901   2.687   4.520   3.479  0.0026 -0.3336  0.1889
 4423SOL    HW124902   2.734   4.546   3.400  1.8588 -0.0803  1.3856
 4423SOL    HW224903   2.761   4.484   3.528  1.0979 -0.7995 -1.7888
 4424SOL     OW24904   4.413   3.278  14.000  0.1744  1.1894  0.2959
 4424SOL    HW124905   4.508   3.285  14.001  0.4164 -1.8849 -3.3786
 4424SOL    HW224906   4.388   3.359  13.957  0.1372  1.3212  0.5623
 4425SOL     OW24907   3.404   0.848   6.029  0.2540 -0.6703  0.2283
 4425SOL    HW124908   3.408   0.924   5.972  0.1092 -0.8501 -0.0227
 4425SOL    HW224909   3.493   0.814   6.016  0.1771 -0.6630 -0.2924
 4426SOL     OW24910   2.584   2.953  13.325 -0.1016  0.0925 -0.3655
 4426SOL    HW124911   2.514   2.950  13.391 -0.4848 -0.4551 -0.8034
 4426SOL    HW224912   2.539   2.895  13.264  2.0381 -1.8198 -0.1507
 4427SOL     OW24913   3.752   0.114  13.462  0.5653  0.1669  0.6092
 4427SOL    HW124914   3.803   0.153  13.533 -2.2575  1.3771  1.9703
 4427SOL    HW224915   3.796   0.031  13.446 -0.6364 -0.6657  1.5847
 4428SOL     OW24916   2.455   4.691   1.226 -0.6474 -0.2196 -0.0610
 4428SOL    HW124917   2.380   4.663   1.174 -1.8109  1.7100  0.5971
 4428SOL    HW224918   2.425   4.718   1.313 -0.3846 -2.1039  0.6177
 4429SOL     OW24919   2.638   1.339  10.498 -0.3583  0.9841  0.0099
 4429SOL    HW124920   2.729   1.317  10.515 -1.1456 -1.5852  0.9196
 4429SOL    HW224921   2.627   1.392  10.577 -0.1699  2.4269 -0.9305
 4430SOL     OW24922   0.466   3.436   2.616 -0.4439 -0.5465  0.1883
 4430SOL    HW124923   0.461   3.363   2.554 -1.0791 -0.7496  0.4810
 4430SOL    HW224924   0.561   3.435   2.623 -0.3839  0.2872 -0.4779
 4431SOL     OW24925   0.789   1.668   2.104 -0.5768  0.1553 -0.7330
 4431SOL    HW124926   0.793   1.741   2.165  0.0384  1.9609 -2.9462
 4431SOL    HW224927   0.813   1.595   2.161  1.3165 -0.1506 -1.9368
 4432SOL     OW24928   4.018   3.337   5.023  0.0401  0.2444  0.0828
 4432SOL    HW124929   4.085   3.353   5.089  1.2760  0.9879 -1.3683
 4432SOL    HW224930   3.940   3.321   5.076  0.2143 -1.1134 -0.0788
 4433SOL     OW24931   3.152   4.658  10.451  0.1214 -0.4029  0.3500
 4433SOL    HW124932   3.080   4.686  10.508 -0.0417 -0.1346  0.0127
 4433SOL    HW224933   3.191   4.589  10.505  1.7679  0.1289 -0.1424
 4434SOL     OW24934   1.150   0.020   6.537  0.2893 -0.2769 -0.6720
 4434SOL    HW124935   1.233   4.737   6.495  1.5124  1.2330  0.9886
 4434SOL    HW224936   1.175   0.075   6.611 -1.5600  2.0135 -1.7578
 4435SOL     OW24937   3.123   0.700   7.169 -0.3302 -0.1828 -0.3118
 4435SOL    HW124938   3.121   0.611   7.204  0.6705  0.1520  0.6030
 4435SOL    HW224939   3.179   0.750   7.229 -0.6655 -0.6133  0.3514
 4436SOL     OW24940   4.535   1.951   7.916  0.8322  0.1517 -0.4021
 4436SOL    HW124941   4.541   1.861   7.885 -0.4360 -0.6627  1.7688
 4436SOL    HW224942   4.493   1.992   7.841  0.1778 -0.7896 -0.5464
 4437SOL     OW24943   1.008   1.543   6.436  0.3483  0.0687  0.5090
 4437SOL    HW124944   1.019   1.533   6.341 -1.0771  0.3918  0.3092
 4437SOL    HW224945   1.082   1.493   6.469  0.2128 -0.4285  0.0706
 4438SOL     OW24946   2.573   3.399   7.132  0.3290  0.3901  0.2692
 4438SOL    HW124947   2.632   3.376   7.060  1.1562  2.5867  0.2461
 4438SOL    HW224948   2.567   3.494   7.129 -0.6610  0.3140 -0.4145
 4439SOL     OW24949   0.773   4.258   2.880 -0.1401  0.0172  0.3612
 4439SOL    HW124950   0.785   4.219   2.793 -1.6102 -0.4014  0.3532
 4439SOL    HW224951   0.692   4.217   2.909  0.0946 -1.2273 -0.7431
 4440SOL     OW24952   2.608   4.514   7.952  0.3133 -0.0509  0.5036
 4440SOL    HW124953   2.691   4.466   7.950 -0.1809 -0.8385 -0.4092
 4440SOL    HW224954   2.629   4.578   7.884 -1.0882 -1.1595 -0.9456
 4441SOL     OW24955   3.702   2.810   6.913  0.3928 -0.0462 -0.8425
 4441SOL    HW124956   3.666   2.860   6.840  1.3008  3.4278  1.1424
 4441SOL    HW224957   3.794   2.803   6.884  0.9559  2.6603  0.3723
 4442SOL     OW24958   4.173   1.532  10.189  0.7394  0.2980 -0.2164
 4442SOL    HW124959   4.249   1.480  10.216 -2.0787 -3.4223  0.6290
 4442SOL    HW224960   4.124   1.465  10.141  1.1437  0.9043 -1.4819
 4443SOL     OW24961   4.607   2.483   7.215  0.0706  0.0517  0.2038
 4443SOL    HW124962   4.530   2.448   7.171 -1.1184  0.9152  1.5788
 4443SOL    HW224963   4.649   2.406   7.253 -1.0729 -0.1073  1.1640
 4444SOL     OW24964   1.612   2.570   4.608  0.0905 -0.0303 -0.1574
 4444SOL    HW124965   1.656   2.498   4.563  1.7262 -0.4382  2.1582
 4444SOL    HW224966   1.541   2.518   4.646  1.8026 -2.3949 -0.2661
 4445SOL     OW24967   2.452   2.781  17.537 -0.2992  0.2036 -0.0326
 4445SOL    HW124968   2.489   2.850  17.593  1.7535 -0.8243 -0.1200
 4445SOL    HW224969   2.510   2.710  17.563 -2.4790 -1.1847  1.0978
 4446SOL     OW24970   3.393   2.272  14.667  0.3661 -0.4037 -0.2597
 4446SOL    HW124971   3.393   2.196  14.609  0.6993  0.8078 -1.8718
 4446SOL    HW224972   3.320   2.247  14.724  0.3257  0.2870 -0.0048
 4447SOL     OW24973   3.919   3.902   9.907 -0.2438  0.2889 -0.3479
 4447SOL    HW124974   4.013   3.917   9.903 -0.5618  2.2104 -0.6538
 4447SOL    HW224975   3.879   3.961   9.843  2.1771  0.0441 -2.0627
 4448SOL     OW24976   1.925   4.430   3.329 -0.1226  0.1165 -0.5108
 4448SOL    HW124977   1.952   4.492   3.396 -2.0803  1.3450 -0.8421
 4448SOL    HW224978   2.008   4.429   3.282  0.8847 -0.6041  1.2892
 4449SOL     OW24979   2.055   0.841   5.505  0.1885  0.2469 -0.1374
 4449SOL    HW124980   2.003   0.763   5.524  2.4804 -1.3770 -0.4707
 4449SOL    HW224981   2.145   0.815   5.526  1.1187  2.6437 -1.1291
 4450SOL     OW24982   4.631   2.331   2.605  0.3965 -0.3150 -0.0198
 4450SOL    HW124983   4.657   2.246   2.571 -0.7416  0.1743 -2.1384
 4450SOL    HW224984   4.550   2.335   2.554  0.2842  0.6373  0.2311
 4451SOL     OW24985   3.412   2.813  14.991  0.3511 -0.0203  0.2174
 4451SOL    HW124986   3.476   2.744  14.978  0.5470  0.0839  0.6198
 4451SOL    HW224987   3.461   2.885  15.031  1.1562 -0.5997  0.2663
 4452SOL     OW24988   2.353   1.537   5.973 -0.1024 -0.3470  0.3125
 4452SOL    HW124989   2.369   1.622   6.015 -0.5746  0.5638 -1.3402
 4452SOL    HW224990   2.258   1.527   5.982 -0.2070  0.4525  0.1392
 4453SOL     OW24991   0.759   3.700  17.642  0.3700  0.0374  0.6704
 4453SOL    HW124992   0.765   3.717  17.548  3.8759 -0.5782  0.7582
 4453SOL    HW224993   0.821   3.629  17.655 -1.4791 -1.2495  2.3475
 4454SOL     OW24994   3.217   1.818  14.877  0.2412 -0.1314 -0.0957
 4454SOL    HW124995   3.305   1.823  14.841 -0.4744  3.6049 -1.3418
 4454SOL    HW224996   3.240   1.857  14.961 -3.3000  0.5266  0.5850
 4455SOL     OW24997   3.215   3.175   1.529 -0.3600 -0.0153  0.1496
 4455SOL    HW124998   3.228   3.263   1.564 -0.4046 -0.1619  0.5290
 4455SOL    HW224999   3.134   3.187   1.480  0.2913  0.8730 -0.7160
 4456SOL     OW25000   0.114   4.460  11.065  0.3581 -0.0977 -0.0094
 4456SOL    HW125001   0.032   4.468  11.017  0.9154 -1.0547 -1.1385
 4456SOL    HW225002   0.098   4.496  11.152 -0.2493  0.1997 -0.2449
 4457SOL     OW25003   2.222   0.707  17.107  0.3729 -0.4976 -0.4841
 4457SOL    HW125004   2.133   0.730  17.081  0.2525 -1.9639 -1.3585
 4457SOL    HW225005   2.209   0.625  17.156  1.7206 -0.1501  0.4652
 4458SOL     OW25006   3.225   4.150  16.836 -1.0562  0.8010  0.2068
 4458SOL    HW125007   3.139   4.123  16.867 -0.1003  1.1077  3.1388
 4458SOL    HW225008   3.218   4.102  16.754  0.6336 -0.8970  1.0760
 4459SOL     OW25009   0.410   1.144   5.723  0.3012  0.4946 -0.6747
 4459SOL    HW125010   0.460   1.225   5.708 -0.3539  0.6894 -1.8238
 4459SOL    HW225011   0.417   1.107   5.635  0.5356 -0.2560 -0.3388
 4460SOL     OW25012   1.127   2.036   5.561 -0.7453  0.4026  0.3709
 4460SOL    HW125013   1.045   2.006   5.521  0.7384 -2.9985 -0.1711
 4460SOL    HW225014   1.108   2.047   5.654 -0.7639 -0.2441  0.4459
 4461SOL     OW25015   4.416   0.382   5.383 -0.1374  0.3121 -0.6634
 4461SOL    HW125016   4.336   0.418   5.421  0.4937  0.3061  0.6957
 4461SOL    HW225017   4.440   0.462   5.337 -1.5241  1.3045  0.3421
 4462SOL     OW25018   3.795   0.818  13.684  0.2784 -0.0755 -0.4749
 4462SOL    HW125019   3.750   0.889  13.730 -1.2523 -0.6421 -1.1185
 4462SOL    HW225020   3.833   0.858  13.605  1.2541 -0.6369 -0.2930
 4463SOL     OW25021   4.007   3.114   1.172 -0.3713 -0.1869 -0.5468
 4463SOL    HW125022   3.953   3.185   1.138 -2.0287 -1.7647 -1.1880
 4463SOL    HW225023   3.961   3.097   1.254  0.0982 -0.0352 -0.2531
 4464SOL     OW25024   1.626   4.591   8.871 -0.2089 -0.8168 -0.3723
 4464SOL    HW125025   1.539   4.552   8.864 -0.5463 -0.1016 -0.1612
 4464SOL    HW225026   1.621   4.670   8.817  0.6992  0.7394  1.8580
 4465SOL     OW25027   2.394   0.927   1.834 -0.1886 -0.5721  0.0586
 4465SOL    HW125028   2.334   0.861   1.798 -0.1292 -0.0645 -0.9729
 4465SOL    HW225029   2.476   0.897   1.796  0.5920  1.7410 -0.0780
 4466SOL     OW25030   4.404   3.280   9.502  0.1967  0.3834  0.2558
 4466SOL    HW125031   4.346   3.257   9.574 -1.1509 -1.0323 -1.3193
 4466SOL    HW225032   4.430   3.371   9.521 -0.9178  0.4337  1.5518
 4467SOL     OW25033   0.099   2.862  13.375 -0.2186  0.0254  0.6690
 4467SOL    HW125034   0.070   2.893  13.461 -1.7018  4.0149 -1.3047
 4467SOL    HW225035   0.013   2.850  13.334  0.0516 -4.2479  1.3540
 4468SOL     OW25036   2.111   3.949  15.359  0.0548 -0.2384 -0.1692
 4468SOL    HW125037   2.127   4.043  15.364 -0.4095  0.0321 -3.3609
 4468SOL    HW225038   2.164   3.909  15.427 -0.7536 -1.1528 -0.0678
 4469SOL     OW25039   2.860   2.352   4.543  0.4047  0.9447 -0.8319
 4469SOL    HW125040   2.768   2.354   4.517 -0.4300 -1.2087  1.9015
 4469SOL    HW225041   2.873   2.264   4.578  2.7454  2.0012  0.9259
 4470SOL     OW25042   0.757   0.476   5.008 -0.4165 -0.0290  0.1784
 4470SOL    HW125043   0.792   0.407   5.064 -0.3360  0.1875  0.3947
 4470SOL    HW225044   0.690   0.418   4.972  1.9222 -2.4612 -0.2541
 4471SOL     OW25045   4.540   4.477   4.878 -0.2681  0.1447 -0.6396
 4471SOL    HW125046   4.626   4.435   4.872 -0.5713 -0.7046  1.0313
 4471SOL    HW225047   4.492   4.400   4.909 -1.4923  0.5303 -1.5717
 4472SOL     OW25048   2.479   3.465   5.752  0.2022  0.4071  0.3198
 4472SOL    HW125049   2.460   3.424   5.836  0.7211 -0.6730 -0.0991
 4472SOL    HW225050   2.541   3.400   5.720 -1.8633 -1.2963 -0.2094
 4473SOL     OW25051   2.942   1.870   4.300 -0.6737 -0.0725  0.5333
 4473SOL    HW125052   3.014   1.895   4.242 -1.1474 -0.1936 -0.1087
 4473SOL    HW225053   2.873   1.909   4.247 -0.3292  1.1688  0.9970
 4474SOL     OW25054   4.514   2.684   4.296 -0.1378 -0.4859 -0.1782
 4474SOL    HW125055   4.505   2.602   4.344 -6.1874  0.6190  0.5583
 4474SOL    HW225056   4.603   2.683   4.259  0.0460  0.8657  0.2423
 4475SOL     OW25057   1.096   3.196   4.657 -0.3216  0.4619 -0.5109
 4475SOL    HW125058   1.140   3.248   4.724  0.4218 -0.7170 -0.0808
 4475SOL    HW225059   1.086   3.110   4.699 -0.5747  0.8857  0.2988
 4476SOL     OW25060   0.474   0.819   5.209  0.5504 -0.3046 -0.0803
 4476SOL    HW125061   0.494   0.847   5.119 -2.5480 -0.3939 -0.8026
 4476SOL    HW225062   0.384   0.851   5.206  1.8440  3.3459  0.0237
 4477SOL     OW25063   2.118   3.789   6.547  0.3166 -0.0754 -0.4151
 4477SOL    HW125064   2.194   3.734   6.526  0.1756 -0.0025 -1.1401
 4477SOL    HW225065   2.135   3.861   6.486  1.4517  1.0956  1.3046
 4478SOL     OW25066   2.910   1.700   4.903  0.1177 -0.3093 -0.0256
 4478SOL    HW125067   3.002   1.688   4.926 -0.0296 -0.4970  0.4607
 4478SOL    HW225068   2.873   1.747   4.978  1.2704  1.9140 -0.8337
 4479SOL     OW25069   3.383   3.956   0.650 -0.1924 -0.1528 -0.1547
 4479SOL    HW125070   3.409   3.977   0.739 -1.7958 -1.8904  0.7232
 4479SOL    HW225071   3.439   4.017   0.602 -0.1203  0.1820  0.3618
 4480SOL     OW25072   3.406   0.193  15.008 -0.1828 -0.3190 -0.1368
 4480SOL    HW125073   3.429   0.104  14.981  0.7637 -0.7738  2.1735
 4480SOL    HW225074   3.324   0.200  14.959 -0.0322 -0.8943 -0.4740
 4481SOL     OW25075   1.908   2.278   3.012 -0.0727  0.3100 -0.0017
 4481SOL    HW125076   1.981   2.230   2.972  1.2978  1.8414  0.6428
 4481SOL    HW225077   1.833   2.222   2.991  0.1191 -0.0716  0.3319
 4482SOL     OW25078   1.081   1.359   1.924  0.1028 -0.8374 -0.0404
 4482SOL    HW125079   1.084   1.272   1.884 -0.2229 -1.0388  0.3799
 4482SOL    HW225080   1.170   1.395   1.921 -0.5587  0.8761  0.8098
 4483SOL     OW25081   0.166   1.726  10.611  0.0109 -0.4548 -0.1199
 4483SOL    HW125082   0.109   1.714  10.535 -1.3087 -1.4480  1.0411
 4483SOL    HW225083   0.162   1.820  10.626 -0.1167 -0.4381 -0.2522
 4484SOL     OW25084   1.805   3.806   7.134  0.4364  0.2829  0.4687
 4484SOL    HW125085   1.887   3.772   7.171  1.3636  0.2449 -1.6500
 4484SOL    HW225086   1.741   3.809   7.205 -0.7604  2.5827 -0.7154
 4485SOL     OW25087   1.173   0.152   4.903 -0.0853 -0.4525  0.8172
 4485SOL    HW125088   1.203   0.238   4.934  1.4719 -0.5812 -0.3447
 4485SOL    HW225089   1.259   0.111   4.901  1.7934  3.4442  0.6331
 4486SOL     OW25090   1.817   0.230   5.241 -0.0052 -0.2197  0.3288
 4486SOL    HW125091   1.779   0.144   5.259 -0.4998 -0.2068 -0.6277
 4486SOL    HW225092   1.884   0.208   5.175 -1.4716 -3.4849 -0.1069
 4487SOL     OW25093   0.584   0.336   7.750  0.2094  0.0949 -0.0459
 4487SOL    HW125094   0.621   0.425   7.754  0.2942  0.0710 -0.2881
 4487SOL    HW225095   0.659   0.278   7.736 -0.1804  0.0119 -1.7782
 4488SOL     OW25096   1.932   3.608   6.892  0.1646  0.1855  0.3461
 4488SOL    HW125097   1.911   3.515   6.894 -0.2784  0.2753 -0.6152
 4488SOL    HW225098   1.846   3.644   6.911 -0.0286 -0.3401  0.4597
 4489SOL     OW25099   1.023   0.472  12.929  0.3923  0.1372  0.1332
 4489SOL    HW125100   0.937   0.433  12.915  1.2766 -1.4485 -0.8611
 4489SOL    HW225101   1.078   0.414  12.877  0.1307 -0.8678  0.9534
 4490SOL     OW25102   1.213   1.037   7.735 -0.2652 -0.1599 -0.4665
 4490SOL    HW125103   1.264   0.982   7.794  0.2470 -0.1952 -0.9423
 4490SOL    HW225104   1.149   1.052   7.805 -0.4815 -0.9126 -0.4924
 4491SOL     OW25105   4.579   2.462   2.826  0.3030 -0.4363 -0.0097
 4491SOL    HW125106   4.598   2.412   2.746 -0.1255  1.0391 -1.0299
 4491SOL    HW225107   4.659   2.513   2.839 -1.4867  2.2101  0.5426
 4492SOL     OW25108   2.722   4.717   1.561 -0.2882  0.5734  0.0135
 4492SOL    HW125109   2.672   4.648   1.605  0.4525  0.0151 -0.0023
 4492SOL    HW225110   2.663   4.735   1.488 -0.9740 -2.6839 -0.2596
 4493SOL     OW25111   3.394   3.276   6.190 -0.0596 -0.3750 -0.3944
 4493SOL    HW125112   3.475   3.234   6.217 -0.7031 -1.1842  0.2985
 4493SOL    HW225113   3.425   3.353   6.143 -0.5157  0.1461  0.1570
 4494SOL     OW25114   3.451   1.035   4.039  0.0403  0.1592  0.1288
 4494SOL    HW125115   3.535   1.053   3.995 -0.0974 -0.0274 -0.2159
 4494SOL    HW225116   3.462   0.944   4.066 -1.6588 -0.2643 -0.6159
 4495SOL     OW25117   4.308   1.330   9.530 -0.3327  0.2833 -0.0704
 4495SOL    HW125118   4.277   1.408   9.485  2.6208  1.3764 -0.2526
 4495SOL    HW225119   4.396   1.365   9.548 -0.7639  1.7924 -0.9714
 4496SOL     OW25120   3.210   1.133   5.022 -0.2196 -0.6887 -0.0755
 4496SOL    HW125121   3.213   1.052   5.073  0.7377 -1.4655 -1.3610
 4496SOL    HW225122   3.132   1.126   4.967 -0.1312  0.2646 -0.3212
 4497SOL     OW25123   3.609   1.858   9.170 -0.3083 -0.3490 -0.3361
 4497SOL    HW125124   3.651   1.834   9.253 -2.4046  0.2852  0.9015
 4497SOL    HW225125   3.659   1.939   9.160  0.9446 -0.7850  2.3547
 4498SOL     OW25126   0.785   2.656  11.760  0.3169 -0.4501  0.1255
 4498SOL    HW125127   0.777   2.674  11.853  1.7684  3.8293 -0.6007
 4498SOL    HW225128   0.842   2.579  11.749 -0.3041 -0.9344  0.2719
 4499SOL     OW25129   2.883   1.660  13.369  0.1551  0.4894 -0.8020
 4499SOL    HW125130   2.869   1.718  13.295  0.6255  0.9305 -0.5489
 4499SOL    HW225131   2.970   1.695  13.389 -0.1386  0.4928  0.4572
 4500SOL     OW25132   0.301   1.564  13.700  0.4613  0.3825 -0.3356
 4500SOL    HW125133   0.339   1.553  13.787  3.0841  0.5452 -1.4686
 4500SOL    HW225134   0.215   1.521  13.704  1.1404 -0.8275  1.3370
 4501SOL     OW25135   3.072   4.498   3.244  0.2706  0.2317 -0.4803
 4501SOL    HW125136   3.084   4.519   3.152 -2.2622 -1.8577 -1.2701
 4501SOL    HW225137   3.166   4.500   3.263  0.4036 -0.8264 -1.0543
 4502SOL     OW25138   0.048   3.275   1.959 -0.3863  0.1904 -0.1372
 4502SOL    HW125139   4.694   3.252   1.971 -0.3668 -0.2441 -0.8164
 4502SOL    HW225140   0.052   3.357   2.007  1.7234  0.2526 -0.4042
 4503SOL     OW25141   0.239   4.471   3.047 -0.3698 -0.3084  0.5693
 4503SOL    HW125142   0.264   4.534   3.114 -1.9345 -0.1924  1.0525
 4503SOL    HW225143   0.171   4.424   3.097  1.3237 -2.6643  0.6666
 4504SOL     OW25144   4.399   0.707  10.520  0.2062  0.1629  0.1189
 4504SOL    HW125145   4.469   0.712  10.585 -0.0305 -3.4345  0.6861
 4504SOL    HW225146   4.367   0.618  10.537  0.9012 -0.0004  0.5566
 4505SOL     OW25147   1.762   3.466   5.159 -0.0124 -0.2876  0.0335
 4505SOL    HW125148   1.772   3.552   5.118 -1.2352 -0.8521 -1.4465
 4505SOL    HW225149   1.844   3.462   5.209 -0.3881  2.2403  0.8282
 4506SOL     OW25150   2.395   4.314   9.419  0.2845  0.5004  0.2881
 4506SOL    HW125151   2.358   4.241   9.370  0.2951 -0.3397  1.5477
 4506SOL    HW225152   2.346   4.385   9.377  0.7909  2.0945  2.3854
 4507SOL     OW25153   2.947   0.841   4.760  0.1997 -0.5050  0.5738
 4507SOL    HW125154   2.914   0.841   4.670  1.2331  3.1441  0.1664
 4507SOL    HW225155   2.988   0.755   4.767 -1.6647 -1.3867  0.5997
 4508SOL     OW25156   2.532   2.301  15.414  0.0872  0.0351 -0.0522
 4508SOL    HW125157   2.589   2.228  15.437 -0.3637 -0.4635 -0.5213
 4508SOL    HW225158   2.509   2.283  15.323 -0.9862 -2.0212  0.6447
 4509SOL     OW25159   3.084   0.086   5.774  0.7875  0.3192 -0.5739
 4509SOL    HW125160   3.099   0.154   5.840 -0.2281 -0.1459  0.1410
 4509SOL    HW225161   3.164   0.034   5.780 -0.2366 -0.9905  2.2507
 4510SOL     OW25162   0.916   3.593   3.059 -0.1645  0.3950 -0.2548
 4510SOL    HW125163   0.964   3.646   3.123 -1.8218 -0.6906  1.8962
 4510SOL    HW225164   0.827   3.620   3.079 -0.3792  0.1429 -0.8974
 4511SOL     OW25165   3.987   0.534  11.819  0.0100 -0.1683  0.3700
 4511SOL    HW125166   4.003   0.476  11.744  0.5144  1.3871 -0.7216
 4511SOL    HW225167   3.923   0.484  11.870 -0.4491  1.2815  1.2232
 4512SOL     OW25168   2.131   2.467   8.027  0.2980 -0.2447  0.1679
 4512SOL    HW125169   2.153   2.556   8.001  3.9253 -1.7496 -1.8982
 4512SOL    HW225170   2.205   2.426   7.983 -0.9505 -2.9671  0.5794
 4513SOL     OW25171   1.629   0.073   1.757  0.6208 -0.6812  0.4897
 4513SOL    HW125172   1.613   4.723   1.723 -2.9820 -0.4272  1.5682
 4513SOL    HW225173   1.622   0.060   1.852  3.0699  1.9557  1.0106
 4514SOL     OW25174   2.912   4.695   3.860  0.1523 -0.1046 -0.6452
 4514SOL    HW125175   2.843   4.640   3.897  1.4764 -0.7012  0.9250
 4514SOL    HW225176   2.958   4.630   3.807 -0.2726 -0.3893 -0.6644
 4515SOL     OW25177   0.809   4.490   8.704 -0.0633  0.4834  0.8189
 4515SOL    HW125178   0.818   4.530   8.617 -1.8291  1.4280  1.0829
 4515SOL    HW225179   0.878   4.424   8.694 -1.9878 -1.1623 -1.5772
 4516SOL     OW25180   1.217   1.348  13.379 -0.1719 -0.3616  0.2885
 4516SOL    HW125181   1.181   1.413  13.440 -0.1880 -0.1928  0.1008
 4516SOL    HW225182   1.308   1.366  13.402 -0.4310  2.4484 -0.8793
 4517SOL     OW25183   1.655   1.989   3.736 -0.2795  0.0236 -0.4250
 4517SOL    HW125184   1.675   2.071   3.691 -0.3194  0.7745  0.9235
 4517SOL    HW225185   1.738   1.947   3.756  0.0921  0.2128 -1.5827
 4518SOL     OW25186   2.874   4.155   7.476 -0.0481 -0.0570 -0.0205
 4518SOL    HW125187   2.799   4.215   7.479  0.3964  0.4678  0.8099
 4518SOL    HW225188   2.840   4.079   7.523  0.4387 -1.5983 -2.1972
 4519SOL     OW25189   3.545   0.288   5.375  0.2086 -0.3297 -0.4483
 4519SOL    HW125190   3.545   0.256   5.465 -0.7639  1.2071  0.0928
 4519SOL    HW225191   3.461   0.335   5.371  0.6137  0.3954 -0.3682
 4520SOL     OW25192   4.584   4.281   6.996  0.4267  0.2944  0.1094
 4520SOL    HW125193   4.500   4.302   7.037  0.5610 -2.1375  1.6360
 4520SOL    HW225194   4.557   4.280   6.904 -1.0712  1.0685  0.5365
 4521SOL     OW25195   4.394   3.517   5.967  0.1318  0.6084  0.1808
 4521SOL    HW125196   4.432   3.553   5.886 -1.5961 -0.5825 -1.1432
 4521SOL    HW225197   4.316   3.474   5.934  0.8059 -0.5555  0.1026
 4522SOL     OW25198   4.509   1.700  16.470  0.1955 -0.3453 -0.3227
 4522SOL    HW125199   4.603   1.680  16.470  0.3380  0.3745  2.7424
 4522SOL    HW225200   4.513   1.772  16.407 -1.2786 -0.0348 -0.0569
 4523SOL     OW25201   4.146   3.477   5.883 -0.3557  0.3959  0.0189
 4523SOL    HW125202   4.126   3.554   5.936  1.3743  1.7193 -1.2454
 4523SOL    HW225203   4.071   3.421   5.902 -0.1253  0.6257  1.5422
 4524SOL     OW25204   3.118   4.008  14.004 -0.2614 -0.1104 -0.5362
 4524SOL    HW125205   3.121   3.916  13.978  1.5835  0.2886 -1.6822
 4524SOL    HW225206   3.053   4.001  14.074 -0.5089 -0.8580 -0.8290
 4525SOL     OW25207   3.195   4.245  13.024  0.0773  0.2535 -0.7054
 4525SOL    HW125208   3.175   4.200  13.106  1.4261 -0.7490 -0.9304
 4525SOL    HW225209   3.203   4.336  13.053 -0.2615 -0.3075  1.1497
 4526SOL     OW25210   1.199   0.426   6.296 -0.7595 -0.0267  0.0851
 4526SOL    HW125211   1.281   0.463   6.330 -1.2460  0.0865  1.1247
 4526SOL    HW225212   1.137   0.497   6.314 -1.7697 -0.5398 -1.2940
 4527SOL     OW25213   3.923   3.051   3.714 -0.7230  0.0984 -0.3574
 4527SOL    HW125214   3.871   3.102   3.652 -0.7928 -0.4584 -0.7517
 4527SOL    HW225215   3.918   3.106   3.793  1.9769  0.1325 -0.2161
 4528SOL     OW25216   4.718   2.744   4.125  0.4358  0.0574  0.1517
 4528SOL    HW125217   0.008   2.751   4.033  3.1689  0.5681  1.0435
 4528SOL    HW225218   0.028   2.810   4.173 -1.7107  1.1573  0.8069
 4529SOL     OW25219   3.176   1.075   1.990  0.4031  0.4532 -0.2080
 4529SOL    HW125220   3.162   1.119   1.906 -0.7952 -1.3880 -0.9656
 4529SOL    HW225221   3.219   0.996   1.958  1.5059  1.3996 -1.0391
 4530SOL     OW25222   0.158   1.253  17.479  0.3668 -0.0612 -0.5533
 4530SOL    HW125223   0.089   1.199  17.518  0.9036  1.6515  2.7481
 4530SOL    HW225224   0.178   1.304  17.557 -0.3454  1.9751 -1.6928
 4531SOL     OW25225   0.672   1.018   5.976  0.3631 -0.6969 -0.0524
 4531SOL    HW125226   0.704   1.070   5.903 -1.8819 -1.4232 -1.5473
 4531SOL    HW225227   0.672   1.081   6.047 -0.1648 -0.0604 -0.6227
 4532SOL     OW25228   1.526   1.181   8.695  0.5697  0.3328  0.0227
 4532SOL    HW125229   1.513   1.274   8.712  0.7106 -0.1362  2.6938
 4532SOL    HW225230   1.594   1.183   8.628  0.7626  0.9304  0.2331
 4533SOL     OW25231   1.436   1.864  14.534  0.4285  0.0225 -0.0182
 4533SOL    HW125232   1.434   1.807  14.458 -0.1093  0.3592 -0.2586
 4533SOL    HW225233   1.401   1.808  14.603 -1.8215 -0.0019 -1.1958
 4534SOL     OW25234   2.288   2.981   2.573 -0.3968 -0.5353  0.2827
 4534SOL    HW125235   2.364   3.039   2.570  1.3149 -2.8291 -0.3732
 4534SOL    HW225236   2.256   2.994   2.663  1.9578 -0.2599  1.0686
 4535SOL     OW25237   0.357   1.708   4.038  0.0906 -0.1100  0.8155
 4535SOL    HW125238   0.372   1.761   3.960 -2.1683 -2.2725 -1.1019
 4535SOL    HW225239   0.439   1.719   4.086  1.4117 -2.0336 -1.0261
 4536SOL     OW25240   3.542   0.809   8.893  0.3848  0.4952  0.2135
 4536SOL    HW125241   3.575   0.892   8.860  2.3371  0.5926  2.4230
 4536SOL    HW225242   3.537   0.824   8.987  1.3518 -3.0057  0.8542
 4537SOL     OW25243   1.742   0.765  12.409 -0.1299  0.0065  0.0500
 4537SOL    HW125244   1.789   0.698  12.360 -0.0307 -0.1286  0.3277
 4537SOL    HW225245   1.660   0.745  12.363  0.2218 -0.5024 -0.3473
 4538SOL     OW25246   3.532   1.709   1.921 -0.1636 -0.1062  0.0839
 4538SOL    HW125247   3.527   1.620   1.888 -0.0078 -0.5862  1.3731
 4538SOL    HW225248   3.626   1.717   1.931  0.4184 -1.8626 -4.3336
 4539SOL     OW25249   2.678   1.397   3.825  0.3570 -0.0646 -0.0230
 4539SOL    HW125250   2.660   1.438   3.910 -1.4202  0.0069 -0.4347
 4539SOL    HW225251   2.596   1.406   3.776 -0.0553  1.6491  0.9682
 4540SOL     OW25252   3.766   3.591   0.226  0.2285 -0.2038  0.3386
 4540SOL    HW125253   3.855   3.562   0.246  0.1974  0.3552  1.3189
 4540SOL    HW225254   3.732   3.525   0.166 -0.7706  1.6052 -1.0767
 4541SOL     OW25255   0.640   3.038   2.576  0.0606  0.0182  0.2058
 4541SOL    HW125256   0.678   3.126   2.587  2.1577 -0.7692 -0.9411
 4541SOL    HW225257   0.703   2.984   2.624  0.3211  2.0222  2.1382
 4542SOL     OW25258   1.450   0.861   7.032 -0.6409  0.0944  0.0320
 4542SOL    HW125259   1.466   0.813   6.952 -1.1247 -0.2329  0.1380
 4542SOL    HW225260   1.362   0.897   7.020 -0.0255  1.3922 -0.6631
 4543SOL     OW25261   1.343   1.489   7.238 -0.4077 -0.3261 -0.4580
 4543SOL    HW125262   1.301   1.569   7.205 -4.9210 -1.4838  2.5022
 4543SOL    HW225263   1.274   1.445   7.287  2.5931 -3.6877  0.7514
 4544SOL     OW25264   1.688   0.862  14.972 -0.5293  0.3712  0.1483
 4544SOL    HW125265   1.772   0.823  14.946  0.2101  1.2390  1.2962
 4544SOL    HW225266   1.655   0.810  15.045 -1.4813 -0.6168 -0.9592
 4545SOL     OW25267   2.966   0.798   1.690  0.4617  0.0820 -0.0728
 4545SOL    HW125268   2.904   0.799   1.617 -0.1378  1.6669  0.4511
 4545SOL    HW225269   3.025   0.873   1.680 -1.3484  1.5337  0.1238
 4546SOL     OW25270   4.222   3.075  14.107 -0.5889 -0.0741 -0.1355
 4546SOL    HW125271   4.250   3.157  14.065  0.6012  0.8351  2.4086
 4546SOL    HW225272   4.302   3.026  14.127 -0.6765 -0.3097 -0.3603
 4547SOL     OW25273   2.275   2.996   3.324  0.3961  0.8853 -0.4999
 4547SOL    HW125274   2.274   3.088   3.350 -0.8726 -0.1272  2.9947
 4547SOL    HW225275   2.358   2.994   3.276  0.7839  0.9841  0.1601
 4548SOL     OW25276   0.951   3.583   3.676  0.1347  0.1097 -0.4321
 4548SOL    HW125277   0.962   3.511   3.738  0.5231  1.8190  1.4599
 4548SOL    HW225278   1.040   3.619   3.680  0.0333  0.5571 -2.1560
 4549SOL     OW25279   0.761   3.477   7.562  0.0063 -0.0258 -0.5410
 4549SOL    HW125280   0.759   3.563   7.521  2.4669 -0.3557 -1.3085
 4549SOL    HW225281   0.702   3.477   7.637 -0.3006 -1.1984 -0.7791
 4550SOL     OW25282   4.509   1.663  16.898 -0.1824 -0.0795  0.0666
 4550SOL    HW125283   4.597   1.645  16.863 -0.7055  3.0550 -2.7686
 4550SOL    HW225284   4.534   1.688  16.987  1.3214 -2.7746  0.4170
 4551SOL     OW25285   3.053   0.570   1.587  0.4980 -0.2250  0.3644
 4551SOL    HW125286   3.015   0.643   1.637 -0.6060 -1.0535  0.7293
 4551SOL    HW225287   3.136   0.605   1.555  0.0056  0.9278  0.3435
 4552SOL     OW25288   3.306   2.991   8.227 -0.1717 -0.0786  0.1443
 4552SOL    HW125289   3.275   2.991   8.317 -1.2291 -0.3419 -0.2199
 4552SOL    HW225290   3.250   3.057   8.186 -0.4240  0.0234  0.6589
 4553SOL     OW25291   4.380   4.395   3.426  0.4900  0.7701  0.2687
 4553SOL    HW125292   4.436   4.341   3.370  0.3363  0.3330  0.5345
 4553SOL    HW225293   4.433   4.417   3.503  0.1707  1.0549  0.4034
 4554SOL     OW25294   0.302   0.238   6.547  0.4875 -0.4965  0.1082
 4554SOL    HW125295   0.351   0.262   6.625  0.2951 -2.6141  0.8884
 4554SOL    HW225296   0.218   0.272   6.580  0.1577  0.7306 -1.9918
 4555SOL     OW25297   2.912   3.156   3.791 -0.3373 -0.2960  0.7367
 4555SOL    HW125298   2.963   3.116   3.719  0.0312  0.7476  0.4177
 4555SOL    HW225299   2.923   3.080   3.849  1.0849  0.3631  1.3417
 4556SOL     OW25300   3.295   2.740   8.120  0.0397 -0.5179 -0.3890
 4556SOL    HW125301   3.227   2.772   8.061 -0.6403 -0.8019  0.2414
 4556SOL    HW225302   3.303   2.815   8.180  2.7311 -1.6889  0.7361
 4557SOL     OW25303   4.374   2.291   6.545 -0.3097 -0.1878 -0.0850
 4557SOL    HW125304   4.454   2.317   6.591  0.4878  1.3987 -2.4196
 4557SOL    HW225305   4.409   2.211   6.506 -1.6350 -0.3625 -0.9265
 4558SOL     OW25306   4.233   0.770   6.503  0.3254 -0.0142  0.4755
 4558SOL    HW125307   4.267   0.843   6.554 -1.1861  0.2750  1.0709
 4558SOL    HW225308   4.226   0.814   6.419  0.4502  0.1850  0.5680
 4559SOL     OW25309   2.483   3.544  16.357 -0.4433 -0.4945 -0.0068
 4559SOL    HW125310   2.424   3.481  16.315  0.1310 -1.4414  0.6158
 4559SOL    HW225311   2.527   3.490  16.423  1.7564  1.0432 -0.2031
 4560SOL     OW25312   0.239   1.226  15.082  0.5224  0.3536 -0.1405
 4560SOL    HW125313   0.153   1.268  15.091  0.0243 -0.7415  0.1032
 4560SOL    HW225314   0.239   1.166  15.156 -0.8018  1.5303  0.8232
 4561SOL     OW25315   1.172   1.043  15.658  0.1419  0.0323  0.7052
 4561SOL    HW125316   1.090   1.080  15.691  0.1452 -0.8303  1.6754
 4561SOL    HW225317   1.144   0.958  15.624  1.5223 -0.2081  0.2040
 4562SOL     OW25318   1.777   0.021   2.314  0.0919 -0.2924  0.3678
 4562SOL    HW125319   1.849   0.079   2.340 -1.9838  1.4177  2.2957
 4562SOL    HW225320   1.793   4.680   2.366  1.1231  0.7304  1.6261
 4563SOL     OW25321   1.758   1.812   4.678 -0.0096 -0.0326  0.0072
 4563SOL    HW125322   1.696   1.818   4.604 -1.1269  2.2606  1.1058
 4563SOL    HW225323   1.758   1.716   4.681  4.7440  0.1030  2.8326
 4564SOL     OW25324   0.235   3.554   4.803  0.6641  0.2243  0.0715
 4564SOL    HW125325   0.226   3.610   4.725  0.6962  0.1843  0.0387
 4564SOL    HW225326   0.151   3.511   4.814  1.2007 -0.6369  0.7932
 4565SOL     OW25327   2.423   1.544  11.473  0.2397 -0.2796 -0.4368
 4565SOL    HW125328   2.445   1.467  11.525  1.6583  0.6015  0.2717
 4565SOL    HW225329   2.388   1.499  11.396  0.8621 -1.2722 -0.1422
 4566SOL     OW25330   1.415   2.795   4.767  0.5724 -0.1953 -0.0529
 4566SOL    HW125331   1.464   2.753   4.696  2.0087  1.0512  0.2045
 4566SOL    HW225332   1.331   2.752   4.752  0.4163  0.0167  0.2248
 4567SOL     OW25333   3.829   2.711  13.386  0.2275 -0.0246 -0.3823
 4567SOL    HW125334   3.872   2.729  13.302  0.7476 -0.0389 -0.1158
 4567SOL    HW225335   3.771   2.787  13.395  0.6762  0.5593 -2.3178
 4568SOL     OW25336   1.635   2.548   6.209 -0.3498 -0.0482  0.0105
 4568SOL    HW125337   1.618   2.477   6.148 -0.1900 -0.9764  1.0459
 4568SOL    HW225338   1.721   2.580   6.182 -0.8293  1.5150  0.3005
 4569SOL     OW25339   3.983   3.609   8.025 -0.8642  0.1316 -0.5038
 4569SOL    HW125340   4.053   3.642   7.969 -0.8404  1.2857  0.2145
 4569SOL    HW225341   3.912   3.663   7.989  0.5361  1.7752 -0.8251
 4570SOL     OW25342   3.438   1.662   8.156 -0.4781 -0.1954  0.5481
 4570SOL    HW125343   3.499   1.630   8.223 -2.2150 -1.0557  1.7205
 4570SOL    HW225344   3.439   1.583   8.103 -1.2438  0.8476 -1.0069
 4571SOL     OW25345   3.153   0.718   4.416 -0.4873  0.2156 -0.3613
 4571SOL    HW125346   3.155   0.809   4.448 -1.7559  0.6104 -1.3944
 4571SOL    HW225347   3.242   0.719   4.381 -0.0427 -0.7564  0.7460
 4572SOL     OW25348   1.363   3.776   5.218 -0.2114  0.5924  0.0783
 4572SOL    HW125349   1.280   3.734   5.194  0.4546 -0.2341 -0.7659
 4572SOL    HW225350   1.330   3.866   5.222 -1.5839  0.2124 -2.0658
 4573SOL     OW25351   3.208   3.612   2.727  0.8232 -0.2035 -0.2434
 4573SOL    HW125352   3.113   3.613   2.740  0.8430 -0.0916 -0.0982
 4573SOL    HW225353   3.229   3.705   2.737 -1.6477  0.2106  1.1891
 4574SOL     OW25354   2.773   2.606   9.685  0.3648 -0.1476 -0.3906
 4574SOL    HW125355   2.739   2.588   9.597  0.9268  1.0773 -0.8480
 4574SOL    HW225356   2.804   2.522   9.719 -1.4919 -0.7710 -0.2356
 4575SOL     OW25357   4.436   2.973   6.188  0.2065 -0.5646 -0.3266
 4575SOL    HW125358   4.392   3.012   6.264  1.2328  1.0610 -0.5784
 4575SOL    HW225359   4.398   3.015   6.111  1.3968 -2.8908 -2.1482
 4576SOL     OW25360   0.782   3.049  17.724  0.2397 -0.4246  0.8343
 4576SOL    HW125361   0.703   3.072  17.675  1.6824 -1.1100 -1.7848
 4576SOL    HW225362   0.763   2.956  17.735 -2.4069  0.1118  0.6865
 4577SOL     OW25363   3.195   4.430   8.472  0.5204  0.9726 -0.2039
 4577SOL    HW125364   3.259   4.425   8.543 -0.4263  1.9540  0.7112
 4577SOL    HW225365   3.119   4.450   8.526 -0.3952  0.5170 -1.3130
 4578SOL     OW25366   0.951   0.837   7.370 -0.4573 -0.0518 -0.4412
 4578SOL    HW125367   0.969   0.794   7.453 -4.0860 -0.1090  0.3149
 4578SOL    HW225368   0.856   0.849   7.369 -0.2947  1.1480 -2.1285
 4579SOL     OW25369   4.301   2.636   3.413  0.1731 -0.2853 -0.0457
 4579SOL    HW125370   4.257   2.654   3.330  0.0687 -1.6959 -0.2958
 4579SOL    HW225371   4.224   2.631   3.470 -0.2169 -0.8999 -0.6236
 4580SOL     OW25372   3.239   0.907  11.843 -0.2493  0.3375  0.0217
 4580SOL    HW125373   3.288   0.917  11.762 -0.1643  0.8533  0.1384
 4580SOL    HW225374   3.185   0.986  11.844 -1.0596 -0.1664 -2.6810
 4581SOL     OW25375   1.844   1.968   9.853 -0.4616 -0.4054 -0.0050
 4581SOL    HW125376   1.808   1.879   9.856  0.7881 -0.9595 -1.1724
 4581SOL    HW225377   1.927   1.946   9.811  1.0819 -0.3327  3.0779
 4582SOL     OW25378   3.715   3.023  16.808 -0.3824 -0.5006  0.7004
 4582SOL    HW125379   3.656   3.093  16.833  0.5891  0.7970 -0.6678
 4582SOL    HW225380   3.787   3.065  16.761  1.1738 -1.6455  2.0089
 4583SOL     OW25381   2.301   3.501   1.668 -0.2340  0.1142  0.3017
 4583SOL    HW125382   2.359   3.553   1.611  0.5358  0.5714  1.5040
 4583SOL    HW225383   2.359   3.425   1.675 -1.8081 -1.2270 -1.3263
 4584SOL     OW25384   0.653   0.013   0.976  0.5051 -0.4490 -0.1099
 4584SOL    HW125385   0.584   0.051   0.922 -1.3843 -2.4509  0.8729
 4584SOL    HW225386   0.712   0.088   0.973 -0.6038  0.3995 -0.7568
 4585SOL     OW25387   2.040   3.781   0.373 -0.0397 -0.1316  0.0381
 4585SOL    HW125388   2.024   3.687   0.365 -1.6580  0.0908  0.6426
 4585SOL    HW225389   2.022   3.825   0.290 -0.6251  0.6697  0.5918
 4586SOL     OW25390   2.034   3.591   8.210  0.2742 -0.4810 -0.2074
 4586SOL    HW125391   1.971   3.520   8.225  0.0433 -0.4712 -1.1216
 4586SOL    HW225392   2.084   3.592   8.291  1.3543  0.0875 -0.8844
 4587SOL     OW25393   3.532   4.580   5.313 -0.3345 -0.2017  0.1999
 4587SOL    HW125394   3.488   4.544   5.389  0.8169 -0.0447  0.9408
 4587SOL    HW225395   3.614   4.621   5.340  1.9432 -3.4807 -1.7009
 4588SOL     OW25396   2.281   4.392   8.514  0.1252 -0.5004  1.5141
 4588SOL    HW125397   2.316   4.304   8.526  0.6812 -0.8137 -2.3028
 4588SOL    HW225398   2.262   4.416   8.605 -0.5392 -0.2801  1.3141
 4589SOL     OW25399   0.086   4.036   3.112 -0.1184  0.1252 -0.6416
 4589SOL    HW125400   0.097   3.940   3.110 -0.6191  0.0805 -1.1339
 4589SOL    HW225401   0.010   4.043   3.168 -0.7465  0.6412 -1.5533
 4590SOL     OW25402   1.288   1.143   6.780 -0.3044 -0.2050  0.3855
 4590SOL    HW125403   1.261   1.127   6.690  0.4498 -0.4835  0.2104
 4590SOL    HW225404   1.372   1.184   6.760 -0.9279  0.5006 -0.7669
 4591SOL     OW25405   3.862   2.631  14.808  0.5352 -0.0592  0.2191
 4591SOL    HW125406   3.855   2.724  14.784  0.9409  0.2856  1.4672
 4591SOL    HW225407   3.882   2.599  14.719 -2.1883 -1.0918 -0.0142
 4592SOL     OW25408   4.468   1.962   9.651  0.2951  0.3924 -0.1533
 4592SOL    HW125409   4.457   1.937   9.743 -1.4160 -2.9345 -1.2613
 4592SOL    HW225410   4.561   1.982   9.661  0.5002 -0.3698 -0.5547
 4593SOL     OW25411   4.106   3.980  14.186  0.3883 -0.2424 -0.0574
 4593SOL    HW125412   4.181   4.016  14.139  0.3067 -1.0684 -0.8161
 4593SOL    HW225413   4.033   3.997  14.127 -2.1787 -0.6058  2.9935
 4594SOL     OW25414   2.461   2.246  13.223  0.3054 -0.5416  0.2115
 4594SOL    HW125415   2.411   2.197  13.288  1.1065 -0.9490  0.5123
 4594SOL    HW225416   2.540   2.192  13.220  0.0275 -0.8298 -1.8280
 4595SOL     OW25417   3.966   3.398   4.173 -0.6924 -0.0595  0.2636
 4595SOL    HW125418   3.893   3.342   4.200  0.7721 -1.8895  0.4239
 4595SOL    HW225419   3.958   3.481   4.220  1.9409  1.0572 -1.3063
 4596SOL     OW25420   4.592   0.609  10.707 -0.7893  0.5320  0.4460
 4596SOL    HW125421   4.562   0.561  10.784 -1.0241 -0.8630 -0.5251
 4596SOL    HW225422   4.686   0.600  10.716 -0.3608  3.2249 -1.1511
 4597SOL     OW25423   2.650   1.087   5.563 -0.3458 -0.6070  0.7329
 4597SOL    HW125424   2.581   1.073   5.498 -1.3527 -1.0902  1.9063
 4597SOL    HW225425   2.711   1.017   5.539 -0.4010 -1.1594  2.2036
 4598SOL     OW25426   1.757   4.607   4.801  0.2697 -0.6278 -0.0259
 4598SOL    HW125427   1.792   4.615   4.713  2.1192 -3.8215  0.4358
 4598SOL    HW225428   1.831   4.559   4.838 -0.2181 -1.4362 -0.0842
 4599SOL     OW25429   0.971   2.469  11.768  0.0361 -0.3581 -0.2198
 4599SOL    HW125430   1.047   2.524  11.786  1.0579 -1.6880 -0.4442
 4599SOL    HW225431   0.963   2.411  11.844  2.0661 -3.0276 -2.0504
 4600SOL     OW25432   1.300   3.488   8.117  0.4834  0.0599  0.5448
 4600SOL    HW125433   1.286   3.496   8.023 -2.0380  0.8172  0.9981
 4600SOL    HW225434   1.360   3.561   8.132  2.6763 -0.9815 -3.0244
 4601SOL     OW25435   2.710   3.604  13.750 -0.2952 -0.9015 -0.5247
 4601SOL    HW125436   2.708   3.509  13.734 -1.5206 -1.1183  0.9135
 4601SOL    HW225437   2.615   3.608  13.763 -0.4201  1.9427 -2.3124
 4602SOL     OW25438   3.797   3.776  17.591 -0.2041 -0.4758  0.2923
 4602SOL    HW125439   3.837   3.692  17.615  1.9723  0.5668  0.2915
 4602SOL    HW225440   3.860   3.808  17.526 -1.1227 -0.8802 -0.8050
 4603SOL     OW25441   0.728   2.079   5.450  0.1963 -0.3538  0.0468
 4603SOL    HW125442   0.796   2.078   5.382  0.6644 -0.1089  0.5149
 4603SOL    HW225443   0.722   2.172   5.471  0.5592 -0.4224  0.4499
 4604SOL     OW25444   4.268   1.229   3.122 -0.0934 -0.2913 -0.3026
 4604SOL    HW125445   4.348   1.282   3.117 -0.0115 -0.4423 -0.6153
 4604SOL    HW225446   4.295   1.177   3.198  0.7717 -0.3170 -0.6282
 4605SOL     OW25447   1.813   0.346   2.441  0.2031 -0.3322  0.1127
 4605SOL    HW125448   1.879   0.277   2.441  0.7330  0.1658 -0.8058
 4605SOL    HW225449   1.758   0.315   2.512 -0.6574 -0.0520 -0.4295
 4606SOL     OW25450   4.026   2.250   4.248  0.3622  0.0566  0.0220
 4606SOL    HW125451   4.062   2.284   4.330  0.1625 -0.0095  0.1360
 4606SOL    HW225452   4.025   2.158   4.274 -0.8574 -0.9589 -3.5812
 4607SOL     OW25453   1.205   2.437   5.935  0.2260 -0.3851 -0.0376
 4607SOL    HW125454   1.113   2.420   5.958  0.0894  0.1581 -0.1768
 4607SOL    HW225455   1.205   2.508   5.872 -0.1071  0.2467  0.6650
 4608SOL     OW25456   1.664   3.210  11.732  0.3672 -0.0296  0.2621
 4608SOL    HW125457   1.686   3.223  11.824 -2.7221 -0.8440  1.0883
 4608SOL    HW225458   1.750   3.198  11.691 -0.4213  0.4875 -1.5399
 4609SOL     OW25459   1.705   4.054   7.880  0.0217 -0.1037 -0.0506
 4609SOL    HW125460   1.799   4.071   7.889 -0.1132  1.3312 -1.2291
 4609SOL    HW225461   1.682   4.069   7.788 -0.1656  0.2514  0.0567
 4610SOL     OW25462   0.444   1.538   8.381  0.1558 -0.0516 -0.1010
 4610SOL    HW125463   0.453   1.443   8.381  3.6004  0.2823  1.3007
 4610SOL    HW225464   0.518   1.562   8.436 -1.6652 -0.3415  2.4803
 4611SOL     OW25465   0.564   3.712  14.303 -0.0919  0.5619  0.2953
 4611SOL    HW125466   0.633   3.646  14.294 -0.9253 -0.5536  2.2780
 4611SOL    HW225467   0.512   3.681  14.229 -1.1224  0.0895  1.2193
 4612SOL     OW25468   1.404   3.015   5.172  0.9289  0.4717 -0.2456
 4612SOL    HW125469   1.490   2.996   5.208  1.2804  0.4412 -1.1039
 4612SOL    HW225470   1.437   3.026   5.083  0.0475 -0.5478 -0.7031
 4613SOL     OW25471   1.899   2.376   6.553 -0.3006  0.2818 -0.3376
 4613SOL    HW125472   1.895   2.469   6.575 -0.0672 -0.2778  2.0561
 4613SOL    HW225473   1.838   2.345   6.620 -1.1128  1.3061 -0.6042
 4614SOL     OW25474   4.089   2.695  12.503  0.0705 -0.2599 -0.2022
 4614SOL    HW125475   4.147   2.723  12.431  0.4222 -2.5707 -0.8002
 4614SOL    HW225476   4.062   2.776  12.546 -0.8753  0.0587 -1.3923
 4615SOL     OW25477   3.658   3.498   2.177  0.0973  0.0915  0.0485
 4615SOL    HW125478   3.746   3.472   2.149 -0.1069 -0.0858 -0.4245
 4615SOL    HW225479   3.603   3.434   2.132 -0.0741  1.4991 -1.7294
 4616SOL     OW25480   1.856   0.551   2.683 -0.1580  0.4584 -0.0913
 4616SOL    HW125481   1.895   0.605   2.614 -1.2744 -0.1538 -1.1930
 4616SOL    HW225482   1.800   0.486   2.641  0.7594 -0.9750  0.9375
 4617SOL     OW25483   0.357   3.984   4.510  1.0679 -0.2537  0.2661
 4617SOL    HW125484   0.318   4.038   4.580 -2.6613 -2.3037 -0.2104
 4617SOL    HW225485   0.371   4.041   4.435 -0.0952 -1.3829 -0.8023
 4618SOL     OW25486   4.585   2.799   9.942 -0.1050 -0.0736  0.1357
 4618SOL    HW125487   4.612   2.812   9.851  2.2792 -1.3589  0.6626
 4618SOL    HW225488   4.517   2.731   9.943 -0.2259  0.0377 -0.6097
 4619SOL     OW25489   0.006   1.350  13.244  0.4536  0.4579 -0.0526
 4619SOL    HW125490   0.082   1.317  13.195  1.6369  0.1642  1.9810
 4619SOL    HW225491   0.002   1.275  13.303  0.1924 -1.0225 -1.9404
 4620SOL     OW25492   4.462   3.764  10.809 -0.1125  0.1547 -0.1717
 4620SOL    HW125493   4.492   3.780  10.899  0.3480 -1.6110 -0.0117
 4620SOL    HW225494   4.459   3.851  10.768  1.7399  0.2662 -0.0832
 4621SOL     OW25495   3.181   2.525   4.723  0.0970  0.2851 -0.2786
 4621SOL    HW125496   3.127   2.604   4.727 -2.1873 -1.1757 -2.5121
 4621SOL    HW225497   3.117   2.458   4.744 -0.5766  0.0857 -2.9884
 4622SOL     OW25498   3.404   2.012   3.694 -0.5331 -0.3818 -0.1819
 4622SOL    HW125499   3.453   1.930   3.705 -0.1719 -0.0879  0.3648
 4622SOL    HW225500   3.333   1.998   3.756  0.0025 -0.8728  0.3126
 4623SOL     OW25501   0.137   3.315   4.543  0.4436 -0.4490  0.3278
 4623SOL    HW125502   0.198   3.329   4.471  0.3079 -0.7108  0.1608
 4623SOL    HW225503   0.052   3.335   4.502  0.9168  0.1638 -0.3506
 4624SOL     OW25504   2.037   2.483  11.802  0.6167 -0.4293 -0.6650
 4624SOL    HW125505   2.089   2.509  11.878  0.1784  2.6831 -1.4426
 4624SOL    HW225506   2.039   2.390  11.827 -0.1393 -0.4346 -0.6176
 4625SOL     OW25507   4.389   1.425  14.516  0.1035  0.3105 -0.1801
 4625SOL    HW125508   4.392   1.490  14.586 -3.9221  1.1164 -0.7409
 4625SOL    HW225509   4.482   1.412  14.497  0.0543  1.4809 -1.2083
 4626SOL     OW25510   3.882   1.398  16.781  0.0957 -0.4694 -0.3574
 4626SOL    HW125511   3.795   1.425  16.751  0.3694  1.0544  0.2378
 4626SOL    HW225512   3.930   1.481  16.777 -1.7180  0.6999  2.4020
 4627SOL     OW25513   2.579   0.438   2.174  0.4859  0.0916  0.0920
 4627SOL    HW125514   2.495   0.425   2.130  1.0906 -1.0784 -0.7470
 4627SOL    HW225515   2.621   0.512   2.132  0.7872  0.0465  0.3164
 4628SOL     OW25516   0.146   1.906   9.126  0.2181  0.6119  0.1785
 4628SOL    HW125517   0.101   1.989   9.136 -1.4696 -0.2678 -0.0980
 4628SOL    HW225518   0.129   1.858   9.207 -0.3008 -1.0356 -0.8965
 4629SOL     OW25519   1.597   4.512  14.904 -0.7960 -0.1073 -0.5107
 4629SOL    HW125520   1.603   4.605  14.885  4.8510 -0.5869 -0.9093
 4629SOL    HW225521   1.686   4.485  14.881 -0.8800 -1.1217  0.3323
 4630SOL     OW25522   3.726   3.597   6.915 -0.3572 -0.4438  0.5675
 4630SOL    HW125523   3.692   3.507   6.908 -1.3761  0.0782 -1.0117
 4630SOL    HW225524   3.815   3.590   6.951 -0.0665  1.0291  0.1231
 4631SOL     OW25525   1.404   0.745   5.060  0.1341 -0.3451  0.4493
 4631SOL    HW125526   1.446   0.742   4.974 -0.9294 -1.0248 -0.0374
 4631SOL    HW225527   1.425   0.661   5.101 -1.8259  0.4292  3.0364
 4632SOL     OW25528   4.218   0.457   8.069 -0.7297 -0.1888 -0.4927
 4632SOL    HW125529   4.146   0.471   8.008 -0.3693 -1.1057 -1.1351
 4632SOL    HW225530   4.182   0.496   8.148  2.6852  1.0756  0.4435
 4633SOL     OW25531   2.919   1.201   0.218  0.4812 -0.7142 -0.4672
 4633SOL    HW125532   2.863   1.179   0.144  2.0936  2.4161 -2.5921
 4633SOL    HW225533   2.880   1.282   0.250  1.4618 -1.6147  3.1060
 4634SOL     OW25534   2.245   4.534   1.150  0.0425 -0.1948 -0.1784
 4634SOL    HW125535   2.184   4.551   1.222 -0.2498  0.6189 -0.6132
 4634SOL    HW225536   2.278   4.453   1.189  0.2175  0.5139  1.1282
 4635SOL     OW25537   0.571   4.344   6.621  0.0215 -0.3254 -0.1874
 4635SOL    HW125538   0.504   4.375   6.560 -0.3676 -0.2290  0.2934
 4635SOL    HW225539   0.541   4.380   6.704 -0.3541  1.6191 -1.1642
 4636SOL     OW25540   2.969   0.012   1.794 -0.4789  0.1259 -0.4101
 4636SOL    HW125541   3.043   0.025   1.853 -0.9003 -0.9418  0.3459
 4636SOL    HW225542   2.989   4.710   1.709  1.1597 -2.3269  1.1758
 4637SOL     OW25543   2.625   4.308   3.222 -0.2333 -0.3166  0.0113
 4637SOL    HW125544   2.559   4.332   3.287  0.2686  0.5651  0.1916
 4637SOL    HW225545   2.678   4.387   3.222  0.5322 -0.8177  0.8140
 4638SOL     OW25546   3.437   1.964   0.424  0.6896 -0.0147 -1.1788
 4638SOL    HW125547   3.506   1.908   0.460  0.2981  0.3355  0.0953
 4638SOL    HW225548   3.396   1.909   0.357  0.2791  0.3037 -1.1877
 4639SOL     OW25549   3.921   1.548   2.587 -0.0436  0.2076  0.1466
 4639SOL    HW125550   4.015   1.529   2.592  0.0819  1.1245  1.3830
 4639SOL    HW225551   3.934   1.632   2.541  2.8173  0.4266  1.3447
 4640SOL     OW25552   0.047   1.677   1.844  0.2011  0.2286 -0.3104
 4640SOL    HW125553   4.707   1.724   1.872 -0.1877 -0.0014 -1.0276
 4640SOL    HW225554   0.006   1.604   1.798  0.1169  0.9910 -1.4556
 4641SOL     OW25555   4.224   4.660   6.353 -0.1996 -0.6326 -0.0660
 4641SOL    HW125556   4.277   4.644   6.431 -0.1073 -0.9808 -0.1973
 4641SOL    HW225557   4.287   4.703   6.294  0.8020 -0.7064  0.9521
 4642SOL     OW25558   1.008   3.641   8.152  0.1093  0.0389  0.1315
 4642SOL    HW125559   1.006   3.676   8.063  0.2605 -0.8479 -0.2225
 4642SOL    HW225560   1.103   3.648   8.163  0.0829  0.5469  0.0377
 4643SOL     OW25561   4.132   4.317   5.243 -0.4455 -0.4472  0.5300
 4643SOL    HW125562   4.218   4.275   5.244 -0.4270 -0.4697 -1.9998
 4643SOL    HW225563   4.083   4.261   5.183  0.2492  0.7596 -1.1644
 4644SOL     OW25564   0.273   2.543  16.881  0.0234  0.6010 -1.0767
 4644SOL    HW125565   0.333   2.489  16.933 -2.1641  0.6599  1.5266
 4644SOL    HW225566   0.326   2.620  16.862 -0.8501  1.6115  0.4941
 4645SOL     OW25567   0.344   2.878   2.899  0.4390 -0.3437 -0.0374
 4645SOL    HW125568   0.357   2.946   2.833  1.3865 -0.8986 -0.4230
 4645SOL    HW225569   0.334   2.931   2.978  0.8868 -0.8517  0.3526
 4646SOL     OW25570   2.373   3.611   7.939 -0.1794  0.1010 -0.0092
 4646SOL    HW125571   2.437   3.677   7.914  0.4774 -0.5017  0.0796
 4646SOL    HW225572   2.403   3.579   8.024  1.2569  0.0670 -0.5296
 4647SOL     OW25573   0.966   3.651   9.821 -0.2784 -0.0574 -0.2388
 4647SOL    HW125574   0.982   3.745   9.823 -0.0144 -0.1142  0.4720
 4647SOL    HW225575   1.057   3.629   9.800  0.2985  0.7184  1.3758
 4648SOL     OW25576   3.798   4.627   6.872  0.0580 -0.1774  0.1883
 4648SOL    HW125577   3.765   4.651   6.959 -1.2677  0.7660 -0.5691
 4648SOL    HW225578   3.711   4.619   6.833  0.2968 -0.9650 -0.1759
 4649SOL     OW25579   2.002   2.263   2.683  0.8358 -0.2302  0.0603
 4649SOL    HW125580   1.995   2.358   2.675  0.0726 -0.3348 -0.5477
 4649SOL    HW225581   1.911   2.240   2.661  1.2987 -1.7080 -0.3307
 4650SOL     OW25582   4.360   1.383   2.466  0.5541  0.1380 -0.5415
 4650SOL    HW125583   4.317   1.298   2.479  0.3603  0.6070  2.0341
 4650SOL    HW225584   4.453   1.373   2.488 -0.1861  0.1287  2.7061
 4651SOL     OW25585   2.390   1.696   3.267 -0.3361 -0.1155 -0.6034
 4651SOL    HW125586   2.348   1.724   3.186  0.1442  0.9517 -0.4735
 4651SOL    HW225587   2.466   1.649   3.233 -0.1998  0.8083 -1.5686
 4652SOL     OW25588   3.540   2.862   2.719 -0.0613  0.0719  0.6494
 4652SOL    HW125589   3.541   2.955   2.697 -1.3452  0.2019  1.1190
 4652SOL    HW225590   3.594   2.828   2.648 -1.6250  0.2254 -0.6171
 4653SOL     OW25591   4.667   2.940   1.724 -0.4480  0.3869 -0.0155
 4653SOL    HW125592   4.637   3.016   1.675 -1.5926  0.1408  0.3151
 4653SOL    HW225593   0.022   2.957   1.716 -0.4926  0.9136  0.5912
 4654SOL     OW25594   1.591   2.325  10.282 -0.2048 -0.0398 -0.4662
 4654SOL    HW125595   1.537   2.403  10.271  0.2049  0.1268 -1.2820
 4654SOL    HW225596   1.516   2.266  10.275  0.7402 -0.9734 -2.5938
 4655SOL     OW25597   1.585   0.083   8.236 -0.4007  0.2172 -0.2845
 4655SOL    HW125598   1.641   0.006   8.245 -3.2631 -1.9623 -1.1770
 4655SOL    HW225599   1.507   0.056   8.285 -1.1747  1.9550 -0.5401
 4656SOL     OW25600   0.235   3.094   5.414  0.0263  0.1126 -0.5463
 4656SOL    HW125601   0.275   3.160   5.472  0.2844  0.3370 -0.9825
 4656SOL    HW225602   0.174   3.071   5.484  0.1668  2.1632  0.2649
 4657SOL     OW25603   2.065   4.698   5.544  0.5966  0.3036  0.6210
 4657SOL    HW125604   1.974   4.670   5.555  0.8308 -1.5483 -1.9878
 4657SOL    HW225605   2.067   4.705   5.448 -0.1027  0.2959  0.6030
 4658SOL     OW25606   1.542   2.812   3.905 -0.1780 -0.1816 -0.1298
 4658SOL    HW125607   1.602   2.845   3.971 -0.2255 -3.0880  1.3546
 4658SOL    HW225608   1.598   2.807   3.827  1.0409 -1.1302  0.8149
 4659SOL     OW25609   1.496   4.162   2.862 -0.4198  0.6136 -0.3251
 4659SOL    HW125610   1.466   4.253   2.854  1.9604  1.4034 -0.1634
 4659SOL    HW225611   1.415   4.112   2.851 -0.5688  1.3742 -2.7402
 4660SOL     OW25612   2.653   1.879   2.390  0.6802  0.2367  0.4298
 4660SOL    HW125613   2.703   1.807   2.429 -0.0476 -0.7625 -0.4958
 4660SOL    HW225614   2.604   1.830   2.324  1.9187 -1.2267  0.5789
 4661SOL     OW25615   2.210   0.586   8.847 -0.7259 -1.0430  0.3009
 4661SOL    HW125616   2.258   0.541   8.916  2.5205 -0.4105 -1.5312
 4661SOL    HW225617   2.122   0.549   8.857  0.2877 -3.4866  0.1087
 4662SOL     OW25618   0.987   3.142   3.414 -0.4275 -0.1774 -0.0401
 4662SOL    HW125619   1.076   3.137   3.451 -1.0755  2.7258  1.8972
 4662SOL    HW225620   0.955   3.056   3.440 -1.0222  0.0841  0.0885
 4663SOL     OW25621   0.164   1.643   0.669 -0.4297 -0.3709  0.0743
 4663SOL    HW125622   0.164   1.662   0.575 -1.3830 -0.5189  0.0506
 4663SOL    HW225623   0.139   1.551   0.672  0.6323 -0.6178  1.4436
 4664SOL     OW25624   2.084   2.644   1.010  0.1262 -0.4740  0.2272
 4664SOL    HW125625   2.133   2.611   1.086  0.7298  0.8623  0.4348
 4664SOL    HW225626   1.996   2.660   1.044  0.4299  1.6281  0.0144
 4665SOL     OW25627   2.543   1.809  14.185 -0.6456  0.6291 -0.3535
 4665SOL    HW125628   2.529   1.724  14.226 -0.5973  0.0720 -1.5111
 4665SOL    HW225629   2.459   1.846  14.212  0.2296  0.4605  2.6205
 4666SOL     OW25630   3.496   4.693   2.592 -0.1900  0.3571  0.1214
 4666SOL    HW125631   3.484   0.011   2.516  1.5700 -1.1120 -1.2654
 4666SOL    HW225632   3.580   4.726   2.625 -0.2641  0.8737 -0.2059
 4667SOL     OW25633   2.909   4.244   3.787  0.0362 -0.2640 -0.5153
 4667SOL    HW125634   2.914   4.339   3.791 -2.8556 -0.1074 -1.2026
 4667SOL    HW225635   2.816   4.226   3.798 -0.3417  1.1357 -1.4612
 4668SOL     OW25636   4.694   1.116   5.679  0.3312 -0.1778 -0.2321
 4668SOL    HW125637   4.641   1.113   5.600 -0.6637  0.9145  0.4004
 4668SOL    HW225638   4.680   1.199   5.723 -0.9304 -0.3653 -0.2831
 4669SOL     OW25639   0.084   2.831   7.763 -0.0210  0.2199  0.1658
 4669SOL    HW125640   0.125   2.749   7.737 -2.3316 -1.6032  2.3565
 4669SOL    HW225641   0.079   2.880   7.680  0.2411 -1.5263 -0.8759
 4670SOL     OW25642   0.699   0.942   0.940  0.2210 -0.6137  0.3332
 4670SOL    HW125643   0.634   0.923   0.872  0.5885  2.5084 -0.9207
 4670SOL    HW225644   0.649   0.915   1.017  0.3635 -2.8297 -0.3481
 4671SOL     OW25645   0.424   0.416  10.056 -0.0605  0.0859 -0.3771
 4671SOL    HW125646   0.436   0.338  10.003  1.2666  1.2182 -1.7766
 4671SOL    HW225647   0.331   0.435  10.047 -0.2925 -0.1464  1.6108
 4672SOL     OW25648   3.439   2.595   8.502  0.1721  0.1068  0.4143
 4672SOL    HW125649   3.346   2.603   8.481  0.7088  1.4755 -1.4034
 4672SOL    HW225650   3.435   2.514   8.553  1.9322 -0.1366  0.1701
 4673SOL     OW25651   0.476   1.482   3.395 -0.1752 -0.0789  0.3509
 4673SOL    HW125652   0.432   1.505   3.313 -1.7607 -3.6809  0.2152
 4673SOL    HW225653   0.566   1.506   3.371  0.6878 -1.9359  1.7386
 4674SOL     OW25654   4.483   1.684   8.551 -0.5251 -0.0824  0.1098
 4674SOL    HW125655   4.509   1.624   8.481  0.1118 -0.2275  0.4711
 4674SOL    HW225656   4.394   1.653   8.570 -0.6929 -0.3119 -1.0403
 4675SOL     OW25657   0.204   4.426   7.888  0.5786 -0.2532  0.3212
 4675SOL    HW125658   0.204   4.454   7.796 -1.3250  0.5058  0.5598
 4675SOL    HW225659   0.236   4.511   7.919  1.9899 -1.1983  1.4322
 4676SOL     OW25660   0.456   3.119  11.731  0.3377 -0.0824  0.0960
 4676SOL    HW125661   0.536   3.171  11.718  1.0566 -1.1823  0.1672
 4676SOL    HW225662   0.478   3.053  11.796  0.2096 -2.8855 -2.7082
 4677SOL     OW25663   0.739   2.114   6.797 -0.6200  0.5495 -0.4407
 4677SOL    HW125664   0.664   2.163   6.764 -1.6287 -0.9490 -0.3882
 4677SOL    HW225665   0.802   2.156   6.738  1.3941 -1.3516  0.3360
 4678SOL     OW25666   1.940   4.418   6.684 -0.2053  0.2894 -0.2895
 4678SOL    HW125667   1.970   4.489   6.741  0.3509 -0.9800  0.9810
 4678SOL    HW225668   1.857   4.396   6.725  0.5335 -0.6781  0.6885
 4679SOL     OW25669   2.197   4.644   8.505 -0.0353 -0.0591 -0.0026
 4679SOL    HW125670   2.187   4.679   8.417 -0.5083  0.4992  0.2784
 4679SOL    HW225671   2.222   4.553   8.489 -0.3915 -0.6067  2.5326
 4680SOL     OW25672   0.886   2.059   7.646  0.4723 -0.0685 -0.4710
 4680SOL    HW125673   0.837   2.003   7.706 -1.4461 -0.5979 -2.5200
 4680SOL    HW225674   0.906   2.131   7.706  1.0859 -0.4949 -0.1678
 4681SOL     OW25675   4.623   1.080  17.602 -0.1264  0.2131 -0.5605
 4681SOL    HW125676   4.597   1.038  17.684 -1.4145  2.4375  0.1767
 4681SOL    HW225677   4.639   1.009  17.541  3.4380  0.2460  0.3145
 4682SOL     OW25678   4.499   2.884   5.198 -0.3962  0.2542  0.0406
 4682SOL    HW125679   4.460   2.801   5.170 -0.4133 -0.6115  2.6480
 4682SOL    HW225680   4.430   2.949   5.178  1.0574  1.2921 -1.5899
 4683SOL     OW25681   4.627   4.316   4.310  0.0864 -0.2329  0.2904
 4683SOL    HW125682   4.541   4.287   4.280 -0.2291  2.3247 -1.2244
 4683SOL    HW225683   4.650   4.379   4.242 -0.6084 -0.7773 -0.4541
 4684SOL     OW25684   3.089   4.530   9.013 -0.0412 -0.2158  0.1690
 4684SOL    HW125685   3.025   4.475   8.968  0.8416  0.1863 -1.5798
 4684SOL    HW225686   3.031   4.591   9.059  1.1013  0.9855  0.0245
 4685SOL     OW25687   2.983   2.171  13.914 -0.7921  0.4369  0.3059
 4685SOL    HW125688   2.895   2.148  13.885 -0.8183 -0.8034  1.3479
 4685SOL    HW225689   3.003   2.089  13.960 -3.8433  0.3342  1.4284
 4686SOL     OW25690   1.084   4.249   9.366 -0.7246  0.3593  0.7736
 4686SOL    HW125691   1.148   4.315   9.390 -0.4449  0.0709  0.8208
 4686SOL    HW225692   1.138   4.188   9.317 -1.7102 -1.7300  2.2514
 4687SOL     OW25693   0.861   0.419   4.616 -0.2735  0.7069  0.3110
 4687SOL    HW125694   0.886   0.331   4.587  0.0776  0.2597  1.9125
 4687SOL    HW225695   0.934   0.438   4.676  0.9351 -1.4047 -0.4988
 4688SOL     OW25696   3.802   0.736   4.984  0.1723  0.4749 -0.4293
 4688SOL    HW125697   3.884   0.772   4.951  0.5370  1.7653  1.8760
 4688SOL    HW225698   3.838   0.698   5.064 -0.8171  0.9739  0.2657
 4689SOL     OW25699   2.341   3.632   1.936  0.2291 -0.3667  0.5477
 4689SOL    HW125700   2.285   3.575   1.884  2.4242 -0.5735 -1.6082
 4689SOL    HW225701   2.387   3.572   1.995  0.4843 -2.1056 -1.4069
 4690SOL     OW25702   0.099   0.850   6.932 -0.1748  0.0373 -0.9576
 4690SOL    HW125703   0.077   0.777   6.990 -0.8078  0.4390 -0.7023
 4690SOL    HW225704   0.095   0.919   6.998 -0.3950 -1.4350  0.5673
 4691SOL     OW25705   3.812   4.330   8.379 -0.3644 -0.1067  0.4850
 4691SOL    HW125706   3.841   4.400   8.321  0.6535 -0.7617  0.2051
 4691SOL    HW225707   3.843   4.365   8.462 -0.3189  1.5114 -0.2254
 4692SOL     OW25708   0.467   1.782   0.394 -0.0005 -0.0441 -0.5348
 4692SOL    HW125709   0.488   1.702   0.345 -0.0748  0.3152 -1.1599
 4692SOL    HW225710   0.416   1.823   0.324 -1.3982 -0.1470  0.4144
 4693SOL     OW25711   0.865   3.086  10.862  0.2602 -0.3341 -0.2741
 4693SOL    HW125712   0.949   3.132  10.870 -0.2536  0.1418  2.2908
 4693SOL    HW225713   0.850   3.103  10.769  2.8666  0.6164 -0.5242
 4694SOL     OW25714   0.978   0.410   2.513 -0.2169 -0.2093 -0.2815
 4694SOL    HW125715   1.017   0.374   2.593  2.0264  1.9463 -0.4211
 4694SOL    HW225716   1.019   0.353   2.448  0.3477 -2.2925  1.8554
 4695SOL     OW25717   2.634   3.009   6.764  0.0870 -0.2331  0.3521
 4695SOL    HW125718   2.641   3.050   6.678  0.3810  2.3226  1.6221
 4695SOL    HW225719   2.547   2.969   6.765 -2.0360  4.4126  0.4298
 4696SOL     OW25720   4.710   4.459   6.269 -0.5302  0.5029  0.2765
 4696SOL    HW125721   0.004   4.528   6.327 -1.4600  0.2053  1.1239
 4696SOL    HW225722   0.052   4.413   6.245 -0.7827  0.3975 -0.3841
 4697SOL     OW25723   3.448   0.475   8.094 -0.0664 -0.6558 -0.1786
 4697SOL    HW125724   3.372   0.430   8.057 -0.0948 -0.9854  0.2812
 4697SOL    HW225725   3.528   0.449   8.048  0.1165  1.3562 -1.0240
 4698SOL     OW25726   0.156   1.609  17.128  0.0800  0.0745 -0.3218
 4698SOL    HW125727   0.244   1.616  17.165 -0.3971  1.5913  0.5005
 4698SOL    HW225728   0.111   1.552  17.190  1.4475 -0.2405  0.3780
 4699SOL     OW25729   1.970   3.841  15.639  0.0901 -0.2256 -0.0057
 4699SOL    HW125730   2.061   3.872  15.638  0.4646 -1.2763  2.2479
 4699SOL    HW225731   1.927   3.923  15.663 -3.2772 -2.2714  0.8454
 4700SOL     OW25732   1.652   0.486   6.612  0.2837  0.2923 -0.0946
 4700SOL    HW125733   1.687   0.542   6.542 -0.1874  0.2134 -0.3905
 4700SOL    HW225734   1.714   0.414   6.625 -1.0587 -0.2928  3.0858
 4701SOL     OW25735   1.549   4.337   1.995  0.3101  0.7092  0.0195
 4701SOL    HW125736   1.624   4.370   2.045  0.7585  0.9001 -0.7951
 4701SOL    HW225737   1.597   4.330   1.913 -3.1395 -0.8105 -1.8899
 4702SOL     OW25738   2.233   4.177   0.266 -0.3369  0.1147  0.0724
 4702SOL    HW125739   2.251   4.163   0.358 -0.5766  3.4132  0.6169
 4702SOL    HW225740   2.308   4.225   0.229 -2.3790  1.1844 -2.7471
 4703SOL     OW25741   4.261   0.398   3.407 -0.8205  0.0701 -0.5066
 4703SOL    HW125742   4.193   0.361   3.350 -0.4369 -0.4499 -0.6288
 4703SOL    HW225743   4.331   0.408   3.344  1.9202 -3.2736  2.0237
 4704SOL     OW25744   1.736   4.426   2.980 -0.4487 -0.3277 -0.4695
 4704SOL    HW125745   1.755   4.520   2.980 -0.2260 -0.3650  0.7113
 4704SOL    HW225746   1.708   4.412   2.890 -4.9413 -2.9536  1.3525
 4705SOL     OW25747   1.617   3.263   1.926  0.3481 -0.0599  0.4408
 4705SOL    HW125748   1.693   3.234   1.976  0.6130 -1.8577 -1.0242
 4705SOL    HW225749   1.600   3.184   1.875 -0.6319  0.8162 -0.6146
 4706SOL     OW25750   0.963   3.202   0.120 -0.1944 -0.1435  0.1293
 4706SOL    HW125751   0.913   3.270   0.166  0.1325  1.2977 -1.6765
 4706SOL    HW225752   0.894   3.139   0.097  1.4620 -1.5859 -0.8621
 4707SOL     OW25753   0.826   1.033   5.582 -0.1277 -0.0405  0.4067
 4707SOL    HW125754   0.769   1.006   5.509  0.9998 -0.7894 -0.1961
 4707SOL    HW225755   0.839   0.947   5.622  1.9074  0.1118  0.0602
 4708SOL     OW25756   4.099   1.149   2.789  0.5685 -0.5144 -0.1501
 4708SOL    HW125757   4.010   1.179   2.768  1.0344  1.5634  0.8299
 4708SOL    HW225758   4.115   1.075   2.730 -1.4929  0.5828 -2.1215
 4709SOL     OW25759   3.220   2.469  16.043  0.0584  0.4746  0.3442
 4709SOL    HW125760   3.138   2.514  16.024 -0.2523 -0.3707 -0.3091
 4709SOL    HW225761   3.197   2.386  16.083 -0.7413  0.7734  0.5018
 4710SOL     OW25762   1.132   0.367   5.287  0.0378 -1.0944 -0.2145
 4710SOL    HW125763   1.110   0.296   5.347  1.2731 -0.1184  1.3914
 4710SOL    HW225764   1.045   0.399   5.261  1.3779  1.6247 -1.3918
 4711SOL     OW25765   0.837   2.133   8.996 -0.2760 -0.3269  0.1015
 4711SOL    HW125766   0.898   2.114   8.925 -1.0938 -1.2234 -0.3639
 4711SOL    HW225767   0.868   2.223   9.001 -1.1091 -0.0515  0.2220
 4712SOL     OW25768   0.296   1.890   2.606 -0.1619  0.2028  0.5342
 4712SOL    HW125769   0.302   1.889   2.511 -2.7788  2.7517  0.3309
 4712SOL    HW225770   0.206   1.861   2.618 -0.0701 -0.8451 -1.3835
 4713SOL     OW25771   2.525   4.185   1.989 -0.3211  0.0160 -0.1283
 4713SOL    HW125772   2.452   4.124   1.981 -1.2741  0.8541  2.1797
 4713SOL    HW225773   2.479   4.263   1.959 -2.0269 -0.4403  1.2970
 4714SOL     OW25774   0.892   2.336  17.293  0.5441 -0.2697 -0.0898
 4714SOL    HW125775   0.860   2.364  17.378  0.0708 -0.0834 -0.3268
 4714SOL    HW225776   0.849   2.252  17.277 -1.0068  0.4336  0.3543
 4715SOL     OW25777   1.902   1.867  16.971 -0.3947 -0.1365  0.3058
 4715SOL    HW125778   1.987   1.875  17.016  0.1496 -2.2394 -0.3526
 4715SOL    HW225779   1.888   1.950  16.927 -0.1727  1.1213  2.5703
 4716SOL     OW25780   2.101   2.628   6.957 -0.8136  0.1148  0.2307
 4716SOL    HW125781   2.185   2.675   6.959 -0.6541 -0.1428 -0.3070
 4716SOL    HW225782   2.072   2.629   7.048 -1.7818 -1.0995 -0.0703
 4717SOL     OW25783   3.052   3.168  10.755 -0.0566  0.2845  0.4315
 4717SOL    HW125784   2.995   3.107  10.802 -0.7598 -1.5803 -2.8317
 4717SOL    HW225785   3.129   3.169  10.813  1.0598  1.0065 -1.0698
 4718SOL     OW25786   1.591   3.244  11.065  0.4331  0.4099  0.5099
 4718SOL    HW125787   1.568   3.257  11.158 -0.3381 -3.6701  0.8885
 4718SOL    HW225788   1.641   3.164  11.081  0.5221  0.6581  1.4774
 4719SOL     OW25789   3.536   2.137   7.263  0.4560 -0.1193 -0.6715
 4719SOL    HW125790   3.570   2.178   7.183  1.2899 -1.1512 -0.8458
 4719SOL    HW225791   3.482   2.209   7.295  1.1318  0.5239 -0.9636
 4720SOL     OW25792   1.053   1.495   7.630 -0.3416 -0.1321 -0.1839
 4720SOL    HW125793   0.999   1.419   7.609  1.0183 -1.1538 -0.0055
 4720SOL    HW225794   1.137   1.450   7.634  1.5535  3.3168 -1.6776
 4721SOL     OW25795   0.969   1.846   7.967  0.2734  0.0297 -0.0432
 4721SOL    HW125796   0.929   1.915   7.913  0.5917 -0.8775 -1.4411
 4721SOL    HW225797   1.034   1.812   7.906 -0.9555 -0.5469 -1.0399
 4722SOL     OW25798   1.222   0.016   5.669  0.1315 -0.0573  0.7139
 4722SOL    HW125799   1.298   0.020   5.728  0.8663 -2.8160 -0.0129
 4722SOL    HW225800   1.169   4.683   5.704 -0.2362 -0.8414 -1.4432
 4723SOL     OW25801   2.515   2.864   7.628  0.0641  0.1823 -0.4339
 4723SOL    HW125802   2.569   2.828   7.558 -0.0657  1.6874 -1.2937
 4723SOL    HW225803   2.569   2.940   7.649  1.1671 -0.7401  0.1024
 4724SOL     OW25804   2.943   1.636   4.465  0.2754  0.0586  0.4115
 4724SOL    HW125805   2.910   1.708   4.411 -2.3892 -1.5182 -0.0982
 4724SOL    HW225806   2.885   1.641   4.540  0.1025  1.5767  0.1726
 4725SOL     OW25807   3.569   2.223   3.652 -0.6246  0.6487  0.2280
 4725SOL    HW125808   3.506   2.151   3.651  0.5897 -0.4381  2.0701
 4725SOL    HW225809   3.540   2.275   3.577  0.0095  0.2865 -0.2604
 4726SOL     OW25810   3.628   1.024   6.418 -0.1788  0.0474 -0.7366
 4726SOL    HW125811   3.652   1.005   6.509  0.9544 -0.1724 -1.0840
 4726SOL    HW225812   3.710   1.004   6.373  0.5577 -2.6430  1.7983
 4727SOL     OW25813   1.170   1.406   9.970  0.2986  0.3117  0.1157
 4727SOL    HW125814   1.189   1.379  10.060  0.4484 -2.3842 -0.7185
 4727SOL    HW225815   1.255   1.446   9.952 -0.0179  0.4409 -1.1431
 4728SOL     OW25816   3.075   3.049   5.369 -0.5555  0.2054  0.4361
 4728SOL    HW125817   3.022   3.040   5.289  1.6713 -2.0374 -0.7494
 4728SOL    HW225818   3.147   2.992   5.342 -1.3852 -0.1667 -1.0118
 4729SOL     OW25819   0.917   2.464   3.782 -0.1875  0.1217  0.1395
 4729SOL    HW125820   0.916   2.523   3.857 -2.9834  2.0299 -1.4044
 4729SOL    HW225821   1.008   2.475   3.754 -0.0375  1.4086  1.1646
 4730SOL     OW25822   3.868   1.213   2.610 -0.6015 -1.0474 -0.5092
 4730SOL    HW125823   3.852   1.137   2.555  0.6751 -0.7958 -1.2417
 4730SOL    HW225824   3.813   1.275   2.562  0.5127  1.2237  1.1228
 4731SOL     OW25825   2.220   1.631  12.419 -0.4531 -0.2038 -0.4332
 4731SOL    HW125826   2.216   1.642  12.514  1.9146 -1.3263 -0.2099
 4731SOL    HW225827   2.292   1.687  12.392  1.1942 -1.3787  1.5303
 4732SOL     OW25828   0.004   1.219   5.158  0.1975 -0.0867 -0.3675
 4732SOL    HW125829   0.031   1.278   5.228 -0.6226 -0.6081  0.3951
 4732SOL    HW225830   4.734   1.283   5.087 -1.0045 -0.4656 -0.5650
 4733SOL     OW25831   1.354   4.418   7.130  0.2743  0.8054 -0.5644
 4733SOL    HW125832   1.357   4.348   7.194  1.1973 -0.6814 -2.2216
 4733SOL    HW225833   1.283   4.471   7.166 -1.4074 -1.4728 -0.5913
 4734SOL     OW25834   3.642   2.440   5.017 -0.1883 -0.1491 -0.7373
 4734SOL    HW125835   3.722   2.402   5.054 -1.1541 -1.6806 -0.1917
 4734SOL    HW225836   3.590   2.361   5.002 -2.0420 -0.0159  4.6598
 4735SOL     OW25837   4.703   2.144  13.603  0.1818 -0.4044  0.1201
 4735SOL    HW125838   4.683   2.140  13.510 -1.4846  0.9343  0.4200
 4735SOL    HW225839   0.004   2.058  13.615  2.0235  0.9326  3.4607
 4736SOL     OW25840   0.795   0.118  11.171  0.1468 -0.8015 -0.3152
 4736SOL    HW125841   0.703   0.141  11.153  0.6166  2.8399  1.8902
 4736SOL    HW225842   0.800   0.028  11.140 -0.7303 -1.2332  0.8180
 4737SOL     OW25843   0.153   0.165   9.811  0.3962 -0.4844  0.1557
 4737SOL    HW125844   0.208   0.097   9.771  1.0893  1.3663 -2.0123
 4737SOL    HW225845   0.218   0.217   9.857  1.9816  0.1485 -2.8092
 4738SOL     OW25846   2.012   1.267  14.004 -0.5182 -0.0243  0.2506
 4738SOL    HW125847   1.994   1.174  13.987  0.1418  0.0615 -0.9887
 4738SOL    HW225848   2.058   1.279  13.921  0.5544 -1.1022  0.6765
 4739SOL     OW25849   1.829   4.381   1.588  0.0781 -0.3924 -0.1175
 4739SOL    HW125850   1.900   4.325   1.556 -1.1786 -2.2662  0.3671
 4739SOL    HW225851   1.860   4.455   1.639 -0.4282  0.9310 -1.7101
 4740SOL     OW25852   2.140   0.619   9.271 -0.1830 -0.2686  0.6927
 4740SOL    HW125853   2.177   0.707   9.267  0.3447 -0.5192  0.0180
 4740SOL    HW225854   2.047   0.638   9.273  0.1292  1.2487  1.3212
 4741SOL     OW25855   1.466   1.844   9.652  0.0231 -0.2858  0.7798
 4741SOL    HW125856   1.520   1.769   9.678  0.0105 -0.5592 -0.0001
 4741SOL    HW225857   1.467   1.890   9.736  1.4924 -1.1510  1.2287
 4742SOL     OW25858   2.607   0.111  13.536  0.5121 -0.3227 -0.0931
 4742SOL    HW125859   2.529   0.112  13.480  1.6365 -0.6118 -1.6722
 4742SOL    HW225860   2.670   0.055  13.489  0.3729 -0.2130 -0.4129
 4743SOL     OW25861   2.777   3.685  16.575 -0.0878  0.2142  0.2192
 4743SOL    HW125862   2.739   3.719  16.494  0.8713 -0.8203 -0.6686
 4743SOL    HW225863   2.700   3.653  16.623  0.5433 -1.2428  0.2744
 4744SOL     OW25864   1.485   4.733   5.734  0.0249  0.0959  0.3209
 4744SOL    HW125865   1.490   4.681   5.654 -2.8141  0.3241 -0.0043
 4744SOL    HW225866   1.506   4.672   5.804 -1.1422 -0.7364 -0.0555
 4745SOL     OW25867   2.655   2.349   1.746 -0.3011 -0.6483  0.0267
 4745SOL    HW125868   2.671   2.335   1.839 -1.0052  0.3927  0.2995
 4745SOL    HW225869   2.726   2.408   1.720 -0.5548  0.5568  2.1284
 4746SOL     OW25870   1.821   0.869   4.828 -0.2752  0.2897 -0.8559
 4746SOL    HW125871   1.843   0.792   4.880  0.8672  1.6551  0.6571
 4746SOL    HW225872   1.738   0.845   4.787 -0.8051 -0.6361  0.7575
 4747SOL     OW25873   2.188   1.900   6.966 -0.6591  0.1588 -0.0282
 4747SOL    HW125874   2.213   1.916   7.057  3.6858  1.6728 -1.4946
 4747SOL    HW225875   2.182   1.804   6.967  1.9322  0.0226  0.8581
 4748SOL     OW25876   2.389   2.115   2.524  0.2571 -0.2333  0.1427
 4748SOL    HW125877   2.355   2.192   2.478 -0.2041 -0.2896  0.3923
 4748SOL    HW225878   2.456   2.152   2.580 -0.0747  0.6006 -0.0110
 4749SOL     OW25879   2.531   1.014   7.463  0.2430  0.3795  0.4076
 4749SOL    HW125880   2.576   0.958   7.400 -2.4419  1.2849 -2.3048
 4749SOL    HW225881   2.527   0.957   7.541 -1.7940  0.6760  0.5229
 4750SOL     OW25882   2.364   0.510  15.599  0.4017  0.7457 -0.4789
 4750SOL    HW125883   2.380   0.598  15.634 -0.0846  0.3083  0.8553
 4750SOL    HW225884   2.339   0.465  15.680  0.7058 -0.1090 -0.8596
 4751SOL     OW25885   2.145   4.630   8.967  0.0424  0.0098 -0.5407
 4751SOL    HW125886   2.079   4.682   8.922 -1.4344  1.0249  2.7482
 4751SOL    HW225887   2.187   4.700   9.017 -0.3641  0.1563 -0.4028
 4752SOL     OW25888   0.293   3.866   4.014  0.1058 -0.2448  0.3827
 4752SOL    HW125889   0.346   3.931   3.969  0.9685 -1.2553 -0.0523
 4752SOL    HW225890   0.355   3.793   4.005 -1.2444 -0.8913 -3.4119
 4753SOL     OW25891   2.725   1.539  16.713  0.0785 -0.3896 -0.2722
 4753SOL    HW125892   2.724   1.498  16.626  1.1492 -3.4725  1.1684
 4753SOL    HW225893   2.802   1.594  16.705  0.0192 -0.1549  0.7757
 4754SOL     OW25894   0.898   2.155   4.601 -0.2122  0.7228 -0.1075
 4754SOL    HW125895   0.908   2.250   4.602  1.4653  0.5641 -1.7785
 4754SOL    HW225896   0.989   2.126   4.591 -0.3241 -0.6007  2.6393
 4755SOL     OW25897   3.438   4.677   7.547 -0.4876 -0.0736  0.0739
 4755SOL    HW125898   3.383   4.635   7.482 -0.2092 -0.0620 -0.1699
 4755SOL    HW225899   3.463   4.600   7.599 -0.4387  0.9901  1.6341
 4756SOL     OW25900   1.827   2.507   2.183  0.3511  0.6664  0.2541
 4756SOL    HW125901   1.767   2.504   2.108  0.9623  0.2813 -0.2174
 4756SOL    HW225902   1.911   2.487   2.142 -0.7475 -1.6687 -0.9020
 4757SOL     OW25903   2.140   1.129   7.768 -0.2474 -0.0728 -0.2301
 4757SOL    HW125904   2.059   1.152   7.723  0.4648  0.7312 -1.0871
 4757SOL    HW225905   2.150   1.193   7.838  1.7260  1.4344 -1.8954
 4758SOL     OW25906   0.081   4.593  11.319  0.0683 -0.0234 -0.2527
 4758SOL    HW125907   0.009   4.645  11.354 -1.3194 -1.6028 -0.7409
 4758SOL    HW225908   0.153   4.613  11.378  0.8429 -0.1428 -1.1496
 4759SOL     OW25909   1.458   2.879   6.526 -0.1661 -0.2844 -0.8265
 4759SOL    HW125910   1.446   2.813   6.458  0.5065 -1.2012 -0.0506
 4759SOL    HW225911   1.367   2.879   6.557 -0.0098 -3.9084 -0.4378
 4760SOL     OW25912   1.925   3.396   7.201  0.5924 -0.2353  0.0581
 4760SOL    HW125913   1.906   3.403   7.295 -0.0061 -2.0834  0.0796
 4760SOL    HW225914   1.979   3.473   7.181 -0.7043  0.4176 -0.9708
 4761SOL     OW25915   0.507   0.085   8.678 -0.7508 -0.6951 -0.0561
 4761SOL    HW125916   0.548   0.015   8.729  1.6585  0.3598 -0.5560
 4761SOL    HW225917   0.553   0.079   8.594 -0.6018 -0.9700  0.0461
 4762SOL     OW25918   3.291   2.835   0.152  0.6452  0.3375 -0.0619
 4762SOL    HW125919   3.212   2.818   0.101  0.1021 -0.4406  1.0488
 4762SOL    HW225920   3.346   2.896   0.103  2.6510 -0.9876  0.5393
 4763SOL     OW25921   0.595   0.624   7.735 -0.2069 -0.3357  0.5579
 4763SOL    HW125922   0.675   0.672   7.714 -0.1226 -0.6911  0.0755
 4763SOL    HW225923   0.528   0.689   7.712  1.6777  1.3559 -0.2008
 4764SOL     OW25924   3.610   1.512   0.393 -0.0860  0.4602  0.2513
 4764SOL    HW125925   3.671   1.508   0.320 -0.9130  4.2269 -0.6267
 4764SOL    HW225926   3.576   1.423   0.398  1.4043 -0.2209 -1.9365
 4765SOL     OW25927   3.154   3.337   1.947 -0.1974  0.0296  0.1273
 4765SOL    HW125928   3.221   3.307   2.008  1.2305 -0.0043 -1.4538
 4765SOL    HW225929   3.123   3.420   1.984 -0.4325 -0.2773  0.6197
 4766SOL     OW25930   2.615   4.588   7.022 -0.5619 -0.0780  0.2507
 4766SOL    HW125931   2.685   4.652   7.007  0.6089 -1.1689  1.0770
 4766SOL    HW225932   2.644   4.509   6.977  1.0707  1.7938 -2.0550
 4767SOL     OW25933   2.367   4.060   9.272 -0.0768  0.7213  0.7474
 4767SOL    HW125934   2.412   4.024   9.348 -0.7575 -2.1865 -0.2166
 4767SOL    HW225935   2.386   3.993   9.206  2.4543  0.8071  1.3754
 4768SOL     OW25936   1.129   2.746  16.020  0.0166  0.2061 -0.1219
 4768SOL    HW125937   1.180   2.731  16.099  0.1054 -0.1747 -0.2512
 4768SOL    HW225938   1.039   2.758  16.051  0.1237 -0.3567  0.4052
 4769SOL     OW25939   1.793   3.752   8.974  0.0539  0.2228 -0.6062
 4769SOL    HW125940   1.849   3.823   9.006  0.3485  0.7490 -2.3381
 4769SOL    HW225941   1.814   3.697   9.050  0.8593  1.7970  0.3134
 4770SOL     OW25942   2.367   3.076   7.387  0.3864 -0.2149  0.1118
 4770SOL    HW125943   2.431   3.147   7.381 -0.1720  0.2192 -0.6692
 4770SOL    HW225944   2.332   3.082   7.476 -2.7591  1.1312 -1.2489
 4771SOL     OW25945   1.230   4.728  16.195 -0.3003 -0.9888 -0.1415
 4771SOL    HW125946   1.140   4.722  16.163 -0.6344  1.5322  0.3289
 4771SOL    HW225947   1.201   4.737  16.285  0.1122 -1.1875  0.0129
 4772SOL     OW25948   3.525   3.979   1.174  0.1910  0.4946  0.6259
 4772SOL    HW125949   3.460   3.912   1.196  0.6056  0.3202  1.3110
 4772SOL    HW225950   3.503   4.040   1.244  1.1297 -0.4938  1.7876
 4773SOL     OW25951   3.499   3.743   6.887 -0.0832 -0.2333  0.2784
 4773SOL    HW125952   3.588   3.779   6.889 -0.9599  1.8192  2.2051
 4773SOL    HW225953   3.518   3.650   6.899  0.1302 -0.2841 -0.4219
 4774SOL     OW25954   3.852   0.480   5.483  0.0426 -0.2361 -0.4418
 4774SOL    HW125955   3.850   0.571   5.512  2.9584  0.1074 -1.3824
 4774SOL    HW225956   3.937   0.447   5.512 -0.7359 -1.4295  0.5039
 4775SOL     OW25957   2.601   0.346   7.891 -0.2726  0.2914 -0.0717
 4775SOL    HW125958   2.572   0.382   7.974  0.0894  2.6580 -0.9631
 4775SOL    HW225959   2.693   0.373   7.888 -0.3261  0.4518 -0.2725
 4776SOL     OW25960   2.687   1.064   3.025  0.4896  0.6895  0.2650
 4776SOL    HW125961   2.692   1.096   2.935  1.6927  0.1834  0.1518
 4776SOL    HW225962   2.607   1.014   3.040  1.2736  0.1588  2.6940
 4777SOL     OW25963   3.250   3.745   5.253 -0.9163 -0.1457 -0.2886
 4777SOL    HW125964   3.301   3.667   5.277  0.1966  0.3478 -1.0435
 4777SOL    HW225965   3.186   3.754   5.324 -0.3241  2.9592 -0.1336
 4778SOL     OW25966   4.659   3.210   2.378 -0.3129 -0.5391  0.0225
 4778SOL    HW125967   4.596   3.256   2.323  0.9711 -0.4682 -1.3978
 4778SOL    HW225968   4.652   3.254   2.462  1.7194  0.7867 -0.5163
 4779SOL     OW25969   1.174   3.159   7.250 -0.2296  0.0606  0.5525
 4779SOL    HW125970   1.253   3.105   7.246  1.3601  2.4295  0.0430
 4779SOL    HW225971   1.143   3.146   7.339 -0.9533  0.4852  0.3569
 4780SOL     OW25972   2.430   1.901   7.837  0.1848  0.3486  0.3958
 4780SOL    HW125973   2.437   1.955   7.758 -0.4705 -1.7867 -1.1230
 4780SOL    HW225974   2.338   1.915   7.862  0.4739 -1.1597  2.2692
 4781SOL     OW25975   2.010   4.638   8.196  0.4915 -0.2760  0.0351
 4781SOL    HW125976   2.051   4.561   8.156 -1.0189 -0.3822 -1.3485
 4781SOL    HW225977   2.082   4.700   8.188 -0.9597  1.5666  1.3343
 4782SOL     OW25978   3.806   4.431  16.941  0.5689  0.2950 -0.0137
 4782SOL    HW125979   3.871   4.472  16.884 -0.2669 -1.2311 -2.0286
 4782SOL    HW225980   3.725   4.459  16.900  0.8544  1.8220  0.4690
 4783SOL     OW25981   2.829   0.910   0.409  0.3098 -0.3385 -0.0370
 4783SOL    HW125982   2.779   0.977   0.456  1.6941 -0.4472  1.6018
 4783SOL    HW225983   2.787   0.911   0.323 -0.9570 -0.7749  0.5722
 4784SOL     OW25984   3.313   3.755  17.124 -0.2888 -0.6804  0.2171
 4784SOL    HW125985   3.329   3.743  17.218 -1.4266 -0.3190  0.4594
 4784SOL    HW225986   3.280   3.844  17.120  0.6764 -0.2568  1.7767
 4785SOL     OW25987   2.580   4.142   1.545 -0.2349  0.2929 -0.4656
 4785SOL    HW125988   2.533   4.097   1.615  2.3128  0.6264  1.4960
 4785SOL    HW225989   2.670   4.119   1.572  0.2963  2.3225 -0.4866
 4786SOL     OW25990   4.736   2.355  12.525 -0.3044  0.3020  0.3400
 4786SOL    HW125991   4.656   2.302  12.532  0.8213 -1.4340 -0.1378
 4786SOL    HW225992   0.021   2.348  12.618  0.7097  2.3294  0.2310
 4787SOL     OW25993   2.812   4.362   8.275  0.4020 -0.3535  0.4048
 4787SOL    HW125994   2.888   4.304   8.274  0.1378 -0.6507 -2.4129
 4787SOL    HW225995   2.852   4.449   8.283 -0.3406 -0.0759  1.0487
 4788SOL     OW25996   3.717   3.715   2.362  0.2883 -0.3475  0.5558
 4788SOL    HW125997   3.798   3.734   2.314 -0.6325  1.7144 -0.1776
 4788SOL    HW225998   3.678   3.647   2.307  1.8125 -1.2304  0.5604
 4789SOL     OW25999   3.614   1.868   4.864 -0.4319 -0.1527 -0.6896
 4789SOL    HW126000   3.653   1.941   4.815  1.1472  0.4158  1.4493
 4789SOL    HW226001   3.524   1.862   4.831 -1.0268  2.8842  0.3249
 4790SOL     OW26002   2.080   1.682   8.634  0.1745  0.0057 -0.2359
 4790SOL    HW126003   2.087   1.754   8.697 -1.9877  1.3039 -1.4745
 4790SOL    HW226004   2.088   1.730   8.552 -2.5195  1.2226  0.1849
 4791SOL     OW26005   0.981   3.223   3.155 -0.5936  0.4947 -0.2776
 4791SOL    HW126006   0.986   3.213   3.250 -1.1152 -1.9025 -0.5139
 4791SOL    HW226007   1.067   3.184   3.138 -0.3088  0.2471  1.6892
 4792SOL     OW26008   1.291   3.111   4.030 -0.8783 -0.4318 -0.2837
 4792SOL    HW126009   1.303   3.027   3.986 -0.3374 -0.6139  0.2119
 4792SOL    HW226010   1.359   3.107   4.098  0.1398  0.5456 -1.2452
 4793SOL     OW26011   0.210   1.471   6.311 -0.1346 -0.1006  0.1806
 4793SOL    HW126012   0.148   1.439   6.246  1.3377  0.9496 -1.7321
 4793SOL    HW226013   0.294   1.443   6.275  1.0685  1.1501  1.9992
 4794SOL     OW26014   4.655   4.215   9.363 -0.2664 -0.0754 -0.3558
 4794SOL    HW126015   4.735   4.232   9.312  0.2436 -0.5142  0.3066
 4794SOL    HW226016   4.602   4.178   9.292  0.7995 -0.2689 -1.0656
 4795SOL     OW26017   1.069   2.149   6.355 -0.7211  0.2265 -0.2724
 4795SOL    HW126018   1.116   2.223   6.392 -1.7667 -0.1054  1.7540
 4795SOL    HW226019   1.126   2.118   6.285  0.6660  0.1871  0.8780
 4796SOL     OW26020   4.566   4.162  14.166 -0.0519 -0.1910 -0.2166
 4796SOL    HW126021   4.479   4.130  14.139 -0.4380  1.0056 -0.3789
 4796SOL    HW226022   4.542   4.221  14.237 -0.0643 -2.1208  1.3998
 4797SOL     OW26023   1.285   3.186   1.178  0.4417  0.6973 -0.0283
 4797SOL    HW126024   1.284   3.154   1.268 -0.6462  2.1860  0.4802
 4797SOL    HW226025   1.296   3.108   1.123 -0.8253  2.1474 -2.3293
 4798SOL     OW26026   3.379   3.542   5.397  0.0066  0.1313  0.3764
 4798SOL    HW126027   3.387   3.500   5.482  2.1289  0.7617  0.4769
 4798SOL    HW226028   3.468   3.573   5.386  0.0444  0.1587  0.7757
 4799SOL     OW26029   0.460   1.428  17.647  0.1480 -0.1858  0.1109
 4799SOL    HW126030   0.425   1.512  17.678  2.2207  0.7966 -0.1940
 4799SOL    HW226031   0.553   1.443  17.664  0.6276 -2.0116 -0.9754
 4800SOL     OW26032   1.537   3.547  12.243 -0.1518  0.5799 -0.1498
 4800SOL    HW126033   1.553   3.609  12.314  2.5209  0.2106 -0.4637
 4800SOL    HW226034   1.555   3.461  12.281  2.3460  1.1053 -0.1989
 4801SOL     OW26035   3.660   0.753  13.253 -0.3667 -0.2810 -0.1854
 4801SOL    HW126036   3.689   0.826  13.308  0.9557 -0.6366 -0.3988
 4801SOL    HW226037   3.728   0.743  13.187  0.2554 -0.6964  0.5073
 4802SOL     OW26038   1.038   0.169   4.652  0.2614 -0.3194 -0.2696
 4802SOL    HW126039   1.106   0.115   4.610 -1.5520 -2.7845 -0.0333
 4802SOL    HW226040   1.072   0.168   4.742  2.0515 -0.6110 -0.9330
 4803SOL     OW26041   3.829   0.824   2.759  0.3209  0.0231 -0.2925
 4803SOL    HW126042   3.760   0.864   2.706 -2.1128 -2.6728  0.9078
 4803SOL    HW226043   3.792   0.738   2.775 -0.4140  0.6187  1.1983
 4804SOL     OW26044   4.568   0.102   8.095  0.0124  0.3377  0.4723
 4804SOL    HW126045   4.552   0.192   8.120  0.8430  1.0083 -1.3585
 4804SOL    HW226046   4.516   0.088   8.016 -0.6753 -0.1255  1.0107
 4805SOL     OW26047   2.412   0.292   6.221 -0.7247 -0.3476  0.0707
 4805SOL    HW126048   2.328   0.251   6.201 -1.0248 -0.4757  1.5643
 4805SOL    HW226049   2.463   0.261   6.146 -0.2756 -0.3026  0.3558
 4806SOL     OW26050   1.654   2.983   7.674  0.2309 -0.2657 -0.3955
 4806SOL    HW126051   1.629   2.931   7.750  0.9071 -0.1995 -0.1278
 4806SOL    HW226052   1.749   2.976   7.682 -0.0057  0.0214  2.7798
 4807SOL     OW26053   0.133   1.459   9.082 -0.1216 -0.0612 -0.1928
 4807SOL    HW126054   0.153   1.505   9.000 -0.8664  1.4012  0.4590
 4807SOL    HW226055   0.211   1.459   9.138 -0.2430 -0.4625 -0.0216
 4808SOL     OW26056   3.586   1.294  17.699 -0.1795  0.3335 -0.3624
 4808SOL    HW126057   3.526   1.313   0.018 -2.1540  1.1614 -2.2382
 4808SOL    HW226058   3.600   1.199  17.698  0.0390  0.3706 -0.7548
 4809SOL     OW26059   3.022   1.272   2.757  0.0925 -0.2066  0.1690
 4809SOL    HW126060   3.073   1.295   2.680  0.9968 -1.0043  0.5368
 4809SOL    HW226061   2.985   1.189   2.726 -0.0441  0.4697 -1.4537
 4810SOL     OW26062   3.151   4.648   4.602 -0.2692 -0.3428 -0.3069
 4810SOL    HW126063   3.242   4.626   4.622 -0.2180 -0.7154 -0.9709
 4810SOL    HW226064   3.108   4.584   4.660  1.1234 -0.1522  0.9292
 4811SOL     OW26065   3.822   3.596  15.652 -0.1252  0.8152  0.4253
 4811SOL    HW126066   3.889   3.614  15.718  0.6879 -1.2591  0.1556
 4811SOL    HW226067   3.759   3.666  15.671  0.5269  1.3038  0.7783
 4812SOL     OW26068   4.729   3.041   6.563  0.6082 -0.7325  0.0661
 4812SOL    HW126069   4.707   3.123   6.520  0.2083 -0.8266  0.0934
 4812SOL    HW226070   4.694   3.059   6.650 -0.9325  0.4914 -0.8090
 4813SOL     OW26071   1.443   2.273   4.178 -0.0119  0.5308  0.0423
 4813SOL    HW126072   1.408   2.362   4.179  1.2469  1.0321 -1.7104
 4813SOL    HW226073   1.528   2.301   4.143 -0.0961  2.3597  1.2281
 4814SOL     OW26074   2.261   3.015  10.852 -0.1988 -0.6519  0.3068
 4814SOL    HW126075   2.279   2.968  10.933  0.7923  1.1243  1.1278
 4814SOL    HW226076   2.346   3.010  10.807  0.3733 -2.4951  1.6214
 4815SOL     OW26077   3.128   2.787   7.898 -0.0945 -0.4841  0.0323
 4815SOL    HW126078   3.062   2.746   7.954 -0.1612  2.9426  2.5145
 4815SOL    HW226079   3.084   2.774   7.814 -1.1862  0.6675  0.4227
 4816SOL     OW26080   2.731   1.600   2.393  0.0097 -0.1550 -0.2676
 4816SOL    HW126081   2.804   1.615   2.453  1.0810  1.0463 -1.8645
 4816SOL    HW226082   2.776   1.613   2.310 -0.4128 -2.2801 -0.8320
 4817SOL     OW26083   4.203   4.296   5.561  0.7559  0.9962  0.1003
 4817SOL    HW126084   4.293   4.292   5.529  1.4144  0.3560  2.0115
 4817SOL    HW226085   4.188   4.386   5.588  0.5682  0.7542  0.7971
 4818SOL     OW26086   3.449   3.875   5.133  0.6404  0.0159  0.2794
 4818SOL    HW126087   3.399   3.909   5.059  0.7043  1.3611  0.8416
 4818SOL    HW226088   3.381   3.824   5.176  1.0647  1.0618  2.2306
 4819SOL     OW26089   3.256   3.362   5.027 -0.1015  0.7355 -0.6327
 4819SOL    HW126090   3.170   3.374   5.069 -0.1159 -2.4338  0.2331
 4819SOL    HW226091   3.294   3.449   5.039  2.0404 -0.1554 -0.9368
 4820SOL     OW26092   2.417   1.469   8.833 -0.3307  0.2349 -0.2373
 4820SOL    HW126093   2.427   1.416   8.912 -0.1902  0.1883 -0.2860
 4820SOL    HW226094   2.464   1.414   8.770  1.1024 -0.5467  1.5446
 4821SOL     OW26095   2.515   2.075   4.332 -0.2719  0.3497  0.5149
 4821SOL    HW126096   2.493   2.076   4.239  1.8269  1.4412  0.0231
 4821SOL    HW226097   2.605   2.106   4.332 -1.0862  2.7813 -0.7510
 4822SOL     OW26098   1.054   3.390   5.824 -0.4871 -0.0437  0.1875
 4822SOL    HW126099   0.978   3.388   5.765 -0.9479  3.1895  0.6463
 4822SOL    HW226100   1.026   3.431   5.906 -1.4608  0.1795 -0.2433
 4823SOL     OW26101   3.251   3.168   7.990  0.3429  0.3365  0.2994
 4823SOL    HW126102   3.181   3.234   7.986  0.4888  0.6011  2.3174
 4823SOL    HW226103   3.209   3.096   7.942 -0.1454  0.5317  0.4349
 4824SOL     OW26104   3.898   3.433   8.712 -0.3981 -0.3038 -0.7143
 4824SOL    HW126105   3.928   3.521   8.734 -1.2580 -0.5941  1.6088
 4824SOL    HW226106   3.816   3.449   8.666 -1.2933 -0.0911  0.9552
 4825SOL     OW26107   4.366   2.638   5.200 -0.0519  0.7718  0.4742
 4825SOL    HW126108   4.289   2.613   5.148  2.1608 -1.8513 -1.5831
 4825SOL    HW226109   4.436   2.622   5.137 -0.3228 -1.2227  0.6610
 4826SOL     OW26110   1.852   1.941   4.890  0.0622  0.5134 -0.0838
 4826SOL    HW126111   1.818   1.905   4.808 -0.7952 -0.2217  0.6003
 4826SOL    HW226112   1.798   1.888   4.948  1.1698 -0.4384  0.0829
 4827SOL     OW26113   1.061   3.938   3.727  0.0181  0.7595  0.4565
 4827SOL    HW126114   1.041   3.976   3.641 -0.4721  2.1940  1.2041
 4827SOL    HW226115   1.105   3.859   3.696  0.0941 -0.6730  4.2393
 4828SOL     OW26116   3.639   3.468   1.579  0.0106  0.9056 -0.6298
 4828SOL    HW126117   3.698   3.396   1.603  0.5213  1.4253 -0.3422
 4828SOL    HW226118   3.638   3.453   1.484 -0.5805 -0.8015 -0.3646
 4829SOL     OW26119   4.588   3.222   1.664 -0.3603  0.4739 -0.5822
 4829SOL    HW126120   4.558   3.296   1.611  1.1400  1.5677  0.0895
 4829SOL    HW226121   4.588   3.161   1.590 -3.0124  0.0835 -0.2775
 4830SOL     OW26122   3.672   1.312   5.461 -0.1558 -0.0981  0.3029
 4830SOL    HW126123   3.611   1.357   5.402 -0.0173 -1.6519 -1.0403
 4830SOL    HW226124   3.753   1.322   5.412  0.4043  2.2443  1.7243
 4831SOL     OW26125   1.762   0.939   3.926 -0.0849  0.0787  0.1731
 4831SOL    HW126126   1.671   0.959   3.906  0.5526  0.3995 -2.4056
 4831SOL    HW226127   1.748   0.849   3.956 -0.0367 -0.6883 -2.0733
 4832SOL     OW26128   1.269   2.080  14.595 -0.1168 -0.3987 -0.4200
 4832SOL    HW126129   1.311   2.074  14.681  0.6861 -0.6338 -0.8255
 4832SOL    HW226130   1.312   2.007  14.551  2.1993  0.9936 -0.4593
 4833SOL     OW26131   2.492   4.067  10.521  0.6235  0.5071  0.0221
 4833SOL    HW126132   2.479   4.055  10.427  0.5316  1.6586 -0.1041
 4833SOL    HW226133   2.434   4.141  10.537 -0.4171 -0.1822 -0.5704
 4834SOL     OW26134   2.115   3.739  12.493  0.6765 -0.4810 -0.1126
 4834SOL    HW126135   2.062   3.801  12.443 -0.8021 -0.2029  1.7865
 4834SOL    HW226136   2.065   3.738  12.575 -3.5453 -0.8552 -2.6716
 4835SOL     OW26137   0.840   4.378   8.220 -0.5724 -0.2488  0.1917
 4835SOL    HW126138   0.903   4.312   8.191 -2.5585 -2.7464  1.6265
 4835SOL    HW226139   0.761   4.325   8.208 -1.1643  1.1363 -2.2082
 4836SOL     OW26140   0.911   0.801  11.084 -0.5930 -0.4766  0.4887
 4836SOL    HW126141   0.922   0.727  11.145  0.9611 -0.9938 -0.4204
 4836SOL    HW226142   0.990   0.799  11.029 -0.8852  1.1804  0.0225
 4837SOL     OW26143   1.057   1.996   8.182 -0.3453  0.1160  0.2277
 4837SOL    HW126144   0.995   1.954   8.123  0.5514  0.4112 -0.9207
 4837SOL    HW226145   1.096   2.064   8.127 -2.4436  1.3927  0.3422
 4838SOL     OW26146   4.262   3.672   8.398  0.2728 -0.1344  0.3971
 4838SOL    HW126147   4.167   3.676   8.409  0.2497 -1.1574  0.5730
 4838SOL    HW226148   4.290   3.660   8.489  2.3367 -0.3928 -0.2830
 4839SOL     OW26149   3.863   0.598  13.384  0.6010  0.1473  0.5956
 4839SOL    HW126150   3.862   0.690  13.356  0.4940  0.1237  0.5203
 4839SOL    HW226151   3.795   0.608  13.450 -1.3608 -2.0733 -1.0962
 4840SOL     OW26152   3.978   3.244   0.606 -0.5868  0.2011  0.3424
 4840SOL    HW126153   3.914   3.309   0.576  0.8193  1.4913  0.1172
 4840SOL    HW226154   3.923   3.166   0.605  1.2286 -1.0870 -0.5242
 4841SOL     OW26155   2.567   1.959   3.880 -0.1480  0.3321 -0.4868
 4841SOL    HW126156   2.637   1.947   3.816 -1.9019 -0.4919 -2.2426
 4841SOL    HW226157   2.565   1.870   3.915  1.5518  0.8131  0.8157
 4842SOL     OW26158   3.569   2.374   8.283 -0.5428 -0.2812  0.8628
 4842SOL    HW126159   3.545   2.462   8.313 -1.5422  0.1719 -1.2072
 4842SOL    HW226160   3.626   2.407   8.213 -0.5423 -1.3279  0.3737
 4843SOL     OW26161   4.132   3.534   1.457 -0.1845  0.2331  0.2515
 4843SOL    HW126162   4.063   3.478   1.422  1.9039 -1.3175 -1.3418
 4843SOL    HW226163   4.156   3.569   1.371 -0.3778 -1.9372 -0.6822
 4844SOL     OW26164   0.624   1.712   1.549  0.2448 -0.3746 -0.0493
 4844SOL    HW126165   0.653   1.787   1.600 -1.1921  0.9872 -1.2087
 4844SOL    HW226166   0.602   1.648   1.616 -2.4942  0.0869 -0.5313
 4845SOL     OW26167   3.861   1.421   7.553  0.7457 -0.1960  0.9712
 4845SOL    HW126168   3.867   1.488   7.621  1.1959  2.2916 -1.4985
 4845SOL    HW226169   3.944   1.433   7.507  0.5401  0.3521  0.7371
 4846SOL     OW26170   1.491   2.532   3.879  0.5641 -0.2385 -0.4278
 4846SOL    HW126171   1.574   2.569   3.907 -1.4726  2.6506  1.7216
 4846SOL    HW226172   1.455   2.520   3.967 -0.8912  0.7767 -0.8871
 4847SOL     OW26173   3.721   3.797   2.775 -0.3932  0.0438 -0.6680
 4847SOL    HW126174   3.757   3.886   2.768 -0.9772  0.2423 -1.1385
 4847SOL    HW226175   3.795   3.755   2.819 -2.8023 -2.2995  1.0959
 4848SOL     OW26176   2.758   0.354  11.264 -0.0721 -0.3445  0.3074
 4848SOL    HW126177   2.812   0.381  11.191  1.6564 -1.0989  1.2909
 4848SOL    HW226178   2.725   0.440  11.290  0.2418 -0.0428 -0.3224
 4849SOL     OW26179   4.111   1.413   5.453 -0.4368 -0.6869  0.2571
 4849SOL    HW126180   4.140   1.407   5.544  2.5285  1.2768 -0.5751
 4849SOL    HW226181   4.164   1.482   5.415  0.8391 -1.4581  0.6299
 4850SOL     OW26182   0.553   2.257   5.641 -0.4999 -0.2223  0.0190
 4850SOL    HW126183   0.517   2.253   5.730  1.0913 -0.6800  0.6318
 4850SOL    HW226184   0.640   2.242   5.678  0.8412  1.8023 -2.3890
 4851SOL     OW26185   2.285   3.594   3.213  0.0705 -0.4652  0.2755
 4851SOL    HW126186   2.353   3.624   3.272  1.5261  1.0792 -2.1965
 4851SOL    HW226187   2.294   3.660   3.144 -0.1683  0.1736  0.8590
 4852SOL     OW26188   4.185   4.579   8.321 -0.2021 -0.1993  0.2511
 4852SOL    HW126189   4.209   4.668   8.345 -0.5880 -0.2426  0.8201
 4852SOL    HW226190   4.202   4.531   8.402 -3.6411 -1.3930  0.2783
 4853SOL     OW26191   2.168   3.238  12.930 -0.3900 -0.1925  0.0592
 4853SOL    HW126192   2.220   3.232  13.010 -0.8999  0.2755  0.4291
 4853SOL    HW226193   2.078   3.265  12.950 -1.7551 -2.1398 -3.4220
 4854SOL     OW26194   2.831   3.898   2.273 -0.4163 -0.1834  0.3303
 4854SOL    HW126195   2.896   3.891   2.343  0.5520  0.7432 -0.4795
 4854SOL    HW226196   2.787   3.976   2.307 -1.9164  0.3808 -2.8636
 4855SOL     OW26197   2.261   4.529  10.093 -0.0333  0.5291 -0.3476
 4855SOL    HW126198   2.294   4.440  10.087  0.2032  0.5759  0.2640
 4855SOL    HW226199   2.191   4.516  10.157 -0.9061 -2.8980 -2.0097
 4856SOL     OW26200   1.091   3.970   6.747 -0.0329  0.2785  0.3978
 4856SOL    HW126201   1.160   3.999   6.807  0.0634  2.8033 -0.9308
 4856SOL    HW226202   1.131   3.899   6.696 -2.6652  0.2967 -1.7006
 4857SOL     OW26203   3.527   1.341   9.584 -0.4838  0.2034 -0.5152
 4857SOL    HW126204   3.569   1.262   9.550 -1.2706 -0.1181 -0.7288
 4857SOL    HW226205   3.590   1.405   9.617 -1.4982  0.6874  0.4761
 4858SOL     OW26206   3.600   3.165   6.291 -0.1716  0.0926 -0.3906
 4858SOL    HW126207   3.620   3.233   6.355 -1.0075 -0.3673  0.3404
 4858SOL    HW226208   3.681   3.114   6.293 -0.5944 -0.4689  2.3549
 4859SOL     OW26209   1.342   3.104   2.758  0.4876 -0.5658  0.2245
 4859SOL    HW126210   1.274   3.154   2.805  0.8402  1.4238 -1.3542
 4859SOL    HW226211   1.406   3.169   2.786 -0.8924  1.5935 -1.5429
 4860SOL     OW26212   3.421   1.110  10.524 -0.4716  0.1610  0.0421
 4860SOL    HW126213   3.412   1.102  10.430  1.8050 -1.0544 -0.0529
 4860SOL    HW226214   3.478   1.036  10.546  0.4062  0.3312 -1.6847
 4861SOL     OW26215   4.383   2.902   2.230  0.0949 -0.3317  0.1211
 4861SOL    HW126216   4.358   2.831   2.289  1.8235 -0.7429  0.3653
 4861SOL    HW226217   4.410   2.851   2.153  0.4788  1.0014 -0.6288
 4862SOL     OW26218   4.050   4.329  11.347 -0.3916  0.6209  0.5188
 4862SOL    HW126219   4.012   4.366  11.267  0.7196  1.6322  0.4559
 4862SOL    HW226220   3.983   4.349  11.413 -0.3753  2.3505  0.0117
 4863SOL     OW26221   1.560   4.117   6.949  0.2353  0.3837 -0.0909
 4863SOL    HW126222   1.465   4.126   6.955  0.1808 -1.7239  1.9714
 4863SOL    HW226223   1.562   4.028   6.913  1.5579 -0.1368  1.2645
 4864SOL     OW26224   2.437   4.638   3.883  0.1236 -0.4688 -0.3498
 4864SOL    HW126225   2.415   4.672   3.969 -0.8725 -0.8332 -0.4610
 4864SOL    HW226226   2.355   4.596   3.854  1.0585 -1.5471 -1.4459
 4865SOL     OW26227   4.312   3.834   9.133 -0.2098 -0.0797 -0.1050
 4865SOL    HW126228   4.376   3.852   9.065 -0.0368 -2.0847 -0.4552
 4865SOL    HW226229   4.262   3.916   9.123 -0.6079 -0.2744  0.2686
 4866SOL     OW26230   2.169   3.047  11.461 -0.9684  0.3434 -0.5633
 4866SOL    HW126231   2.119   3.044  11.543  0.1644 -0.4726  0.0913
 4866SOL    HW226232   2.111   3.037  11.385 -1.0956 -0.4947 -0.3614
 4867SOL     OW26233   3.090   0.814  16.840 -0.3834 -0.3073  0.5296
 4867SOL    HW126234   3.012   0.759  16.837  1.5507 -3.0657  1.8945
 4867SOL    HW226235   3.152   0.753  16.801  1.6665  1.3913  1.0854
 4868SOL     OW26236   3.488   0.825   3.724 -0.1266  0.0959 -0.0289
 4868SOL    HW126237   3.532   0.888   3.667 -1.8217  1.9127  0.6610
 4868SOL    HW226238   3.469   0.759   3.657  0.6817 -1.2588  1.1046
 4869SOL     OW26239   0.001   4.212   2.217 -0.2504  0.2026  0.0061
 4869SOL    HW126240   0.042   4.168   2.291 -1.7883 -2.1611 -0.5361
 4869SOL    HW226241   4.711   4.135   2.168  2.4630  0.2076 -1.6478
 4870SOL     OW26242   3.859   0.775  16.435 -0.6209  0.1951  0.1000
 4870SOL    HW126243   3.951   0.758  16.416 -0.6860 -1.4562  1.2705
 4870SOL    HW226244   3.846   0.842  16.368  0.8148  0.8738  0.5104
 4871SOL     OW26245   4.281   3.901   3.460  0.3038 -0.1413  0.3057
 4871SOL    HW126246   4.260   3.984   3.504 -0.3814  0.0397 -0.3623
 4871SOL    HW226247   4.262   3.930   3.370 -0.8492  2.9878  1.5565
 4872SOL     OW26248   3.562   1.785   4.060 -0.4739  0.6716  0.7743
 4872SOL    HW126249   3.548   1.758   4.150 -1.6873  1.7233  0.8950
 4872SOL    HW226250   3.648   1.826   4.062 -0.8195  1.5775 -2.1526
 4873SOL     OW26251   0.464   4.422   6.880 -0.0809  0.2027 -0.3060
 4873SOL    HW126252   0.393   4.426   6.944  0.5220  2.1226  0.2678
 4873SOL    HW226253   0.487   4.515   6.882 -1.7478  0.6302 -0.5925
 4874SOL     OW26254   0.086   4.057   3.972  0.3000  0.8035  0.5046
 4874SOL    HW126255   0.098   4.107   4.052  0.6795  1.7564 -0.1542
 4874SOL    HW226256   0.166   4.006   3.974 -1.8018 -2.6444 -2.1462
 4875SOL     OW26257   2.879   3.912   3.503  0.3205  0.5606  0.1633
 4875SOL    HW126258   2.876   4.007   3.496 -0.8534  0.4601 -0.7900
 4875SOL    HW226259   2.883   3.884   3.411  0.0536 -0.9860  0.6100
 4876SOL     OW26260   3.058   3.003   3.616  0.9054 -0.4357  0.2873
 4876SOL    HW126261   3.137   2.978   3.662  0.8285  0.9102  1.1590
 4876SOL    HW226262   3.092   3.054   3.542  1.8254 -2.4814 -0.7047
 4877SOL     OW26263   1.798   1.233   5.044 -0.0747 -0.5334 -0.6874
 4877SOL    HW126264   1.856   1.159   5.062 -0.8862 -0.6980  1.2188
 4877SOL    HW226265   1.738   1.185   4.987  0.2095  0.2587 -1.6560
 4878SOL     OW26266   3.841   0.021   0.172  0.7744  0.1024  0.0572
 4878SOL    HW126267   3.882   4.720   0.095  0.0949 -1.5311  0.5374
 4878SOL    HW226268   3.902   0.009   0.245  0.8983  0.0120 -0.0614
 4879SOL     OW26269   2.709   3.819   2.037 -0.9355  0.3307  0.1345
 4879SOL    HW126270   2.745   3.732   2.020  2.2215  0.9890  3.4775
 4879SOL    HW226271   2.756   3.847   2.116 -3.1398 -0.7841  1.8315
 4880SOL     OW26272   4.727   1.560  16.811 -0.8016  0.7611 -0.0235
 4880SOL    HW126273   0.081   1.550  16.788 -0.7604  0.0149  0.4574
 4880SOL    HW226274   4.696   1.471  16.799 -0.4297  0.7161 -0.6569
 4881SOL     OW26275   1.469   3.014   1.917  0.4553  0.3230  0.6080
 4881SOL    HW126276   1.412   3.087   1.942 -1.0716 -0.8540  0.6018
 4881SOL    HW226277   1.439   2.946   1.978 -1.1337 -0.3013 -0.8659
 4882SOL     OW26278   1.362   0.358   4.229 -0.0474 -0.4515 -0.0031
 4882SOL    HW126279   1.324   0.422   4.169  1.1805  1.5062  1.2876
 4882SOL    HW226280   1.321   0.276   4.204 -0.0322 -0.7501  0.9846
 4883SOL     OW26281   0.563   3.436   6.447 -0.5227  0.0281 -0.0531
 4883SOL    HW126282   0.496   3.485   6.399  0.4145 -0.7084 -2.1020
 4883SOL    HW226283   0.592   3.505   6.506 -1.6533  0.3565  0.1230
 4884SOL     OW26284   2.591   3.074   5.120  0.0291 -0.1547  0.1710
 4884SOL    HW126285   2.542   3.026   5.187  0.6920 -1.6987 -0.4614
 4884SOL    HW226286   2.560   3.162   5.142  0.5921 -0.5154  2.4695
 4885SOL     OW26287   3.870   2.383  15.629 -0.2491 -0.3958 -0.2091
 4885SOL    HW126288   3.945   2.444  15.631 -0.8615  0.4113 -1.5002
 4885SOL    HW226289   3.800   2.447  15.639 -0.2850 -0.6384  1.1216
 4886SOL     OW26290   1.780   1.381   6.877  0.2519  0.6618 -0.3311
 4886SOL    HW126291   1.840   1.322   6.922 -3.0433 -2.7155 -0.4000
 4886SOL    HW226292   1.706   1.360   6.934  2.2544 -0.9908  1.6682
 4887SOL     OW26293   0.062   3.217  12.631  0.3250 -0.0411 -0.5873
 4887SOL    HW126294   0.090   3.199  12.721  1.4252 -0.2639 -0.9804
 4887SOL    HW226295   0.106   3.153  12.575 -2.7974 -2.2581 -0.5386
 4888SOL     OW26296   0.140   1.673   2.905  0.0402 -0.2056 -0.0136
 4888SOL    HW126297   0.106   1.752   2.862  2.3930  2.0272  2.2746
 4888SOL    HW226298   0.059   1.655   2.952  0.9905 -0.1927  1.6038
 4889SOL     OW26299   4.632   1.151   7.815  0.6535  0.1329  0.3561
 4889SOL    HW126300   4.604   1.096   7.888  0.0294  0.3917  0.3166
 4889SOL    HW226301   4.727   1.146   7.822  0.5825  0.1051  1.3165
 4890SOL     OW26302   4.735   0.651   2.645  0.1445 -0.2232 -0.2488
 4890SOL    HW126303   0.077   0.635   2.694 -0.1075  1.3620  0.6757
 4890SOL    HW226304   0.018   0.720   2.581  0.4133  1.0819  1.2482
 4891SOL     OW26305   3.475   2.328  16.473 -0.1072 -0.6642  0.7243
 4891SOL    HW126306   3.565   2.298  16.462  0.5860  1.1557  1.4825
 4891SOL    HW226307   3.467   2.384  16.396  0.0021 -1.3614  0.2049
 4892SOL     OW26308   0.461   4.027  10.898 -0.1756 -0.4216  0.3840
 4892SOL    HW126309   0.373   4.044  10.933 -0.0211 -0.1924  0.6522
 4892SOL    HW226310   0.511   4.082  10.957 -1.2211  0.3540  0.5506
 4893SOL     OW26311   3.837   3.202   6.004 -0.1355 -0.1312  0.2116
 4893SOL    HW126312   3.916   3.205   6.057  0.2443  1.6419 -0.4459
 4893SOL    HW226313   3.827   3.296   5.984 -3.3318 -0.8640 -1.6212
 4894SOL     OW26314   3.198   0.198   7.857 -0.1035  0.1398 -0.0974
 4894SOL    HW126315   3.239   0.111   7.860 -2.5108 -0.9550  0.7756
 4894SOL    HW226316   3.110   0.176   7.886 -0.7910  0.1841 -2.1572
 4895SOL     OW26317   4.728   1.390   4.941 -1.2294 -0.1265 -0.2099
 4895SOL    HW126318   4.696   1.396   4.851  1.0738  1.4709 -0.8973
 4895SOL    HW226319   0.069   1.337   4.934  0.1007  1.9582 -0.6715
 4896SOL     OW26320   1.973   0.616   4.403  0.0228  0.5510  0.4458
 4896SOL    HW126321   1.963   0.573   4.488 -1.0788  0.6219  0.3491
 4896SOL    HW226322   2.062   0.651   4.407 -0.0683  0.5352  2.8998
 4897SOL     OW26323   2.243   1.340   9.060  0.2882  0.1431 -0.0616
 4897SOL    HW126324   2.281   1.371   9.142 -1.9430  0.6410  0.7674
 4897SOL    HW226325   2.149   1.351   9.071  0.5652  1.4644  0.8972
 4898SOL     OW26326   3.259   2.596   0.312  0.7326 -0.2340  0.1104
 4898SOL    HW126327   3.263   2.657   0.238  0.7334 -1.1033 -0.5993
 4898SOL    HW226328   3.260   2.510   0.270 -1.2142  0.5971 -1.6242
 4899SOL     OW26329   2.716   1.318   5.298 -0.2775  0.4530  0.8724
 4899SOL    HW126330   2.696   1.225   5.306 -0.8158  0.5531  0.7128
 4899SOL    HW226331   2.625   1.341   5.281 -0.1511  0.2416 -0.0855
 4900SOL     OW26332   2.447   3.487  10.826 -0.0573 -0.3495  0.0137
 4900SOL    HW126333   2.511   3.551  10.858  1.0321 -0.3244 -2.2154
 4900SOL    HW226334   2.483   3.409  10.869 -0.3190 -0.1171  0.6651
 4901SOL     OW26335   3.858   3.039   1.388 -0.1487  0.2132 -0.3030
 4901SOL    HW126336   3.881   3.053   1.480  1.0377  2.8454 -1.0119
 4901SOL    HW226337   3.772   3.078   1.383 -0.1629  0.3083  0.8442
 4902SOL     OW26338   2.854   0.520   6.675  0.5354  0.3118  0.5915
 4902SOL    HW126339   2.872   0.434   6.637  0.0395  0.8810 -0.8897
 4902SOL    HW226340   2.863   0.573   6.596  1.3463 -1.1034 -0.2621
 4903SOL     OW26341   3.632   0.318   3.726  0.0040 -0.3131 -0.9698
 4903SOL    HW126342   3.707   0.322   3.785 -1.9929  3.9468  1.3378
 4903SOL    HW226343   3.672   0.339   3.642  1.2366 -2.4228 -0.9008
 4904SOL     OW26344   4.023   3.028   5.423  0.6417  0.7292 -0.0609
 4904SOL    HW126345   3.962   3.060   5.356 -1.3214  1.4298  2.0548
 4904SOL    HW226346   3.961   2.965   5.459  1.4544  0.7791  1.4364
 4905SOL     OW26347   2.510   4.487   2.811 -0.1244 -0.1332 -0.0939
 4905SOL    HW126348   2.541   4.553   2.873 -0.2382  0.2373 -0.4271
 4905SOL    HW226349   2.427   4.456   2.847  1.5093 -2.3965  1.6975
 4906SOL     OW26350   3.490   3.164   0.674  0.3988 -0.7345  0.2361
 4906SOL    HW126351   3.476   3.250   0.715 -0.6118  0.2524 -2.2037
 4906SOL    HW226352   3.540   3.126   0.746 -0.4863 -0.6808  0.8785
 4907SOL     OW26353   0.263   3.532   7.142 -0.4123  0.3840 -0.1527
 4907SOL    HW126354   0.228   3.531   7.231 -2.7612 -1.2620 -1.0973
 4907SOL    HW226355   0.198   3.597   7.115 -0.1538  0.0878 -1.5159
 4908SOL     OW26356   0.258   4.701   7.938 -0.5806  0.1960 -0.5494
 4908SOL    HW126357   0.197   0.008   7.997  0.8455  1.9253 -0.4404
 4908SOL    HW226358   0.320   0.033   7.921  2.6840 -2.3975  0.5081
 4909SOL     OW26359   1.514   4.064  12.717 -0.0411 -0.3425  0.2385
 4909SOL    HW126360   1.538   4.070  12.809 -0.4393  1.7681  0.1965
 4909SOL    HW226361   1.423   4.093  12.724  0.6452  1.8759 -0.0579
 4910SOL     OW26362   2.040   0.940   2.775  0.0165 -0.5142 -0.1096
 4910SOL    HW126363   1.967   0.923   2.834 -0.2715 -0.4058 -0.4294
 4910SOL    HW226364   1.988   1.006   2.729  1.6691  0.1620 -1.0222
 4911SOL     OW26365   2.391   1.266   5.812 -0.1637 -0.1341  0.3228
 4911SOL    HW126366   2.417   1.174   5.813  1.1970  0.2680  2.0501
 4911SOL    HW226367   2.428   1.291   5.896 -1.8809  1.7926  0.5033
 4912SOL     OW26368   1.730   4.441  15.615 -0.1922  0.3467 -0.0461
 4912SOL    HW126369   1.805   4.396  15.655  0.2160  1.0627 -0.0034
 4912SOL    HW226370   1.770   4.518  15.574  0.5445  0.2317  0.4392
 4913SOL     OW26371   2.078   2.385   3.234 -0.0180 -0.2977  0.4527
 4913SOL    HW126372   2.038   2.332   3.165  0.7356  0.5401 -0.6264
 4913SOL    HW226373   2.169   2.404   3.209  0.0292 -1.0214  0.0542
 4914SOL     OW26374   0.212   0.352   2.441  0.6261 -0.2694 -0.5033
 4914SOL    HW126375   0.294   0.310   2.416  0.3722 -0.9805 -0.1281
 4914SOL    HW226376   0.159   0.327   2.365 -2.6623 -2.2097  2.4104
 4915SOL     OW26377   4.249   1.028  16.423 -0.2498 -0.3980 -0.4431
 4915SOL    HW126378   4.179   1.090  16.444 -0.8205 -1.0673 -0.3695
 4915SOL    HW226379   4.212   0.945  16.453  1.2044 -0.1497  1.9846
 4916SOL     OW26380   4.080   3.336   6.903 -0.4703  0.1592 -0.1856
 4916SOL    HW126381   4.029   3.379   6.973  1.2093 -1.4452  2.0149
 4916SOL    HW226382   4.106   3.250   6.936  0.1771  0.2259 -0.5337
 4917SOL     OW26383   0.466   1.994  12.193 -0.2925  0.2052 -0.2150
 4917SOL    HW126384   0.559   1.973  12.189 -0.1910  0.4146  0.9867
 4917SOL    HW226385   0.457   2.053  12.268  2.6882 -0.4014  0.6141
 4918SOL     OW26386   3.638   0.063   6.629 -0.5534 -0.3180  0.4037
 4918SOL    HW126387   3.609   0.145   6.587 -0.4793 -0.1648  0.6545
 4918SOL    HW226388   3.609   0.092   6.715 -0.3819 -0.1830  0.4168
 4919SOL     OW26389   0.523   4.593  17.363 -0.3000 -0.3363 -0.1261
 4919SOL    HW126390   0.537   4.505  17.400 -0.4332 -0.9037 -1.4218
 4919SOL    HW226391   0.604   4.607  17.315  0.7177 -1.7628  1.1781
 4920SOL     OW26392   3.961   1.492   1.824 -0.1253 -0.3090 -0.2231
 4920SOL    HW126393   3.995   1.403   1.812 -1.2127 -0.9716  1.6192
 4920SOL    HW226394   3.963   1.519   1.733  1.4745  0.9618  0.1825
 4921SOL     OW26395   0.565   3.950   9.252  0.0889  0.3033  0.3218
 4921SOL    HW126396   0.655   3.927   9.228  0.3321 -2.0885  3.4515
 4921SOL    HW226397   0.513   3.875   9.222 -0.1313 -0.0941  1.6520
 4922SOL     OW26398   4.527   4.161   4.943  0.2186 -0.1473 -0.4537
 4922SOL    HW126399   4.606   4.107   4.937  0.3416 -0.1194  1.0115
 4922SOL    HW226400   4.458   4.119   4.893 -0.6203  0.2014  0.4122
 4923SOL     OW26401   0.579   4.093  15.356  0.4588 -0.3814  0.0259
 4923SOL    HW126402   0.659   4.111  15.308  0.3921  2.0587  0.8225
 4923SOL    HW226403   0.585   3.997  15.355 -0.3634 -0.4061 -2.0903
 4924SOL     OW26404   4.316   1.716   9.167 -0.0879  0.2472 -0.1328
 4924SOL    HW126405   4.394   1.691   9.217 -0.7370 -1.5543 -0.0425
 4924SOL    HW226406   4.270   1.765   9.235 -1.7606  0.2026 -1.2234
 4925SOL     OW26407   4.510   3.414  16.590 -0.5419  0.1229  0.0345
 4925SOL    HW126408   4.459   3.474  16.536 -0.6408 -0.5138 -0.5816
 4925SOL    HW226409   4.591   3.463  16.608  0.9185 -1.9455 -0.9443
 4926SOL     OW26410   1.482   1.908   5.311 -0.6166  0.2466 -0.3296
 4926SOL    HW126411   1.519   1.995   5.304  1.8502 -0.7854  0.0518
 4926SOL    HW226412   1.407   1.905   5.251  0.4626 -0.8956 -1.6133
 4927SOL     OW26413   2.284   0.669   1.980  0.2084 -0.0605  0.4030
 4927SOL    HW126414   2.312   0.578   1.988 -0.1765 -0.3311 -1.4003
 4927SOL    HW226415   2.282   0.683   1.885 -0.1482 -4.0815 -0.1710
 4928SOL     OW26416   0.407   3.741  10.927 -0.0574 -0.0628 -0.1347
 4928SOL    HW126417   0.422   3.835  10.922 -0.5231 -0.1094 -2.3830
 4928SOL    HW226418   0.464   3.708  10.858  1.0290  1.7030 -0.0834
 4929SOL     OW26419   2.099   3.486   8.468 -0.4834  0.4112 -0.2394
 4929SOL    HW126420   2.069   3.508   8.557 -1.1780 -0.2664 -0.3040
 4929SOL    HW226421   2.105   3.393   8.489  0.0123  0.2942 -0.9094
 4930SOL     OW26422   4.393   1.411   1.859 -0.4160  0.4103  0.0760
 4930SOL    HW126423   4.409   1.482   1.798  2.4436 -0.0109  0.3396
 4930SOL    HW226424   4.419   1.332   1.811 -0.4974  0.2943  0.2225
 4931SOL     OW26425   4.646   3.825   0.586  0.0104 -0.3243  0.1335
 4931SOL    HW126426   4.714   3.856   0.646  0.8531 -2.5855  0.3639
 4931SOL    HW226427   4.576   3.821   0.651  0.1087 -0.7999  0.2108
 4932SOL     OW26428   3.347   1.104   3.633 -0.7742  0.0753 -0.0081
 4932SOL    HW126429   3.313   1.135   3.717 -1.5234 -0.1832 -0.2130
 4932SOL    HW226430   3.359   1.010   3.650  1.0694  0.0194 -1.4991
 4933SOL     OW26431   1.808   2.677   9.353 -0.3886  0.1443  0.4309
 4933SOL    HW126432   1.903   2.692   9.354 -0.4916  0.9039 -1.0386
 4933SOL    HW226433   1.802   2.649   9.445  0.0250  0.0157  0.4202
 4934SOL     OW26434   0.241   3.227   9.156  1.0567 -0.6976  0.3183
 4934SOL    HW126435   0.204   3.270   9.232  0.6687  2.8039 -1.8742
 4934SOL    HW226436   0.334   3.246   9.172  0.9559  0.9700 -1.0721
 4935SOL     OW26437   4.263   1.154  16.052 -0.9338 -0.5308 -0.3548
 4935SOL    HW126438   4.171   1.152  16.028 -0.3915 -0.5423 -2.4312
 4935SOL    HW226439   4.299   1.154  15.963  0.9579  0.0237  0.3996
 4936SOL     OW26440   2.002   3.855   5.281 -0.7135 -0.5172  0.0905
 4936SOL    HW126441   1.913   3.820   5.291 -0.9487 -0.4040 -1.6754
 4936SOL    HW226442   1.983   3.922   5.215  0.9260 -0.9785 -0.8196
 4937SOL     OW26443   4.455   0.718   4.111  0.3922 -0.2887  0.0273
 4937SOL    HW126444   4.515   0.682   4.045 -1.4367 -1.4846 -0.9639
 4937SOL    HW226445   4.378   0.699   4.059  0.2043  1.6869 -0.4150
 4938SOL     OW26446   2.488   2.156   6.346  0.0639  0.5172 -0.2105
 4938SOL    HW126447   2.560   2.217   6.333 -0.9300  1.7881  0.2004
 4938SOL    HW226448   2.491   2.135   6.440  3.6200  1.1853 -0.1710
 4939SOL     OW26449   0.786   2.404   9.370  0.5294  0.1196 -0.5676
 4939SOL    HW126450   0.750   2.493   9.365 -0.9709 -0.4758 -0.2904
 4939SOL    HW226451   0.843   2.412   9.294  0.1742 -0.7375 -0.9106
 4940SOL     OW26452   1.201   1.058   5.424  0.3925 -0.3423  0.7406
 4940SOL    HW126453   1.200   0.968   5.390  1.2456  0.7676 -2.1729
 4940SOL    HW226454   1.161   1.100   5.348  0.3488 -2.3566 -0.3693
 4941SOL     OW26455   1.148   2.367  11.113 -0.1360  0.0559  0.9585
 4941SOL    HW126456   1.137   2.273  11.096 -1.2837  0.3636  0.0021
 4941SOL    HW226457   1.138   2.396  11.023 -0.7943 -0.0859  0.9841
 4942SOL     OW26458   4.454   0.414   8.836 -0.1228  0.3694  0.5991
 4942SOL    HW126459   4.494   0.482   8.782 -2.5260 -0.2783 -1.9902
 4942SOL    HW226460   4.369   0.396   8.798  1.4540 -4.3112 -0.7379
 4943SOL     OW26461   0.726   1.361   4.927  0.1765  0.2130  0.3901
 4943SOL    HW126462   0.708   1.297   4.995  1.0923 -0.4802 -0.0084
 4943SOL    HW226463   0.794   1.416   4.967  2.5218 -0.8159 -2.1703
 4944SOL     OW26464   3.622   4.401   7.948  0.5045 -0.1159  0.1333
 4944SOL    HW126465   3.685   4.464   7.983  1.1384 -0.4435 -0.4177
 4944SOL    HW226466   3.584   4.367   8.029  0.2020 -0.2861 -0.0811
 4945SOL     OW26467   1.992   0.252   3.399  0.0122  0.6650  0.8181
 4945SOL    HW126468   2.069   0.302   3.373 -0.9868  1.6399 -0.2502
 4945SOL    HW226469   1.951   0.220   3.319  0.3646  0.5939  0.6636
 4946SOL     OW26470   3.189   2.615   3.173  0.1869 -0.3413 -0.2503
 4946SOL    HW126471   3.114   2.613   3.114  0.5076 -1.1881 -0.6383
 4946SOL    HW226472   3.150   2.659   3.248 -0.2589  2.7828 -2.3239
 4947SOL     OW26473   3.405   3.950   6.723 -0.1740 -0.4899 -0.3345
 4947SOL    HW126474   3.484   3.988   6.684  0.4891 -2.2975 -0.7542
 4947SOL    HW226475   3.446   3.877   6.770 -0.2341 -0.6812 -0.5843
 4948SOL     OW26476   1.579   4.540   1.712  0.0287 -0.1946  0.4393
 4948SOL    HW126477   1.515   4.573   1.648  1.3947  1.4129 -0.0931
 4948SOL    HW226478   1.531   4.469   1.755 -0.0205  1.2227  2.7036
 4949SOL     OW26479   2.049   4.673   7.400 -0.3234  0.6602 -0.3234
 4949SOL    HW126480   2.005   0.010   7.437 -0.5439 -0.7777  2.3904
 4949SOL    HW226481   2.029   4.686   7.307  0.0615 -0.8870 -0.6239
 4950SOL     OW26482   2.700   2.410  15.092 -0.2812 -0.2140 -0.2534
 4950SOL    HW126483   2.701   2.494  15.047  1.8974  0.0589  0.3457
 4950SOL    HW226484   2.792   2.408  15.117 -0.2918 -0.7604 -0.2418
 4951SOL     OW26485   0.754   2.363   8.294  0.3762  0.2300  0.9505
 4951SOL    HW126486   0.819   2.299   8.320  0.9628  0.1710 -0.7144
 4951SOL    HW226487   0.818   2.433   8.283  0.1220 -0.0097 -1.9162
 4952SOL     OW26488   4.182   2.203   3.517  0.1023 -0.0121 -0.4502
 4952SOL    HW126489   4.129   2.149   3.575  0.0403 -1.3340 -1.7326
 4952SOL    HW226490   4.120   2.236   3.452 -2.0444 -0.7254  1.2583
 4953SOL     OW26491   4.666   2.732   8.637  0.5607  0.5647 -0.1661
 4953SOL    HW126492   4.675   2.811   8.690  2.8451 -0.6618  1.2758
 4953SOL    HW226493   4.586   2.746   8.588 -0.9580  1.4664  2.5766
 4954SOL     OW26494   4.259   1.087   1.938  0.0208  0.1905 -0.3254
 4954SOL    HW126495   4.280   1.124   2.024 -0.7799  2.1801 -0.9927
 4954SOL    HW226496   4.338   1.095   1.884  0.6886 -2.4589  0.2664
 4955SOL     OW26497   1.653   4.036   0.937 -0.4240 -0.0777 -0.2256
 4955SOL    HW126498   1.662   4.078   0.852  2.4918 -0.0349  0.1030
 4955SOL    HW226499   1.562   4.055   0.961  0.0522  1.0053  0.7395
 4956SOL     OW26500   4.053   2.169   9.399  0.7020  0.9021  0.3803
 4956SOL    HW126501   4.117   2.239   9.398  1.7248 -0.0220  0.8864
 4956SOL    HW226502   4.071   2.118   9.320  0.0261 -1.5306  1.7928
 4957SOL     OW26503   0.831   3.610   6.320  0.3525  0.0346 -0.0954
 4957SOL    HW126504   0.775   3.534   6.306  0.4745  0.0230 -0.5377
 4957SOL    HW226505   0.770   3.680   6.296  0.1477  0.8037  2.6585
 4958SOL     OW26506   4.256   2.908  17.740 -0.4333  0.6623  0.5865
 4958SOL    HW126507   4.194   2.980  17.734 -1.7341 -0.6779 -2.2944
 4958SOL    HW226508   4.200   2.838  17.705  0.4454  0.4285 -0.3628
 4959SOL     OW26509   0.696   3.385   6.914  0.3733 -0.0665  0.0495
 4959SOL    HW126510   0.624   3.351   6.968  0.9422 -0.0519  0.8207
 4959SOL    HW226511   0.735   3.438   6.983  0.9539 -2.0275  1.2388
 4960SOL     OW26512   4.199   0.465   7.477  0.1073  0.0225 -0.1428
 4960SOL    HW126513   4.134   0.395   7.485  0.4134 -0.0570  1.5114
 4960SOL    HW226514   4.146   0.538   7.445 -1.4980 -0.7014  0.8686
 4961SOL     OW26515   3.204   2.078  16.709  0.5207 -0.2849 -0.3859
 4961SOL    HW126516   3.194   2.144  16.778 -0.6464  1.0111 -1.7800
 4961SOL    HW226517   3.112   2.056  16.693 -0.4357  2.1550  1.7171
 4962SOL     OW26518   3.717   0.140  12.069 -0.1745  0.6617 -0.1948
 4962SOL    HW126519   3.676   0.087  12.137 -2.6030  0.9448 -1.4687
 4962SOL    HW226520   3.699   0.087  11.992 -2.1319  1.6798 -0.4164
 4963SOL     OW26521   2.301   3.700   2.675  0.5549  0.3393  0.2086
 4963SOL    HW126522   2.355   3.633   2.718 -0.9252  0.3692  2.1235
 4963SOL    HW226523   2.226   3.703   2.734  0.9341  0.3467  0.6874
 4964SOL     OW26524   0.372   0.182   7.811 -0.4827 -0.0464  0.2605
 4964SOL    HW126525   0.452   0.232   7.801  0.4598 -1.4186  0.8359
 4964SOL    HW226526   0.320   0.255   7.844 -1.6185 -0.6826 -0.1235
 4965SOL     OW26527   1.713   3.214   9.285  0.4030  0.0273 -0.5852
 4965SOL    HW126528   1.688   3.304   9.264 -0.7185 -0.0419  0.4825
 4965SOL    HW226529   1.689   3.186   9.197  2.0898 -0.5520 -0.8742
 4966SOL     OW26530   2.349   0.649   7.018 -0.1647  0.1703  0.3416
 4966SOL    HW126531   2.444   0.649   7.002 -0.3397  2.2489 -0.7053
 4966SOL    HW226532   2.335   0.558   7.044 -1.3273  0.1646 -0.2953
 4967SOL     OW26533   2.994   3.116   8.398 -0.0575 -0.2830 -0.3130
 4967SOL    HW126534   2.938   3.105   8.475 -2.4563  1.3124 -1.8338
 4967SOL    HW226535   3.078   3.074   8.417 -0.9437 -2.1510 -0.4498
 4968SOL     OW26536   2.882   2.044   7.239  0.4978  0.7275  0.5481
 4968SOL    HW126537   2.829   2.031   7.160 -0.3791 -1.1977  1.4487
 4968SOL    HW226538   2.845   2.129   7.263 -2.3790 -0.3472 -0.1048
 4969SOL     OW26539   0.903   0.612   3.679 -0.5880 -0.3778  0.2710
 4969SOL    HW126540   0.881   0.705   3.687  2.1282  0.1922  1.3187
 4969SOL    HW226541   0.896   0.578   3.769  0.3910  0.9727  0.8566
 4970SOL     OW26542   3.322   0.683   3.276  0.1098  0.1633 -0.2518
 4970SOL    HW126543   3.278   0.653   3.196  1.8056 -0.4226 -0.9724
 4970SOL    HW226544   3.269   0.756   3.309 -0.3917 -1.0093  1.5173
 4971SOL     OW26545   4.037   1.061  12.353  0.7148 -0.2285 -0.3699
 4971SOL    HW126546   4.018   0.967  12.356  1.4936 -0.3732  0.0423
 4971SOL    HW226547   3.963   1.090  12.407  0.5481  0.4738 -0.9906
 4972SOL     OW26548   0.596   0.231   9.427  0.5497 -0.0945  0.2655
 4972SOL    HW126549   0.656   0.156   9.425 -0.0841 -0.6251  1.0500
 4972SOL    HW226550   0.661   0.300   9.445  1.7467 -0.9793 -0.6282
 4973SOL     OW26551   3.855   2.343   0.175  0.3962 -0.5292 -0.4092
 4973SOL    HW126552   3.908   2.284   0.229 -0.6178 -0.8759  0.2105
 4973SOL    HW226553   3.811   2.273   0.127 -2.1920 -0.5390  1.9581
 4974SOL     OW26554   0.087   1.597   3.261  0.1214 -0.2690  0.2884
 4974SOL    HW126555   0.017   1.622   3.201 -0.4057 -1.2902  0.4695
 4974SOL    HW226556   0.045   1.552   3.335 -2.0881 -2.2752 -2.1855
 4975SOL     OW26557   0.283   3.407  15.410  0.3201  0.1640  0.6614
 4975SOL    HW126558   0.224   3.452  15.350 -0.6674  1.1626  2.3797
 4975SOL    HW226559   0.267   3.474  15.477 -1.9733  1.0682 -0.7639
 4976SOL     OW26560   0.118   4.106   4.267 -0.6701  0.0796  0.3369
 4976SOL    HW126561   0.093   4.020   4.299  1.6205  0.2488  2.6373
 4976SOL    HW226562   0.041   4.158   4.289  1.3206  2.7721  0.9341
 4977SOL     OW26563   0.296   3.010   1.024 -0.1300  1.0439  0.1335
 4977SOL    HW126564   0.349   2.932   1.009 -2.7623 -1.0560  1.5852
 4977SOL    HW226565   0.209   2.981   0.995 -0.0936  0.6353  0.4264
 4978SOL     OW26566   3.258   4.187   7.915 -0.4667 -0.6923 -0.1246
 4978SOL    HW126567   3.292   4.099   7.930 -1.2145 -1.0610 -0.5888
 4978SOL    HW226568   3.171   4.176   7.953  0.0198 -0.6802  0.9787
 4979SOL     OW26569   2.235   1.670   4.576 -0.4553  0.0976  0.6440
 4979SOL    HW126570   2.210   1.731   4.645  0.8815  2.4544 -0.9298
 4979SOL    HW226571   2.223   1.586   4.620  0.0886 -0.6836 -0.7204
 4980SOL     OW26572   2.075   4.677   6.667 -0.3439 -0.1855 -0.0016
 4980SOL    HW126573   2.016   0.014   6.666 -0.0716  0.0671  3.6855
 4980SOL    HW226574   2.139   4.706   6.732 -2.9507  0.7789  2.1225
 4981SOL     OW26575   3.592   2.956   4.239  0.4343  0.6685  0.0044
 4981SOL    HW126576   3.635   2.888   4.291 -0.4422  1.0341  1.2260
 4981SOL    HW226577   3.614   3.024   4.303 -1.4391 -0.8106  2.2398
 4982SOL     OW26578   1.320   1.211   4.252 -1.0881  0.1775 -0.1734
 4982SOL    HW126579   1.246   1.271   4.246 -0.3774  1.2443  1.8796
 4982SOL    HW226580   1.354   1.226   4.164 -1.6666 -0.2749 -0.4711
 4983SOL     OW26581   0.844   0.318   5.208 -0.4795 -0.5925 -0.0342
 4983SOL    HW126582   0.792   0.270   5.272 -1.0710 -2.6973 -2.0716
 4983SOL    HW226583   0.859   0.239   5.155  1.2403  1.7932 -3.0749
 4984SOL     OW26584   4.303   3.214   8.051  0.2355 -0.6680 -0.6602
 4984SOL    HW126585   4.368   3.185   8.115 -0.2137  0.0784  0.1471
 4984SOL    HW226586   4.305   3.310   8.047  2.1237 -0.6852 -0.1443
 4985SOL     OW26587   0.285   0.228   9.483 -0.0919  0.5825 -0.4088
 4985SOL    HW126588   0.291   0.238   9.388  0.7195 -0.3512 -0.4593
 4985SOL    HW226589   0.371   0.245   9.522 -0.5968  1.4333  0.3348
 4986SOL     OW26590   2.163   4.653   3.146  0.3351  0.2492  0.4113
 4986SOL    HW126591   2.198   4.679   3.231 -0.1545 -1.0698  1.0008
 4986SOL    HW226592   2.152   4.561   3.170 -0.4681  0.3235  0.3448
 4987SOL     OW26593   2.420   3.087   3.076  0.5134  0.2333  0.1905
 4987SOL    HW126594   2.389   3.097   2.986 -0.0322  0.1095  0.3682
 4987SOL    HW226595   2.401   3.175   3.110 -1.0963  0.8050 -2.2311
 4988SOL     OW26596   4.258   1.956   1.654  0.0724 -0.5001  0.5459
 4988SOL    HW126597   4.196   1.883   1.654 -1.4108  0.7549 -0.2206
 4988SOL    HW226598   4.297   1.942   1.568 -2.8000 -1.8351 -0.5421
 4989SOL     OW26599   0.683   0.173  11.937 -0.2830  0.2924  0.1925
 4989SOL    HW126600   0.713   0.220  11.859 -2.3205  0.5823 -0.4080
 4989SOL    HW226601   0.643   0.096  11.897 -1.0522  0.1623  1.2126
 4990SOL     OW26602   1.426   1.878   0.911 -0.0326  0.0280  0.2494
 4990SOL    HW126603   1.426   1.860   0.817 -0.0902  0.6259  0.1311
 4990SOL    HW226604   1.455   1.969   0.900  0.1751 -0.0907 -0.1978
 4991SOL     OW26605   2.154   2.786  17.416 -0.2830  0.5508  0.9725
 4991SOL    HW126606   2.143   2.871  17.457  0.2846  0.8008  0.6148
 4991SOL    HW226607   2.243   2.764  17.444  0.9499  2.1500 -1.6367
 4992SOL     OW26608   1.977   2.908   5.940 -0.4750  0.6045  0.1336
 4992SOL    HW126609   1.928   2.895   5.858 -0.9342 -1.2970  0.7133
 4992SOL    HW226610   2.065   2.876   5.922 -0.3360  0.8098  0.4478
 4993SOL     OW26611   0.988   2.578   6.709 -0.6715  0.4324 -0.0446
 4993SOL    HW126612   1.048   2.602   6.780  0.0336  0.3891 -0.6278
 4993SOL    HW226613   1.040   2.500   6.689 -0.4511  0.2698  1.1367
 4994SOL     OW26614   2.121   0.601  11.600 -0.3069  0.2216 -0.1198
 4994SOL    HW126615   2.136   0.565  11.688 -0.8331 -0.5111 -0.3279
 4994SOL    HW226616   2.193   0.662  11.584  0.4111 -0.7818 -0.7540
 4995SOL     OW26617   0.662   0.131  17.625 -0.1831 -0.0529  0.6779
 4995SOL    HW126618   0.741   0.101  17.581  0.6492  2.2087  0.6505
 4995SOL    HW226619   0.685   0.141  17.717 -1.5543 -3.7716  1.4178
 4996SOL     OW26620   1.284   4.404   1.785 -0.2373  0.4367  0.2766
 4996SOL    HW126621   1.205   4.454   1.803 -1.7157 -1.4185 -0.9376
 4996SOL    HW226622   1.266   4.330   1.843 -3.1494 -0.7229 -2.0730
 4997SOL     OW26623   1.251   4.717  15.027  0.7371 -0.4289 -0.7116
 4997SOL    HW126624   1.265   4.648  14.962 -0.4106 -1.7548  0.4450
 4997SOL    HW226625   1.307   4.685  15.097  1.0959  0.4342 -0.6051
 4998SOL     OW26626   3.682   0.005   6.047 -0.8905  0.7647  0.0715
 4998SOL    HW126627   3.748   4.731   5.978 -1.3866 -0.8449 -0.1118
 4998SOL    HW226628   3.628   4.665   6.049 -0.5290  0.5973  2.5244
 4999SOL     OW26629   1.119   4.547  15.856 -0.1028  0.3209  0.0105
 4999SOL    HW126630   1.080   4.587  15.777  0.9922 -0.3107 -0.8497
 4999SOL    HW226631   1.088   4.612  15.918 -0.7097 -1.6050  1.7070
 5000SOL     OW26632   2.898   3.833   7.344  0.4718  0.2410 -0.3391
 5000SOL    HW126633   2.827   3.835   7.279 -0.7954  2.7548  1.1010
 5000SOL    HW226634   2.857   3.770   7.403 -1.1349  0.9809 -0.6446
 5001SOL     OW26635   4.490   0.360   6.255 -0.0215  0.3950  0.1746
 5001SOL    HW126636   4.547   0.429   6.290  1.5379 -1.3616  1.1221
 5001SOL    HW226637   4.403   0.390   6.280 -0.5752 -1.3528  0.3546
 5002SOL     OW26638   0.488   3.968  13.679  0.1867 -0.7995  0.2949
 5002SOL    HW126639   0.550   3.998  13.745 -0.0211 -0.0203  0.1357
 5002SOL    HW226640   0.559   3.937  13.623  0.1125  0.4253 -0.4799
 5003SOL     OW26641   2.772   0.252  16.061  0.0625  0.1639  0.1119
 5003SOL    HW126642   2.692   0.201  16.043  0.3999 -0.1271 -0.5715
 5003SOL    HW226643   2.770   0.241  16.156 -0.0690 -0.9557 -0.0191
 5004SOL     OW26644   1.750   1.604   3.344  0.7487 -0.1412 -0.2887
 5004SOL    HW126645   1.771   1.539   3.412 -0.0796  0.9997  1.0421
 5004SOL    HW226646   1.687   1.556   3.291  4.2000 -2.0961 -2.6420
 5005SOL     OW26647   4.403   0.381   7.684 -0.5620 -0.8803 -0.3065
 5005SOL    HW126648   4.375   0.447   7.748 -2.4941 -1.5330 -0.5001
 5005SOL    HW226649   4.356   0.402   7.604  0.4756  1.9193 -0.2064
 5006SOL     OW26650   0.365   3.965   5.859  0.0297 -0.7185  0.3863
 5006SOL    HW126651   0.382   4.036   5.920 -1.4396 -1.3522  1.5315
 5006SOL    HW226652   0.406   4.005   5.783 -1.4100 -0.4506 -0.2563
 5007SOL     OW26653   3.311   0.693  16.727  0.1369 -0.7318  0.0403
 5007SOL    HW126654   3.387   0.642  16.698  0.0724  0.0313 -1.4503
 5007SOL    HW226655   3.274   0.722  16.644  1.2193  1.3464  0.2933
 5008SOL     OW26656   2.285   4.170   2.648  0.0404  0.5479 -0.9018
 5008SOL    HW126657   2.377   4.149   2.661 -0.1940  0.5640  0.8332
 5008SOL    HW226658   2.279   4.252   2.697  0.3390  0.2837 -0.4194
 5009SOL     OW26659   2.786   2.040  10.729 -0.4027 -0.0017 -0.3371
 5009SOL    HW126660   2.810   2.131  10.713 -1.7249  0.1193 -1.6220
 5009SOL    HW226661   2.870   1.996  10.715 -0.6362  0.3121 -2.8149
 5010SOL     OW26662   1.822   4.400  11.056  0.4535  0.0808 -0.3784
 5010SOL    HW126663   1.883   4.466  11.024 -0.8759  1.9919  1.0235
 5010SOL    HW226664   1.742   4.451  11.075  0.7958 -0.2965  2.0136
 5011SOL     OW26665   3.821   0.435   6.499  0.1363  0.4423 -0.2840
 5011SOL    HW126666   3.894   0.420   6.439  0.3516 -1.7697  0.5390
 5011SOL    HW226667   3.842   0.513   6.551 -1.4183  0.5442  0.1802
 5012SOL     OW26668   0.782   0.920   3.225  0.5203 -0.0110 -0.4567
 5012SOL    HW126669   0.745   1.007   3.211 -0.5361 -0.0232  2.0839
 5012SOL    HW226670   0.791   0.891   3.135 -2.1639 -2.8462  0.1599
 5013SOL     OW26671   0.197   2.076   6.748  0.7526 -0.1832 -0.3905
 5013SOL    HW126672   0.216   1.991   6.788 -0.3902 -1.2799 -2.1938
 5013SOL    HW226673   0.236   2.134   6.813  0.1990 -0.2415 -0.0087
 5014SOL     OW26674   3.846   0.081   3.250 -0.5892 -0.0938  0.4345
 5014SOL    HW126675   3.779   0.102   3.316 -2.4702 -0.2829 -1.4115
 5014SOL    HW226676   3.793   0.029   3.190 -0.5210 -1.4439  1.5365
 5015SOL     OW26677   2.680   3.247   8.275 -0.1885  0.3729  0.0405
 5015SOL    HW126678   2.726   3.218   8.197  1.7433  2.2964  0.4534
 5015SOL    HW226679   2.686   3.171   8.332 -0.6918 -0.2262 -0.7090
 5016SOL     OW26680   2.292   2.576   4.912 -0.0793 -0.1154  0.3895
 5016SOL    HW126681   2.323   2.619   4.991  0.5776 -0.3020  0.2339
 5016SOL    HW226682   2.196   2.584   4.910 -0.1819 -1.2731  0.7404
 5017SOL     OW26683   3.508   1.188  14.613  0.1557 -0.0823 -0.7275
 5017SOL    HW126684   3.567   1.179  14.538 -0.4649  0.0785 -1.2347
 5017SOL    HW226685   3.427   1.152  14.578 -0.7112  1.4844 -0.3196
 5018SOL     OW26686   1.101   1.694   4.042  0.4597 -0.3322  0.0191
 5018SOL    HW126687   1.020   1.717   3.997  0.3947 -1.9819 -0.7084
 5018SOL    HW226688   1.100   1.772   4.098 -1.1376  0.2206 -0.7982
 5019SOL     OW26689   1.853   2.054   1.850  0.0274 -0.4408 -0.0099
 5019SOL    HW126690   1.793   2.054   1.776 -0.1765 -2.4533  0.1552
 5019SOL    HW226691   1.914   1.984   1.826  0.6159  0.4518 -1.1147
 5020SOL     OW26692   1.071   3.811   7.268 -0.6973  0.1176  0.0414
 5020SOL    HW126693   1.009   3.879   7.292 -1.2117 -1.1508  2.3120
 5020SOL    HW226694   1.044   3.792   7.178  1.6814 -2.4386 -0.1475
 5021SOL     OW26695   3.061   2.407   3.619  0.2125 -0.3874  0.9795
 5021SOL    HW126696   2.970   2.436   3.613  0.6968  0.6580 -1.1851
 5021SOL    HW226697   3.057   2.321   3.577  0.2059 -0.9973  2.2163
 5022SOL     OW26698   0.584   3.311   7.204  0.3361 -0.1803 -0.2135
 5022SOL    HW126699   0.563   3.369   7.277 -0.5492  1.7157 -1.9949
 5022SOL    HW226700   0.494   3.286   7.184  0.8340 -1.8482 -0.3701
 5023SOL     OW26701   1.226   2.680  12.145  0.0006 -0.4354 -0.1542
 5023SOL    HW126702   1.272   2.734  12.209  0.4267  0.0493 -0.8699
 5023SOL    HW226703   1.285   2.685  12.069 -0.3355 -0.1080 -0.3922
 5024SOL     OW26704   4.104   3.049   7.998 -0.0602  0.1328  0.5372
 5024SOL    HW126705   4.040   3.110   8.035 -2.5724 -1.0301 -1.8398
 5024SOL    HW226706   4.184   3.095   8.023  0.4136 -0.3125 -0.1602
 5025SOL     OW26707   1.922   1.965   6.461 -0.6890 -0.0643 -0.8103
 5025SOL    HW126708   2.013   1.963   6.493 -1.6177  0.4166  1.8975
 5025SOL    HW226709   1.878   1.889   6.499 -1.5012 -0.1749 -2.0028
 5026SOL     OW26710   1.779   4.146  14.578  0.0648 -0.2894 -0.4016
 5026SOL    HW126711   1.716   4.138  14.507 -0.6916  0.8516  0.1479
 5026SOL    HW226712   1.852   4.162  14.518  0.7956  1.6779  1.0256
 5027SOL     OW26713   2.151   2.733   6.120  0.0328 -0.2555  0.0319
 5027SOL    HW126714   2.201   2.677   6.180 -0.6547  1.4836  2.2178
 5027SOL    HW226715   2.157   2.818   6.164 -3.3482  0.6831 -1.3382
 5028SOL     OW26716   0.535   4.362   7.620 -1.0259 -0.0277  0.4756
 5028SOL    HW126717   0.605   4.366   7.686 -0.1676 -0.0597 -0.4359
 5028SOL    HW226718   0.495   4.447   7.640  1.8691  1.3163  0.5459
 5029SOL     OW26719   4.133   1.909   5.899 -0.3073 -0.0556 -0.2255
 5029SOL    HW126720   4.128   1.882   5.990 -1.5990  1.0526  0.0327
 5029SOL    HW226721   4.064   1.976   5.892 -0.1845  0.2016  1.0563
 5030SOL     OW26722   1.385   2.347   5.287 -0.5092 -0.4697  0.6068
 5030SOL    HW126723   1.314   2.285   5.269 -0.6225  0.0296 -0.6357
 5030SOL    HW226724   1.447   2.311   5.223 -0.8050 -0.4647  0.3187
 5031SOL     OW26725   3.816   0.595   7.626 -0.6179  0.2698 -0.5679
 5031SOL    HW126726   3.813   0.504   7.657 -1.2372  1.5239  3.0829
 5031SOL    HW226727   3.780   0.635   7.705  3.1641 -1.0609  1.8384
 5032SOL     OW26728   3.844   3.091   7.021 -0.4269 -0.4434 -0.1950
 5032SOL    HW126729   3.833   3.052   7.107 -0.6716 -0.0923 -0.0713
 5032SOL    HW226730   3.939   3.092   7.011 -0.3642  2.8857  0.9186
 5033SOL     OW26731   0.946   1.210   6.374  0.2188  0.4563  0.4839
 5033SOL    HW126732   1.016   1.271   6.352  0.8407 -0.6560 -0.6167
 5033SOL    HW226733   0.963   1.127   6.330 -0.3416  1.0369 -0.8501
 5034SOL     OW26734   3.136   1.894   5.040 -0.6488 -0.1058  0.5121
 5034SOL    HW126735   3.170   1.811   5.005 -1.0779  0.6589 -1.6861
 5034SOL    HW226736   3.152   1.949   4.964  1.1193 -2.6508 -0.9586
 5035SOL     OW26737   4.028   4.613  13.630 -0.1618  0.1011 -0.7533
 5035SOL    HW126738   4.060   4.691  13.583 -0.6404 -0.2651 -1.6904
 5035SOL    HW226739   3.961   4.645  13.689 -1.7843 -0.3390 -2.3617
 5036SOL     OW26740   3.138   2.758  14.985  0.5060 -0.6625  0.2223
 5036SOL    HW126741   3.224   2.794  15.009 -0.0574 -0.2873  1.6485
 5036SOL    HW226742   3.142   2.782  14.892 -0.9541 -1.8368 -0.1396
 5037SOL     OW26743   1.264   4.277  14.639 -0.1623 -0.2359 -0.2275
 5037SOL    HW126744   1.255   4.219  14.563 -0.3336 -1.1414  0.4846
 5037SOL    HW226745   1.303   4.350  14.592  1.4209 -1.4024 -0.7223
 5038SOL     OW26746   2.475   0.263   3.973  0.6010  0.3848  0.8080
 5038SOL    HW126747   2.510   0.235   4.058 -3.2816 -0.6873  2.0388
 5038SOL    HW226748   2.380   0.252   3.971  0.9511 -2.8008  0.6918
 5039SOL     OW26749   3.015   4.229   6.994 -0.2490  0.1842 -0.6175
 5039SOL    HW126750   2.965   4.258   7.070 -2.3579 -1.1514 -1.4881
 5039SOL    HW226751   3.037   4.144   7.030  2.1799  1.2024  0.2874
 5040SOL     OW26752   2.003   1.014   0.484 -0.0324 -0.4071  0.2676
 5040SOL    HW126753   2.065   0.941   0.482 -1.0107 -1.2504  0.3219
 5040SOL    HW226754   1.921   0.967   0.467  0.2624 -1.3927  1.6189
 5041SOL     OW26755   1.055   1.470   1.594  0.4001  0.4788 -0.1868
 5041SOL    HW126756   1.012   1.394   1.555  3.1672 -1.4427  0.4797
 5041SOL    HW226757   1.118   1.485   1.523  2.5393  1.2985  1.8716
 5042SOL     OW26758   0.162   2.148   0.947 -0.5224 -0.6928  0.2310
 5042SOL    HW126759   0.142   2.120   1.036 -0.1425  0.2246  0.6062
 5042SOL    HW226760   0.244   2.198   0.953 -0.1662 -1.1136 -1.0873
 5043SOL     OW26761   1.909   1.156   2.481  0.3006  0.5807  0.1003
 5043SOL    HW126762   1.838   1.216   2.459  1.6066  1.1026 -2.5762
 5043SOL    HW226763   1.857   1.088   2.525  1.6938 -0.3121  0.3686
 5044SOL     OW26764   1.443   2.218   3.197  0.6305  0.3638  0.1734
 5044SOL    HW126765   1.465   2.158   3.125 -1.5447  0.5057 -0.6120
 5044SOL    HW226766   1.528   2.234   3.237  0.0274  0.2104  1.5307
 5045SOL     OW26767   2.114   1.397   3.594  0.1729  0.1040  0.1018
 5045SOL    HW126768   2.133   1.323   3.652 -1.5890 -0.5539 -0.1355
 5045SOL    HW226769   2.193   1.399   3.541  0.3977  3.5574  0.5850
 5046SOL     OW26770   1.190   1.860   3.790 -0.3423 -0.8474 -0.2758
 5046SOL    HW126771   1.151   1.945   3.810  2.0749  0.9328 -2.9853
 5046SOL    HW226772   1.136   1.834   3.716 -0.5220  1.3138 -0.8900
 5047SOL     OW26773   2.897   0.937   8.665  0.0735  0.0645 -0.4905
 5047SOL    HW126774   2.893   1.000   8.737  5.0062  0.8009 -0.8181
 5047SOL    HW226775   2.806   0.949   8.641 -0.6609 -0.4764  1.9865
 5048SOL     OW26776   1.114   1.555   9.360  0.0671  0.3370  0.0568
 5048SOL    HW126777   1.073   1.632   9.321 -1.9692 -2.2875 -2.9205
 5048SOL    HW226778   1.160   1.543   9.277  1.1605  1.6116  0.4738
 5049SOL     OW26779   0.368   3.082   3.491 -0.2094  0.1391  0.4850
 5049SOL    HW126780   0.450   3.068   3.444 -0.1577 -0.4695  0.7462
 5049SOL    HW226781   0.339   3.160   3.445 -0.6241 -0.3354 -0.0561
 5050SOL     OW26782   1.622   0.945  16.444  0.3783  0.2125  0.3783
 5050SOL    HW126783   1.716   0.958  16.447  0.1438  1.6731  1.6329
 5050SOL    HW226784   1.611   0.939  16.349 -2.0477  3.0796  0.4544
 5051SOL     OW26785   0.957   2.521   8.208 -0.4028 -0.1241  0.3543
 5051SOL    HW126786   1.052   2.522   8.208 -0.3916  0.2176  2.3983
 5051SOL    HW226787   0.927   2.573   8.133 -0.6918 -1.4427 -0.4404
 5052SOL     OW26788   0.149   3.494  12.657  0.1224 -0.7539 -0.1918
 5052SOL    HW126789   0.177   3.459  12.742  2.5750  0.9847 -0.2693
 5052SOL    HW226790   0.115   3.410  12.626 -2.0659 -0.9881  2.8188
 5053SOL     OW26791   3.903   0.517   2.397 -0.1404  0.0063 -0.1586
 5053SOL    HW126792   3.907   0.428   2.431  1.9982  1.3037  2.9610
 5053SOL    HW226793   3.997   0.534   2.396 -0.1908  0.3720  3.7101
 5054SOL     OW26794   0.661   4.169   0.630 -0.4479  0.0407 -0.6380
 5054SOL    HW126795   0.667   4.143   0.538 -0.7567 -3.3820  0.3039
 5054SOL    HW226796   0.628   4.087   0.666  2.4766 -0.0130  1.9202
 5055SOL     OW26797   3.603   1.930  10.299 -0.7780  0.1905 -0.2021
 5055SOL    HW126798   3.539   1.971  10.241  1.1286 -1.4815 -3.5148
 5055SOL    HW226799   3.673   1.996  10.303 -0.9295  0.4021 -0.9681
 5056SOL     OW26800   1.861   1.495   5.037  0.3665 -0.2568 -0.4543
 5056SOL    HW126801   1.824   1.407   5.047  0.5805 -0.3231 -0.2526
 5056SOL    HW226802   1.943   1.497   5.087 -0.1034 -0.7006  0.3356
 5057SOL     OW26803   1.548   3.632   3.513  0.5098 -0.3908 -0.3525
 5057SOL    HW126804   1.591   3.673   3.589 -2.9373  1.1551  0.7494
 5057SOL    HW226805   1.590   3.546   3.504  0.2424 -0.6383  0.7420
 5058SOL     OW26806   0.934   3.492  17.656 -0.0481 -0.5808  0.6800
 5058SOL    HW126807   0.969   3.422  17.602  0.7572 -0.1111  0.5978
 5058SOL    HW226808   0.885   3.436  17.716  1.4293 -1.9317  0.6295
 5059SOL     OW26809   2.237   3.288   0.588  0.0282 -0.4333  0.3365
 5059SOL    HW126810   2.149   3.323   0.597  0.7321  1.2358  0.7264
 5059SOL    HW226811   2.227   3.215   0.526 -0.8337  0.5845 -0.7185
 5060SOL     OW26812   0.510   3.493   3.461  0.5252  0.5753  0.2672
 5060SOL    HW126813   0.550   3.521   3.378  0.6327 -3.1904 -0.9987
 5060SOL    HW226814   0.588   3.490   3.516  1.3323 -1.7593 -0.9706
 5061SOL     OW26815   0.743   0.032   3.124 -0.1419  0.2399 -0.0013
 5061SOL    HW126816   0.684   0.026   3.199  0.1282  0.2928  0.2173
 5061SOL    HW226817   0.766   4.678   3.115  0.5548  0.3169  1.0878
 5062SOL     OW26818   3.512   4.287  16.108 -0.5635  0.1127 -0.1813
 5062SOL    HW126819   3.594   4.318  16.146 -1.4682 -0.0495  1.8811
 5062SOL    HW226820   3.455   4.345  16.157 -0.2718  0.8749 -0.7484
 5063SOL     OW26821   1.358   2.338   1.323  0.1835  0.7374  0.2238
 5063SOL    HW126822   1.329   2.263   1.375  0.1760  1.0850  0.7299
 5063SOL    HW226823   1.451   2.319   1.331  0.2399  0.7995 -0.2930
 5064SOL     OW26824   2.388   0.227  11.146  0.6406 -0.6152 -0.1982
 5064SOL    HW126825   2.379   0.314  11.109 -0.5849 -0.8894 -0.5526
 5064SOL    HW226826   2.393   0.175  11.065  1.1281 -0.9413  0.0353
 5065SOL     OW26827   0.532   0.648   7.250 -0.5560  0.6276  0.0410
 5065SOL    HW126828   0.550   0.556   7.273  0.3003  1.3232  2.1691
 5065SOL    HW226829   0.463   0.651   7.184 -1.1387 -1.2660  0.5406
 5066SOL     OW26830   3.118   0.913  12.579 -0.0484 -0.1909  0.4722
 5066SOL    HW126831   3.208   0.934  12.554 -0.6767  3.6119  1.4579
 5066SOL    HW226832   3.083   1.002  12.578 -1.1538 -0.6125  1.4473
 5067SOL     OW26833   1.039   4.545  13.991 -0.6814  0.1552 -0.4160
 5067SOL    HW126834   1.045   4.618  13.930  0.0252  2.5752  2.5299
 5067SOL    HW226835   0.982   4.579  14.060  0.9735 -0.6238  1.3368
 5068SOL     OW26836   2.046   2.992  15.017 -0.0604 -0.4261 -0.2747
 5068SOL    HW126837   1.973   2.941  15.053 -0.1233  0.6454  1.1027
 5068SOL    HW226838   2.107   2.920  15.006 -0.7560 -1.3083  1.5477
 5069SOL     OW26839   2.041   1.904   2.971  0.2540  0.2888 -0.3301
 5069SOL    HW126840   2.033   1.811   2.950 -2.3132 -0.0354  2.1461
 5069SOL    HW226841   2.042   1.899   3.066 -0.7567 -1.2638 -0.4079
 5070SOL     OW26842   1.010   1.248   3.062 -0.2974 -0.0171 -0.4600
 5070SOL    HW126843   0.927   1.211   3.031  0.4498 -2.6942  0.7124
 5070SOL    HW226844   1.040   1.289   2.981  1.0941  1.0418  0.6118
 5071SOL     OW26845   0.004   0.680  13.548  0.4853 -0.4273  0.0339
 5071SOL    HW126846   4.667   0.659  13.603  0.0501  0.6539 -0.1673
 5071SOL    HW226847   0.028   0.593  13.516  0.0832 -0.2132 -0.8468
 5072SOL     OW26848   1.336   0.876   3.204 -0.2048 -0.1144  0.0950
 5072SOL    HW126849   1.281   0.945   3.165  0.1635  0.1292  0.0046
 5072SOL    HW226850   1.270   0.835   3.260  1.1473 -0.8068  1.1866
 5073SOL     OW26851   0.625   0.594   9.721 -0.3104  0.0690  0.3537
 5073SOL    HW126852   0.673   0.582   9.803  0.3631  1.0203  0.0974
 5073SOL    HW226853   0.694   0.623   9.661 -0.5132  2.4564  1.2882
 5074SOL     OW26854   2.688   2.055   7.710 -0.0473 -0.3148 -0.2650
 5074SOL    HW126855   2.748   1.990   7.746  0.0555 -1.6278 -2.8244
 5074SOL    HW226856   2.630   2.003   7.655  0.3781 -1.3715  0.2859
 5075SOL     OW26857   2.512   3.045   6.452 -0.4038 -0.7431  0.1621
 5075SOL    HW126858   2.518   3.137   6.426  1.0725 -0.5934  0.9684
 5075SOL    HW226859   2.603   3.014   6.447 -0.1280 -0.1963  1.7108
 5076SOL     OW26860   2.733   2.417   5.759  0.3109  0.1592  0.4347
 5076SOL    HW126861   2.732   2.485   5.826  1.8105  2.0602 -1.4427
 5076SOL    HW226862   2.828   2.402   5.749  0.2445  0.9994 -1.5102
 5077SOL     OW26863   1.987   1.192  15.455  0.2946  0.0869 -0.1198
 5077SOL    HW126864   1.931   1.268  15.472 -0.4889 -0.7746  1.1726
 5077SOL    HW226865   2.070   1.236  15.469  0.4602  0.0089 -0.8934
 5078SOL     OW26866   1.621   2.124   6.260 -0.1556 -0.1418  0.0007
 5078SOL    HW126867   1.667   2.084   6.186  1.7470 -0.0630  1.1206
 5078SOL    HW226868   1.695   2.160   6.310 -1.3555  1.1534  0.8288
 5079SOL     OW26869   4.114   4.512  16.889 -0.2950 -0.0471 -0.4274
 5079SOL    HW126870   4.135   4.449  16.958  0.8053 -0.6465 -1.3176
 5079SOL    HW226871   4.166   4.477  16.817  0.6313 -0.4792  0.4562
 5080SOL     OW26872   4.107   2.203  17.486 -0.4444  0.3180 -0.1199
 5080SOL    HW126873   4.181   2.157  17.446 -1.3625  0.1029 -1.5489
 5080SOL    HW226874   4.040   2.206  17.419  0.8248 -2.7934 -1.5196
 5081SOL     OW26875   0.486   2.228   4.538  0.1008 -0.0908 -0.5461
 5081SOL    HW126876   0.540   2.301   4.571  2.8886 -1.6356 -1.6392
 5081SOL    HW226877   0.419   2.273   4.486  0.3053  0.9479  0.0877
 5082SOL     OW26878   0.701   2.150  17.580  0.1236  0.1561  0.3343
 5082SOL    HW126879   0.715   2.215  17.511 -1.4404  0.7956  0.6310
 5082SOL    HW226880   0.727   2.073  17.529 -0.0444  1.0273 -1.0899
 5083SOL     OW26881   4.497   2.196   3.740 -0.0327  0.1337  0.7152
 5083SOL    HW126882   4.588   2.187   3.712 -0.8002  2.1836 -2.3899
 5083SOL    HW226883   4.452   2.265   3.691 -1.4623  0.0854  1.9447
 5084SOL     OW26884   3.221   3.410  15.183  0.0954  0.4487 -0.2072
 5084SOL    HW126885   3.292   3.402  15.246  0.8524 -0.9265 -1.2344
 5084SOL    HW226886   3.271   3.443  15.108  0.5206  0.8638  0.2695
 5085SOL     OW26887   3.116   3.906   6.178 -0.2263 -0.2201 -0.1236
 5085SOL    HW126888   3.071   3.871   6.101 -0.4820  0.9634 -0.5267
 5085SOL    HW226889   3.134   4.000   6.166  1.1177 -0.4780 -0.1741
 5086SOL     OW26890   2.099   2.758   6.498  0.0040 -0.3527  0.8993
 5086SOL    HW126891   2.164   2.734   6.565  1.0365 -1.6674 -0.5642
 5086SOL    HW226892   2.106   2.677   6.446  1.4431  0.2340  0.1877
 5087SOL     OW26893   4.594   2.380   6.956 -0.0436  0.1667  0.0834
 5087SOL    HW126894   4.653   2.447   6.921  1.1607 -0.3477  1.1178
 5087SOL    HW226895   4.555   2.324   6.890  1.7171 -1.0500  0.0680
 5088SOL     OW26896   0.057   0.588   3.077  0.0487 -0.8061 -0.3182
 5088SOL    HW126897   0.103   0.547   3.150  2.8165  1.8717 -0.5639
 5088SOL    HW226898   0.050   0.518   3.011 -0.9176  1.8167 -2.9892
 5089SOL     OW26899   2.458   1.248   4.280 -0.5550 -0.6056  0.0649
 5089SOL    HW126900   2.369   1.281   4.275 -0.9719 -1.2885  3.1039
 5089SOL    HW226901   2.475   1.210   4.194 -1.3018  0.2960 -0.4811
 5090SOL     OW26902   2.901   2.115   0.882  0.1000 -0.0645  0.5071
 5090SOL    HW126903   2.886   2.197   0.928  0.8457 -0.4098  1.3742
 5090SOL    HW226904   2.960   2.144   0.813  2.0943 -1.8532  1.4269
 5091SOL     OW26905   3.578   1.332  11.179 -0.2618  0.3739 -0.0257
 5091SOL    HW126906   3.614   1.248  11.208  1.5405  1.1172 -0.1193
 5091SOL    HW226907   3.659   1.382  11.170  0.6974 -1.1647  0.1028
 5092SOL     OW26908   3.063   2.033  10.996  0.1601  0.1903 -0.1336
 5092SOL    HW126909   3.093   2.122  11.013  1.3097 -0.5396  1.7455
 5092SOL    HW226910   2.975   2.039  11.035  0.1268 -0.0995 -0.1665
 5093SOL     OW26911   2.862   3.723  11.179  0.4601 -0.2662  0.5730
 5093SOL    HW126912   2.874   3.652  11.116  0.8992 -0.4191  0.8259
 5093SOL    HW226913   2.889   3.672  11.256 -0.3752 -0.1097  0.9747
 5094SOL     OW26914   2.359   4.060   5.927  0.6463 -0.6074  0.0644
 5094SOL    HW126915   2.291   4.048   5.861 -1.0204  0.0120  1.6852
 5094SOL    HW226916   2.439   4.059   5.875 -0.2713  2.4597 -1.4402
 5095SOL     OW26917   3.520   1.607  17.629 -0.2082  0.1627 -0.0691
 5095SOL    HW126918   3.501   1.690  17.585 -0.2130  0.9584  1.4615
 5095SOL    HW226919   3.437   1.559  17.635 -0.3704  0.6728  1.5051
 5096SOL     OW26920   1.693   4.438   6.381 -0.6047  0.0461 -0.3364
 5096SOL    HW126921   1.669   4.497   6.309 -0.4275  0.2365 -0.2384
 5096SOL    HW226922   1.611   4.389   6.389 -1.1544  1.2597  1.4015
 5097SOL     OW26923   2.935   0.561   4.481  0.8801  0.0539 -0.0086
 5097SOL    HW126924   2.997   0.633   4.469  1.7689 -0.4796  1.2444
 5097SOL    HW226925   2.997   0.492   4.505  1.4413  0.7752  0.6308
 5098SOL     OW26926   1.996   0.914  11.680  0.4282  0.2220 -0.1906
 5098SOL    HW126927   2.019   0.874  11.596 -2.1637 -1.3020 -0.1867
 5098SOL    HW226928   1.989   1.007  11.660 -2.6119  0.0890  0.3332
 5099SOL     OW26929   0.725   4.011   4.947  0.2146  0.2229 -0.1032
 5099SOL    HW126930   0.744   4.009   4.853 -1.6171  1.6829 -0.5045
 5099SOL    HW226931   0.717   3.917   4.965 -2.0126  0.6910  1.3333
 5100SOL     OW26932   0.141   4.255  11.881  0.4743  0.3574  0.0677
 5100SOL    HW126933   0.181   4.169  11.864 -1.5255 -0.2472 -1.6558
 5100SOL    HW226934   0.179   4.301  11.806  2.1073 -0.9868  0.0640
 5101SOL     OW26935   1.420   0.313  16.811 -0.3093 -0.6747 -0.3261
 5101SOL    HW126936   1.439   0.391  16.863 -2.2139  0.0750 -0.7372
 5101SOL    HW226937   1.354   0.271  16.866 -1.1772 -0.3094 -1.0809
 5102SOL     OW26938   1.750   4.529   3.739 -0.0182  0.1956 -0.2279
 5102SOL    HW126939   1.681   4.481   3.692  1.5786  0.1529 -2.5271
 5102SOL    HW226940   1.705   4.613   3.727 -1.2605 -0.1715  1.7311
 5103SOL     OW26941   4.559   2.525   9.801  0.3951  0.1899  0.4275
 5103SOL    HW126942   4.632   2.585   9.787  0.9269 -0.7417 -0.8467
 5103SOL    HW226943   4.577   2.498   9.890  2.7737  1.0147  0.1911
 5104SOL     OW26944   0.733   3.038   0.538 -0.6064 -0.3297  0.0334
 5104SOL    HW126945   0.703   3.044   0.628 -0.6338  1.7847 -0.1040
 5104SOL    HW226946   0.761   2.947   0.535  0.0995 -0.1472  0.9618
 5105SOL     OW26947   1.482   3.584   2.931 -0.3615 -0.4269 -0.2033
 5105SOL    HW126948   1.463   3.495   2.900 -0.9193 -1.0466  1.8847
 5105SOL    HW226949   1.425   3.573   3.008 -0.8283  1.0188 -0.3491
 5106SOL     OW26950   4.510   3.000   1.216 -0.3514 -0.4187 -0.0063
 5106SOL    HW126951   4.551   3.066   1.161 -0.6153 -0.8524 -0.7267
 5106SOL    HW226952   4.474   2.938   1.152 -0.3584 -1.9692  1.4930
 5107SOL     OW26953   0.619   4.012  10.667 -0.3195 -0.1557  0.0796
 5107SOL    HW126954   0.578   3.969  10.593  0.5521  1.6202 -1.4560
 5107SOL    HW226955   0.559   3.990  10.738 -2.8855  1.3338 -1.6281
 5108SOL     OW26956   4.200   0.521   4.209  0.6475  0.2290 -0.0477
 5108SOL    HW126957   4.197   0.443   4.265  1.1359  0.5160  0.3747
 5108SOL    HW226958   4.254   0.579   4.262 -2.9606  2.0256  1.6591
 5109SOL     OW26959   2.606   0.703  12.105 -0.4648 -0.4126  0.5048
 5109SOL    HW126960   2.608   0.612  12.137 -0.1678 -1.4083 -2.3917
 5109SOL    HW226961   2.698   0.709  12.082 -0.6540 -0.2488 -0.2077
 5110SOL     OW26962   4.346   1.963  11.875  0.5681 -0.1908  0.1971
 5110SOL    HW126963   4.378   1.896  11.814  1.2610 -0.6457  1.0685
 5110SOL    HW226964   4.258   1.978  11.839  0.0128 -1.3334  1.0744
 5111SOL     OW26965   3.144   2.607   8.419  0.6226 -0.2633 -0.4772
 5111SOL    HW126966   3.080   2.536   8.416 -1.1492  1.1922  2.1220
 5111SOL    HW226967   3.147   2.637   8.329  0.8793  2.2692  0.3574
 5112SOL     OW26968   0.688   2.278   2.476  0.4842 -0.1290 -0.1066
 5112SOL    HW126969   0.638   2.359   2.484  0.9662  0.1910 -0.3272
 5112SOL    HW226970   0.776   2.308   2.499  0.8431 -0.3242 -1.2680
 5113SOL     OW26971   0.174   3.463   1.656 -0.2477  0.0894  0.0680
 5113SOL    HW126972   0.149   3.373   1.636 -0.0287  0.3035 -1.1376
 5113SOL    HW226973   0.153   3.489   1.746  1.4189  2.4540 -0.2266
 5114SOL     OW26974   2.161   3.863   6.243 -0.6102 -0.2325  0.6560
 5114SOL    HW126975   2.239   3.903   6.205 -1.1235  2.2202  2.1709
 5114SOL    HW226976   2.142   3.939   6.298  2.1877  2.8536 -2.5724
 5115SOL     OW26977   3.118   1.553   3.153 -0.3442 -0.0600 -0.0581
 5115SOL    HW126978   3.174   1.482   3.184  2.3514  2.8982  1.8019
 5115SOL    HW226979   3.113   1.620   3.222  0.7975  0.3522 -0.3893
 5116SOL     OW26980   2.896   0.061   4.901 -0.0111  1.0716 -0.4705
 5116SOL    HW126981   2.803   0.041   4.915  0.2438 -0.0864 -0.4564
 5116SOL    HW226982   2.934   4.722   4.940  2.1243  1.6730 -1.3615
 5117SOL     OW26983   3.137   0.207   4.116 -0.0394  0.0998  0.1003
 5117SOL    HW126984   3.101   0.141   4.175 -0.8789  0.0199 -0.4911
 5117SOL    HW226985   3.127   0.282   4.175  1.3242  0.3196  0.0340
 5118SOL     OW26986   1.727   1.055   7.844 -0.2702 -0.6111 -0.2787
 5118SOL    HW126987   1.818   1.025   7.854  0.7661  2.5833 -0.0671
 5118SOL    HW226988   1.713   1.045   7.750  0.4427  1.0904 -0.5811
 5119SOL     OW26989   1.902   2.600   9.613  0.3191 -0.1656 -0.0686
 5119SOL    HW126990   1.924   2.556   9.695  0.5876 -0.4850 -0.3140
 5119SOL    HW226991   1.960   2.675   9.603 -0.9872  1.1350  1.9786
 5120SOL     OW26992   1.243   2.086   7.252 -0.1574 -0.0502  0.0064
 5120SOL    HW126993   1.195   2.005   7.270 -1.6803  0.9329  0.3319
 5120SOL    HW226994   1.199   2.120   7.174  1.4848  1.9440 -0.0644
 5121SOL     OW26995   4.060   2.233   2.195  0.4315  0.1789 -0.0097
 5121SOL    HW126996   4.110   2.277   2.127  2.4715 -0.3859  1.1272
 5121SOL    HW226997   4.127   2.180   2.238  0.4171  0.0115 -0.1945
 5122SOL     OW26998   0.577   3.881   4.196 -0.4919  0.7475 -0.0092
 5122SOL    HW126999   0.505   3.941   4.216  0.6777  1.9924  0.4643
 5122SOL    HW227000   0.639   3.906   4.264  0.8279  1.1493 -1.3479
 5123SOL     OW27001   3.638   3.581   7.203  0.1779 -0.1544 -0.1415
 5123SOL    HW127002   3.708   3.628   7.158 -0.8259  3.1957  1.8088
 5123SOL    HW227003   3.691   3.506   7.231 -0.7832 -0.5600  0.5602
 5124SOL     OW27004   2.628   4.210   6.727  0.6802  0.1762  0.5350
 5124SOL    HW127005   2.628   4.243   6.817 -2.8773  1.9010 -0.1148
 5124SOL    HW227006   2.670   4.124   6.734  0.4083  0.0880  1.0589
 5125SOL     OW27007   1.859   3.254   3.053  0.2696  0.0640  0.2793
 5125SOL    HW127008   1.890   3.334   3.096  0.2415  0.2701 -0.0884
 5125SOL    HW227009   1.861   3.197   3.130  1.7094  0.2286  0.3535
 5126SOL     OW27010   2.793   4.544   3.184 -0.0792 -0.2327 -0.1545
 5126SOL    HW127011   2.885   4.519   3.184  0.1866  0.7641  1.9657
 5126SOL    HW227012   2.790   4.635   3.212 -0.4995  0.0908 -1.2686
 5127SOL     OW27013   4.699   1.198   6.336  0.0025 -0.1121  0.5626
 5127SOL    HW127014   4.618   1.155   6.309 -0.3990  0.2246  1.2413
 5127SOL    HW227015   0.010   1.225   6.259 -1.5069  1.3294  0.1030
 5128SOL     OW27016   2.858   0.284   6.524 -0.7579 -0.1856 -0.5073
 5128SOL    HW127017   2.778   0.280   6.471  0.7066  0.7605 -2.7996
 5128SOL    HW227018   2.850   0.196   6.561  1.6456 -0.2753 -0.2525
 5129SOL     OW27019   1.596   3.854  15.003 -0.7556  0.7533  0.1133
 5129SOL    HW127020   1.546   3.923  15.046 -1.9675  0.9586 -1.6673
 5129SOL    HW227021   1.634   3.902  14.929 -0.8143  0.1062 -0.3316
 5130SOL     OW27022   0.584   3.564  17.391 -0.2346 -0.6301  0.1058
 5130SOL    HW127023   0.605   3.480  17.350 -0.5181 -1.7593  2.3106
 5130SOL    HW227024   0.529   3.532  17.463 -0.9189 -2.1339 -1.0865
 5131SOL     OW27025   0.532   0.473   3.924  0.2833 -0.0093 -0.4633
 5131SOL    HW127026   0.443   0.455   3.953  0.2928  0.8807  0.1223
 5131SOL    HW227027   0.526   0.559   3.884 -1.4538 -0.5828 -1.4263
 5132SOL     OW27028   3.902   4.703   8.913 -0.3902  0.2785  0.1278
 5132SOL    HW127029   3.891   0.045   8.963 -1.6129  0.2319 -0.0721
 5132SOL    HW227030   3.909   4.634   8.979  3.2827  2.6152  2.1630
 5133SOL     OW27031   0.918   3.914   9.094 -0.2730 -0.3089 -0.3378
 5133SOL    HW127032   0.903   3.962   9.176 -0.2746  1.6875 -1.5280
 5133SOL    HW227033   0.861   3.972   9.044  1.2880  0.0418 -1.6889
 5134SOL     OW27034   3.458   1.485   4.730  0.4208 -0.2475  0.2574
 5134SOL    HW127035   3.472   1.508   4.822 -1.2621 -0.4763  0.5742
 5134SOL    HW227036   3.513   1.409   4.717  0.3268 -0.1146 -0.8732
 5135SOL     OW27037   0.161   0.055   3.929  0.2449 -0.2500 -0.2440
 5135SOL    HW127038   0.203   0.092   3.851 -2.3898  1.6988 -0.7266
 5135SOL    HW227039   0.210   0.110   3.990 -1.1141  0.0189  0.6175
 5136SOL     OW27040   3.623   0.732   1.875  0.0420 -0.0971  0.3834
 5136SOL    HW127041   3.618   0.754   1.782 -0.0320 -1.1289  0.1364
 5136SOL    HW227042   3.717   0.736   1.893 -0.1440 -0.4814  1.4498
 5137SOL     OW27043   0.080   2.104   2.518  0.0239  0.1161 -0.3276
 5137SOL    HW127044   0.035   2.064   2.444 -2.8145  0.3317  1.3019
 5137SOL    HW227045   0.172   2.079   2.509  0.3293  0.6252  1.3548
 5138SOL     OW27046   2.927   1.825   0.970 -0.1375  0.1008  0.1063
 5138SOL    HW127047   2.890   1.901   0.924  2.0344  1.6329  0.9218
 5138SOL    HW227048   3.015   1.857   0.987 -0.3767  1.0942 -0.5182
 5139SOL     OW27049   0.167   0.351   1.389  0.2921  0.5378  0.1153
 5139SOL    HW127050   0.118   0.418   1.437  0.7581  0.3236  0.9007
 5139SOL    HW227051   0.243   0.335   1.445 -1.8703  0.9217  3.1850
 5140SOL     OW27052   3.337   3.384   2.175  0.2771 -0.3144  0.2298
 5140SOL    HW127053   3.341   3.430   2.259 -1.7526  1.2088 -0.5115
 5140SOL    HW227054   3.404   3.316   2.184 -0.9332 -1.6823 -0.9979
 5141SOL     OW27055   3.505   1.469   1.817  0.0173  0.4335  0.1422
 5141SOL    HW127056   3.573   1.408   1.848 -2.4088 -1.7240  1.2096
 5141SOL    HW227057   3.426   1.433   1.858  0.6909  0.2823  1.3286
 5142SOL     OW27058   4.624   1.437   3.393 -0.1285 -0.1317  0.4084
 5142SOL    HW127059   4.585   1.511   3.439 -0.1419 -1.8861  3.1757
 5142SOL    HW227060   4.624   1.368   3.458 -1.0931 -0.2156  0.3271
 5143SOL     OW27061   2.420   2.479  15.589 -0.1481  0.4957  0.0073
 5143SOL    HW127062   2.467   2.449  15.667 -0.7705  1.4801  0.7699
 5143SOL    HW227063   2.454   2.420  15.522  0.3041 -0.2085  0.8494
 5144SOL     OW27064   0.140   1.050   7.119  0.0061 -0.4355  0.1249
 5144SOL    HW127065   0.193   1.129   7.108  1.3599 -1.4890 -0.8244
 5144SOL    HW227066   0.131   1.051   7.215  1.9521 -3.7085  0.3186
 5145SOL     OW27067   2.682   4.359   7.557  0.2329 -0.4230  0.1120
 5145SOL    HW127068   2.727   4.411   7.624 -1.7487  1.7158 -0.1896
 5145SOL    HW227069   2.695   4.412   7.478 -0.2261 -2.4202 -1.3019
 5146SOL     OW27070   2.734   2.016   7.012  0.2448  0.0755 -0.2582
 5146SOL    HW127071   2.718   1.926   6.985  0.7147 -0.7243  2.1168
 5146SOL    HW227072   2.729   2.070   6.933 -1.8552 -1.0395 -0.8934
 5147SOL     OW27073   0.709   0.469   9.979 -0.5993 -0.5145  0.0484
 5147SOL    HW127074   0.692   0.396   9.920 -1.4706  0.6432 -1.1420
 5147SOL    HW227075   0.766   0.431  10.046  1.9221  1.9156 -0.7286
 5148SOL     OW27076   0.584   1.778   4.177  0.0623 -0.6125  0.1514
 5148SOL    HW127077   0.624   1.865   4.181 -0.8344 -0.2312  0.8371
 5148SOL    HW227078   0.589   1.736   4.263  0.5780 -1.0245 -0.0786
 5149SOL     OW27079   3.297   0.746   2.192  0.1944 -0.6135 -0.7601
 5149SOL    HW127080   3.316   0.668   2.245  0.9225  0.2872  0.2977
 5149SOL    HW227081   3.202   0.744   2.185  0.1962  2.6286 -1.5025
 5150SOL     OW27082   3.885   1.413   4.705 -0.4628  0.6450 -1.0110
 5150SOL    HW127083   3.839   1.345   4.755  2.1338 -0.0361  0.4598
 5150SOL    HW227084   3.924   1.463   4.776  0.3520 -0.5074 -0.6485
 5151SOL     OW27085   1.966   3.597  13.197  0.4957 -0.5062  0.2769
 5151SOL    HW127086   1.936   3.510  13.227 -1.6618 -0.2457 -1.1281
 5151SOL    HW227087   2.018   3.622  13.273 -1.0999  2.5195  0.3576
 5152SOL     OW27088   0.801   4.411   7.899 -0.5148 -0.0666 -0.2324
 5152SOL    HW127089   0.778   4.440   7.987 -0.9457 -2.0099  0.3007
 5152SOL    HW227090   0.776   4.319   7.910  3.0625 -0.6710  2.7726
 5153SOL     OW27091   2.181   3.839   3.040  0.1723 -0.3181  0.1106
 5153SOL    HW127092   2.138   3.915   3.078  0.3551 -0.6601  1.0204
 5153SOL    HW227093   2.127   3.829   2.962 -2.7302  0.6242  2.0184
 5154SOL     OW27094   4.611   4.177   9.086 -0.2950  0.1605 -0.9878
 5154SOL    HW127095   4.673   4.134   9.026 -0.5560 -3.3133  1.2521
 5154SOL    HW227096   4.529   4.176   9.037 -1.2180 -0.1249  0.5542
 5155SOL     OW27097   2.629   1.529   6.180  0.1743  0.4137  0.0090
 5155SOL    HW127098   2.678   1.603   6.143  1.6635 -0.5064  0.1515
 5155SOL    HW227099   2.622   1.484   6.096 -1.0428 -0.5780  0.6321
 5156SOL     OW27100   3.116   0.812  14.277  0.1586  0.1084 -0.2534
 5156SOL    HW127101   3.204   0.800  14.313  0.6240  0.0678 -1.4223
 5156SOL    HW227102   3.127   0.894  14.229 -0.3199 -0.1534 -0.8073
 5157SOL     OW27103   3.969   0.463   3.595 -0.0263 -0.0903 -0.4207
 5157SOL    HW127104   3.998   0.372   3.598  0.9219  0.2555  1.1385
 5157SOL    HW227105   4.044   0.512   3.629  0.1164  0.2278 -1.2062
 5158SOL     OW27106   0.514   4.692   5.360 -0.8512  0.0349  0.4456
 5158SOL    HW127107   0.576   0.024   5.380 -1.8698  0.5229  1.8575
 5158SOL    HW227108   0.461   4.688   5.439 -1.3088 -1.3161  0.0680
 5159SOL     OW27109   3.820   1.659   4.603 -0.6442  0.2018 -0.0063
 5159SOL    HW127110   3.745   1.613   4.565  1.2138 -1.3936 -1.6942
 5159SOL    HW227111   3.860   1.582   4.642 -0.0331  0.4665 -0.1194
 5160SOL     OW27112   3.073   2.176   6.638 -0.3797  0.5808  0.1853
 5160SOL    HW127113   3.019   2.203   6.712 -1.3121 -1.7106  0.3484
 5160SOL    HW227114   3.140   2.120   6.678  0.3643  0.6082 -1.0299
 5161SOL     OW27115   3.891   4.325   8.686  0.4075  0.2351 -0.2566
 5161SOL    HW127116   3.831   4.338   8.760  0.4446 -1.2188  0.0376
 5161SOL    HW227117   3.919   4.413   8.663 -1.5371  0.9159 -0.0091
 5162SOL     OW27118   3.170   3.764   7.479 -0.1455  0.6871  0.1185
 5162SOL    HW127119   3.245   3.809   7.440  1.3346 -0.5526  1.5317
 5162SOL    HW227120   3.096   3.783   7.422 -2.5888  0.4079  3.2371
 5163SOL     OW27121   3.518   3.019  14.533 -0.0302 -0.7163  0.3866
 5163SOL    HW127122   3.586   3.086  14.532 -0.4180 -0.3203  1.1970
 5163SOL    HW227123   3.540   2.978  14.449  2.7178 -0.3231  0.9208
 5164SOL     OW27124   1.932   4.708  11.646  0.1290  0.3793  0.7825
 5164SOL    HW127125   1.968   0.058  11.641 -0.3028  0.4947 -0.3517
 5164SOL    HW227126   1.843   4.738  11.665 -0.3912 -0.4618 -0.3412
 5165SOL     OW27127   3.969   2.784   3.967 -0.2366 -0.2470 -0.0415
 5165SOL    HW127128   4.056   2.820   3.978  0.2844 -1.9997  1.5495
 5165SOL    HW227129   3.995   2.695   3.943  0.8979 -0.0036  0.3175
 5166SOL     OW27130   1.846   3.235   4.386  0.0870 -0.1038  0.5702
 5166SOL    HW127131   1.803   3.217   4.302 -0.6348  3.5609  0.1743
 5166SOL    HW227132   1.880   3.322   4.370 -0.1370 -0.2491 -0.6952
 5167SOL     OW27133   0.343   0.320  16.120  0.2856 -0.2512  0.1550
 5167SOL    HW127134   0.294   0.338  16.200  0.0076 -0.6550  0.0741
 5167SOL    HW227135   0.274   0.309  16.054  0.2540  2.0578 -0.1912
 5168SOL     OW27136   3.591   3.933   5.546 -0.3433  0.0262 -0.3935
 5168SOL    HW127137   3.593   4.024   5.515 -0.5374 -0.0294 -0.5634
 5168SOL    HW227138   3.517   3.936   5.607  0.0171 -3.4299  0.1913
 5169SOL     OW27139   0.918   4.391   4.497  0.4656 -0.2851 -0.0952
 5169SOL    HW127140   0.909   4.364   4.589  1.5859 -0.8372 -0.1540
 5169SOL    HW227141   0.927   4.486   4.502  3.1987 -0.7228  3.3881
 5170SOL     OW27142   4.214   1.396  10.480  0.2735 -0.0489 -0.8532
 5170SOL    HW127143   4.203   1.306  10.449 -1.3586  0.5693 -2.0744
 5170SOL    HW227144   4.167   1.447  10.414 -1.3988  0.5665  0.8054
 5171SOL     OW27145   3.865   2.466  13.524  0.1785 -0.8986 -0.9960
 5171SOL    HW127146   3.913   2.419  13.456  2.9856 -0.8810  0.9717
 5171SOL    HW227147   3.839   2.541  13.470 -0.6224 -2.0264 -2.2116
 5172SOL     OW27148   2.732   3.671   1.355 -0.6452  0.1997  0.0913
 5172SOL    HW127149   2.717   3.764   1.339  2.4459  0.5389 -1.0120
 5172SOL    HW227150   2.818   3.676   1.397 -0.0556 -0.7684 -0.9836
 5173SOL     OW27151   2.498   2.182   3.722 -0.2312 -0.1304 -0.6176
 5173SOL    HW127152   2.514   2.105   3.777 -0.4709 -1.4980 -2.4420
 5173SOL    HW227153   2.413   2.162   3.682 -1.4764 -0.7242  2.2747
 5174SOL     OW27154   1.133   0.712   2.439  0.5158  0.2037 -0.0930
 5174SOL    HW127155   1.195   0.725   2.368  2.8319 -0.1079  1.8429
 5174SOL    HW227156   1.142   0.617   2.445 -1.0162  0.2788  3.5923
 5175SOL     OW27157   2.844   3.503   7.262  0.7306  0.0091 -0.1960
 5175SOL    HW127158   2.873   3.547   7.182 -0.7795 -0.9615 -1.2902
 5175SOL    HW227159   2.800   3.426   7.227 -0.7643  0.0628  1.5820
 5176SOL     OW27160   3.383   4.281   4.865 -0.0028  0.2369 -0.0533
 5176SOL    HW127161   3.362   4.371   4.888 -2.1738 -0.4635  0.7470
 5176SOL    HW227162   3.445   4.303   4.796  0.2356  1.8596  0.6959
 5177SOL     OW27163   3.195   0.259   8.507 -0.3657  0.3882 -0.1834
 5177SOL    HW127164   3.196   0.307   8.424  2.5997  0.7381  0.0391
 5177SOL    HW227165   3.137   0.323   8.548 -2.7539 -1.4544 -0.6425
 5178SOL     OW27166   0.786   3.524   4.159  0.3325  0.1581 -0.0120
 5178SOL    HW127167   0.853   3.475   4.113  0.0059  0.7415 -1.1114
 5178SOL    HW227168   0.835   3.582   4.217  0.2749  0.3006 -0.1049
 5179SOL     OW27169   4.582   1.340  12.291  0.0485  0.2682  0.4830
 5179SOL    HW127170   4.506   1.377  12.336 -0.6905 -0.7648  0.0664
 5179SOL    HW227171   4.657   1.386  12.330 -1.5672  3.5401 -0.2585
 5180SOL     OW27172   3.033   0.336   3.697  0.4952 -0.3434  0.0089
 5180SOL    HW127173   3.060   0.349   3.606 -1.1665 -1.0343 -0.5940
 5180SOL    HW227174   2.986   0.256   3.671  2.0730 -0.8881 -1.1645
 5181SOL     OW27175   4.479   4.690   7.832 -0.0301  0.0226 -0.5056
 5181SOL    HW127176   4.392   4.681   7.792  1.1797 -0.4733 -3.0575
 5181SOL    HW227177   4.516   4.609   7.796  0.2523  0.0467 -0.2651
 5182SOL     OW27178   1.970   4.127   7.987 -0.4642  0.0025 -0.3052
 5182SOL    HW127179   1.976   4.097   8.077 -0.1116  0.6902 -0.1011
 5182SOL    HW227180   2.056   4.121   7.944 -0.6841 -0.5774 -0.6714
 5183SOL     OW27181   2.288   1.543   4.837  0.1135  0.1779  1.1117
 5183SOL    HW127182   2.290   1.624   4.887 -2.8308  0.3730  0.9098
 5183SOL    HW227183   2.294   1.476   4.905  2.9149 -0.7326 -0.0022
 5184SOL     OW27184   1.448   1.883  16.797 -0.1933 -0.3873 -0.0278
 5184SOL    HW127185   1.511   1.904  16.727 -1.6395  2.0460 -0.6094
 5184SOL    HW227186   1.515   1.862  16.862 -0.0366  0.4712  0.0965
 5185SOL     OW27187   4.096   3.687   6.083  0.2903  0.3709  0.4468
 5185SOL    HW127188   4.094   3.774   6.122  0.6580  1.2272 -1.3995
 5185SOL    HW227189   4.087   3.640   6.165 -0.9877 -0.6244 -0.2772
 5186SOL     OW27190   1.257   2.466   8.689 -0.1369 -0.4839 -0.2978
 5186SOL    HW127191   1.205   2.411   8.630  0.3190  1.1095 -2.1838
 5186SOL    HW227192   1.335   2.485   8.637 -1.5994 -0.6067 -2.5710
 5187SOL     OW27193   4.072   1.908   0.539 -0.2097 -0.0853 -0.0003
 5187SOL    HW127194   4.012   1.864   0.600  0.0309  1.4082  1.3200
 5187SOL    HW227195   4.012   1.924   0.466 -0.7407  0.3308  0.5246
 5188SOL     OW27196   3.650   3.374   0.081  0.1085 -0.0054  0.7553
 5188SOL    HW127197   3.600   3.298   0.049  2.8138 -2.1307  1.5652
 5188SOL    HW227198   3.735   3.330   0.075  0.4183  0.7802 -0.5295
 5189SOL     OW27199   0.937   1.998   2.550 -0.1465  0.4265  0.1501
 5189SOL    HW127200   0.928   1.924   2.489 -1.5638 -0.0908  0.9882
 5189SOL    HW227201   0.870   2.058   2.518 -0.7687 -0.0103  0.6357
 5190SOL     OW27202   0.615   3.097   5.120 -0.5205  0.6117 -0.4674
 5190SOL    HW127203   0.602   3.003   5.128  0.2225  0.5930  0.4338
 5190SOL    HW227204   0.542   3.119   5.062 -1.9921  1.4921  1.7478
 5191SOL     OW27205   2.228   2.022   7.712  0.2914  0.2387  0.1701
 5191SOL    HW127206   2.237   2.115   7.734  2.8571 -0.4549  2.0025
 5191SOL    HW227207   2.148   2.037   7.661  1.6863  1.2019 -1.7391
 5192SOL     OW27208   3.687   2.255  14.625  0.4351 -0.1729 -0.0248
 5192SOL    HW127209   3.777   2.232  14.603 -0.1120 -1.0137 -1.3169
 5192SOL    HW227210   3.638   2.175  14.608 -0.5150  0.8959 -2.3534
 5193SOL     OW27211   2.803   2.586   5.096 -0.6422  0.0348 -0.0228
 5193SOL    HW127212   2.824   2.512   5.038  0.8600  0.8449 -0.5006
 5193SOL    HW227213   2.781   2.657   5.036 -2.1063 -1.2903 -1.0896
 5194SOL     OW27214   4.602   1.855   0.452  0.4328 -0.3227  0.0833
 5194SOL    HW127215   4.643   1.856   0.539  0.7953  1.5695 -0.0963
 5194SOL    HW227216   4.548   1.933   0.468 -1.7558 -1.7333 -0.4733
 5195SOL     OW27217   1.258   0.071  17.550  0.0032 -0.4386 -0.5112
 5195SOL    HW127218   1.242   0.143  17.611 -0.2650  0.3071 -1.4755
 5195SOL    HW227219   1.194   0.013  17.591 -0.4072  1.5162  1.5877
 5196SOL     OW27220   3.858   0.935   5.236 -0.2457 -0.7178  0.0564
 5196SOL    HW127221   3.945   0.975   5.243  0.1814 -1.0631 -3.3035
 5196SOL    HW227222   3.801   1.011   5.236  0.9181  0.1617 -2.1322
 5197SOL     OW27223   2.607   4.460   9.493 -0.3974  0.5803 -0.3543
 5197SOL    HW127224   2.583   4.552   9.503 -0.5656  0.5541 -0.5115
 5197SOL    HW227225   2.524   4.414   9.484  0.6132 -1.2303 -0.3535
 5198SOL     OW27226   1.078   4.113   2.561 -0.0431 -0.6084  0.0465
 5198SOL    HW127227   0.984   4.101   2.576 -0.3473  4.1745  1.9373
 5198SOL    HW227228   1.092   4.106   2.467  2.9980  1.1148  0.3569
 5199SOL     OW27229   3.606   1.990  14.621 -0.5188  0.0490 -0.4903
 5199SOL    HW127230   3.600   1.955  14.710  3.0248 -0.1944 -0.3529
 5199SOL    HW227231   3.513   1.986  14.598 -0.5600 -1.0967 -0.0976
 5200SOL     OW27232   3.081   1.150   5.572 -0.2561 -0.0662  0.0647
 5200SOL    HW127233   3.042   1.199   5.499  0.5605 -0.1216 -0.4125
 5200SOL    HW227234   3.013   1.165   5.637  0.0170 -0.9072  0.5422
 5201SOL     OW27235   4.623   2.772   6.836 -0.2888 -0.0040  0.4112
 5201SOL    HW127236   4.718   2.763   6.830 -0.2226  0.8609  0.0883
 5201SOL    HW227237   4.623   2.856   6.882  0.8266 -0.0005  0.4136
 5202SOL     OW27238   2.927   4.621  13.037  0.1358 -0.6797 -0.5422
 5202SOL    HW127239   2.932   4.569  12.957 -1.9346  1.4870 -2.0827
 5202SOL    HW227240   2.845   4.592  13.077  0.9051 -0.2489  1.3464
 5203SOL     OW27241   0.584   1.289   5.272 -0.1632 -0.5339  0.5539
 5203SOL    HW127242   0.640   1.217   5.242 -1.3152 -0.0775 -2.7763
 5203SOL    HW227243   0.629   1.322   5.350  2.4481 -2.5540 -0.1006
 5204SOL     OW27244   3.174   2.779   3.954 -0.0737  0.9595 -0.0562
 5204SOL    HW127245   3.194   2.734   4.036  0.5566 -2.0029 -1.8246
 5204SOL    HW227246   3.175   2.704   3.894 -0.8272 -0.5727  1.8718
 5205SOL     OW27247   0.435   2.499   3.393  0.1887  0.0280 -0.1587
 5205SOL    HW127248   0.461   2.430   3.454 -0.5467 -0.1988 -0.1025
 5205SOL    HW227249   0.408   2.567   3.455  0.8318  0.4350 -0.3122
 5206SOL     OW27250   0.395   2.739   5.554 -0.1950  0.5413  0.5148
 5206SOL    HW127251   0.429   2.652   5.532 -1.5540  0.4846 -1.3968
 5206SOL    HW227252   0.476   2.789   5.546  1.0172 -1.4537  0.4806
 5207SOL     OW27253   3.696   3.853   6.407  0.0097 -0.2884 -0.1790
 5207SOL    HW127254   3.704   3.895   6.492  1.3410 -3.6722  1.3611
 5207SOL    HW227255   3.698   3.763   6.439 -1.6326 -0.7254 -1.3114
 5208SOL     OW27256   0.064   3.752   5.175 -0.2373  0.5106 -0.1550
 5208SOL    HW127257   0.133   3.795   5.226  0.7226 -0.7376 -0.4085
 5208SOL    HW227258   4.730   3.742   5.236  0.6260 -0.0656  0.7819
 5209SOL     OW27259   3.739   4.053   4.701 -0.1729 -0.5181  0.1084
 5209SOL    HW127260   3.720   4.056   4.795  1.3907 -0.8384  0.4333
 5209SOL    HW227261   3.827   4.091   4.704 -0.1709 -0.5999  1.5099
 5210SOL     OW27262   0.358   0.439   6.285 -0.1217  0.4716 -0.1622
 5210SOL    HW127263   0.264   0.453   6.274 -0.0929 -0.3201 -1.3028
 5210SOL    HW227264   0.348   0.368   6.348  0.8648 -0.4541 -1.0578
 5211SOL     OW27265   2.768   2.834   7.775  0.1886 -0.3942  0.1232
 5211SOL    HW127266   2.821   2.756   7.759 -1.7328 -1.5698 -0.6516
 5211SOL    HW227267   2.813   2.860   7.855  1.9562  1.1524 -1.3600
 5212SOL     OW27268   3.191   3.978  16.638  0.0517 -0.1632 -0.0813
 5212SOL    HW127269   3.110   3.929  16.653  0.5462 -1.0587 -0.3187
 5212SOL    HW227270   3.248   3.907  16.667 -1.5650 -0.6912  1.8053
 5213SOL     OW27271   4.377   1.402   0.724  0.3433 -0.0776 -0.1828
 5213SOL    HW127272   4.311   1.404   0.654 -3.0905  3.5756  3.2364
 5213SOL    HW227273   4.392   1.496   0.730 -1.4235  0.2264 -0.4976
 5214SOL     OW27274   1.655   0.011  12.800 -0.0230 -0.4748 -0.0067
 5214SOL    HW127275   1.630   4.662  12.831 -2.0714  0.5409  1.1662
 5214SOL    HW227276   1.746   0.004  12.829  0.7962 -1.6382 -2.8418
 5215SOL     OW27277   4.356   1.290   5.126  0.2399  0.0844  0.4385
 5215SOL    HW127278   4.304   1.240   5.190 -1.2064 -1.1505 -1.6990
 5215SOL    HW227279   4.409   1.327   5.197 -1.0897  0.5122  1.1996
 5216SOL     OW27280   1.396   4.698   6.453 -0.1603 -0.4181 -0.0443
 5216SOL    HW127281   1.486   4.718   6.425 -0.2867 -0.1615 -0.2705
 5216SOL    HW227282   1.410   4.613   6.493  0.2242 -1.0908 -1.6233
 5217SOL     OW27283   2.002   4.293   2.926 -0.0639  0.4316 -0.2329
 5217SOL    HW127284   1.919   4.322   2.964  1.5202  0.8503  2.8482
 5217SOL    HW227285   2.034   4.248   3.004 -0.0952 -1.1240 -1.1192
 5218SOL     OW27286   1.211   3.820   4.244 -0.5351  0.0124  0.6832
 5218SOL    HW127287   1.167   3.902   4.223 -0.9573 -0.2964  0.3720
 5218SOL    HW227288   1.176   3.796   4.330  1.6289 -2.3516  0.9185
 5219SOL     OW27289   2.911   2.381   3.322 -0.6507 -0.5247  0.0977
 5219SOL    HW127290   2.865   2.314   3.272  0.7052 -0.2149 -1.5799
 5219SOL    HW227291   2.856   2.457   3.306  0.7345  0.9066  2.1266
 5220SOL     OW27292   1.486   4.564   8.072  0.9428 -0.2481 -0.3018
 5220SOL    HW127293   1.485   4.653   8.107  0.2487  0.3080 -1.6956
 5220SOL    HW227294   1.555   4.573   8.006  0.8913  2.0339 -0.0484
 5221SOL     OW27295   3.850   2.736   1.759  0.1138 -0.8602  0.1935
 5221SOL    HW127296   3.945   2.753   1.759 -0.8851  4.8581  0.1577
 5221SOL    HW227297   3.850   2.653   1.712 -3.5236  0.7975 -2.6845
 5222SOL     OW27298   2.270   4.144   3.083 -0.1575 -0.5015 -0.2001
 5222SOL    HW127299   2.237   4.096   3.007  0.9633  0.9498 -1.6127
 5222SOL    HW227300   2.289   4.072   3.143  1.2640  0.4542  0.4884
 5223SOL     OW27301   1.200   1.265   6.287 -0.0441  0.0548 -0.1733
 5223SOL    HW127302   1.253   1.343   6.272  0.0829  0.2632  1.3241
 5223SOL    HW227303   1.245   1.198   6.235 -2.0091 -1.0309 -0.4762
 5224SOL     OW27304   4.246   2.749   5.441 -0.1674  0.4316  0.0213
 5224SOL    HW127305   4.280   2.680   5.498  2.1086  2.0330  0.6023
 5224SOL    HW227306   4.318   2.766   5.380 -1.3578  0.8406 -1.2667
 5225SOL     OW27307   3.234   0.245   7.472  0.2465 -0.4731 -0.1413
 5225SOL    HW127308   3.242   0.254   7.567 -1.4785 -1.0078  0.0604
 5225SOL    HW227309   3.147   0.209   7.458 -1.2650  3.1358 -0.0838
 5226SOL     OW27310   1.801   1.487   8.853  0.0176 -0.0550 -0.1884
 5226SOL    HW127311   1.893   1.466   8.841  0.4490  2.4967 -1.4857
 5226SOL    HW227312   1.801   1.516   8.944  0.6410 -1.7928  0.3585
 5227SOL     OW27313   2.784   1.077   1.480  0.5820 -0.0214 -0.1482
 5227SOL    HW127314   2.831   1.022   1.418  1.2272  1.3292 -0.8602
 5227SOL    HW227315   2.718   1.124   1.429 -0.0946 -0.9633 -0.1321
 5228SOL     OW27316   2.129   1.073  10.497 -0.2784 -0.1014 -0.1054
 5228SOL    HW127317   2.128   1.168  10.486 -0.0759  0.0228  0.9768
 5228SOL    HW227318   2.040   1.056  10.528  0.4388  0.2069  2.1846
 5229SOL     OW27319   0.671   2.419   4.573  0.4773 -0.1742 -0.1117
 5229SOL    HW127320   0.732   2.360   4.528  0.3864  0.3954 -0.9830
 5229SOL    HW227321   0.720   2.435   4.654  1.3509 -4.7790  0.2561
 5230SOL     OW27322   4.588   1.130   8.871  0.2149  0.7921  0.4903
 5230SOL    HW127323   4.509   1.100   8.917  1.7158  0.8240  3.0813
 5230SOL    HW227324   4.589   1.220   8.903 -1.8185  0.4246  1.6057
 5231SOL     OW27325   2.801   3.704  16.199  0.4508 -0.5177  0.1074
 5231SOL    HW127326   2.769   3.628  16.150 -1.4165  0.2825  0.0920
 5231SOL    HW227327   2.892   3.711  16.172  0.6245 -2.8080  0.0470
 5232SOL     OW27328   1.935   1.030   8.371 -0.1646 -0.0142 -0.2762
 5232SOL    HW127329   1.910   0.957   8.315  2.2192  0.9801 -2.6111
 5232SOL    HW227330   2.020   1.064   8.342 -0.3135  0.9174  0.3453
 5233SOL     OW27331   4.520   1.657  10.938  0.0580  0.5593 -0.3411
 5233SOL    HW127332   4.466   1.664  10.860 -0.4415  1.3510  0.0676
 5233SOL    HW227333   4.602   1.680  10.895  1.6865 -2.2744  1.2808
 5234SOL     OW27334   3.983   1.687   4.228 -0.3155  0.1779 -0.2177
 5234SOL    HW127335   3.927   1.610   4.219  0.6460 -0.4536 -0.6758
 5234SOL    HW227336   4.057   1.654   4.279 -1.8423 -0.7110  1.4142
 5235SOL     OW27337   0.444   3.640   5.401  0.3811  0.1437 -0.4631
 5235SOL    HW127338   0.433   3.572   5.334 -1.4783 -0.5493  0.5505
 5235SOL    HW227339   0.536   3.664   5.391  0.0131  1.5401 -0.3991
 5236SOL     OW27340   4.042   3.785   9.110  0.6187  0.3969 -0.0214
 5236SOL    HW127341   4.064   3.877   9.122  1.4601  0.0255  1.3591
 5236SOL    HW227342   4.126   3.753   9.144 -0.3930 -0.9789  1.1861
 5237SOL     OW27343   4.219   2.716  11.495  0.2308 -0.1306  0.0368
 5237SOL    HW127344   4.254   2.629  11.479  0.2014  0.0476 -1.0419
 5237SOL    HW227345   4.177   2.742  11.413  1.7366 -0.3166 -0.7930
 5238SOL     OW27346   3.498   2.563  13.764  0.0940  0.3834 -0.9100
 5238SOL    HW127347   3.406   2.537  13.754  0.2239  0.4048 -2.1425
 5238SOL    HW227348   3.486   2.656  13.779 -0.6857  0.3223 -1.1111
 5239SOL     OW27349   0.801   3.181   4.559 -0.0108  0.1018 -0.3184
 5239SOL    HW127350   0.827   3.165   4.649  0.9317 -1.5976 -0.8800
 5239SOL    HW227351   0.869   3.242   4.528  0.7706  1.3519  3.9577
 5240SOL     OW27352   2.841   3.623   5.348 -0.3314  0.1827 -0.1835
 5240SOL    HW127353   2.806   3.690   5.289 -1.1307  0.3893  0.5102
 5240SOL    HW227354   2.766   3.574   5.381 -0.3224 -0.5456 -1.2501
 5241SOL     OW27355   0.741   0.263   9.817 -0.6832  0.1489 -0.5456
 5241SOL    HW127356   0.837   0.267   9.816 -0.6918  0.2345 -1.5016
 5241SOL    HW227357   0.727   0.184   9.764  1.7859  0.3515 -1.5121
 5242SOL     OW27358   0.740   4.731  11.551 -0.6528  0.9043  0.0509
 5242SOL    HW127359   0.696   4.695  11.474 -1.4031  1.7740  0.0811
 5242SOL    HW227360   0.744   0.079  11.510  4.9747  0.6444 -0.0707
 5243SOL     OW27361   1.275   0.497   1.588 -0.1364 -0.3196 -0.3877
 5243SOL    HW127362   1.269   0.507   1.493 -1.7717  1.2463 -0.1314
 5243SOL    HW227363   1.313   0.412   1.611  0.0306 -0.2349 -0.3494
 5244SOL     OW27364   2.362   2.929   8.715  0.2242  0.3244  0.4099
 5244SOL    HW127365   2.274   2.954   8.740  1.5313  3.8000  1.5056
 5244SOL    HW227366   2.410   2.911   8.796  0.9873 -0.6389 -0.2434
 5245SOL     OW27367   4.362   0.858   3.419  0.3555  0.0970  0.2080
 5245SOL    HW127368   4.374   0.953   3.418  1.3569 -0.0379 -0.7930
 5245SOL    HW227369   4.268   0.849   3.402 -0.1958  0.7404  2.8965
 5246SOL     OW27370   2.258   3.166  14.929  0.1639 -0.0445  0.7745
 5246SOL    HW127371   2.169   3.132  14.937 -0.7773  2.4234  0.7133
 5246SOL    HW227372   2.304   3.083  14.947 -1.0403 -0.5981  1.3171
 5247SOL     OW27373   4.531   4.029   7.890 -0.0356  0.4920 -0.0603
 5247SOL    HW127374   4.569   4.017   7.977  2.1857 -4.0397 -1.6204
 5247SOL    HW227375   4.564   3.952   7.844 -0.8800 -0.2991  0.6590
 5248SOL     OW27376   3.311   1.920  10.981 -0.1378  0.0178 -0.7866
 5248SOL    HW127377   3.365   1.991  10.947  1.9132 -0.4738  1.4502
 5248SOL    HW227378   3.227   1.965  10.991 -0.8561 -1.0498 -1.9257
 5249SOL     OW27379   1.236   2.235   5.752  0.0346  0.5900 -0.0141
 5249SOL    HW127380   1.309   2.287   5.718 -0.4622  0.1679 -1.7358
 5249SOL    HW227381   1.208   2.290   5.825  0.2832  0.1084  0.4408
 5250SOL     OW27382   3.085   0.254   0.120 -0.0842  0.4269  0.3390
 5250SOL    HW127383   3.137   0.194   0.173  1.2644  0.1544 -1.2921
 5250SOL    HW227384   3.131   0.335   0.142 -0.2173  0.8729 -0.9877
 5251SOL     OW27385   3.545   2.697  14.638  0.3586 -0.4978  0.8540
 5251SOL    HW127386   3.506   2.611  14.621  0.5593 -0.4273  0.0531
 5251SOL    HW227387   3.575   2.687  14.729 -0.4604 -0.0225  1.1815
 5252SOL     OW27388   3.906   1.987   0.332 -0.4812 -0.1452  0.1674
 5252SOL    HW127389   3.976   1.956   0.275 -1.6726  1.5943 -2.2173
 5252SOL    HW227390   3.834   1.960   0.276 -0.1409  0.8992 -0.7725
 5253SOL     OW27391   1.049   3.762   8.863 -0.1700 -0.3307 -0.0256
 5253SOL    HW127392   0.976   3.763   8.925 -0.9293 -1.3982 -0.9145
 5253SOL    HW227393   1.072   3.669   8.858  3.5759  0.6064 -0.0805
 5254SOL     OW27394   1.556   3.593   8.162  0.0311 -0.1375  0.3484
 5254SOL    HW127395   1.576   3.653   8.091 -2.4730 -0.3071 -0.4937
 5254SOL    HW227396   1.582   3.510   8.122 -1.5083 -1.4401  2.0265
 5255SOL     OW27397   1.446   2.583   9.004 -0.6678 -0.5998 -0.3381
 5255SOL    HW127398   1.399   2.612   9.081  0.2687  1.9072 -0.7094
 5255SOL    HW227399   1.521   2.642   9.015 -2.1546  0.8459  1.9748
 5256SOL     OW27400   2.391   4.039   5.585  0.3735 -0.2052  0.1558
 5256SOL    HW127401   2.455   4.104   5.614  1.4908 -1.6127  0.8806
 5256SOL    HW227402   2.416   4.034   5.493 -1.8674  0.2644 -0.4638
 5257SOL     OW27403   0.465   0.240  12.896 -0.1310  0.9988  0.4228
 5257SOL    HW127404   0.520   0.164  12.916 -1.9819 -0.5352 -0.3263
 5257SOL    HW227405   0.381   0.219  12.936 -0.9182 -0.6613 -2.1111
 5258SOL     OW27406   4.709   4.382  11.535  0.0260  0.1273 -0.2852
 5258SOL    HW127407   4.687   4.475  11.524  0.2685  0.2653  0.4041
 5258SOL    HW227408   4.628   4.346  11.572 -0.9840  2.4714 -0.2238
 5259SOL     OW27409   3.924   1.262  17.653 -0.0436  0.1988 -0.3788
 5259SOL    HW127410   3.880   1.347  17.656  1.7256  1.0362  1.7931
 5259SOL    HW227411   4.019   1.278  17.660 -0.2917  1.6330 -0.2430
 5260SOL     OW27412   1.639   0.504   1.527 -0.0023 -0.9356 -0.4772
 5260SOL    HW127413   1.686   0.466   1.601 -0.8764 -1.4322 -0.1910
 5260SOL    HW227414   1.574   0.435   1.517 -0.6696 -0.7343  2.4455
 5261SOL     OW27415   2.131   1.835   4.197 -0.3307  0.1285 -0.0133
 5261SOL    HW127416   2.082   1.778   4.138  0.0230 -0.5886  0.3856
 5261SOL    HW227417   2.154   1.907   4.137  2.5728 -1.4039 -0.7399
 5262SOL     OW27418   1.499   4.552  12.517  0.1654  0.6719 -0.0705
 5262SOL    HW127419   1.469   4.475  12.565 -0.7015  0.4084 -1.0358
 5262SOL    HW227420   1.412   4.579  12.488 -0.9950 -0.0085  2.7532
 5263SOL     OW27421   3.355   0.013   8.846  0.1959 -0.1295  0.1663
 5263SOL    HW127422   3.407   4.671   8.844 -1.1266 -0.9625 -0.3921
 5263SOL    HW227423   3.415   0.069   8.895 -1.2532  1.1532  0.4875
 5264SOL     OW27424   4.084   2.352  16.796  0.1509 -0.6533 -0.4036
 5264SOL    HW127425   4.040   2.353  16.711  1.1550  1.2285 -0.9030
 5264SOL    HW227426   4.065   2.443  16.821  0.6374 -0.7877  0.4909
 5265SOL     OW27427   3.959   4.496  11.159  0.0120 -0.0811  0.4782
 5265SOL    HW127428   3.867   4.482  11.138 -0.0292 -0.5691  0.9581
 5265SOL    HW227429   3.953   4.586  11.190 -0.1824 -0.1051  0.5107
 5266SOL     OW27430   2.270   2.243   7.087  0.6644 -0.0808 -0.3502
 5266SOL    HW127431   2.332   2.277   7.022  2.3624 -0.7112  0.9331
 5266SOL    HW227432   2.222   2.323   7.109 -1.1303 -1.4831  0.8003
 5267SOL     OW27433   3.729   2.023   4.657  0.5192 -0.3463 -0.0937
 5267SOL    HW127434   3.776   1.971   4.592  0.7287  0.1707 -0.3496
 5267SOL    HW227435   3.737   2.115   4.634 -1.9660  0.5651  2.5387
 5268SOL     OW27436   3.952   0.669   4.085  0.2278  0.4116  0.3696
 5268SOL    HW127437   3.901   0.609   4.138  0.4649  1.4619  1.7890
 5268SOL    HW227438   4.045   0.659   4.103  0.2153 -1.6877 -0.8319
 5269SOL     OW27439   0.625   3.206   5.428  0.3183 -0.5675  0.2010
 5269SOL    HW127440   0.587   3.158   5.354 -0.4040  0.9103 -0.3941
 5269SOL    HW227441   0.711   3.165   5.419 -0.0617 -0.9353 -1.7079
 5270SOL     OW27442   4.340   2.939  11.606  0.5183  0.0101 -0.7844
 5270SOL    HW127443   4.288   2.886  11.545 -1.3982  0.7382  0.2341
 5270SOL    HW227444   4.428   2.907  11.589  0.2188  0.0139 -2.3518
 5271SOL     OW27445   4.371   0.036   2.339 -0.1519 -0.1045 -0.5771
 5271SOL    HW127446   4.329   4.695   2.306 -1.1962  0.8576 -1.5808
 5271SOL    HW227447   4.310   0.101   2.304 -1.2056 -0.3902  0.7474
 5272SOL     OW27448   0.359   2.523   3.137 -0.1099  0.1410  0.4482
 5272SOL    HW127449   0.435   2.560   3.091  0.3637 -0.3116  0.8559
 5272SOL    HW227450   0.396   2.512   3.225  0.3548 -2.8472 -0.1173
 5273SOL     OW27451   1.741   1.661   7.920 -0.0395 -0.5732 -1.0309
 5273SOL    HW127452   1.780   1.748   7.915 -0.3992 -0.2975  0.8158
 5273SOL    HW227453   1.703   1.662   7.832 -0.4343 -0.2184 -0.8589
 5274SOL     OW27454   3.267   0.335   5.361 -0.2253  0.0564 -0.2647
 5274SOL    HW127455   3.221   0.310   5.441 -0.9119 -2.0669 -1.3088
 5274SOL    HW227456   3.278   0.429   5.375 -1.3463  0.3912 -1.6950
 5275SOL     OW27457   3.289   0.581   7.535  0.0788 -0.4030  0.3271
 5275SOL    HW127458   3.344   0.557   7.609 -2.0536 -2.4832  1.2516
 5275SOL    HW227459   3.204   0.569   7.578 -0.2947  0.5386 -0.1416
 5276SOL     OW27460   1.646   2.770   5.328  0.3390  0.0322  0.0094
 5276SOL    HW127461   1.674   2.781   5.419 -0.5135 -0.9852  0.3879
 5276SOL    HW227462   1.567   2.720   5.350  0.1768  0.1574 -0.2901
 5277SOL     OW27463   1.706   1.247  15.544  0.3666  0.1121 -0.1189
 5277SOL    HW127464   1.698   1.312  15.474  0.2587  0.3477  0.1071
 5277SOL    HW227465   1.630   1.195  15.518  0.1000 -0.6393  2.1271
 5278SOL     OW27466   1.794   3.362  13.286  0.1257  0.4773  0.1774
 5278SOL    HW127467   1.774   3.410  13.367 -0.4888  1.1927 -0.3992
 5278SOL    HW227468   1.784   3.272  13.319  2.3536  0.2616  0.2612
 5279SOL     OW27469   2.754   3.183   9.729  0.5572  0.6821 -0.3019
 5279SOL    HW127470   2.679   3.168   9.787  0.6416  1.3612 -0.0186
 5279SOL    HW227471   2.725   3.268   9.695  0.5946  0.4917 -0.8167
 5280SOL     OW27472   1.935   1.758   3.739  0.5824  0.3365 -0.3202
 5280SOL    HW127473   1.861   1.721   3.787 -0.7122  2.0460 -0.9888
 5280SOL    HW227474   1.891   1.787   3.659  1.4610 -2.4233 -1.7992
 5281SOL     OW27475   1.554   0.802   2.489  0.5878 -0.2918  0.0648
 5281SOL    HW127476   1.477   0.772   2.443  1.1770 -0.8097 -0.5789
 5281SOL    HW227477   1.617   0.743   2.447 -1.7712 -3.1204  0.5599
 5282SOL     OW27478   1.538   3.684   8.890 -0.0551  0.0649 -0.1399
 5282SOL    HW127479   1.535   3.760   8.948 -1.8058 -0.1397  0.0246
 5282SOL    HW227480   1.624   3.651   8.916 -1.3325 -3.5001 -0.4135
 5283SOL     OW27481   3.688   0.586   2.784  0.0349 -0.1331  0.0376
 5283SOL    HW127482   3.709   0.511   2.728  0.6774 -0.3673  0.5928
 5283SOL    HW227483   3.622   0.552   2.845 -0.5458  1.5136  0.3127
 5284SOL     OW27484   4.495   2.940  16.648 -0.6167  0.5887  0.0978
 5284SOL    HW127485   4.433   3.010  16.624 -1.7940 -0.4013  0.2812
 5284SOL    HW227486   4.567   2.997  16.674  0.0233  0.5800 -1.5950
 5285SOL     OW27487   2.822   2.628   1.706  0.5471  0.2170 -0.4664
 5285SOL    HW127488   2.836   2.714   1.664 -0.5818 -0.3219 -1.9762
 5285SOL    HW227489   2.728   2.645   1.708  0.3119 -1.0884 -0.5772
 5286SOL     OW27490   4.453   4.379   6.413 -0.1374  0.2921  0.0931
 5286SOL    HW127491   4.535   4.418   6.384 -0.3361  0.6155 -0.0395
 5286SOL    HW227492   4.422   4.444   6.477  0.6366  0.5813  0.1702
 5287SOL     OW27493   0.065   0.133  17.531  0.9836  0.0929  0.4228
 5287SOL    HW127494   4.738   0.074  17.495  1.6804 -0.9415  0.8341
 5287SOL    HW227495   0.147   0.116  17.485  1.9378  2.6526  1.1567
 5288SOL     OW27496   1.922   2.775   8.996  0.2816  0.3021 -0.3849
 5288SOL    HW127497   1.965   2.856   9.025 -1.7179  1.7783 -1.5321
 5288SOL    HW227498   1.966   2.758   8.913 -1.2674  0.1323 -1.1777
 5289SOL     OW27499   4.114   0.941   6.896 -0.0160 -0.1198  0.0335
 5289SOL    HW127500   4.174   0.915   6.827 -0.0855  0.6438 -0.3061
 5289SOL    HW227501   4.031   0.946   6.848 -0.7796 -0.7064  1.2932
 5290SOL     OW27502   2.602   3.867   3.551 -0.2083  1.0183 -0.2480
 5290SOL    HW127503   2.572   3.932   3.489  1.8662  2.2169  0.0042
 5290SOL    HW227504   2.694   3.889   3.543  0.0490 -0.0896 -0.4167
 5291SOL     OW27505   0.835   2.315  13.624 -0.3843 -0.5437 -0.0086
 5291SOL    HW127506   0.749   2.282  13.599 -1.1284 -0.2386  2.1304
 5291SOL    HW227507   0.817   2.409  13.625  1.9749 -0.0618 -0.7454
 5292SOL     OW27508   0.161   3.565   3.882 -0.1614  0.2307  0.1011
 5292SOL    HW127509   0.075   3.601   3.860 -0.7677 -0.8697  0.6615
 5292SOL    HW227510   0.137   3.540   3.972  0.0692  0.0412  0.1078
 5293SOL     OW27511   2.308   0.130   7.105 -0.4743  0.1889  0.7070
 5293SOL    HW127512   2.394   0.123   7.147 -0.1626 -3.3081 -0.4990
 5293SOL    HW227513   2.239   0.129   7.171 -2.2555 -0.4441 -1.1578
 5294SOL     OW27514   1.417   0.618   0.790  0.5810  0.1994  0.1969
 5294SOL    HW127515   1.374   0.601   0.707  0.5029  0.5266  0.1689
 5294SOL    HW227516   1.461   0.536   0.812 -3.0107 -1.3150  1.6558
 5295SOL     OW27517   4.150   1.196   8.046 -0.2048  0.6026  0.5282
 5295SOL    HW127518   4.080   1.198   8.111 -2.0169 -1.3531 -1.3536
 5295SOL    HW227519   4.107   1.231   7.968 -0.0862  1.3761  0.8127
 5296SOL     OW27520   0.677   3.894   8.737 -0.0590  0.0780 -0.0376
 5296SOL    HW127521   0.733   3.940   8.674  0.4630 -1.4705 -0.7015
 5296SOL    HW227522   0.623   3.839   8.681  0.2985  0.2899 -0.5866
 5297SOL     OW27523   0.354   1.479  10.913  0.7361  0.2450  0.0882
 5297SOL    HW127524   0.375   1.389  10.885  2.9450  0.8091 -0.0668
 5297SOL    HW227525   0.262   1.473  10.938  0.8591  3.1102  1.2031
 5298SOL     OW27526   2.872   0.435   8.996 -0.3072  0.0510 -0.2925
 5298SOL    HW127527   2.777   0.425   8.989  0.0714 -2.9805 -1.1047
 5298SOL    HW227528   2.912   0.351   8.978  1.8977  0.9452  0.3674
 5299SOL     OW27529   0.029   1.485  17.326 -0.2793  0.6621 -0.1259
 5299SOL    HW127530   0.041   1.391  17.340  1.1916  0.9125  0.3000
 5299SOL    HW227531   0.007   1.522  17.412 -0.7966 -0.2133  0.1237
 5300SOL     OW27532   0.704   3.832   6.237  0.2592  0.3195 -0.2216
 5300SOL    HW127533   0.769   3.888   6.193 -0.6228  1.1266 -0.5069
 5300SOL    HW227534   0.645   3.820   6.163 -1.2890  0.2098  1.0345
 5301SOL     OW27535   1.219   1.448   0.959 -1.3653 -0.3286  0.8346
 5301SOL    HW127536   1.280   1.439   1.032 -1.5602 -1.1650  0.8914
 5301SOL    HW227537   1.268   1.503   0.898 -2.2329  0.8770  1.2192
 5302SOL     OW27538   1.988   2.018  11.377 -0.1039 -0.0448 -0.2107
 5302SOL    HW127539   2.024   1.930  11.369  1.1332  0.1107  3.4082
 5302SOL    HW227540   2.072   2.054  11.407  0.0852  0.2115 -1.0454
 5303SOL     OW27541   2.039   3.780   9.522 -0.4013  0.1646  0.6632
 5303SOL    HW127542   2.105   3.712   9.507 -0.2854  0.0436  1.7219
 5303SOL    HW227543   2.101   3.845   9.557  1.3111 -0.9261 -0.3198
 5304SOL     OW27544   1.233   2.737   5.177 -0.4079  0.3870  0.7904
 5304SOL    HW127545   1.259   2.829   5.184  1.1808  0.0248 -0.1697
 5304SOL    HW227546   1.295   2.715   5.107 -0.5047  0.1778  0.7693
 5305SOL     OW27547   3.149   4.346  10.278  0.1196 -0.7037 -0.2667
 5305SOL    HW127548   3.088   4.385  10.340 -0.0175 -0.9940 -0.2248
 5305SOL    HW227549   3.110   4.366  10.193 -0.6347 -0.7118  0.0831
 5306SOL     OW27550   3.857   1.913  17.641  0.6264  0.2436 -0.2853
 5306SOL    HW127551   3.791   1.868  17.694  0.6559  1.0194  0.4017
 5306SOL    HW227552   3.822   1.900  17.552  0.4860  2.4628 -0.5586
 5307SOL     OW27553   0.100   2.888   1.338  0.3025 -0.0116  0.0072
 5307SOL    HW127554   0.067   2.836   1.265  2.2894 -1.2926  0.0421
 5307SOL    HW227555   0.142   2.966   1.302 -1.4408  0.4933 -0.9473
 5308SOL     OW27556   3.108   1.028   6.806  0.0934 -0.3098  0.0289
 5308SOL    HW127557   3.146   1.003   6.721  1.0419 -1.2637  0.7178
 5308SOL    HW227558   3.044   1.094   6.783  1.5655  1.1423  0.1183
 5309SOL     OW27559   3.353   1.924   3.179  0.3866 -0.2186 -0.0467
 5309SOL    HW127560   3.425   1.982   3.202  1.8202 -1.7271 -0.7271
 5309SOL    HW227561   3.381   1.897   3.091  0.5987  0.3738 -0.1601
 5310SOL     OW27562   3.339   3.117   4.716  0.2483 -0.0945 -0.6461
 5310SOL    HW127563   3.264   3.063   4.691 -0.2790  0.4406 -0.2221
 5310SOL    HW227564   3.341   3.189   4.652  0.1217 -1.1559 -1.8551
 5311SOL     OW27565   2.765   0.259   6.808  0.3901 -0.7266  0.9353
 5311SOL    HW127566   2.733   0.248   6.719 -1.1406  1.1390  1.2474
 5311SOL    HW227567   2.693   0.312   6.842 -0.8487 -0.4357 -2.1509
 5312SOL     OW27568   3.089   2.099   3.654 -0.2389  0.6781 -0.1892
 5312SOL    HW127569   3.125   2.140   3.733  0.6525 -0.4060 -0.0332
 5312SOL    HW227570   3.162   2.106   3.593 -1.0044 -0.2472 -1.2103
 5313SOL     OW27571   4.212   3.782   7.831 -0.6371  0.2424  0.1812
 5313SOL    HW127572   4.199   3.841   7.757  1.9270  1.6927  0.9125
 5313SOL    HW227573   4.205   3.853   7.895 -0.4121 -0.8337  1.4035
 5314SOL     OW27574   4.377   2.917   3.489 -0.0326  0.1398 -0.4034
 5314SOL    HW127575   4.360   2.921   3.583  2.5114  0.8123  0.0334
 5314SOL    HW227576   4.364   2.823   3.488  1.2204 -0.0462  0.3845
 5315SOL     OW27577   1.741   3.288  13.691  0.2132 -0.6585 -0.2052
 5315SOL    HW127578   1.810   3.353  13.701 -0.0647 -0.4016  0.0436
 5315SOL    HW227579   1.693   3.328  13.618 -2.2447 -1.5528  0.8971
 5316SOL     OW27580   3.265   2.806  12.331 -0.1487 -0.0584  0.4670
 5316SOL    HW127581   3.204   2.870  12.293  2.0991  1.0894 -1.1820
 5316SOL    HW227582   3.295   2.866  12.399  0.7797  0.2933 -0.2580
 5317SOL     OW27583   1.673   0.015  11.639  0.7090 -0.2179  0.5947
 5317SOL    HW127584   1.630   0.062  11.568 -0.0375  0.0536  1.2159
 5317SOL    HW227585   1.593   0.009  11.692  0.6928 -0.2847  0.5627
 5318SOL     OW27586   2.782   3.498   3.049 -0.3252  0.4200  0.0321
 5318SOL    HW127587   2.827   3.487   3.133  1.6594  0.7224 -0.9834
 5318SOL    HW227588   2.740   3.582   3.065 -1.5589 -0.5325  1.8092
 5319SOL     OW27589   3.114   2.739   8.666 -0.1097  0.5378 -0.1009
 5319SOL    HW127590   3.118   2.698   8.580 -0.5884 -0.0287  0.1487
 5319SOL    HW227591   3.019   2.753   8.672 -0.3391 -0.6800 -0.9597
 5320SOL     OW27592   1.409   4.680   7.330 -0.1757 -0.1585  0.8957
 5320SOL    HW127593   1.336   4.617   7.326 -2.1147  2.2182 -1.1871
 5320SOL    HW227594   1.438   4.674   7.421  2.8722  3.5464  0.1586
 5321SOL     OW27595   1.203   3.435  14.857 -0.2277 -0.5055  0.0864
 5321SOL    HW127596   1.241   3.455  14.942  0.8462  1.8422 -0.9385
 5321SOL    HW227597   1.136   3.504  14.858  1.0728  0.7105  2.6009
 5322SOL     OW27598   3.611   1.458  16.709 -0.4756 -0.3488 -0.2745
 5322SOL    HW127599   3.605   1.551  16.731  1.5282 -0.5888  1.3224
 5322SOL    HW227600   3.585   1.468  16.618 -0.4863  1.9950 -0.0284
 5323SOL     OW27601   1.498   1.295   6.296  0.4180  0.5475 -0.2815
 5323SOL    HW127602   1.544   1.249   6.367 -2.0669  1.1811  1.7483
 5323SOL    HW227603   1.503   1.384   6.330  1.6310  0.6099 -0.6325
 5324SOL     OW27604   1.413   1.979   1.721 -0.2300 -0.0719 -0.6620
 5324SOL    HW127605   1.451   2.062   1.750 -1.5212  0.6942 -1.1807
 5324SOL    HW227606   1.465   1.919   1.774  1.4095  0.4709 -1.6938
 5325SOL     OW27607   3.733   1.170   5.190  0.9705 -0.1329 -0.5063
 5325SOL    HW127608   3.714   1.209   5.105 -2.0886  0.7089  0.5527
 5325SOL    HW227609   3.801   1.233   5.216  1.0696 -0.4749  0.0719
 5326SOL     OW27610   1.835   1.422   3.554  0.9050  0.1458  0.1206
 5326SOL    HW127611   1.814   1.353   3.616  1.4684 -2.6842 -2.8644
 5326SOL    HW227612   1.929   1.412   3.566  1.0793 -1.7433 -2.8486
 5327SOL     OW27613   4.288   1.852   1.153 -0.0976 -0.1765  0.2705
 5327SOL    HW127614   4.310   1.776   1.100  2.4850  0.7498  0.0437
 5327SOL    HW227615   4.358   1.862   1.217 -0.8702 -0.1509  1.1170
 5328SOL     OW27616   0.725   3.945   3.148 -0.5256  0.1052 -0.2008
 5328SOL    HW127617   0.672   4.008   3.099  0.1724  0.0106 -1.0804
 5328SOL    HW227618   0.767   3.991   3.220 -1.3250  1.2746 -0.4809
 5329SOL     OW27619   3.246   1.079   8.705 -0.3602 -0.0928  0.1028
 5329SOL    HW127620   3.156   1.110   8.699  0.1649  1.6525  1.5326
 5329SOL    HW227621   3.229   0.990   8.737  0.5281 -0.4033 -0.2781
 5330SOL     OW27622   4.287   3.585   9.669  1.1064 -0.6471  0.0772
 5330SOL    HW127623   4.211   3.608   9.722 -0.6107 -0.2233 -2.5400
 5330SOL    HW227624   4.269   3.633   9.588 -1.1966 -2.0529 -0.2485
 5331SOL     OW27625   0.925   3.467   6.559 -0.6720 -0.7421  0.0025
 5331SOL    HW127626   0.904   3.474   6.466 -0.0186  1.1365  0.0122
 5331SOL    HW227627   0.842   3.496   6.598  1.2370 -0.3331  3.7166
 5332SOL     OW27628   2.699   0.710   4.018  0.0449  0.7023  0.6621
 5332SOL    HW127629   2.754   0.636   3.992 -0.0113  0.7845  0.2995
 5332SOL    HW227630   2.762   0.757   4.072  0.1867  0.1770  0.9430
 5333SOL     OW27631   3.855   0.038  12.374  0.4136  0.1727 -0.3986
 5333SOL    HW127632   3.789   4.719  12.336 -0.9895  2.2344 -1.0948
 5333SOL    HW227633   3.804   0.079  12.443 -0.3628  0.4733 -1.1409
 5334SOL     OW27634   4.144   2.464   2.322  0.1815  0.0480  0.0460
 5334SOL    HW127635   4.119   2.377   2.291 -1.7883  0.1577  1.3417
 5334SOL    HW227636   4.144   2.460   2.417  0.9172 -0.6205  0.0214
 5335SOL     OW27637   4.043   4.577  11.566 -0.2790  0.1659  0.6016
 5335SOL    HW127638   3.955   4.548  11.544  0.0432  0.0807 -0.5690
 5335SOL    HW227639   4.077   4.494  11.599  3.0183  1.5755  0.7526
 5336SOL     OW27640   3.360   0.083   3.499 -0.4311  0.1992 -0.0600
 5336SOL    HW127641   3.355   0.145   3.426 -2.6560 -0.4438 -0.4494
 5336SOL    HW227642   3.338   0.152   3.562 -1.7913  0.1087 -0.4383
 5337SOL     OW27643   0.877   3.733   5.909  0.4249  0.5202  0.2951
 5337SOL    HW127644   0.802   3.674   5.910 -0.8799  2.1731 -0.6424
 5337SOL    HW227645   0.953   3.680   5.931  0.4281  0.0530 -0.8642
 5338SOL     OW27646   3.018   2.679   2.935 -0.4101  0.2301 -0.0220
 5338SOL    HW127647   3.071   2.715   2.865 -1.4756  0.2934 -0.8048
 5338SOL    HW227648   2.981   2.604   2.889  0.0389 -0.8389  1.3643
 5339SOL     OW27649   3.370   4.199   7.664  0.3739 -0.4715 -0.3894
 5339SOL    HW127650   3.343   4.172   7.752 -3.8269 -0.3241 -1.6514
 5339SOL    HW227651   3.283   4.195   7.626  0.3247  0.5709 -0.3804
 5340SOL     OW27652   3.866   1.714   6.019  0.4398  0.1261 -0.1049
 5340SOL    HW127653   3.808   1.697   5.945  0.7594 -0.9035 -0.1195
 5340SOL    HW227654   3.849   1.808   6.029  2.6596  0.7198 -1.9181
 5341SOL     OW27655   2.014   2.178  15.176  0.0839  0.1193 -0.3009
 5341SOL    HW127656   2.047   2.233  15.247 -1.8988  1.3248 -0.3090
 5341SOL    HW227657   2.075   2.104  15.175  0.4607  0.4164  0.9613
 5342SOL     OW27658   4.110   1.973  14.616  0.0448  0.0473  0.0018
 5342SOL    HW127659   4.037   2.021  14.576  0.7580  1.2312  0.0944
 5342SOL    HW227660   4.188   1.995  14.564  0.9314 -0.4528  1.1240
 5343SOL     OW27661   1.108   2.990   1.926 -0.5930 -0.3682 -0.6101
 5343SOL    HW127662   1.136   3.052   1.994 -0.6485 -1.7159  0.6444
 5343SOL    HW227663   1.027   2.954   1.962 -0.5705 -0.2015 -0.3914
 5344SOL     OW27664   4.543   1.751   7.577  0.1594 -0.0845  0.0340
 5344SOL    HW127665   4.535   1.845   7.589  3.2255 -0.0818  1.8431
 5344SOL    HW227666   4.555   1.725   7.668  1.2098  0.0689 -0.0670
 5345SOL     OW27667   2.927   3.519   7.689 -0.5310 -0.4672 -0.2021
 5345SOL    HW127668   2.896   3.515   7.780 -2.3106  4.1696 -0.6107
 5345SOL    HW227669   2.848   3.521   7.636  0.4151  2.0925 -1.5048
 5346SOL     OW27670   3.090   3.218   7.528 -0.5526 -0.0847 -0.0062
 5346SOL    HW127671   3.103   3.310   7.502  0.8111 -0.8492 -2.0139
 5346SOL    HW227672   3.170   3.197   7.575 -2.2040 -2.3823  1.7716
 5347SOL     OW27673   2.183   2.761  15.070 -0.1351 -0.4505  0.0418
 5347SOL    HW127674   2.112   2.703  15.043 -1.0959  0.4826  0.5644
 5347SOL    HW227675   2.244   2.691  15.091 -0.2345 -0.4012  0.5089
 5348SOL     OW27676   0.266   4.218   8.771  0.2581 -0.0975  0.1667
 5348SOL    HW127677   0.263   4.241   8.678  0.6992  2.0151  0.6878
 5348SOL    HW227678   0.321   4.141   8.755  0.1158  0.1372 -1.3800
 5349SOL     OW27679   2.079   2.762   9.806  0.2483 -1.0126 -0.3891
 5349SOL    HW127680   2.156   2.735   9.755  0.1405  0.9080 -1.5831
 5349SOL    HW227681   2.119   2.797   9.885  2.0924 -0.3156 -1.6130
 5350SOL     OW27682   2.409   0.114   3.192  0.2439  0.0244  0.1053
 5350SOL    HW127683   2.489   0.152   3.228  3.1224 -2.0902 -4.0327
 5350SOL    HW227684   2.366   0.187   3.146 -1.2229 -1.5266 -1.0186
 5351SOL     OW27685   4.664   1.959  15.272  0.1485  0.4158  0.0723
 5351SOL    HW127686   4.583   1.969  15.221 -0.0289 -0.5762  0.1545
 5351SOL    HW227687   4.690   2.050  15.288  1.5995  0.5601 -2.9943
 5352SOL     OW27688   2.444   4.456   3.358 -1.1071 -0.0302  0.2817
 5352SOL    HW127689   2.387   4.462   3.435 -0.5682 -1.2519  0.7918
 5352SOL    HW227690   2.521   4.500   3.395 -0.8561  1.0766 -1.6008
 5353SOL     OW27691   4.098   0.088  13.473 -0.2183 -0.5469 -0.5662
 5353SOL    HW127692   4.191   0.083  13.453  0.5718 -0.3989  3.0387
 5353SOL    HW227693   4.080   0.181  13.460 -2.3272 -0.8563  0.0945
 5354SOL     OW27694   0.024   3.219   3.328  0.3680 -0.3212 -0.1702
 5354SOL    HW127695   4.706   3.165   3.384 -0.7409  0.3166 -0.6680
 5354SOL    HW227696   0.096   3.160   3.307  0.7279  0.4155 -0.9873
 5355SOL     OW27697   1.894   0.701  15.254  0.8058  0.2031 -0.0266
 5355SOL    HW127698   1.927   0.791  15.262 -0.2187  0.5490  0.3363
 5355SOL    HW227699   1.968   0.669  15.203  1.0120  0.4472  0.1206
 5356SOL     OW27700   4.079   2.895   9.681  0.1537 -0.0743  0.1696
 5356SOL    HW127701   4.102   2.949   9.606 -0.1023 -3.0209 -2.0300
 5356SOL    HW227702   4.139   2.823   9.664 -1.8025 -2.3878  2.9649
 5357SOL     OW27703   0.182   4.608   6.727 -0.2194  0.0739 -0.3122
 5357SOL    HW127704   0.194   4.690   6.776 -0.9193 -1.1616  1.9134
 5357SOL    HW227705   0.263   4.611   6.677 -0.5762 -0.5733 -0.9314
 5358SOL     OW27706   3.480   4.242  16.737 -1.1697 -0.2790  0.3991
 5358SOL    HW127707   3.533   4.225  16.815 -1.2050 -0.6475  0.3429
 5358SOL    HW227708   3.404   4.188  16.758 -0.8872 -0.4688  0.9170
 5359SOL     OW27709   3.183   3.531   6.993  0.8651  0.1965 -0.1290
 5359SOL    HW127710   3.251   3.497   6.934 -0.6625  0.3509 -1.9719
 5359SOL    HW227711   3.177   3.445   7.036 -0.1309 -0.4653 -1.5873
 5360SOL     OW27712   2.821   3.954  10.924  0.3556 -0.1648 -0.3510
 5360SOL    HW127713   2.799   3.993  11.009 -0.3876  0.3696 -0.7909
 5360SOL    HW227714   2.914   3.976  10.925  0.3119  0.0391 -0.7608
 5361SOL     OW27715   1.616   2.439   7.858  0.4331  0.1616  0.3192
 5361SOL    HW127716   1.664   2.383   7.798 -0.5522 -2.6413  2.1827
 5361SOL    HW227717   1.682   2.431   7.927  1.2174 -1.3035 -0.6236
 5362SOL     OW27718   4.641   2.289   4.919  0.4091  0.4032  0.0944
 5362SOL    HW127719   4.659   2.327   5.005 -0.1929  0.4789  0.1938
 5362SOL    HW227720   4.678   2.350   4.855 -0.3196  0.8706  0.1153
 5363SOL     OW27721   2.324   3.033  14.642  0.8915 -0.5331  0.2088
 5363SOL    HW127722   2.313   2.983  14.722  1.4107  1.0821  1.3016
 5363SOL    HW227723   2.381   3.103  14.675 -1.1877  1.2737 -0.0100
 5364SOL     OW27724   2.556   3.260   1.417 -0.4712  0.2676  0.5996
 5364SOL    HW127725   2.481   3.272   1.358 -0.6944 -0.8841  0.6438
 5364SOL    HW227726   2.540   3.324   1.486  0.5080  0.0116  1.0546
 5365SOL     OW27727   1.705   1.897   2.948 -0.1680  0.3378  0.1342
 5365SOL    HW127728   1.795   1.927   2.935 -0.7792  0.8988 -2.8281
 5365SOL    HW227729   1.714   1.866   3.038 -1.0260  0.7072  0.3511
 5366SOL     OW27730   3.107   2.320  11.122 -0.9946  0.7012 -0.8189
 5366SOL    HW127731   3.043   2.386  11.150 -0.8757  0.4152  0.1535
 5366SOL    HW227732   3.088   2.254  11.189 -0.4574  1.7091  0.3305
 5367SOL     OW27733   1.465   4.099   8.497  0.1526 -0.4816 -0.4953
 5367SOL    HW127734   1.531   4.126   8.433  1.0056 -0.6574  0.3103
 5367SOL    HW227735   1.394   4.054   8.452  0.4441 -0.4404 -0.9998
 5368SOL     OW27736   4.524   3.443   9.115  0.1773 -0.2874 -0.1771
 5368SOL    HW127737   4.553   3.374   9.175  0.9783 -0.6747 -1.0106
 5368SOL    HW227738   4.450   3.478   9.164  1.4551  1.5257  0.4377
 5369SOL     OW27739   2.400   0.122   4.720 -0.1596 -0.9123  0.3098
 5369SOL    HW127740   2.474   0.178   4.698 -0.6495 -0.1239  0.6483
 5369SOL    HW227741   2.439   0.048   4.766  0.1396 -0.9344  0.0106
 5370SOL     OW27742   4.243   0.212  11.355  0.0300 -0.3708  0.1233
 5370SOL    HW127743   4.264   0.118  11.358  2.1235  0.0984  0.1080
 5370SOL    HW227744   4.319   0.246  11.402  0.4972 -1.7517  0.3880
 5371SOL     OW27745   4.212   1.876  15.361  0.3678  0.7754 -0.5269
 5371SOL    HW127746   4.300   1.850  15.334 -0.7255 -2.5722 -0.7842
 5371SOL    HW227747   4.168   1.792  15.371  0.8807  0.4904 -0.6661
 5372SOL     OW27748   3.044   4.454  15.307 -0.1773 -0.1046  0.2386
 5372SOL    HW127749   3.024   4.522  15.371 -0.3865  2.3811 -2.4396
 5372SOL    HW227750   3.007   4.387  15.365  0.6315 -1.5224 -0.9001
 5373SOL     OW27751   3.674   0.271  12.842  0.1232  0.3121  0.5130
 5373SOL    HW127752   3.612   0.260  12.915  0.0220 -0.4555  0.3064
 5373SOL    HW227753   3.752   0.257  12.896  0.5578  1.2446  0.1164
 5374SOL     OW27754   0.310   0.375   5.001  0.1645 -0.0049  0.8591
 5374SOL    HW127755   0.243   0.354   5.066 -0.1728 -1.6051 -0.0053
 5374SOL    HW227756   0.313   0.469   5.014 -0.7936  0.3396 -1.3554
 5375SOL     OW27757   2.288   3.925   3.482  0.3564  0.3138 -0.5365
 5375SOL    HW127758   2.260   3.938   3.572  2.2102 -0.9970  0.2421
 5375SOL    HW227759   2.220   3.961   3.426 -0.7788  0.3166  0.8653
 5376SOL     OW27760   4.432   4.563   5.432 -0.1531 -0.7525 -0.0652
 5376SOL    HW127761   4.369   4.599   5.495 -0.8340 -1.4400 -0.3643
 5376SOL    HW227762   4.464   4.489   5.483 -0.3284  0.2671  1.5380
 5377SOL     OW27763   4.699   3.170  14.551 -0.1223 -0.4146 -0.1170
 5377SOL    HW127764   4.681   3.123  14.632 -1.8780  1.6784  0.7157
 5377SOL    HW227765   0.055   3.165  14.538 -0.1227 -1.0204  0.1452
 5378SOL     OW27766   3.287   2.207   1.042 -0.1342  0.1586  0.6311
 5378SOL    HW127767   3.310   2.206   0.949 -2.1757 -2.1995  0.1481
 5378SOL    HW227768   3.326   2.124   1.070 -0.4375  0.2696  1.3811
 5379SOL     OW27769   3.544   3.380  17.209  0.3770  0.3726  0.2379
 5379SOL    HW127770   3.594   3.406  17.286  0.8443 -1.9534  0.7093
 5379SOL    HW227771   3.586   3.439  17.147  0.5896  0.6392  0.6386
 5380SOL     OW27772   3.034   4.082   7.268 -0.0408  0.4289 -0.5756
 5380SOL    HW127773   2.978   4.121   7.336 -1.1745  1.9001 -2.3468
 5380SOL    HW227774   3.001   3.993   7.285  2.4982  0.1600  2.9236
 5381SOL     OW27775   4.385   2.518   5.606 -0.0293 -0.0718 -0.2041
 5381SOL    HW127776   4.469   2.558   5.584  0.0550  0.1326  0.5215
 5381SOL    HW227777   4.399   2.440   5.553  1.2295 -0.7944  1.2036
 5382SOL     OW27778   1.971   0.984   5.059 -0.2979 -0.3438 -0.2667
 5382SOL    HW127779   1.925   0.929   4.996 -0.9455 -0.5434  0.3883
 5382SOL    HW227780   1.920   0.975   5.139  0.9541 -0.1913  0.5540
 5383SOL     OW27781   3.389   4.016   3.245  0.1351 -0.1781  0.8270
 5383SOL    HW127782   3.434   3.935   3.270 -0.4033 -0.6984  0.0975
 5383SOL    HW227783   3.298   3.992   3.264 -0.6411  0.5532 -2.0842
 5384SOL     OW27784   1.523   2.039   7.980  0.6839  0.7515  0.3800
 5384SOL    HW127785   1.494   2.122   8.017  2.6764  0.3801  2.7839
 5384SOL    HW227786   1.439   1.994   7.967  2.2564 -2.6911  1.9358
 5385SOL     OW27787   3.873   3.011  11.107  0.0390 -0.6293  0.0703
 5385SOL    HW127788   3.875   3.098  11.147 -1.0675 -0.2288 -0.7655
 5385SOL    HW227789   3.928   3.028  11.031  2.3647  2.3466  2.3855
 5386SOL     OW27790   2.056   2.348  11.491 -0.1084 -0.1302  0.0057
 5386SOL    HW127791   2.003   2.427  11.482 -0.4446 -0.1608  1.6805
 5386SOL    HW227792   2.120   2.378  11.426 -1.3734  0.4700 -0.9590
 5387SOL     OW27793   4.101   0.310   4.405  0.3956  1.2462  0.0905
 5387SOL    HW127794   4.057   0.377   4.458  2.3155  1.7468  1.0580
 5387SOL    HW227795   4.125   0.251   4.477 -0.5198 -0.9099 -1.3996
 5388SOL     OW27796   1.859   0.642   4.982 -0.0673 -0.0009  0.0653
 5388SOL    HW127797   1.944   0.621   5.020 -0.0278 -2.6590 -1.5073
 5388SOL    HW227798   1.830   0.556   4.951  2.8525 -0.2920 -1.7993
 5389SOL     OW27799   2.066   4.411   9.125  0.3084  0.2353 -0.0602
 5389SOL    HW127800   2.073   4.478   9.057 -1.7464 -0.6503 -1.1263
 5389SOL    HW227801   2.055   4.464   9.204 -2.2943 -2.0502  1.1056
 5390SOL     OW27802   2.102   1.679   2.153  1.2553 -0.6037 -0.1817
 5390SOL    HW127803   2.132   1.669   2.243  2.7075 -0.1379 -0.6155
 5390SOL    HW227804   2.071   1.591   2.132  1.4808 -1.3725  2.7423
 5391SOL     OW27805   4.441   4.256   5.184  0.1496 -0.2656 -0.3340
 5391SOL    HW127806   4.521   4.297   5.216 -0.2677  1.1852 -1.1062
 5391SOL    HW227807   4.466   4.222   5.098  1.0330  0.8091 -0.5054
 5392SOL     OW27808   3.142   0.806   8.680  0.0812  0.0890 -0.2777
 5392SOL    HW127809   3.133   0.721   8.723 -0.4347 -0.4137 -1.3800
 5392SOL    HW227810   3.053   0.838   8.691 -0.0960  0.0532 -1.6014
 5393SOL     OW27811   1.407   1.677   2.514 -0.2385  0.7250  0.7467
 5393SOL    HW127812   1.370   1.722   2.439 -0.8091  1.6752  1.5985
 5393SOL    HW227813   1.477   1.735   2.544 -2.3406  3.5168  0.1826
 5394SOL     OW27814   0.200   1.154   5.961  0.0462  0.6778  0.0362
 5394SOL    HW127815   0.150   1.081   5.925  1.2696  0.0511 -0.3909
 5394SOL    HW227816   0.262   1.155   5.888  1.2511  0.8071  1.0762
 5395SOL     OW27817   4.418   1.570  11.624 -0.1861 -0.1102 -0.1069
 5395SOL    HW127818   4.476   1.617  11.684  1.1668 -1.9404  0.0247
 5395SOL    HW227819   4.409   1.482  11.662  0.8723 -0.6642 -1.1339
 5396SOL     OW27820   1.962   4.400   0.623 -0.2492  0.5153  0.0824
 5396SOL    HW127821   2.044   4.435   0.589  0.3257 -2.3407 -1.4998
 5396SOL    HW227822   1.990   4.317   0.663 -1.6969 -1.0972 -2.2577
 5397SOL     OW27823   3.306   4.414   1.707 -0.4801 -0.5447 -0.3233
 5397SOL    HW127824   3.333   4.449   1.791  1.1146 -0.0105 -1.0546
 5397SOL    HW227825   3.344   4.475   1.644 -1.6708  1.9947  1.4378
 5398SOL     OW27826   0.774   0.556   2.353 -0.3183  0.6246 -0.2593
 5398SOL    HW127827   0.689   0.580   2.389 -0.6520 -1.7169  0.5299
 5398SOL    HW227828   0.828   0.532   2.429 -0.6553 -1.6704 -0.7261
 5399SOL     OW27829   0.347   4.455   4.576 -0.2159 -0.7628  0.1260
 5399SOL    HW127830   0.336   4.370   4.618 -1.8007 -1.3916 -1.5800
 5399SOL    HW227831   0.291   4.443   4.499 -0.0630  1.3403 -0.3150
 5400SOL     OW27832   0.342   4.059   6.319 -0.0230  0.2202 -0.0395
 5400SOL    HW127833   0.299   3.979   6.290 -0.6745  0.1750  1.0189
 5400SOL    HW227834   0.336   4.048   6.414 -2.2455  0.0601 -0.2072
 5401SOL     OW27835   2.474   2.578  12.529  0.4492 -0.8194 -0.0495
 5401SOL    HW127836   2.447   2.667  12.553  0.9254 -0.7680  0.3011
 5401SOL    HW227837   2.566   2.576  12.555  0.3129 -2.1322  0.3854
 5402SOL     OW27838   2.863   1.835   7.718  0.0776 -0.0292 -0.2464
 5402SOL    HW127839   2.927   1.847   7.788  0.1619  2.2044 -0.7176
 5402SOL    HW227840   2.854   1.741   7.735  0.6864 -0.1124 -0.4050
 5403SOL     OW27841   3.894   1.310   9.708  0.0244 -0.6912  0.2399
 5403SOL    HW127842   3.868   1.340   9.795  1.9908 -0.6674  0.8358
 5403SOL    HW227843   3.910   1.390   9.659  0.9165  0.0117  1.6780
 5404SOL     OW27844   3.007   0.189  11.576  0.1383  0.0098  0.1784
 5404SOL    HW127845   3.035   0.262  11.521 -2.3187 -0.1556 -1.2611
 5404SOL    HW227846   2.989   0.128  11.504 -2.8910  1.0423  0.0700
 5405SOL     OW27847   2.241   2.329   2.424  0.2006  0.2629 -0.8546
 5405SOL    HW127848   2.265   2.421   2.433  0.9449 -0.0001 -0.0962
 5405SOL    HW227849   2.150   2.343   2.401  0.1326 -2.0232 -1.9731
 5406SOL     OW27850   1.994   0.461   3.044 -0.0030 -0.2572 -0.0595
 5406SOL    HW127851   1.925   0.508   2.995 -0.1739 -2.1100 -1.5753
 5406SOL    HW227852   1.957   0.470   3.132 -0.1973  2.1680 -0.3661
 5407SOL     OW27853   1.236   1.815   8.738 -0.0952 -0.1551  0.1697
 5407SOL    HW127854   1.201   1.890   8.785 -1.2804 -0.5435 -0.1053
 5407SOL    HW227855   1.202   1.746   8.795  0.5805 -1.1821 -0.6824
 5408SOL     OW27856   4.102   2.687   0.366 -0.0785  0.1871  0.3262
 5408SOL    HW127857   4.079   2.620   0.430 -1.9582  1.0591  0.5682
 5408SOL    HW227858   4.075   2.653   0.281 -2.1175 -1.4411  1.6361
 5409SOL     OW27859   3.323   3.750   7.126  0.6790  0.4158  0.2094
 5409SOL    HW127860   3.289   3.663   7.108  1.7584  0.4556 -2.1085
 5409SOL    HW227861   3.389   3.750   7.056  1.6693  2.2813  1.1270
 5410SOL     OW27862   3.561   1.498   3.246  0.2462  0.1687  0.3144
 5410SOL    HW127863   3.512   1.543   3.177  1.0843 -0.2088 -0.5233
 5410SOL    HW227864   3.568   1.411   3.206  2.5690  1.2842 -1.6644
 5411SOL     OW27865   1.996   4.622   0.039 -0.7041 -0.1135 -0.1980
 5411SOL    HW127866   1.920   4.676   0.060 -0.6382  0.6536 -1.9563
 5411SOL    HW227867   1.984   4.539   0.086 -0.0904 -0.4050 -0.5592
 5412SOL     OW27868   1.210   2.913  12.875 -0.6643 -0.4136 -0.0546
 5412SOL    HW127869   1.304   2.930  12.884 -0.5822 -0.3464 -0.9891
 5412SOL    HW227870   1.182   2.947  12.960 -0.0040  1.1462 -0.4576
 5413SOL     OW27871   0.289   2.887   8.461  0.3346  0.2756 -0.1731
 5413SOL    HW127872   0.257   2.801   8.435  0.7432  0.1198 -0.1560
 5413SOL    HW227873   0.205   2.923   8.491 -1.3391 -0.4274 -3.9641
 5414SOL     OW27874   1.841   0.483  16.812 -0.5107 -0.1538  0.3035
 5414SOL    HW127875   1.759   0.466  16.766 -0.0166  0.8187 -0.9563
 5414SOL    HW227876   1.840   0.408  16.872  1.3121 -0.0056  0.5255
 5415SOL     OW27877   2.338   3.751  13.278  0.6822 -0.2455  0.5715
 5415SOL    HW127878   2.418   3.727  13.323  0.5613 -2.4369 -0.3646
 5415SOL    HW227879   2.364   3.835  13.241 -1.8488 -0.5487 -1.9174
 5416SOL     OW27880   1.098   1.489  10.283 -0.1137 -0.1020 -0.4973
 5416SOL    HW127881   1.032   1.420  10.286  0.9256 -1.0540  0.9904
 5416SOL    HW227882   1.049   1.564  10.249 -0.9692 -0.5799 -0.3171
 5417SOL     OW27883   1.440   2.869   8.569 -0.3704  0.0056 -0.4956
 5417SOL    HW127884   1.350   2.882   8.597  0.8323  1.2385  2.8109
 5417SOL    HW227885   1.477   2.957   8.575  0.2305 -0.1824 -1.3121
 5418SOL     OW27886   2.845   3.791   7.989 -0.2954  0.5514  0.0627
 5418SOL    HW127887   2.804   3.727   8.047  1.0623 -1.3447 -1.0732
 5418SOL    HW227888   2.848   3.872   8.040  1.7788  1.3807 -1.3931
 5419SOL     OW27889   3.585   3.047  16.028 -0.4108  0.8205 -0.4379
 5419SOL    HW127890   3.619   3.124  15.983  1.5211  0.1989 -0.0636
 5419SOL    HW227891   3.667   3.007  16.057 -1.3999  0.0817  1.3015
 5420SOL     OW27892   1.554   4.218  17.266 -0.0714  0.1990  0.6006
 5420SOL    HW127893   1.561   4.314  17.273 -1.3347  0.4083 -1.1101
 5420SOL    HW227894   1.534   4.197  17.357 -0.2236  1.6498  0.9130
 5421SOL     OW27895   1.099   4.481   4.060 -0.1877 -0.1054 -0.3246
 5421SOL    HW127896   1.027   4.543   4.077 -0.1388 -0.3750  0.8802
 5421SOL    HW227897   1.051   4.410   4.017  0.1054  0.0403 -0.8851
 5422SOL     OW27898   4.359   1.362   6.359 -0.3828 -0.2260 -0.1323
 5422SOL    HW127899   4.389   1.346   6.449  0.3181  0.0485 -0.3179
 5422SOL    HW227900   4.440   1.381   6.312 -2.0715 -0.8736 -3.2647
 5423SOL     OW27901   0.876   3.077   5.383 -0.8610  0.4859  0.3660
 5423SOL    HW127902   0.945   3.046   5.442 -2.5811 -0.7344  1.7295
 5423SOL    HW227903   0.909   3.051   5.297 -2.2344 -0.1943  0.0390
 5424SOL     OW27904   0.245   1.603   0.043 -0.1159  0.2434 -0.6499
 5424SOL    HW127905   0.164   1.645   0.070  0.5089  0.4954  0.8553
 5424SOL    HW227906   0.301   1.590   0.120 -1.1924 -0.6014 -0.0085
 5425SOL     OW27907   1.123   0.244   8.988  0.3655 -0.7532  0.3078
 5425SOL    HW127908   1.065   0.269   9.060  0.0619 -0.8228  0.0865
 5425SOL    HW227909   1.118   0.323   8.934 -1.3565 -1.2567 -0.2756
 5426SOL     OW27910   3.692   0.972  13.443  0.3252 -0.5083  0.2115
 5426SOL    HW127911   3.633   1.005  13.511  1.5930 -0.0812  1.0815
 5426SOL    HW227912   3.772   1.022  13.454  0.5413 -0.9622  0.7126
 5427SOL     OW27913   0.224   0.394  11.611  0.7698  0.1354 -0.4309
 5427SOL    HW127914   0.291   0.459  11.592 -0.8417  2.5361  2.1268
 5427SOL    HW227915   0.250   0.354  11.694  1.7099 -0.1309 -0.8548
 5428SOL     OW27916   3.919   0.665   9.360  0.6496  0.2647  0.3537
 5428SOL    HW127917   4.013   0.668   9.380  0.8034  0.0768 -0.3330
 5428SOL    HW227918   3.910   0.592   9.298 -3.1127  1.9739 -1.1165
 5429SOL     OW27919   3.919   3.004   0.299 -0.4163  0.4052  0.0252
 5429SOL    HW127920   3.911   2.982   0.392  0.9362 -0.0605  0.0289
 5429SOL    HW227921   3.876   2.929   0.258  0.0687 -0.2826  0.7832
 5430SOL     OW27922   4.100   3.891   8.749  0.8640 -0.2606  0.0500
 5430SOL    HW127923   4.093   3.974   8.703  0.3280  1.0212  2.4155
 5430SOL    HW227924   4.064   3.912   8.836 -0.3269  0.4409 -0.6162
 5431SOL     OW27925   4.137   2.507  12.238  0.0173  0.1653  1.0699
 5431SOL    HW127926   4.065   2.505  12.301 -1.2688  1.3040 -0.3497
 5431SOL    HW227927   4.094   2.495  12.153  3.1521  0.8418 -0.6231
 5432SOL     OW27928   2.807   0.244   1.659 -0.4897  0.0086 -0.0176
 5432SOL    HW127929   2.780   0.167   1.609 -0.9074  1.2244 -1.6373
 5432SOL    HW227930   2.903   0.244   1.650 -0.4869 -1.1453 -0.1076
 5433SOL     OW27931   0.182   0.633   4.460 -0.2894 -0.6376 -0.1825
 5433SOL    HW127932   0.092   0.647   4.430  0.3952  0.4511 -1.6837
 5433SOL    HW227933   0.161   0.649   4.552  0.4254 -0.8987  0.0236
 5434SOL     OW27934   3.235   3.873   8.702  0.1840 -0.3226 -0.3985
 5434SOL    HW127935   3.140   3.881   8.713  0.4742  1.7488  0.6596
 5434SOL    HW227936   3.248   3.839   8.614  3.6158  0.4191 -0.1646
 5435SOL     OW27937   1.634   0.283  12.979 -0.0139 -0.2862 -0.8198
 5435SOL    HW127938   1.574   0.210  12.997  1.5699 -0.9660  1.6798
 5435SOL    HW227939   1.574   0.353  12.956  0.6550 -0.0441 -1.8216
 5436SOL     OW27940   2.439   0.991   5.877  0.1079 -0.0564  0.3639
 5436SOL    HW127941   2.450   0.976   5.971  0.7396  0.9764  0.4507
 5436SOL    HW227942   2.520   0.945   5.853 -0.2384  0.5472 -1.8989
 5437SOL     OW27943   3.727   2.510   3.848  0.0148 -0.2254 -0.2814
 5437SOL    HW127944   3.704   2.596   3.883 -0.1901  0.1713 -1.3747
 5437SOL    HW227945   3.679   2.463   3.916 -1.2125  0.7007 -0.5119
 5438SOL     OW27946   2.169   0.880   2.147  0.0923 -0.2741 -0.2652
 5438SOL    HW127947   2.211   0.802   2.111 -1.8656 -1.4192 -0.0645
 5438SOL    HW227948   2.236   0.947   2.134 -2.3407  1.8421 -1.9078
 5439SOL     OW27949   2.152   1.805  17.022  0.8337 -0.0895  0.0374
 5439SOL    HW127950   2.198   1.792  17.104 -0.0480  3.3211  1.0738
 5439SOL    HW227951   2.164   1.716  16.988 -0.9704 -0.2790 -0.1059
 5440SOL     OW27952   1.785   0.595   2.927 -0.5357  0.0741  0.0650
 5440SOL    HW127953   1.801   0.575   2.834  0.2040  1.9622 -0.2119
 5440SOL    HW227954   1.690   0.581   2.935 -0.4097 -0.8015 -0.0162
 5441SOL     OW27955   0.035   3.320   2.960  0.4718  0.0452 -0.4457
 5441SOL    HW127956   0.124   3.341   2.988  0.7875 -1.2489 -0.4419
 5441SOL    HW227957   0.052   3.252   2.894  0.6058  0.7940 -1.1842
 5442SOL     OW27958   0.883   4.317  16.618  0.2086  0.0273  0.1694
 5442SOL    HW127959   0.818   4.299  16.551  1.5779  0.9491 -1.4287
 5442SOL    HW227960   0.820   4.305  16.688 -0.5972 -2.1380 -0.9281
 5443SOL     OW27961   3.021   4.383  12.024  0.2879  0.5580 -0.2059
 5443SOL    HW127962   2.997   4.330  11.948 -0.8218 -2.5831  2.3139
 5443SOL    HW227963   3.012   4.314  12.090 -2.3744  2.7668  1.7530
 5444SOL     OW27964   4.077   1.255   4.140 -0.0997  0.2420 -0.5035
 5444SOL    HW127965   4.053   1.239   4.048 -0.1778 -2.4377 -0.0312
 5444SOL    HW227966   4.075   1.350   4.148 -1.5337  0.3421 -1.8571
 5445SOL     OW27967   4.665   0.036   8.429 -0.6819  0.1897  0.6127
 5445SOL    HW127968   4.638   0.106   8.488 -0.5414  1.2378 -0.5767
 5445SOL    HW227969   0.009   0.066   8.392 -0.4605 -3.9202 -2.2831
 5446SOL     OW27970   1.328   2.306   0.345  0.4239 -0.4994  0.4766
 5446SOL    HW127971   1.235   2.284   0.357  0.4627 -0.3398  1.1079
 5446SOL    HW227972   1.350   2.251   0.270 -0.6750 -0.7034  0.2990
 5447SOL     OW27973   2.057   4.378   2.275  0.3070 -0.2084 -0.1360
 5447SOL    HW127974   2.082   4.285   2.271  0.0576 -0.2840  0.0996
 5447SOL    HW227975   2.091   4.405   2.360  0.6551  0.0772 -0.3652
 5448SOL     OW27976   2.241   2.798  10.069 -0.5950  0.0273 -0.4266
 5448SOL    HW127977   2.264   2.736  10.139  0.3757 -1.4675 -2.0736
 5448SOL    HW227978   2.272   2.879  10.109 -1.6133 -0.2037  0.8163
 5449SOL     OW27979   1.752   4.006   3.416  0.3685 -0.2072  0.2178
 5449SOL    HW127980   1.776   4.054   3.336  1.7733 -0.2526  0.6131
 5449SOL    HW227981   1.660   3.994   3.393  0.3808 -1.3831  0.7815
 5450SOL     OW27982   2.215   3.881  15.113 -0.4234 -0.7544 -0.2570
 5450SOL    HW127983   2.289   3.884  15.173  0.0677  2.6227 -1.0513
 5450SOL    HW227984   2.139   3.921  15.156  0.3901 -0.2146  0.6648
 5451SOL     OW27985   1.660   3.349   4.620  0.2293 -0.3228  0.2237
 5451SOL    HW127986   1.620   3.416   4.676  2.9796  0.0296  1.7971
 5451SOL    HW227987   1.634   3.405   4.547  1.1147  1.7569  1.4681
 5452SOL     OW27988   1.202   3.127   8.935  0.0264 -0.7483 -0.6246
 5452SOL    HW127989   1.253   3.046   8.943  0.1812 -0.5091  0.8489
 5452SOL    HW227990   1.133   3.115   8.870  1.4448 -2.1810 -1.8726
 5453SOL     OW27991   2.982   2.693   7.665 -0.2808 -0.3163  0.3394
 5453SOL    HW127992   3.038   2.686   7.588  0.7301  0.3527  1.0128
 5453SOL    HW227993   2.987   2.599   7.684  0.9620  0.0687  1.8593
 5454SOL     OW27994   0.338   2.702  12.839  0.5267 -0.5492  0.1610
 5454SOL    HW127995   0.289   2.707  12.921  0.1321 -1.3807 -0.0210
 5454SOL    HW227996   0.266   2.694  12.777  0.4634  0.2406  0.1368
 5455SOL     OW27997   2.765   4.657  10.237 -0.7076 -0.1173  0.4571
 5455SOL    HW127998   2.767   4.571  10.278  0.6792 -0.7074 -0.8504
 5455SOL    HW227999   2.695   4.654  10.172  0.7952  0.7198 -1.2065
 5456SOL     OW28000   2.125   4.516   7.024 -0.0234  0.8770  0.0286
 5456SOL    HW128001   2.062   4.588   7.016  1.1741  1.8324 -0.7981
 5456SOL    HW228002   2.089   4.454   7.088 -0.2131  0.4559 -0.4863
 5457SOL     OW28003   0.252   0.036  12.845 -0.2810 -0.4672  0.3932
 5457SOL    HW128004   0.289   4.736  12.765  2.8875  0.9616  1.1322
 5457SOL    HW228005   0.229   0.125  12.817  1.0088 -0.8015 -1.7804
 5458SOL     OW28006   4.700   1.436   2.126  0.2150  0.4135 -0.1967
 5458SOL    HW128007   4.678   1.343   2.115  0.8516  0.1917  0.4509
 5458SOL    HW228008   4.610   1.466   2.113  0.3229  1.1896  0.7758
 5459SOL     OW28009   1.645   1.450   8.288 -0.5634 -0.1420 -0.0731
 5459SOL    HW128010   1.589   1.452   8.366  1.4749 -2.4296  1.4541
 5459SOL    HW228011   1.585   1.470   8.216 -0.9485 -0.4075  0.1756
 5460SOL     OW28012   3.312   3.727   6.060 -0.0797 -0.0362  0.1720
 5460SOL    HW128013   3.339   3.806   6.012 -1.7139  0.0656 -0.5823
 5460SOL    HW228014   3.257   3.777   6.120  0.0145  0.3283 -0.0436
 5461SOL     OW28015   0.137   1.716  11.740 -0.4286 -0.0662  0.2916
 5461SOL    HW128016   0.081   1.793  11.739  1.0065  0.9830  0.8176
 5461SOL    HW228017   0.144   1.700  11.835 -2.2479 -3.0969 -0.0943
 5462SOL     OW28018   2.023   0.564   6.671  0.2644 -0.1551 -0.6858
 5462SOL    HW128019   1.970   0.602   6.741  2.6477  1.7847  0.0386
 5462SOL    HW228020   1.968   0.500   6.624 -2.0469  1.3230  0.0188
 5463SOL     OW28021   2.116   1.907   9.996  0.5528  0.1519 -0.4767
 5463SOL    HW128022   2.053   1.877  10.061 -1.1742 -0.5695 -2.4861
 5463SOL    HW228023   2.186   1.841   9.999  1.4940  1.1472 -0.4599
 5464SOL     OW28024   3.554   1.370   4.215  0.1133 -0.2037 -0.2073
 5464SOL    HW128025   3.487   1.425   4.257 -1.3734 -1.6807 -0.6431
 5464SOL    HW228026   3.502   1.316   4.156 -1.0079  0.2460  0.3686
 5465SOL     OW28027   4.193   1.464   6.692 -0.6044 -0.6838 -0.4820
 5465SOL    HW128028   4.208   1.469   6.598  2.0277  1.0866  0.0218
 5465SOL    HW228029   4.277   1.503   6.717 -0.3295 -2.1743  0.9765
 5466SOL     OW28030   3.260   2.341  17.432  0.0409  0.0108  0.4885
 5466SOL    HW128031   3.228   2.414  17.379 -0.5611  2.2873  4.0330
 5466SOL    HW228032   3.316   2.394  17.488 -0.0488  0.1540  0.4435
 5467SOL     OW28033   1.992   4.052   4.500 -0.1107  0.0599  0.0743
 5467SOL    HW128034   2.066   3.994   4.480  0.8017  1.6274 -1.0534
 5467SOL    HW228035   2.021   4.124   4.445  0.7578  0.9196  1.6747
 5468SOL     OW28036   3.184   2.230   2.413 -0.1440 -0.1156  0.0502
 5468SOL    HW128037   3.254   2.265   2.468  1.0028 -3.4487  0.7000
 5468SOL    HW228038   3.219   2.143   2.394 -2.8814 -1.3081  0.4935
 5469SOL     OW28039   1.349   1.563  10.250 -0.3649  0.4404  0.6396
 5469SOL    HW128040   1.393   1.480  10.271 -1.5389 -0.3120  0.0860
 5469SOL    HW228041   1.259   1.536  10.267  0.0297 -1.4926 -0.3631
 5470SOL     OW28042   0.132   1.661  13.074  0.1457  0.7838 -0.0721
 5470SOL    HW128043   0.162   1.611  13.151  1.7833  0.5927 -0.8346
 5470SOL    HW228044   0.085   1.725  13.127  2.1302  0.9620  1.4950
 5471SOL     OW28045   4.419   3.176   0.349  0.1461 -0.2115 -0.2402
 5471SOL    HW128046   4.332   3.190   0.313  0.9768 -1.0993 -2.5894
 5471SOL    HW228047   4.422   3.085   0.379 -0.1433  0.3349  1.4437
 5472SOL     OW28048   3.171   3.276   4.097  0.4918 -0.0169 -0.5701
 5472SOL    HW128049   3.137   3.270   4.007 -0.1299  0.2366 -0.3517
 5472SOL    HW228050   3.099   3.273   4.160  0.3072 -0.0304 -0.7791
 5473SOL     OW28051   2.126   1.491   5.172 -0.1560 -0.3344  0.1948
 5473SOL    HW128052   2.177   1.437   5.112  0.4835  0.2299  0.2288
 5473SOL    HW228053   2.130   1.433   5.248  3.0370  1.0553  1.1291
 5474SOL     OW28054   2.094   4.201  16.799  0.0587 -0.3346  0.5091
 5474SOL    HW128055   2.151   4.192  16.875  1.2671  0.8613 -0.2588
 5474SOL    HW228056   2.160   4.240  16.742 -2.7675 -0.9747 -3.1894
 5475SOL     OW28057   4.304   3.652   5.293  0.1067  0.0952  0.1151
 5475SOL    HW128058   4.383   3.611   5.329  0.9750  0.4751 -1.3386
 5475SOL    HW228059   4.265   3.682   5.375 -0.4824 -2.4848  0.8029
 5476SOL     OW28060   0.440   1.563   5.251 -0.7571  0.2144  0.2707
 5476SOL    HW128061   0.518   1.518   5.283 -1.7123 -1.9064 -0.4018
 5476SOL    HW228062   0.380   1.562   5.326 -1.9357  2.0774 -0.6407
 5477SOL     OW28063   3.876   0.129  13.026  0.4149  0.3672 -0.7804
 5477SOL    HW128064   3.941   0.104  13.092  0.9657  0.1023 -1.4246
 5477SOL    HW228065   3.871   0.041  12.987 -1.9890  0.0213  0.2968
 5478SOL     OW28066   1.315   2.694   3.703  0.5891 -0.2359 -0.2141
 5478SOL    HW128067   1.378   2.649   3.759  0.0033  0.4750  1.0102
 5478SOL    HW228068   1.275   2.615   3.666 -0.0915 -0.4976  1.0933
 5479SOL     OW28069   3.541   2.360   6.116  0.4156 -0.1534  0.3371
 5479SOL    HW128070   3.517   2.377   6.208 -0.4520  1.1538 -0.1275
 5479SOL    HW228071   3.615   2.302   6.133  0.6164  0.0563  0.1795
 5480SOL     OW28072   1.754   0.771   3.576  0.2693  0.0516  0.1902
 5480SOL    HW128073   1.687   0.839   3.574  0.3975  0.1900  0.4793
 5480SOL    HW228074   1.817   0.797   3.509  0.3165 -0.2648  0.1109
 5481SOL     OW28075   2.808   1.376   4.813  0.5888  0.4438 -0.3471
 5481SOL    HW128076   2.777   1.330   4.891 -2.1948  1.8346 -0.6433
 5481SOL    HW228077   2.822   1.468   4.837 -2.9089  0.8963 -0.0348
 5482SOL     OW28078   2.739   2.237   2.982  0.0036 -0.0411 -0.6342
 5482SOL    HW128079   2.685   2.315   2.969 -3.3128 -1.6993  3.2776
 5482SOL    HW228080   2.668   2.172   2.982 -0.3224  0.3255 -2.3010
 5483SOL     OW28081   4.594   2.262  10.705 -0.0465 -0.4140 -0.2403
 5483SOL    HW128082   4.590   2.358  10.708  2.7659 -0.3334  1.0213
 5483SOL    HW228083   4.501   2.240  10.705  0.4517 -2.4466 -0.0692
 5484SOL     OW28084   3.887   2.988  11.988  0.3824  0.5862  0.2318
 5484SOL    HW128085   3.804   3.000  11.942  0.2711 -0.9564  0.0378
 5484SOL    HW228086   3.948   2.994  11.915 -1.0865  4.1163 -0.7193
 5485SOL     OW28087   1.841   2.936   4.969 -0.5263  0.0163 -0.2621
 5485SOL    HW128088   1.816   2.865   4.909 -3.2994 -0.0714  0.9733
 5485SOL    HW228089   1.818   3.007   4.910 -1.8485 -0.0740  0.1468
 5486SOL     OW28090   0.326   0.029   1.789  0.6815 -0.2282  0.0800
 5486SOL    HW128091   0.249   4.711   1.797  1.8258 -1.9657 -1.1789
 5486SOL    HW228092   0.348   0.022   1.696  1.3114 -1.3329  0.3108
 5487SOL     OW28093   4.451   0.048   4.473 -0.3320  0.6383  0.5958
 5487SOL    HW128094   4.450   0.033   4.568 -2.1673  1.5401  0.7380
 5487SOL    HW228095   4.525   0.108   4.463 -0.7094  1.0878  0.5055
 5488SOL     OW28096   0.593   3.709   7.964  0.3409  0.2194 -0.2561
 5488SOL    HW128097   0.497   3.703   7.963  0.3027  0.9259 -0.9495
 5488SOL    HW228098   0.610   3.793   7.922  0.1503  0.3325 -0.1079
 5489SOL     OW28099   3.360   2.824   3.385 -0.7540 -0.1149  0.2093
 5489SOL    HW128100   3.385   2.853   3.473  0.8207  0.2009 -0.3458
 5489SOL    HW228101   3.411   2.888   3.335 -1.5643  0.1130 -0.3238
 5490SOL     OW28102   2.050   1.522   7.185 -0.6118 -0.0153  0.1653
 5490SOL    HW128103   2.007   1.441   7.158  0.1161 -1.0312  2.0649
 5490SOL    HW228104   1.979   1.571   7.226 -0.5889 -0.3549  0.6116
 5491SOL     OW28105   3.650   1.738   3.278 -0.2524  0.6535  0.0101
 5491SOL    HW128106   3.626   1.648   3.299  0.4320  0.6086  0.6334
 5491SOL    HW228107   3.673   1.782   3.360 -1.0981 -0.6076  0.9220
 5492SOL     OW28108   0.323   3.323   3.381 -0.1598  0.4369 -0.1193
 5492SOL    HW128109   0.247   3.350   3.432 -0.2017  1.7967 -0.9020
 5492SOL    HW228110   0.386   3.381   3.424 -0.8290 -0.1906  1.6926
 5493SOL     OW28111   3.162   1.616  11.735 -0.1849  0.1845 -0.0628
 5493SOL    HW128112   3.244   1.630  11.781  1.2207 -0.6009 -2.3496
 5493SOL    HW228113   3.158   1.522  11.755  0.1561  0.5126  1.5682
 5494SOL     OW28114   0.306   3.751   6.693  0.2525  0.0745 -0.1107
 5494SOL    HW128115   0.391   3.723   6.727 -1.5850 -1.3295  3.3021
 5494SOL    HW228116   0.309   3.737   6.598 -2.4672 -0.2497 -0.1396
 5495SOL     OW28117   1.292   1.477   1.745 -0.3228 -0.0946 -0.1615
 5495SOL    HW128118   1.215   1.458   1.692  1.0718 -2.5316 -1.3201
 5495SOL    HW228119   1.356   1.504   1.679  0.5785 -3.1011 -0.4986
 5496SOL     OW28120   3.562   3.887  17.675 -0.0945 -0.2906  0.1027
 5496SOL    HW128121   3.515   3.818  17.723 -0.7246  0.2205  0.2309
 5496SOL    HW228122   3.638   3.836  17.650 -0.6613 -0.6866 -0.8017
 5497SOL     OW28123   3.364   4.006   4.879 -0.5231  0.3015  0.0709
 5497SOL    HW128124   3.362   4.100   4.861  0.9669  0.4033  0.4413
 5497SOL    HW228125   3.309   3.958   4.817  0.4099 -2.1955  1.1854
 5498SOL     OW28126   0.562   0.540  10.278  0.2047  0.2833  0.1502
 5498SOL    HW128127   0.486   0.508  10.230  0.3806  0.0982 -0.0056
 5498SOL    HW228128   0.628   0.519  10.211 -0.0563 -1.3782  0.4128
 5499SOL     OW28129   3.626   3.062  11.772  0.4340  0.5204  0.3679
 5499SOL    HW128130   3.551   3.020  11.814  1.9173 -2.6829 -0.2059
 5499SOL    HW228131   3.580   3.140  11.741 -2.2307 -1.0811  0.2613
 5500SOL     OW28132   1.165   1.767  11.479  0.5666  0.1589  0.7151
 5500SOL    HW128133   1.221   1.705  11.433 -2.7648 -1.4279 -1.1729
 5500SOL    HW228134   1.175   1.846  11.426 -0.0899 -1.6925 -2.1598
 5501SOL     OW28135   2.386   1.997   5.710 -0.7621 -0.2298 -0.3964
 5501SOL    HW128136   2.481   1.998   5.710 -0.7694  2.2706  2.3266
 5501SOL    HW228137   2.371   2.089   5.732  2.8806  0.0961  0.6916
 5502SOL     OW28138   3.412   2.904   7.257 -0.5028  0.3342 -0.6691
 5502SOL    HW128139   3.432   2.975   7.196  0.3300 -0.0897 -0.8976
 5502SOL    HW228140   3.446   2.829   7.208 -1.3486 -0.7003  0.3156
 5503SOL     OW28141   1.648   3.981   6.372  0.6544  0.2179  0.3692
 5503SOL    HW128142   1.717   4.040   6.343  1.3053 -0.7487 -0.0559
 5503SOL    HW228143   1.710   3.915   6.404  0.2297  0.0404  0.8203
 5504SOL     OW28144   3.569   1.247   4.690 -0.9848 -0.2842 -0.5213
 5504SOL    HW128145   3.622   1.226   4.613 -1.1462 -2.1437 -0.1371
 5504SOL    HW228146   3.510   1.171   4.694  1.1065 -1.7839  1.7827
 5505SOL     OW28147   3.544   2.918  15.253 -0.0835 -0.1379 -0.4393
 5505SOL    HW128148   3.629   2.882  15.227  0.7617  1.7493 -0.2559
 5505SOL    HW228149   3.566   3.008  15.275  0.1203 -0.6876  1.6199
 5506SOL     OW28150   2.339   0.939   3.936  0.0471 -0.3823  0.0144
 5506SOL    HW128151   2.407   0.975   3.994 -1.5630 -0.9877  2.2622
 5506SOL    HW228152   2.312   0.863   3.987 -2.8320 -0.9765 -2.4057
 5507SOL     OW28153   3.724   1.098   3.990 -0.1772 -0.2693 -0.5122
 5507SOL    HW128154   3.776   1.176   3.970 -0.5820  0.2346  0.4374
 5507SOL    HW228155   3.790   1.035   3.960  1.3532  1.5295 -0.8998
 5508SOL     OW28156   3.311   3.419  17.575 -0.1675  0.3631  0.1529
 5508SOL    HW128157   3.224   3.451  17.596  0.0211  1.7616 -1.2530
 5508SOL    HW228158   3.303   3.341  17.520  2.3679 -1.3823  2.2493
 5509SOL     OW28159   0.177   3.899   7.842  0.0212 -0.2572 -0.0967
 5509SOL    HW128160   0.164   3.985   7.881  0.0433  0.6022 -1.9452
 5509SOL    HW228161   0.202   3.930   7.754  0.5081  0.4409  0.2855
 5510SOL     OW28162   2.633   3.866   1.620  0.6061  0.1335  0.2442
 5510SOL    HW128163   2.618   3.916   1.700  1.0561  0.4934  0.1012
 5510SOL    HW228164   2.722   3.896   1.605  0.8707 -0.2385  1.0259
 5511SOL     OW28165   2.189   2.336   7.479  0.0411  0.6015 -0.1175
 5511SOL    HW128166   2.283   2.326   7.489  0.1472 -1.6556 -3.5020
 5511SOL    HW228167   2.152   2.282   7.548  1.1083  2.1141  1.6438
 5512SOL     OW28168   3.058   0.503  13.786  0.5395  0.3586 -0.2545
 5512SOL    HW128169   2.997   0.451  13.838 -0.3011 -0.6592 -2.2506
 5512SOL    HW228170   3.029   0.495  13.695 -5.7925 -0.9555  1.8638
 5513SOL     OW28171   3.179   0.456   3.940  0.5214 -0.1993 -0.2080
 5513SOL    HW128172   3.133   0.448   4.024  0.1825 -0.7813 -0.4419
 5513SOL    HW228173   3.110   0.463   3.874 -0.2848  0.9553  0.7531
 5514SOL     OW28174   3.567   1.224   3.491 -0.4566 -0.0238 -0.1586
 5514SOL    HW128175   3.487   1.203   3.539 -0.6849  0.1059 -0.4816
 5514SOL    HW228176   3.544   1.214   3.399  0.2184  2.1679 -0.5760
 5515SOL     OW28177   0.750   0.720   9.246 -0.3752 -0.2780 -0.2988
 5515SOL    HW128178   0.661   0.735   9.278 -0.1089 -1.1900  0.8385
 5515SOL    HW228179   0.784   0.810   9.247  0.6124 -0.6848  2.2850
 5516SOL     OW28180   1.944   3.382   2.822  0.7453 -0.1938 -0.0284
 5516SOL    HW128181   1.867   3.433   2.796  0.1970 -0.9333  0.1409
 5516SOL    HW228182   1.905   3.326   2.889 -1.3713  1.4820  0.1473
 5517SOL     OW28183   0.507   3.700   7.126  0.0354  0.1299 -1.1856
 5517SOL    HW128184   0.443   3.629   7.124 -0.1894  0.3180 -0.5666
 5517SOL    HW228185   0.460   3.774   7.164  0.9000 -0.4376  1.0102
 5518SOL     OW28186   1.883   3.149   6.070  0.0633 -0.0331 -0.0913
 5518SOL    HW128187   1.832   3.199   6.006 -2.2375 -1.8324  0.3761
 5518SOL    HW228188   1.971   3.168   6.037  0.5022 -0.5680  0.7764
 5519SOL     OW28189   4.345   0.045   4.021 -0.2010 -0.1887  0.4750
 5519SOL    HW128190   4.252   0.029   4.004 -0.2602  1.5432 -0.9232
 5519SOL    HW228191   4.351   0.022   4.113  0.6488 -0.1679  0.4258
 5520SOL     OW28192   4.650   4.603   6.629  0.3503 -0.2811 -0.1670
 5520SOL    HW128193   4.715   4.634   6.692 -1.6040  0.4670  1.4706
 5520SOL    HW228194   4.646   4.509   6.645  0.2038 -0.3482 -0.5807
 5521SOL     OW28195   2.022   4.674   4.714  0.4935  0.4011 -0.4699
 5521SOL    HW128196   2.073   0.015   4.729  1.5041 -1.0640  4.1006
 5521SOL    HW228197   2.039   4.657   4.622  0.2200  3.4504 -1.0793
 5522SOL     OW28198   0.518   2.387  14.499  0.5474  0.0479  0.2822
 5522SOL    HW128199   0.569   2.382  14.579  1.9350  2.2280 -0.4407
 5522SOL    HW228200   0.496   2.480  14.498 -1.0085 -0.2961  2.2107
 5523SOL     OW28201   2.534   3.856   2.773  0.1077  1.0418  0.3127
 5523SOL    HW128202   2.478   3.796   2.725  0.4092  0.9009  0.1324
 5523SOL    HW228203   2.504   3.850   2.863 -2.0297 -0.7021 -0.5330
 5524SOL     OW28204   0.658   3.288   3.198 -0.4765 -0.3059 -0.1123
 5524SOL    HW128205   0.645   3.225   3.269  0.7550 -0.4279  0.0095
 5524SOL    HW228206   0.597   3.356   3.225 -0.4967  0.0649 -1.1049
 5525SOL     OW28207   4.348   4.247  14.585  0.4912 -0.1965 -0.5232
 5525SOL    HW128208   4.281   4.179  14.592 -0.4154  0.9199  1.7972
 5525SOL    HW228209   4.329   4.304  14.660  1.7459  0.3219 -0.5996
 5526SOL     OW28210   2.340   2.398   7.881 -0.3945 -0.2291  0.1674
 5526SOL    HW128211   2.417   2.359   7.922  0.9252  1.5089 -0.6738
 5526SOL    HW228212   2.372   2.419   7.794 -1.2418  0.4557  0.0264
 5527SOL     OW28213   4.406   3.456   8.625 -0.4953  0.1127 -0.1788
 5527SOL    HW128214   4.323   3.425   8.662 -0.3955 -0.7880 -0.7017
 5527SOL    HW228215   4.449   3.484   8.706  0.0276 -1.5246  0.1246
 5528SOL     OW28216   2.538   0.432  12.135 -0.1137  0.2818 -0.2543
 5528SOL    HW128217   2.609   0.435  12.072 -1.5975 -0.8721 -2.0004
 5528SOL    HW228218   2.578   0.395  12.214 -1.9100 -1.5194 -0.1708
 5529SOL     OW28219   1.848   1.842   3.496  0.3357  0.3502 -0.2818
 5529SOL    HW128220   1.786   1.772   3.476 -1.4846  1.9070 -0.1418
 5529SOL    HW228221   1.849   1.892   3.414 -0.4935  0.1944 -0.3927
 5530SOL     OW28222   2.403   2.695   3.421 -0.0350  0.2597  0.2689
 5530SOL    HW128223   2.463   2.637   3.376 -4.0920 -1.6265 -2.7190
 5530SOL    HW228224   2.454   2.717   3.499 -0.0693 -3.2485  1.2841
 5531SOL     OW28225   2.540   0.819   4.620  0.2840 -0.4591 -0.0049
 5531SOL    HW128226   2.546   0.756   4.549  0.3378 -0.1340 -0.2896
 5531SOL    HW228227   2.546   0.763   4.698 -0.9515  2.9758  2.5635
 5532SOL     OW28228   3.594   0.299   6.476  0.0358 -0.5889 -0.1286
 5532SOL    HW128229   3.585   0.288   6.381 -1.6537  3.3889 -0.3879
 5532SOL    HW228230   3.685   0.329   6.474  0.1204 -0.7561  0.9734
 5533SOL     OW28231   3.042   3.740  16.586  0.1316  0.4934 -0.1122
 5533SOL    HW128232   3.083   3.663  16.547 -0.7257 -0.5017  0.9974
 5533SOL    HW228233   2.948   3.736  16.567  0.1373  0.6926 -0.1906
 5534SOL     OW28234   2.574   2.227  10.460  0.3890  0.2493 -0.5094
 5534SOL    HW128235   2.550   2.308  10.506 -1.2189  1.2463 -3.1016
 5534SOL    HW228236   2.669   2.232  10.472  0.3912 -0.1089 -0.3995
 5535SOL     OW28237   1.568   1.224   7.964  0.0770 -0.6705 -0.2274
 5535SOL    HW128238   1.494   1.248   7.908  0.7793  0.1221 -0.8219
 5535SOL    HW228239   1.623   1.163   7.916  0.6184  0.1780 -0.6914
 5536SOL     OW28240   0.021   2.479  15.348  0.3131  0.5432  0.1079
 5536SOL    HW128241   4.686   2.516  15.300 -0.5233 -0.9140  0.2533
 5536SOL    HW228242   4.731   2.468  15.439  0.7509  0.5213  0.2411
 5537SOL     OW28243   2.649   0.285   5.056  0.3941  0.5279  0.7594
 5537SOL    HW128244   2.684   0.310   4.970  2.2485  0.1196  1.3928
 5537SOL    HW228245   2.694   0.340   5.121  1.9255 -0.1150  0.2555
 5538SOL     OW28246   2.008   1.861   8.407  0.1821  0.4809  0.3047
 5538SOL    HW128247   1.916   1.847   8.429  0.0581  1.1925  0.2122
 5538SOL    HW228248   2.009   1.824   8.318 -0.9553  1.4954 -0.1286
 5539SOL     OW28249   0.185   4.162   2.511  0.0724  0.2503 -0.5190
 5539SOL    HW128250   0.232   4.239   2.477 -0.0628 -0.5456 -2.5137
 5539SOL    HW228251   0.188   4.109   2.432  0.0521 -0.2888 -0.1616
 5540SOL     OW28252   2.272   3.721   7.683 -0.1295 -0.2522 -0.1927
 5540SOL    HW128253   2.249   3.812   7.704 -0.4503 -0.5080  0.5629
 5540SOL    HW228254   2.323   3.692   7.759  1.4715 -0.6093 -1.4086
 5541SOL     OW28255   2.603   2.248   2.602  0.0635  0.3270 -0.4144
 5541SOL    HW128256   2.623   2.246   2.509 -0.0567 -2.7016 -0.3457
 5541SOL    HW228257   2.667   2.180   2.623  0.1040  0.8611  1.2558
 5542SOL     OW28258   4.342   0.052   8.999 -0.0794  0.5853 -0.6032
 5542SOL    HW128259   4.408   0.120   9.014 -0.3623  1.3169 -2.6684
 5542SOL    HW228260   4.279   0.095   8.942 -1.7934  0.3682  1.1465
 5543SOL     OW28261   0.578   1.683   1.040 -0.0309  0.0661  0.3500
 5543SOL    HW128262   0.530   1.765   1.028  2.2028  1.3864  0.4062
 5543SOL    HW228263   0.502   1.627   1.056 -0.5606  0.0342 -2.3349
 5544SOL     OW28264   4.098   1.981   3.694 -0.0453 -0.1026 -0.0264
 5544SOL    HW128265   4.057   2.007   3.777  0.8737  0.5434  0.2293
 5544SOL    HW228266   4.190   1.959   3.710 -0.8318 -3.5539 -0.2472
 5545SOL     OW28267   4.061   3.351   7.812  0.6935 -0.1863 -0.4282
 5545SOL    HW128268   4.085   3.335   7.903 -2.1104 -0.1631  0.3187
 5545SOL    HW228269   4.140   3.320   7.768  1.5575  2.5265 -0.7897
 5546SOL     OW28270   3.611   0.979   6.695  0.4512 -0.2511 -0.0363
 5546SOL    HW128271   3.657   0.967   6.778 -0.3214 -1.2648  0.2390
 5546SOL    HW228272   3.536   0.920   6.700  0.7296 -0.7297 -1.3598
 5547SOL     OW28273   0.893   2.322   5.375  0.3520 -0.1672  0.4172
 5547SOL    HW128274   0.965   2.368   5.418  0.3501  0.1115  0.1291
 5547SOL    HW228275   0.950   2.267   5.322 -1.5640  1.0741 -2.9710
 5548SOL     OW28276   3.411   0.634  12.304 -0.3865  0.4147 -0.1121
 5548SOL    HW128277   3.431   0.654  12.213  1.8550  1.2943  0.5688
 5548SOL    HW228278   3.355   0.557  12.289 -1.0236  1.1515 -1.4988
 5549SOL     OW28279   0.477   3.283   2.137  0.4802  0.4158 -0.4127
 5549SOL    HW128280   0.558   3.232   2.141 -0.1351 -0.4909  0.3610
 5549SOL    HW228281   0.509   3.359   2.090 -1.3114  1.2874 -0.2448
 5550SOL     OW28282   0.329   0.032   6.027  0.0705  0.1946  0.2689
 5550SOL    HW128283   0.322   0.106   5.966 -0.4535 -0.2671 -0.2394
 5550SOL    HW228284   0.306   0.072   6.111  1.1037  0.8048  0.2683
 5551SOL     OW28285   3.938   0.256   5.893  0.1730  0.3172  0.0127
 5551SOL    HW128286   4.031   0.247   5.916 -0.0847 -1.2700  0.4329
 5551SOL    HW228287   3.883   0.272   5.969  0.4349  0.5701  0.1510
 5552SOL     OW28288   3.137   4.692  10.167  0.3200 -0.3199 -0.3421
 5552SOL    HW128289   3.106   4.671  10.255  1.3668  0.1586  0.1403
 5552SOL    HW228290   3.134   4.604  10.130 -0.6864 -0.9736  1.3134
 5553SOL     OW28291   3.460   4.361   4.154 -0.0398 -0.3888  0.1784
 5553SOL    HW128292   3.478   4.361   4.060 -0.5242 -0.5376  0.0862
 5553SOL    HW228293   3.536   4.309   4.181  0.1360 -0.1095  0.2308
 5554SOL     OW28294   3.906   1.957   7.780 -0.0550 -0.1256  0.1365
 5554SOL    HW128295   3.909   2.006   7.697  2.0048 -1.9508 -0.8484
 5554SOL    HW228296   3.881   2.019   7.848  1.9249  0.7890  0.0045
 5555SOL     OW28297   2.591   0.981   4.871  0.2089 -0.2614  0.6164
 5555SOL    HW128298   2.621   0.939   4.791 -1.1495  1.0953 -0.6120
 5555SOL    HW228299   2.497   0.961   4.871  0.6012 -2.1213 -3.1026
 5556SOL     OW28300   0.309   0.057  11.636  0.3297  0.1205 -0.0386
 5556SOL    HW128301   0.333   4.731  11.703  0.5132  1.5505  1.2846
 5556SOL    HW228302   0.296   0.132  11.693 -1.9632 -1.1330  1.0789
 5557SOL     OW28303   1.541   0.620   8.589 -0.2921 -0.0702  0.3465
 5557SOL    HW128304   1.571   0.683   8.654  1.3557  0.6673 -1.1188
 5557SOL    HW228305   1.513   0.552   8.650  0.2029 -0.9621 -0.4143
 5558SOL     OW28306   0.217   0.138   2.192 -0.1991  0.2971 -0.6966
 5558SOL    HW128307   0.303   0.103   2.167 -0.4659 -0.9042  0.0383
 5558SOL    HW228308   0.154   0.074   2.159 -0.8783  0.0156  1.1187
 5559SOL     OW28309   3.718   2.395  16.780 -0.0257 -0.2498  0.2514
 5559SOL    HW128310   3.708   2.412  16.874  2.2642 -0.8518  0.5920
 5559SOL    HW228311   3.769   2.468  16.745 -1.5214 -0.3837 -2.2408
 5560SOL     OW28312   1.548   1.439   7.424 -0.1867 -0.0480  0.1324
 5560SOL    HW128313   1.488   1.484   7.365  0.2317 -0.3541 -0.5279
 5560SOL    HW228314   1.624   1.416   7.371 -1.2321 -1.2726 -0.8524
 5561SOL     OW28315   2.500   3.843  16.930  0.0777  0.4662 -0.1303
 5561SOL    HW128316   2.560   3.800  16.869 -0.1705 -0.2898  0.1541
 5561SOL    HW228317   2.426   3.872  16.876 -0.3183  0.2744  0.3082
 5562SOL     OW28318   0.394   4.374   5.727 -0.1025 -0.1302  0.8251
 5562SOL    HW128319   0.455   4.363   5.800 -1.7385  0.7538  2.3445
 5562SOL    HW228320   0.437   4.339   5.649 -1.0497  0.6883 -0.0653
 5563SOL     OW28321   0.948   4.063   8.183 -0.0233 -0.3932 -0.3317
 5563SOL    HW128322   0.855   4.049   8.202  0.0396 -1.3980 -0.7862
 5563SOL    HW228323   0.945   4.049   8.089  0.1396 -0.3469 -0.3440
 5564SOL     OW28324   0.731   4.097   8.953 -0.5868 -0.7090  0.1714
 5564SOL    HW128325   0.703   4.033   8.888  0.7704 -0.5693 -0.5522
 5564SOL    HW228326   0.716   4.179   8.907  0.3590 -0.0996  0.9318
 5565SOL     OW28327   0.166   3.922   2.645  0.7592 -0.0045 -0.1517
 5565SOL    HW128328   0.258   3.898   2.634  0.6432 -1.4082  1.9677
 5565SOL    HW228329   0.168   4.014   2.620 -3.3241  0.4227  1.1316
 5566SOL     OW28330   4.469   3.700   2.368 -0.3485  0.9129 -0.5713
 5566SOL    HW128331   4.412   3.771   2.342 -0.0710  0.9252 -1.1527
 5566SOL    HW228332   4.542   3.748   2.407  0.2291 -0.6686  0.2922
 5567SOL     OW28333   3.660   4.286  14.361  0.1809  0.0310 -0.1041
 5567SOL    HW128334   3.580   4.234  14.366  0.9718 -1.1666  0.1749
 5567SOL    HW228335   3.689   4.274  14.271  0.7549  0.1588  0.0641
 5568SOL     OW28336   3.078   4.280   8.294 -0.1129  0.4119 -0.7645
 5568SOL    HW128337   3.099   4.189   8.316 -1.0769  0.4505  0.3362
 5568SOL    HW228338   3.115   4.333   8.365 -3.8168 -0.5744  1.8947
 5569SOL     OW28339   3.867   0.910   9.484  1.0427  0.3811 -0.0889
 5569SOL    HW128340   3.856   0.836   9.424  3.5475  1.5146 -1.9588
 5569SOL    HW228341   3.920   0.870   9.553 -0.5508 -0.8485  0.4219
 5570SOL     OW28342   1.631   4.202  14.367 -0.0065  0.8044  0.3665
 5570SOL    HW128343   1.536   4.192  14.369  0.0656  0.3123  2.0718
 5570SOL    HW228344   1.636   4.252  14.286 -0.7370 -0.3059 -0.3437
 5571SOL     OW28345   2.246   2.194   6.259 -0.0688  0.4991  0.3493
 5571SOL    HW128346   2.233   2.254   6.332  2.9664  0.5391  0.8338
 5571SOL    HW228347   2.335   2.164   6.272 -0.3583 -1.4590 -2.0445
 5572SOL     OW28348   0.728   1.541   3.295  0.6137 -0.0221  0.3056
 5572SOL    HW128349   0.754   1.547   3.203  0.9243 -1.6189  0.2905
 5572SOL    HW228350   0.806   1.513   3.342  1.7977  1.7037 -0.6421
 5573SOL     OW28351   2.198   4.351   1.862  0.2214 -0.7717  0.4922
 5573SOL    HW128352   2.281   4.395   1.880  0.4191 -1.9129  2.4836
 5573SOL    HW228353   2.138   4.396   1.921 -0.4449 -0.8270 -0.1539
 5574SOL     OW28354   1.945   0.574   8.423 -0.2836 -0.1187  0.1689
 5574SOL    HW128355   1.904   0.619   8.348  0.0890  1.4464  0.9122
 5574SOL    HW228356   2.005   0.642   8.452 -1.2407  0.0351  1.7777
 5575SOL     OW28357   3.288   2.216   7.532  0.3151  1.0915 -0.4051
 5575SOL    HW128358   3.266   2.170   7.613  0.4435 -0.6733 -1.3536
 5575SOL    HW228359   3.206   2.246   7.494 -0.0933  0.5217  0.0153
 5576SOL     OW28360   3.820   1.835  16.573 -0.3629  0.1444 -0.2086
 5576SOL    HW128361   3.805   1.747  16.537 -1.1764 -0.9741  2.8723
 5576SOL    HW228362   3.833   1.885  16.492  0.1872 -3.4526 -2.3523
 5577SOL     OW28363   0.669   3.647   8.927 -0.8682  0.5849  0.2886
 5577SOL    HW128364   0.700   3.716   8.868  2.1373 -0.2574  0.9184
 5577SOL    HW228365   0.749   3.599   8.948 -0.5583  1.3483  0.8680
 5578SOL     OW28366   1.920   2.411   7.147  0.0397  0.6401  0.2428
 5578SOL    HW128367   1.836   2.417   7.193 -0.0897  0.6271  0.0084
 5578SOL    HW228368   1.895   2.328   7.106 -0.3410  1.5725 -1.4113
 5579SOL     OW28369   1.008   2.605   5.266 -0.4838 -0.2732  0.1465
 5579SOL    HW128370   1.060   2.552   5.326 -0.5790  1.0669  1.4005
 5579SOL    HW228371   1.079   2.647   5.218 -0.7591 -0.2712 -0.2623
 5580SOL     OW28372   2.805   2.726   0.698  0.9193  0.1955 -0.2267
 5580SOL    HW128373   2.748   2.723   0.622  0.8245  3.8317 -0.2879
 5580SOL    HW228374   2.894   2.728   0.665  1.6244 -1.8948  1.5556
 5581SOL     OW28375   1.006   0.337   6.673  0.0673  0.0061 -0.7950
 5581SOL    HW128376   0.965   0.406   6.621 -1.6994  0.3813  1.0828
 5581SOL    HW228377   0.929   0.282   6.681 -0.1293  0.2116 -1.2873
 5582SOL     OW28378   1.657   0.606   8.944  0.0016  0.5460 -0.3429
 5582SOL    HW128379   1.663   0.568   9.031  2.9281  0.2713 -0.6493
 5582SOL    HW228380   1.615   0.545   8.884 -1.4623  1.8486 -0.6512
 5583SOL     OW28381   0.100   1.379   2.372  0.0434 -0.1972  0.2168
 5583SOL    HW128382   0.096   1.345   2.283 -0.4594  1.7971 -0.5108
 5583SOL    HW228383   0.043   1.455   2.361  1.7869  0.8948 -1.3498
 5584SOL     OW28384   2.157   2.122   8.589  0.3034 -0.2004 -0.1778
 5584SOL    HW128385   2.101   2.149   8.662  2.1577 -0.4140  1.3277
 5584SOL    HW228386   2.139   2.200   8.536  2.7647  1.1984  1.0267
 5585SOL     OW28387   2.757   2.263   2.009  0.1954 -0.1262 -0.2569
 5585SOL    HW128388   2.755   2.186   1.953 -0.3725 -0.0647 -0.3194
 5585SOL    HW228389   2.846   2.260   2.045 -0.5678  0.3926  1.6878
 5586SOL     OW28390   1.111   2.702   1.890 -0.1115  0.5759 -0.1852
 5586SOL    HW128391   1.082   2.668   1.975  0.3412 -0.0541 -0.2835
 5586SOL    HW228392   1.159   2.776   1.929  2.6809 -1.4432  0.2338
 5587SOL     OW28393   1.303   3.767  12.326 -0.4048  0.2780 -0.0849
 5587SOL    HW128394   1.317   3.853  12.286 -0.0695 -0.1004 -0.7821
 5587SOL    HW228395   1.377   3.772  12.387  1.1429  0.1838 -1.9426
 5588SOL     OW28396   3.410   2.405  14.049 -0.2562 -0.4411 -0.0899
 5588SOL    HW128397   3.439   2.391  13.958 -1.1083 -3.2609  0.0827
 5588SOL    HW228398   3.317   2.387  14.041 -0.0112 -1.1425 -1.3450
 5589SOL     OW28399   2.854   0.386   5.747  0.5086 -0.0710 -0.2785
 5589SOL    HW128400   2.845   0.412   5.839  0.6209  1.8012 -0.7789
 5589SOL    HW228401   2.774   0.334   5.741 -0.2750  1.4384 -3.4213
 5590SOL     OW28402   0.839   3.975  17.687  0.6082  0.2245 -0.1840
 5590SOL    HW128403   0.819   3.882  17.677  1.5129  0.1613 -1.3962
 5590SOL    HW228404   0.909   3.991  17.624  1.7769 -0.7036  0.8833
 5591SOL     OW28405   2.415   2.252  16.213  0.2422 -0.3544 -0.5667
 5591SOL    HW128406   2.414   2.157  16.211 -2.5825 -0.3006 -2.5700
 5591SOL    HW228407   2.460   2.271  16.131  1.4453 -1.0092 -0.0479
 5592SOL     OW28408   3.558   2.048   7.747  0.5390  0.0780  0.1635
 5592SOL    HW128409   3.546   2.018   7.657  0.7600  0.0650  0.1380
 5592SOL    HW228410   3.569   1.962   7.789 -1.3970 -1.1367 -1.7992
 5593SOL     OW28411   2.043   0.950   3.847  0.3344  0.5192  0.0690
 5593SOL    HW128412   2.085   0.949   3.933 -1.4265 -1.4716  0.9139
 5593SOL    HW228413   1.952   0.935   3.874  0.4813  2.9341  1.8868
 5594SOL     OW28414   3.440   3.457   3.639  0.0293  0.1569 -0.1275
 5594SOL    HW128415   3.483   3.530   3.595 -0.9990 -1.2717 -3.4556
 5594SOL    HW228416   3.385   3.509   3.697  1.8484  1.4181  0.4880
 5595SOL     OW28417   1.718   3.187   2.754  0.3640 -0.2389  0.2150
 5595SOL    HW128418   1.756   3.121   2.696  1.0710  0.1803  0.2071
 5595SOL    HW228419   1.749   3.167   2.842  1.0713  0.3399  0.0901
 5596SOL     OW28420   3.360   3.913   9.780  0.4260 -0.2819  0.0657
 5596SOL    HW128421   3.274   3.871   9.778  0.1058  0.3541  0.7115
 5596SOL    HW228422   3.396   3.864   9.854  0.0713  0.5994  0.8114
 5597SOL     OW28423   1.296   4.483  14.816  0.2621 -0.4441 -0.0015
 5597SOL    HW128424   1.375   4.446  14.855  0.8895  1.5213  0.5945
 5597SOL    HW228425   1.246   4.402  14.810  0.6424 -0.6242 -0.7583
 5598SOL     OW28426   4.468   3.589  17.265 -0.2254 -0.4896 -0.4097
 5598SOL    HW128427   4.540   3.587  17.201 -0.3241 -2.3488 -0.4666
 5598SOL    HW228428   4.414   3.653  17.219 -1.2751 -0.8269  0.3627
 5599SOL     OW28429   0.258   0.594   5.892 -0.3132  0.1373 -0.2654
 5599SOL    HW128430   0.263   0.666   5.955  1.9173  1.2670 -1.7593
 5599SOL    HW228431   0.237   0.649   5.816  3.0516 -1.3756 -2.2930
 5600SOL     OW28432   0.121   1.110  15.919 -0.3479 -0.7384 -0.2536
 5600SOL    HW128433   0.131   1.029  15.970  2.9380  0.7350  1.4177
 5600SOL    HW228434   0.044   1.145  15.963 -0.8759 -0.6989 -1.1885
 5601SOL     OW28435   3.718   4.709   3.663  0.6702  0.2298  0.4167
 5601SOL    HW128436   3.707   4.727   3.756 -0.4662  1.7493 -0.0055
 5601SOL    HW228437   3.812   4.692   3.652  0.4611 -2.2589  2.5308
 5602SOL     OW28438   1.259   0.037   4.566  0.0247 -0.0697  0.0027
 5602SOL    HW128439   1.275   0.002   4.479  0.4711 -0.1378  0.1120
 5602SOL    HW228440   1.343   0.033   4.613  0.8538  0.6253 -1.4217
 5603SOL     OW28441   0.569   0.581   5.362  0.5634  0.2548  0.0036
 5603SOL    HW128442   0.593   0.655   5.306  1.0916 -1.2120 -1.6889
 5603SOL    HW228443   0.495   0.543   5.315 -0.0536  0.3919  0.8441
 5604SOL     OW28444   2.706   0.807   5.264 -0.3413 -0.2926  0.4354
 5604SOL    HW128445   2.760   0.808   5.185 -1.0501  0.4138 -0.0504
 5604SOL    HW228446   2.636   0.744   5.245  0.1544 -0.6987 -0.0423
 5605SOL     OW28447   3.780   2.932   6.185 -0.1503  0.1633  0.3520
 5605SOL    HW128448   3.776   2.984   6.104 -3.2006  1.2686  1.2346
 5605SOL    HW228449   3.853   2.875   6.158  1.1547  1.6531  0.7497
 5606SOL     OW28450   3.546   3.396   4.873  0.2949  0.9938  0.5077
 5606SOL    HW128451   3.610   3.333   4.840 -1.6852 -2.1241  2.7139
 5606SOL    HW228452   3.468   3.345   4.854  0.0422 -0.0058  4.2162
 5607SOL     OW28453   3.951   1.346  10.182 -0.4238 -0.7706  0.1027
 5607SOL    HW128454   3.906   1.343  10.267 -0.4120 -2.4094  0.0566
 5607SOL    HW228455   4.000   1.264  10.189 -0.3799 -0.8011 -0.5676
 5608SOL     OW28456   3.405   1.588   3.476  0.1608  0.1761 -0.2250
 5608SOL    HW128457   3.391   1.683   3.474  2.0744  0.4422 -0.5818
 5608SOL    HW228458   3.444   1.574   3.390 -0.9607 -0.7179 -0.5859
 5609SOL     OW28459   2.289   1.330   5.004 -0.2174  0.1093  0.2137
 5609SOL    HW128460   2.257   1.241   5.021 -2.7819  0.6191 -1.7957
 5609SOL    HW228461   2.384   1.328   5.003 -0.2347 -0.0805 -1.2967
 5610SOL     OW28462   1.767   0.403   8.583  0.2347 -0.2108 -0.5561
 5610SOL    HW128463   1.817   0.433   8.507 -1.3655 -0.4417 -1.7005
 5610SOL    HW228464   1.827   0.419   8.656  0.9607 -1.3643 -0.9160
 5611SOL     OW28465   0.244   1.581  13.313  0.0345  0.0269  0.0840
 5611SOL    HW128466   0.294   1.506  13.346 -0.6410 -1.4897 -2.2946
 5611SOL    HW228467   0.169   1.569  13.371  0.2179  0.5877  0.4340
 5612SOL     OW28468   2.089   3.561   7.937  0.9992  0.2547  0.1917
 5612SOL    HW128469   2.050   3.584   8.022  1.6123  1.4575  0.1461
 5612SOL    HW228470   2.182   3.565   7.958  1.0786 -1.7400  0.2165
 5613SOL     OW28471   1.268   0.822   3.948  0.4174  0.3802  0.8605
 5613SOL    HW128472   1.271   0.797   4.041  0.3601 -0.4790  0.6348
 5613SOL    HW228473   1.175   0.829   3.929  0.8832  1.7326 -0.9003
 5614SOL     OW28474   1.128   2.316   8.493  0.0887 -0.4128 -0.5565
 5614SOL    HW128475   1.119   2.229   8.532  1.9818  0.2620  1.3361
 5614SOL    HW228476   1.036   2.333   8.513  0.0072 -0.3237 -0.9985
 5615SOL     OW28477   3.706   0.532   4.134 -0.4571 -0.2631 -0.4514
 5615SOL    HW128478   3.751   0.452   4.160  0.5931  0.0696 -1.2598
 5615SOL    HW228479   3.618   0.497   4.121 -2.1335  3.0835  1.6459
 5616SOL     OW28480   4.465   1.956  16.944  0.3015 -0.5343  0.1201
 5616SOL    HW128481   4.465   1.866  16.913 -1.5672 -0.5986  0.2908
 5616SOL    HW228482   4.424   1.949  17.030  0.4357  2.4299  0.4479
 5617SOL     OW28483   0.638   4.689   5.023  0.4786 -0.0745  0.2089
 5617SOL    HW128484   0.631   4.677   4.928  0.6322  1.4585  0.0150
 5617SOL    HW228485   0.544   4.688   5.043  0.0034  0.2892 -1.9887
 5618SOL     OW28486   4.174   0.464   8.772  0.0233 -0.1959  0.1143
 5618SOL    HW128487   4.118   0.538   8.746  0.9265  1.0050  1.6238
 5618SOL    HW228488   4.211   0.504   8.850 -0.4670 -1.9974  1.2595
 5619SOL     OW28489   3.601   2.343   4.041  0.0084  0.2708  0.1189
 5619SOL    HW128490   3.667   2.340   4.110  0.2148 -3.7326 -0.2483
 5619SOL    HW228491   3.519   2.329   4.088 -1.0574  1.7863 -1.2915
 5620SOL     OW28492   0.915   4.142   5.104  0.3145 -0.2523 -0.1348
 5620SOL    HW128493   0.848   4.140   5.172 -0.1530 -0.2913 -0.6011
 5620SOL    HW228494   0.868   4.097   5.035  1.7318  0.1284 -1.3516
 5621SOL     OW28495   0.363   4.209   4.687 -0.4902 -0.4571 -0.7039
 5621SOL    HW128496   0.443   4.222   4.636 -0.0450 -0.1760  0.0755
 5621SOL    HW228497   0.396   4.208   4.777 -0.2717 -1.3263 -0.7951
 5622SOL     OW28498   0.584   1.753   4.457  0.5101 -0.1602 -0.0484
 5622SOL    HW128499   0.600   1.832   4.509  0.0371 -1.1093  1.5345
 5622SOL    HW228500   0.555   1.681   4.512 -1.6843  0.5746 -0.2300
 5623SOL     OW28501   4.380   1.377  13.165  0.8462  0.2788  0.0068
 5623SOL    HW128502   4.412   1.458  13.203  0.1115 -0.2024  1.6514
 5623SOL    HW228503   4.355   1.326  13.242 -0.3533 -1.2156 -1.3562
 5624SOL     OW28504   0.197   3.292   7.738 -0.1095 -0.1616  0.3538
 5624SOL    HW128505   0.103   3.273   7.735 -0.6717  2.8169 -1.1776
 5624SOL    HW228506   0.207   3.348   7.815  0.2838  1.7566 -1.0985
 5625SOL     OW28507   2.237   2.419   6.766  0.8368  0.6666  0.3502
 5625SOL    HW128508   2.179   2.487   6.800 -1.8628  0.1214 -3.0725
 5625SOL    HW228509   2.312   2.434   6.824  0.2062 -0.2868  1.4199
 5626SOL     OW28510   1.708   3.975  14.783 -0.0451 -0.1599 -0.7049
 5626SOL    HW128511   1.701   4.055  14.731  0.9450  2.1876  2.7796
 5626SOL    HW228512   1.794   3.948  14.751 -0.2872 -0.8243 -0.7888
 5627SOL     OW28513   2.742   2.965   1.916  0.1229 -0.2264  0.5266
 5627SOL    HW128514   2.735   2.873   1.891 -0.2803  0.3879 -1.5707
 5627SOL    HW228515   2.792   2.958   1.997  1.2909 -0.2937 -0.2014
 5628SOL     OW28516   2.606   0.302  15.718 -0.0991 -0.4477  0.9770
 5628SOL    HW128517   2.687   0.260  15.691  0.6805  0.8280  1.3249
 5628SOL    HW228518   2.641   0.376  15.768 -4.5052  1.7910  0.7622
 5629SOL     OW28519   3.601   2.164   0.231 -0.5010 -0.6556  0.1959
 5629SOL    HW128520   3.630   2.074   0.223  2.2781  0.4375 -1.9565
 5629SOL    HW228521   3.515   2.158   0.188 -0.7894  1.2890  0.4696
 5630SOL     OW28522   2.199   4.407   2.773 -0.3511 -0.0389 -0.7979
 5630SOL    HW128523   2.223   4.489   2.818 -2.0901  1.5320 -2.7507
 5630SOL    HW228524   2.128   4.365   2.821  0.1042 -0.0084 -0.0974
 5631SOL     OW28525   0.395   1.745   2.923  0.4150 -0.3242 -0.4113
 5631SOL    HW128526   0.307   1.708   2.922  0.9761 -1.6865  0.5839
 5631SOL    HW228527   0.383   1.820   2.982  0.0400 -0.0037 -0.8896
 5632SOL     OW28528   2.443   1.493   3.718  0.3352  0.1584 -0.0007
 5632SOL    HW128529   2.483   1.559   3.661 -0.3628 -0.5289 -1.2656
 5632SOL    HW228530   2.403   1.433   3.657 -1.0558  1.2345 -0.1358
 5633SOL     OW28531   0.919   4.355   7.435  0.4362  0.1332  0.0116
 5633SOL    HW128532   1.015   4.353   7.443  0.3677 -2.0854  0.4006
 5633SOL    HW228533   0.896   4.440   7.471 -0.4336  0.4916 -1.3919
 5634SOL     OW28534   0.393   1.327   2.383  0.2585 -0.3599 -0.1136
 5634SOL    HW128535   0.392   1.304   2.290  1.3262 -0.6512 -0.0498
 5634SOL    HW228536   0.352   1.414   2.378  0.4165 -0.3045 -0.4546
 5635SOL     OW28537   3.114   1.530  15.741  0.8169  0.8101  0.0620
 5635SOL    HW128538   3.067   1.467  15.795  1.8510 -0.2375 -0.2446
 5635SOL    HW228539   3.131   1.473  15.666 -2.3653  0.3691 -0.3338
 5636SOL     OW28540   1.161   2.468   3.652  0.3155 -0.0536  0.0880
 5636SOL    HW128541   1.239   2.416   3.672  0.7058  1.0486  1.5001
 5636SOL    HW228542   1.120   2.423   3.579  0.4893 -0.6690  0.3649
 5637SOL     OW28543   4.200   0.202  16.579  0.1283  0.5913 -0.1167
 5637SOL    HW128544   4.119   0.250  16.563  1.0211  2.5771  1.3629
 5637SOL    HW228545   4.236   0.181  16.493  3.0381  3.4310  0.3805
 5638SOL     OW28546   1.702   2.343   4.104 -0.4606 -0.1722  0.3541
 5638SOL    HW128547   1.693   2.426   4.057  1.5124  1.0112  2.0785
 5638SOL    HW228548   1.793   2.319   4.084 -0.2856 -0.0904  1.0544
 5639SOL     OW28549   3.458   0.119   8.490 -0.0630  0.7355  0.0253
 5639SOL    HW128550   3.441   0.162   8.406  2.0752 -1.2310 -1.4079
 5639SOL    HW228551   3.369   0.119   8.524  0.5310 -2.1081  1.5638
 5640SOL     OW28552   3.026   2.180   2.049  0.7670 -0.4440 -0.0918
 5640SOL    HW128553   3.103   2.236   2.046 -0.1499  0.8439  0.3333
 5640SOL    HW228554   3.048   2.111   1.986 -1.5727 -0.0757 -1.3373
 5641SOL     OW28555   1.646   4.087   3.116  0.2476  0.1414  0.0646
 5641SOL    HW128556   1.585   4.013   3.117  1.0994 -0.5245  2.1602
 5641SOL    HW228557   1.618   4.128   3.034 -0.9146  1.4202  1.0958
 5642SOL     OW28558   0.667   3.792   3.767 -0.0420  0.2885  0.2222
 5642SOL    HW128559   0.590   3.735   3.760  1.0261 -1.3185  1.7006
 5642SOL    HW228560   0.714   3.778   3.684 -0.6136  1.7753 -0.3544
 5643SOL     OW28561   1.836   4.386  16.772 -0.3427 -0.7659  0.4195
 5643SOL    HW128562   1.865   4.477  16.760 -0.1031 -0.8377  0.4638
 5643SOL    HW228563   1.915   4.346  16.807 -1.0050 -1.4766  1.0812
 5644SOL     OW28564   4.334   0.139  16.316  0.1492 -0.7403  0.0363
 5644SOL    HW128565   4.320   0.087  16.237  1.1134 -2.8951  1.2715
 5644SOL    HW228566   4.387   0.076  16.365  2.4997  1.0238 -0.2541
 5645SOL     OW28567   2.089   0.416   4.149 -0.1394  0.6659 -0.1418
 5645SOL    HW128568   2.105   0.343   4.089 -2.4472  0.5924 -0.6728
 5645SOL    HW228569   2.100   0.497   4.100 -1.3676 -0.3768 -2.1141
 5646SOL     OW28570   1.093   1.491  15.038  0.1356  0.3340 -0.2585
 5646SOL    HW128571   1.026   1.526  14.978  0.3765  0.0636 -0.6863
 5646SOL    HW228572   1.127   1.578  15.059  3.3089 -0.6137 -1.4816
 5647SOL     OW28573   0.153   2.638   2.597 -0.6373  0.0121  0.3462
 5647SOL    HW128574   0.159   2.723   2.639  0.1568 -0.8764  2.0423
 5647SOL    HW228575   0.210   2.582   2.650  0.1258 -0.0774 -0.5625
 5648SOL     OW28576   1.413   2.460   6.708  0.2254 -0.0302  0.4227
 5648SOL    HW128577   1.460   2.493   6.632  1.3385 -0.2567  1.0080
 5648SOL    HW228578   1.402   2.535   6.767  0.7951  1.9317 -1.9452
 5649SOL     OW28579   3.798   2.288  15.394 -0.3272  0.3511  0.2295
 5649SOL    HW128580   3.832   2.327  15.475  1.1843  1.2519 -0.8262
 5649SOL    HW228581   3.771   2.367  15.346  2.2442  2.2430  1.8942
 5650SOL     OW28582   0.939   0.078   5.898 -0.1697 -0.0454  0.0080
 5650SOL    HW128583   1.005   0.147   5.899 -0.6890  0.4772 -1.8576
 5650SOL    HW228584   0.988   0.016   5.844 -2.1633 -1.1691 -0.5172
 5651SOL     OW28585   1.932   0.623  13.750  0.1159  0.5246 -0.0218
 5651SOL    HW128586   1.888   0.580  13.676 -0.7353  2.5137 -0.6784
 5651SOL    HW228587   2.020   0.620  13.713  0.2615  3.2812  0.1528
 5652SOL     OW28588   1.878   4.647  15.532 -0.0560 -0.1947 -0.3097
 5652SOL    HW128589   1.893   4.599  15.451 -1.8649  1.3696 -1.5538
 5652SOL    HW228590   1.849   4.731  15.496 -3.1817 -1.1740 -0.0088
 5653SOL     OW28591   0.970   0.032  14.203  0.4311 -0.4800  0.3525
 5653SOL    HW128592   1.013   0.101  14.153  0.7106 -1.0096 -0.1456
 5653SOL    HW228593   1.049   4.726  14.236 -0.5091 -0.0581  3.2313
 5654SOL     OW28594   4.397   2.396   3.615 -0.5272 -1.0098 -0.2773
 5654SOL    HW128595   4.343   2.463   3.657  2.3127  1.6004 -0.7789
 5654SOL    HW228596   4.328   2.341   3.578 -0.7327 -0.2951 -0.9505
 5655SOL     OW28597   3.850   0.627   8.254  0.1312 -0.0064 -0.1760
 5655SOL    HW128598   3.774   0.570   8.245  1.3834 -1.5565 -0.8415
 5655SOL    HW228599   3.891   0.616   8.340  0.8431  3.3702 -0.0820
 5656SOL     OW28600   2.133   4.264   8.277  0.9177  0.0886 -0.5505
 5656SOL    HW128601   2.191   4.280   8.351 -1.3099 -0.5732  1.3541
 5656SOL    HW228602   2.058   4.237   8.329  1.4374 -0.9153 -0.3235
 5657SOL     OW28603   1.744   1.702   9.938  0.1724  0.4455  0.2971
 5657SOL    HW128604   1.695   1.694  10.020  0.8989 -0.3248  0.6568
 5657SOL    HW228605   1.832   1.689   9.974  0.2184  0.4734  0.1951
 5658SOL     OW28606   1.972   1.327   3.028  0.1596 -0.3124 -0.2107
 5658SOL    HW128607   2.012   1.319   3.114 -1.1186 -1.1159  0.2875
 5658SOL    HW228608   2.048   1.328   2.968 -0.7432  1.6009 -1.3407
 5659SOL     OW28609   3.397   3.623   8.808 -0.2278 -0.0401 -0.7917
 5659SOL    HW128610   3.328   3.689   8.805 -0.2873 -0.0352  1.0925
 5659SOL    HW228611   3.480   3.669   8.820 -1.0609  0.9467  1.1305
 5660SOL     OW28612   1.492   0.282   1.574  0.5446  0.0931  0.1628
 5660SOL    HW128613   1.427   0.216   1.554  1.3028 -0.8131  0.7001
 5660SOL    HW228614   1.516   0.261   1.664  0.1496  0.2615  0.3066
 5661SOL     OW28615   4.063   2.641   5.223 -0.0287 -0.0983 -0.1636
 5661SOL    HW128616   3.979   2.675   5.193  0.2332 -0.5880 -1.4468
 5661SOL    HW228617   4.085   2.703   5.292  0.9601 -0.2537 -0.3377
 5662SOL     OW28618   0.171   0.118   6.891 -0.2632 -0.2700 -0.2616
 5662SOL    HW128619   0.235   0.178   6.929  0.6008  0.0355 -2.2081
 5662SOL    HW228620   0.103   0.115   6.958 -0.4957  1.3242 -0.4230
 5663SOL     OW28621   0.471   1.651  14.040 -0.1530 -0.5532 -0.2145
 5663SOL    HW128622   0.450   1.581  13.978 -0.7416 -1.4146  0.9557
 5663SOL    HW228623   0.418   1.635  14.118 -0.5428  2.0826  0.0799
 5664SOL     OW28624   1.546   2.019   4.264 -0.3547 -0.0423 -0.1403
 5664SOL    HW128625   1.498   2.095   4.231  0.0923 -0.4099 -1.5985
 5664SOL    HW228626   1.618   2.008   4.203  0.0715  0.4252  0.2808
 5665SOL     OW28627   0.994   2.821  14.761 -0.4670 -0.0867  0.3291
 5665SOL    HW128628   0.998   2.862  14.674  0.5639  0.0574  0.4471
 5665SOL    HW228629   0.900   2.803  14.769 -0.6890  0.9690  0.1166
 5666SOL     OW28630   0.406   1.898   0.957  0.2458  0.3023  0.2491
 5666SOL    HW128631   0.451   1.981   0.974  1.7257 -0.5446  0.4867
 5666SOL    HW228632   0.349   1.908   0.881 -1.8337  2.2856  2.0821
 5667SOL     OW28633   4.239   0.108   8.196  0.1283  0.6357  0.3601
 5667SOL    HW128634   4.282   0.066   8.270  0.2146  1.1578  0.6034
 5667SOL    HW228635   4.159   0.137   8.240 -1.1561 -1.6073 -0.5155
 5668SOL     OW28636   3.532   4.511   6.377 -0.3638  0.5518  0.4118
 5668SOL    HW128637   3.606   4.550   6.424  0.6273  1.1538 -1.6274
 5668SOL    HW228638   3.494   4.586   6.331 -0.1270  0.2727 -0.2513
 5669SOL     OW28639   3.858   1.377   3.916  0.0765  0.3165 -0.3480
 5669SOL    HW128640   3.926   1.327   3.870 -0.7633 -1.2383  0.0884
 5669SOL    HW228641   3.808   1.423   3.849 -0.8331  0.3256  0.3412
 5670SOL     OW28642   0.110   4.080  15.593 -0.1030  0.1793  0.1633
 5670SOL    HW128643   0.073   4.140  15.528 -1.3459 -0.2734  0.4613
 5670SOL    HW228644   0.090   4.106  15.682  1.6442 -0.9351  0.8948
 5671SOL     OW28645   0.947   0.328   6.211  0.7690  0.8879 -0.0355
 5671SOL    HW128646   0.907   0.357   6.292 -1.8734  2.3910 -1.8797
 5671SOL    HW228647   1.027   0.381   6.213 -0.6001  2.9661 -0.9085
 5672SOL     OW28648   1.956   4.644   6.097 -0.4039 -0.1822 -0.1834
 5672SOL    HW128649   1.946   4.729   6.141  1.4353  0.1045 -0.3138
 5672SOL    HW228650   1.939   4.672   6.007  0.8421 -0.4677 -0.5018
 5673SOL     OW28651   4.525   1.456   2.862 -0.4710 -0.3091 -0.4756
 5673SOL    HW128652   4.492   1.420   2.945 -1.4368  0.6753 -0.4483
 5673SOL    HW228653   4.525   1.375   2.810  2.0646 -0.1603 -0.7055
 5674SOL     OW28654   1.750   1.281   5.597 -0.1186 -0.8371  0.1824
 5674SOL    HW128655   1.823   1.312   5.650  0.0620 -0.0561 -0.5393
 5674SOL    HW228656   1.792   1.285   5.511 -1.4235  1.5094 -0.3374
 5675SOL     OW28657   4.006   4.106   5.070  0.3740 -0.2202  0.5811
 5675SOL    HW128658   3.958   4.165   5.011  0.3115 -0.5389  0.3181
 5675SOL    HW228659   3.938   4.067   5.125 -0.9108 -0.0839 -0.8976
 5676SOL     OW28660   0.644   0.577  10.537 -0.0111  0.2770  0.5920
 5676SOL    HW128661   0.646   0.487  10.568  0.4845  0.1548  0.2077
 5676SOL    HW228662   0.599   0.562  10.454  2.0397  1.1393 -0.6689
 5677SOL     OW28663   4.033   3.093  17.630 -0.1641  0.2476 -1.0270
 5677SOL    HW128664   3.979   3.023  17.593 -0.5281  0.8032 -1.5467
 5677SOL    HW228665   4.097   3.118  17.562  0.9429  0.6028  0.1443
 5678SOL     OW28666   4.086   3.031  13.367  0.2687 -0.0159  0.4781
 5678SOL    HW128667   4.024   3.025  13.440 -1.7992 -0.1463 -1.2798
 5678SOL    HW228668   4.122   2.944  13.352 -0.9768 -0.2872 -1.0546
 5679SOL     OW28669   2.039   1.101  13.014 -0.5220 -0.1828 -0.4681
 5679SOL    HW128670   1.944   1.113  13.012 -0.4088  1.0598  1.2997
 5679SOL    HW228671   2.054   1.122  13.107  0.6549  1.8479 -1.1257
 5680SOL     OW28672   3.993   0.260   8.267  0.0387  0.4141  0.4823
 5680SOL    HW128673   4.055   0.315   8.316  2.2175 -0.4291 -1.3652
 5680SOL    HW228674   3.913   0.297   8.305 -0.7457  1.6679 -2.4058
 5681SOL     OW28675   1.821   2.992  14.390 -0.1692  0.4477  0.2067
 5681SOL    HW128676   1.771   3.024  14.465 -2.3663 -0.8952 -0.6537
 5681SOL    HW228677   1.886   3.061  14.392  0.4472 -0.0579 -1.9429
 5682SOL     OW28678   1.408   3.669  14.904  0.4303 -0.6039 -0.5492
 5682SOL    HW128679   1.332   3.673  14.963 -0.5466  0.7769 -1.9102
 5682SOL    HW228680   1.473   3.730  14.936 -0.3934  0.6299 -1.2290
 5683SOL     OW28681   0.441   0.832  14.521 -0.8504  0.0936 -0.2400
 5683SOL    HW128682   0.457   0.906  14.580 -1.6262 -0.5250  0.7489
 5683SOL    HW228683   0.461   0.871  14.436 -1.2814 -0.3562 -0.5543
 5684SOL     OW28684   0.146   0.142   8.978 -0.2909  0.1079  0.2843
 5684SOL    HW128685   0.207   0.215   8.977  0.6016 -0.6399 -0.3155
 5684SOL    HW228686   0.187   0.084   8.913 -2.0729 -1.9622  1.0010
 5685SOL     OW28687   2.808   3.424   6.939 -0.0954  0.1372 -0.3471
 5685SOL    HW128688   2.780   3.497   6.884  0.0829 -0.3761 -1.1291
 5685SOL    HW228689   2.806   3.362   6.866 -0.5610 -0.0198 -0.1985
 5686SOL     OW28690   2.666   2.154   2.356 -0.1019 -0.7964  0.5818
 5686SOL    HW128691   2.761   2.159   2.342 -0.0534 -3.6521  0.0090
 5686SOL    HW228692   2.650   2.060   2.362 -1.3744 -0.5686  0.6726
 5687SOL     OW28693   2.960   1.240   6.661 -0.1036 -0.0884  0.2368
 5687SOL    HW128694   2.950   1.282   6.575 -1.3837 -2.3463 -0.6914
 5687SOL    HW228695   2.940   1.313   6.720  1.6398  2.1916 -1.9450
 5688SOL     OW28696   2.108   1.350  10.490  0.4165  0.4857  0.4427
 5688SOL    HW128697   2.033   1.346  10.431  0.9349  1.2410 -0.2622
 5688SOL    HW228698   2.169   1.416  10.457  0.7322 -0.2518 -0.4766
 5689SOL     OW28699   4.176   2.024   6.444  0.2705 -0.4628  0.1894
 5689SOL    HW128700   4.088   1.985   6.446  0.2736 -0.5043 -0.4515
 5689SOL    HW228701   4.156   2.116   6.461  1.4084 -0.1576 -0.1609
 5690SOL     OW28702   2.084   2.234   7.812 -0.7104  0.6612 -0.2833
 5690SOL    HW128703   2.161   2.282   7.841  0.1415 -0.6624 -0.3722
 5690SOL    HW228704   2.054   2.188   7.890  1.1228  0.0436  0.0423
 5691SOL     OW28705   1.999   4.602  12.022  0.8446  0.0947  0.1959
 5691SOL    HW128706   2.030   4.531  12.079 -2.5691 -3.3959 -2.2869
 5691SOL    HW228707   1.917   4.623  12.067  0.0871 -0.5559 -0.8927
 5692SOL     OW28708   1.378   2.685   3.033 -0.2990  0.0564 -0.0398
 5692SOL    HW128709   1.359   2.599   3.071 -1.1177  0.1606 -0.2031
 5692SOL    HW228710   1.473   2.688   3.025 -0.1666  1.1787  1.8326
 5693SOL     OW28711   0.695   1.153  15.633  0.2727  0.1904  0.5232
 5693SOL    HW128712   0.737   1.089  15.575 -0.6414 -1.0855  1.2681
 5693SOL    HW228713   0.686   1.225  15.571  0.0222  0.0937  0.4480
 5694SOL     OW28714   1.073   1.078   7.363  0.5530 -0.2816 -0.0179
 5694SOL    HW128715   1.040   1.095   7.451  0.6333  2.5707 -0.5600
 5694SOL    HW228716   1.052   0.984   7.355  0.0496 -0.1229 -0.5812
 5695SOL     OW28717   2.444   3.988  12.825  0.2902 -0.2116  0.5983
 5695SOL    HW128718   2.527   3.948  12.797  0.4605 -0.7944  1.9116
 5695SOL    HW228719   2.396   3.979  12.742  0.8343  0.1091  0.2473
 5696SOL     OW28720   0.233   1.312   7.152  0.2454 -0.2193 -0.2611
 5696SOL    HW128721   0.325   1.323   7.176 -0.2381 -0.7800  1.9103
 5696SOL    HW228722   0.211   1.405   7.157  0.3348 -0.3750  2.8902
 5697SOL     OW28723   0.594   3.469   1.999  0.2229 -0.1406  0.4905
 5697SOL    HW128724   0.627   3.544   2.049  2.6079 -0.4149 -0.6569
 5697SOL    HW228725   0.570   3.505   1.913  1.6215  1.6016  0.8251
 5698SOL     OW28726   2.571   1.634   7.605 -0.0294  0.0059 -0.1290
 5698SOL    HW128727   2.640   1.679   7.557 -0.1472  2.2982  1.8717
 5698SOL    HW228728   2.614   1.550   7.622 -1.8073 -0.6968  0.8896
 5699SOL     OW28729   4.301   3.069   9.187 -0.2146  0.1079 -0.1551
 5699SOL    HW128730   4.220   3.026   9.161 -0.6655  0.2667  0.9813
 5699SOL    HW228731   4.317   3.028   9.272 -0.4015  0.0125 -0.1666
 5700SOL     OW28732   0.716   2.746   1.029 -0.0463  0.3180  0.2753
 5700SOL    HW128733   0.799   2.794   1.023 -0.5138  1.1142  0.1588
 5700SOL    HW228734   0.657   2.820   1.041  0.8756  1.2983 -1.1829
 5701SOL     OW28735   0.748   4.585   6.049  0.5613  0.3795  0.6051
 5701SOL    HW128736   0.836   4.548   6.039 -0.1303 -1.3434  0.9814
 5701SOL    HW228737   0.735   4.637   5.969 -0.1887  0.4898  0.7972
 5702SOL     OW28738   3.579   3.493   3.944  0.4089  0.3487  0.1822
 5702SOL    HW128739   3.668   3.527   3.932  0.6150 -0.6404 -1.0712
 5702SOL    HW228740   3.572   3.438   3.866 -2.1924  0.4528  0.3409
 5703SOL     OW28741   4.634   0.844   9.166  0.7562 -0.4995  0.5374
 5703SOL    HW128742   4.667   0.859   9.254  1.8188 -0.5291  0.1402
 5703SOL    HW228743   4.695   0.903   9.122  0.0803  2.0344  2.9716
 5704SOL     OW28744   1.819   0.252   6.702  0.1484  0.1365  0.0170
 5704SOL    HW128745   1.739   0.209   6.672  0.3230 -1.2111  1.5212
 5704SOL    HW228746   1.820   0.230   6.795  1.4066  0.2613  0.0315
 5705SOL     OW28747   1.073   3.442   7.797 -0.4199  0.7839  0.1601
 5705SOL    HW128748   1.079   3.525   7.844  0.0483  0.0142  1.4718
 5705SOL    HW228749   1.139   3.458   7.730  0.7216 -2.7032  0.4623
 5706SOL     OW28750   2.170   0.763   6.453 -0.2189 -0.2380 -0.5786
 5706SOL    HW128751   2.134   0.685   6.495 -0.0983 -0.1001 -0.2204
 5706SOL    HW228752   2.088   0.810   6.439 -0.7258 -0.9726 -0.1116
 5707SOL     OW28753   4.278   3.735   2.747  0.6905  0.3368 -0.2337
 5707SOL    HW128754   4.265   3.642   2.767 -1.0682  1.1374  2.3763
 5707SOL    HW228755   4.371   3.756   2.738  0.8677 -0.4674 -0.3139
 5708SOL     OW28756   3.979   4.325   4.152  0.2811  1.1054  0.4158
 5708SOL    HW128757   3.934   4.268   4.214 -0.2029  0.4317 -0.5585
 5708SOL    HW228758   3.991   4.257   4.085 -2.7674  0.4737  0.5081
 5709SOL     OW28759   4.058   3.265  16.131 -0.0743  0.1944 -0.6523
 5709SOL    HW128760   4.044   3.188  16.185  0.4110 -0.1274 -0.9795
 5709SOL    HW228761   4.076   3.224  16.046  3.7186  2.3652 -0.9264
 5710SOL     OW28762   3.391   2.324  11.140 -0.2009  0.1009  0.1780
 5710SOL    HW128763   3.299   2.306  11.121 -0.0911 -1.6654  1.3956
 5710SOL    HW228764   3.396   2.399  11.080 -0.7513  0.4962  0.6264
 5711SOL     OW28765   2.038   1.701   2.675 -0.9829 -0.3198 -0.2057
 5711SOL    HW128766   1.946   1.692   2.701 -1.0434 -0.3424 -0.4210
 5711SOL    HW228767   2.043   1.792   2.644  0.2795 -0.3820 -0.1536
 5712SOL     OW28768   3.851   3.007   9.371  0.4073  0.0599  0.5038
 5712SOL    HW128769   3.818   3.046   9.289  1.2353 -1.3153 -0.4918
 5712SOL    HW228770   3.791   2.935   9.391 -1.5743  2.1901  2.0816
 5713SOL     OW28771   2.859   1.629   1.387  0.0805  0.3189 -0.3848
 5713SOL    HW128772   2.878   1.683   1.464 -1.4725  0.2401  0.0524
 5713SOL    HW228773   2.803   1.562   1.426 -0.1222  2.2866  2.7278
 5714SOL     OW28774   3.943   1.796  12.776  0.3863 -0.0889  0.1377
 5714SOL    HW128775   4.018   1.744  12.806  0.3163 -0.2376  0.0539
 5714SOL    HW228776   3.987   1.878  12.752  1.5742 -0.6969  0.2288
 5715SOL     OW28777   3.271   4.671   7.124 -0.4509  0.3776  0.0484
 5715SOL    HW128778   3.254   4.619   7.046 -0.4746  3.4264 -1.9874
 5715SOL    HW228779   3.353   4.714   7.099  0.2008 -0.9737 -0.1386
 5716SOL     OW28780   4.690   3.180   7.326  0.5760 -0.5899 -0.6962
 5716SOL    HW128781   4.703   3.258   7.380 -2.3534  0.4814 -1.5429
 5716SOL    HW228782   0.035   3.134   7.333  0.3684 -0.6451  1.3026
 5717SOL     OW28783   2.972   3.668   8.927  0.0667 -0.5522 -0.0889
 5717SOL    HW128784   2.939   3.740   8.873 -0.1788 -0.4302  0.2221
 5717SOL    HW228785   3.000   3.718   9.004 -1.6244  1.9070 -1.0850
 5718SOL     OW28786   3.373   3.353   5.608  0.1360  0.0217 -0.1378
 5718SOL    HW128787   3.299   3.294   5.619  0.4729  0.0216  2.1400
 5718SOL    HW228788   3.420   3.322   5.686  0.1084 -0.6242 -0.3861
 5719SOL     OW28789   4.651   2.978   7.028  0.2009 -0.0080  0.3731
 5719SOL    HW128790   4.709   2.955   7.099  1.4318  0.1839 -0.5721
 5719SOL    HW228791   4.567   2.994   7.070  0.1470 -2.2560  1.1255
 5720SOL     OW28792   3.812   4.333   6.388  0.2678  0.2396  0.3955
 5720SOL    HW128793   3.810   4.412   6.443  0.5542  1.5189 -1.4238
 5720SOL    HW228794   3.863   4.279   6.447  0.5105  0.1260  0.0814
 5721SOL     OW28795   3.610   3.410   1.002  0.0943  0.4969  0.0623
 5721SOL    HW128796   3.605   3.505   1.007 -0.1592  0.7104 -3.9939
 5721SOL    HW228797   3.540   3.392   0.939  0.4049 -0.3518 -0.0501
 5722SOL     OW28798   0.723   3.181   2.148  0.1451 -0.0164  0.4006
 5722SOL    HW128799   0.788   3.148   2.210 -0.1869  1.0482  1.3164
 5722SOL    HW228800   0.774   3.242   2.095 -0.4748  1.2171  1.2443
 5723SOL     OW28801   4.292   2.908   0.356 -0.0277 -0.5130  0.1336
 5723SOL    HW128802   4.227   2.839   0.371  0.7552 -0.7839  2.2690
 5723SOL    HW228803   4.259   2.940   0.272 -0.4061  2.1507  1.3228
 5724SOL     OW28804   0.918   0.551  10.819 -0.1222  0.2469  0.4487
 5724SOL    HW128805   0.984   0.611  10.853  0.5979 -0.0991 -0.3557
 5724SOL    HW228806   0.909   0.483  10.886  1.4452  0.0742  0.4666
 5725SOL     OW28807   4.216   3.369  12.977  0.1383  0.6783  0.4284
 5725SOL    HW128808   4.228   3.333  13.065  0.1829 -2.0229 -0.6847
 5725SOL    HW228809   4.300   3.389  12.936  0.5769 -0.2528  0.8653
 5726SOL     OW28810   4.381   4.549   1.108  0.4576 -0.4341 -0.7993
 5726SOL    HW128811   4.422   4.483   1.163  1.3843 -0.3034 -1.3437
 5726SOL    HW228812   4.450   4.615   1.104  0.0648 -0.0038 -0.5436
 5727SOL     OW28813   2.195   3.596   4.495  0.5157  0.0976 -0.2600
 5727SOL    HW128814   2.203   3.617   4.588  0.6940 -0.2587 -0.1917
 5727SOL    HW228815   2.136   3.520   4.496 -0.5180  0.9071  0.0496
 5728SOL     OW28816   0.784   2.295   8.026  0.2639 -0.1340  0.1693
 5728SOL    HW128817   0.701   2.249   8.015  1.8262 -2.2547 -2.7289
 5728SOL    HW228818   0.779   2.311   8.121  0.1068 -1.1005  0.3230
 5729SOL     OW28819   0.244   0.127  16.362  0.4133 -0.4553  0.1700
 5729SOL    HW128820   0.319   0.187  16.361 -0.8804  1.1732  1.8000
 5729SOL    HW228821   0.281   0.053  16.409 -0.7914 -2.6650 -2.3998
 5730SOL     OW28822   3.769   0.489  10.466  0.3165 -0.3260 -0.2411
 5730SOL    HW128823   3.675   0.484  10.451  0.2620 -0.0750  0.0331
 5730SOL    HW228824   3.783   0.520  10.555  2.1717 -0.0744 -0.6158
 5731SOL     OW28825   1.047   3.402   3.908 -0.0635 -0.5164 -0.0697
 5731SOL    HW128826   1.009   3.341   3.972  1.6095  0.0294  1.4405
 5731SOL    HW228827   1.077   3.469   3.970  0.8273 -0.8991 -0.0898
 5732SOL     OW28828   0.071   2.319  12.782  0.3583 -0.3253  0.4502
 5732SOL    HW128829   0.105   2.396  12.828  0.7302  0.4312 -1.1035
 5732SOL    HW228830   0.133   2.259  12.823  1.9196  1.8602  1.2997
 5733SOL     OW28831   3.201   1.536  15.418  0.1410 -0.2665 -0.0996
 5733SOL    HW128832   3.149   1.555  15.339  0.4727  2.9450  0.4307
 5733SOL    HW228833   3.196   1.444  15.442 -0.1129  0.3881  2.3338
 5734SOL     OW28834   3.748   0.719  11.416 -0.6650 -0.7170 -0.2801
 5734SOL    HW128835   3.789   0.769  11.345 -0.2392  1.3046  1.3808
 5734SOL    HW228836   3.729   0.630  11.386 -1.0641 -1.0744  1.0017
 5735SOL     OW28837   3.085   4.063  12.404 -0.2432  0.4545 -0.3966
 5735SOL    HW128838   3.066   3.969  12.401 -1.9203  0.7708  0.6254
 5735SOL    HW228839   3.009   4.102  12.362 -0.8613  0.5507  0.8056
 5736SOL     OW28840   3.076   2.084   7.024 -0.1871 -0.1340 -0.2311
 5736SOL    HW128841   3.152   2.026   7.035 -0.2021  0.0396  0.7714
 5736SOL    HW228842   3.022   2.078   7.103  0.6895 -2.0661  0.2053
 5737SOL     OW28843   1.753   0.073   2.050 -0.2530  0.1125  0.4027
 5737SOL    HW128844   1.765   0.043   2.140  2.2552 -0.6124 -0.1906
 5737SOL    HW228845   1.831   0.126   2.034  1.0016 -1.6602  0.6253
 5738SOL     OW28846   0.222   3.119  11.203 -0.1187  0.2325 -0.0779
 5738SOL    HW128847   0.248   3.111  11.295 -0.1853  1.4740  0.0524
 5738SOL    HW228848   0.197   3.029  11.184  0.9680 -0.4269  1.6121
 5739SOL     OW28849   0.236   0.745   9.233 -0.7875 -0.4640 -0.7250
 5739SOL    HW128850   0.192   0.827   9.208 -2.8056 -1.0976  0.7579
 5739SOL    HW228851   0.182   0.679   9.188  0.3487 -1.5982 -0.4080
 5740SOL     OW28852   4.067   2.355   8.690 -0.8387  0.0331  0.6431
 5740SOL    HW128853   4.140   2.416   8.697  1.1224 -2.2388 -0.0587
 5740SOL    HW228854   4.075   2.309   8.773 -0.8383  1.1246  1.2513
 5741SOL     OW28855   0.690   0.863   7.302  0.3770  0.0664 -1.3042
 5741SOL    HW128856   0.648   0.931   7.249  0.6058  2.2406  1.3201
 5741SOL    HW228857   0.648   0.783   7.267  2.5976 -1.5461 -0.2536
 5742SOL     OW28858   1.151   0.172   4.158 -0.3421  0.3684 -0.0721
 5742SOL    HW128859   1.097   0.173   4.080 -0.7880 -3.2731  0.2059
 5742SOL    HW228860   1.100   0.211   4.229 -0.0850  2.6528 -1.1294
 5743SOL     OW28861   1.241   2.634   1.644  0.4952 -0.1069  0.4625
 5743SOL    HW128862   1.192   2.630   1.726  1.0226  0.3022  0.7995
 5743SOL    HW228863   1.289   2.716   1.653  0.6794 -0.0162 -1.2445
 5744SOL     OW28864   2.610   2.720  10.812  0.6704 -0.3188  0.7498
 5744SOL    HW128865   2.681   2.784  10.802  0.5920 -0.6213 -1.7369
 5744SOL    HW228866   2.552   2.762  10.748  0.7626 -1.4702 -0.1056
 5745SOL     OW28867   0.509   1.749   3.650 -0.2991  0.1394 -0.4868
 5745SOL    HW128868   0.479   1.804   3.723 -0.5828 -2.1408  1.1207
 5745SOL    HW228869   0.440   1.684   3.659  1.7365 -2.1169 -1.2812
 5746SOL     OW28870   0.960   0.831   7.959 -0.2285 -0.1207  0.3130
 5746SOL    HW128871   0.975   0.922   7.934  0.7062 -0.2987  0.2292
 5746SOL    HW228872   1.051   0.800   7.966 -0.6644 -1.0525  1.9595
 5747SOL     OW28873   2.582   1.586   8.082 -0.3371  0.0734  0.2909
 5747SOL    HW128874   2.590   1.680   8.102 -1.5750  0.4221 -0.8842
 5747SOL    HW228875   2.539   1.571   7.999 -0.7816 -0.6907  0.6615
 5748SOL     OW28876   2.548   1.625  14.573 -0.2372 -0.1159 -0.6024
 5748SOL    HW128877   2.459   1.661  14.567 -0.0536  0.9073  2.6544
 5748SOL    HW228878   2.601   1.700  14.601 -1.1490  0.0714  0.6194
 5749SOL     OW28879   2.830   3.343   1.191  0.2770 -0.1948 -0.0301
 5749SOL    HW128880   2.878   3.402   1.250 -1.8323 -0.6316  2.1152
 5749SOL    HW228881   2.854   3.256   1.224 -0.7794 -0.5388 -0.1985
 5750SOL     OW28882   3.502   1.397   0.926  0.3447 -0.2073  0.3624
 5750SOL    HW128883   3.494   1.391   0.831  0.5002  0.5713  0.2996
 5750SOL    HW228884   3.474   1.485   0.952 -0.0814 -0.5373  1.0250
 5751SOL     OW28885   1.616   0.919  16.169  0.0804 -0.3624 -0.0108
 5751SOL    HW128886   1.627   0.981  16.096 -0.6031 -1.8351 -1.3671
 5751SOL    HW228887   1.575   0.843  16.127  0.2110  0.5558 -1.8361
 5752SOL     OW28888   3.384   0.569   6.339 -0.3938 -0.2655  0.4166
 5752SOL    HW128889   3.392   0.564   6.434 -1.1002  2.8959  0.6521
 5752SOL    HW228890   3.375   0.664   6.335 -0.9811 -0.3043  0.7881
 5753SOL     OW28891   2.748   0.235   2.180  0.5025 -0.1017 -0.2387
 5753SOL    HW128892   2.793   0.241   2.096 -0.2737  1.0251 -0.5752
 5753SOL    HW228893   2.687   0.308   2.166  3.8791  3.2508  2.3829
 5754SOL     OW28894   2.639   1.007   2.328 -0.6897  0.8621 -0.7155
 5754SOL    HW128895   2.564   1.004   2.388 -1.3929 -0.5150 -1.6527
 5754SOL    HW228896   2.608   0.978   2.242  0.0268  0.6567 -0.9055
 5755SOL     OW28897   1.223   3.831  10.480 -0.6390 -0.1834 -0.3334
 5755SOL    HW128898   1.281   3.907  10.486  0.2807 -0.9282  0.4044
 5755SOL    HW228899   1.169   3.858  10.406 -1.8256  0.3717  0.7269
 5756SOL     OW28900   1.440   1.922   3.574  0.7756 -0.5784 -0.2695
 5756SOL    HW128901   1.510   1.929   3.640  2.0661  0.5231 -1.7693
 5756SOL    HW228902   1.371   1.915   3.640  1.2709 -0.1440  0.2932
 5757SOL     OW28903   0.768   2.855   5.672 -0.1782  0.1871  0.1078
 5757SOL    HW128904   0.729   2.906   5.743  0.0911 -0.2797  0.5878
 5757SOL    HW228905   0.838   2.804   5.713 -0.3474 -0.2252 -0.1132
 5758SOL     OW28906   4.431   1.083   7.976  0.1901 -0.7544 -0.8993
 5758SOL    HW128907   4.343   1.098   8.009  0.5140  1.5432 -1.0548
 5758SOL    HW228908   4.437   1.156   7.914 -1.1965 -1.6265 -2.0680
 5759SOL     OW28909   3.322   0.982   9.245  0.3552  0.0329  0.0066
 5759SOL    HW128910   3.374   0.976   9.325 -1.5974  0.3651  1.3052
 5759SOL    HW228911   3.390   0.947   9.187  1.6995  1.7636  0.5346
 5760SOL     OW28912   0.188   0.357   4.388 -0.3054 -0.2010  0.0319
 5760SOL    HW128913   0.202   0.452   4.395  1.0698 -0.4478  0.6035
 5760SOL    HW228914   0.276   0.320   4.381  0.0158  1.1267 -3.1901
 5761SOL     OW28915   1.587   1.016   5.020 -0.1800 -0.5526  0.1718
 5761SOL    HW128916   1.657   0.959   5.054 -0.0078 -0.2083  0.4062
 5761SOL    HW228917   1.522   1.010   5.090  0.0647  0.3555  0.4738
 5762SOL     OW28918   0.915   2.649   4.634  0.2650  0.2992  0.3621
 5762SOL    HW128919   0.928   2.729   4.583 -1.4264  1.3230  1.5089
 5762SOL    HW228920   0.837   2.665   4.687 -1.3638 -3.4708 -0.9451
 5763SOL     OW28921   1.595   0.396   3.283  0.1750 -0.0181  0.0535
 5763SOL    HW128922   1.554   0.475   3.318 -0.5198  0.1871 -1.2387
 5763SOL    HW228923   1.676   0.430   3.245  0.4233 -0.8358 -0.1319
 5764SOL     OW28924   3.492   0.737   7.813  0.0815 -0.2972 -0.4665
 5764SOL    HW128925   3.485   0.644   7.833 -0.7810 -0.0508  0.3396
 5764SOL    HW228926   3.588   0.747   7.816  0.0849 -0.7581  0.8027
 5765SOL     OW28927   3.334   4.387   6.666  0.0502  0.2996 -0.3801
 5765SOL    HW128928   3.346   4.356   6.576 -0.7645 -1.5786  0.1786
 5765SOL    HW228929   3.279   4.319   6.704 -0.5852  1.0404  0.0277
 5766SOL     OW28930   1.345   1.360   5.390  0.2344  0.4595  0.1915
 5766SOL    HW128931   1.406   1.335   5.321 -0.1532  0.5453 -0.1823
 5766SOL    HW228932   1.323   1.281   5.439  1.9938 -0.6612 -0.8229
 5767SOL     OW28933   3.338   4.410  16.569 -0.5739 -0.2664 -0.1794
 5767SOL    HW128934   3.388   4.356  16.630 -1.9485  1.2352  2.2661
 5767SOL    HW228935   3.250   4.411  16.605  0.0724  0.0391  1.3688
 5768SOL     OW28936   2.873   0.906   1.270 -0.3696 -0.3450  0.3839
 5768SOL    HW128937   2.850   0.858   1.191 -0.2829  2.3029 -1.2444
 5768SOL    HW228938   2.943   0.964   1.238 -1.1289  0.4807  0.2092
 5769SOL     OW28939   1.250   1.922   5.135 -0.6006 -0.5085  0.1937
 5769SOL    HW128940   1.240   1.831   5.107  0.3830 -0.6957  0.4726
 5769SOL    HW228941   1.204   1.962   5.060 -0.1950  0.4512  0.4582
 5770SOL     OW28942   2.343   0.977   5.324 -0.0820  0.0115  0.4595
 5770SOL    HW128943   2.268   1.035   5.340 -1.2257 -2.2641  3.2598
 5770SOL    HW228944   2.347   0.930   5.407  0.8739 -0.1611  0.3069
 5771SOL     OW28945   4.293   4.239   0.996 -0.1955 -0.9558  0.7042
 5771SOL    HW128946   4.307   4.260   1.089 -1.7564  0.9082  0.5190
 5771SOL    HW228947   4.209   4.281   0.977 -0.2645 -1.2564  0.3499
 5772SOL     OW28948   1.052   0.574   3.962  0.1982  0.2203  0.9977
 5772SOL    HW128949   0.963   0.545   3.978 -0.1517  0.8642  0.1889
 5772SOL    HW228950   1.033   0.668   3.962 -1.4543 -0.1114  1.2438
 5773SOL     OW28951   0.616   2.723   3.326  0.4795  0.1254 -0.2201
 5773SOL    HW128952   0.611   2.630   3.346 -0.7963  0.6196  1.7190
 5773SOL    HW228953   0.531   2.757   3.355  0.6559 -0.2692  0.7206
 5774SOL     OW28954   4.043   0.945  11.241 -0.0198  0.3788 -0.1200
 5774SOL    HW128955   4.131   0.969  11.268 -0.8273  1.3387  1.7115
 5774SOL    HW228956   3.984   1.015  11.271 -0.1393  0.1443  0.1999
 5775SOL     OW28957   0.754   0.767  17.250  0.1581  0.5883 -0.4988
 5775SOL    HW128958   0.687   0.765  17.181 -0.7169  0.0795  0.3586
 5775SOL    HW228959   0.786   0.857  17.245 -1.6917  1.2489 -0.5287
 5776SOL     OW28960   4.309   1.955   6.671 -0.2347  0.4473 -0.6047
 5776SOL    HW128961   4.254   1.971   6.594  0.2878  1.8656 -0.6769
 5776SOL    HW228962   4.391   1.934   6.627 -0.0090  0.5508 -0.2301
 5777SOL     OW28963   3.797   1.719   1.901 -0.3379 -0.7813 -0.3318
 5777SOL    HW128964   3.842   1.705   1.984 -2.5017  1.0923  1.1574
 5777SOL    HW228965   3.830   1.644   1.850 -0.7733 -0.9314 -0.3923
 5778SOL     OW28966   0.451   1.467   8.813 -0.3064 -0.0209  0.5442
 5778SOL    HW128967   0.372   1.519   8.797 -0.7088 -1.2153 -1.3245
 5778SOL    HW228968   0.523   1.531   8.809 -1.4002  1.2995  1.9331
 5779SOL     OW28969   0.352   0.768   6.846 -0.5171  0.0046 -0.3720
 5779SOL    HW128970   0.418   0.795   6.910  0.1633 -1.2375 -0.5509
 5779SOL    HW228971   0.273   0.785   6.898 -0.8697 -1.5878 -0.3878
 5780SOL     OW28972   2.033   3.530   3.808 -0.6378 -0.1399 -0.1120
 5780SOL    HW128973   1.991   3.613   3.830  0.7243  0.8007 -1.1152
 5780SOL    HW228974   2.029   3.479   3.889  3.1254  1.4135  1.0275
 5781SOL     OW28975   0.110   2.544   3.453 -0.1986 -0.6152 -0.1245
 5781SOL    HW128976   0.124   2.623   3.400 -1.8881 -1.7102 -2.2303
 5781SOL    HW228977   0.015   2.546   3.468 -0.0619 -1.1169  0.7706
 5782SOL     OW28978   2.445   0.672  10.539  0.0219 -0.0657 -0.6290
 5782SOL    HW128979   2.425   0.581  10.558 -0.0452 -0.4345 -2.4267
 5782SOL    HW228980   2.377   0.722  10.585 -0.0776 -0.9445  0.1762
 5783SOL     OW28981   0.421   2.750   1.982 -0.4224  0.4723  0.4008
 5783SOL    HW128982   0.509   2.751   2.019 -0.8777  2.4680  1.4447
 5783SOL    HW228983   0.373   2.720   2.059 -1.0254 -3.7142 -1.6099
 5784SOL     OW28984   2.333   1.406   2.684  0.3141 -0.3517 -0.3522
 5784SOL    HW128985   2.323   1.473   2.752  3.8586  0.2149 -0.3860
 5784SOL    HW228986   2.359   1.461   2.610 -0.3091  2.0420  1.2117
 5785SOL     OW28987   3.053   3.514  17.606 -0.1560  0.2962 -0.3416
 5785SOL    HW128988   2.965   3.478  17.595 -0.0855 -0.0627  0.2811
 5785SOL    HW228989   3.026   3.606  17.605  1.6084  0.8045 -1.0292
 5786SOL     OW28990   3.892   1.197  11.331 -0.0303  0.1519 -0.6165
 5786SOL    HW128991   3.897   1.290  11.349 -0.8245  0.1853 -0.5773
 5786SOL    HW228992   3.903   1.159  11.418  1.0682 -0.2692 -0.9376
 5787SOL     OW28993   3.427   3.997   0.926 -0.1144 -0.2617  0.6357
 5787SOL    HW128994   3.463   3.967   1.009  2.2472  1.4581  0.2298
 5787SOL    HW228995   3.333   3.998   0.943 -0.2600  0.2950 -0.2421
 5788SOL     OW28996   3.828   1.571  12.845 -0.3513  0.2051 -0.1947
 5788SOL    HW128997   3.862   1.658  12.822  2.0675 -0.5166  0.6198
 5788SOL    HW228998   3.855   1.576  12.936  1.0994  1.1425 -0.6702
 5789SOL     OW28999   2.845   2.813  14.873  0.0127 -0.4077  0.4790
 5789SOL    HW129000   2.776   2.781  14.930 -0.7387  1.3935  0.5630
 5789SOL    HW229001   2.927   2.780  14.912 -0.6597 -0.5486  1.7642
 5790SOL     OW29002   3.063   3.852   9.141 -0.2509  0.4294  0.2929
 5790SOL    HW129003   3.143   3.893   9.108 -0.1445  1.9830  2.4941
 5790SOL    HW229004   3.082   3.880   9.230 -0.7469  2.0438 -0.1163
 5791SOL     OW29005   3.929   1.672  14.684 -0.2232  0.2498  0.2695
 5791SOL    HW129006   3.941   1.613  14.609  0.3771  0.0588  0.5181
 5791SOL    HW229007   3.863   1.733  14.649 -0.2161  0.6384  0.9357
 5792SOL     OW29008   1.812   4.719  17.391  0.4582 -0.2689 -0.2128
 5792SOL    HW129009   1.896   4.688  17.424  1.3591  3.5489  1.1526
 5792SOL    HW229010   1.780   4.638  17.353 -1.8448  0.5008  0.0515
 5793SOL     OW29011   3.386   0.704   7.316  0.7504 -0.1990 -0.6739
 5793SOL    HW129012   3.476   0.690   7.345  0.6733  0.7325  0.0490
 5793SOL    HW229013   3.339   0.667   7.391 -0.1768  1.7615 -0.2821
 5794SOL     OW29014   3.971   0.598   2.027 -0.4587  0.2671  0.1838
 5794SOL    HW129015   3.899   0.536   2.019  0.4477 -0.2950 -3.6588
 5794SOL    HW229016   4.045   0.538   2.016 -0.0834  1.0922 -1.7133
 5795SOL     OW29017   3.334   0.330   1.904 -0.4403 -0.2033  0.4644
 5795SOL    HW129018   3.407   0.387   1.928 -0.5226  0.8019 -1.6857
 5795SOL    HW229019   3.369   0.245   1.930  1.1115  1.3679  3.5557
 5796SOL     OW29020   0.797   1.873  12.844  0.2388 -0.3532  0.3988
 5796SOL    HW129021   0.888   1.847  12.830  0.2630  0.7076 -1.2864
 5796SOL    HW229022   0.795   1.936  12.916  0.5754 -1.6276  1.5361
 5797SOL     OW29023   2.431   3.356  15.280  0.4279 -0.6294  0.4773
 5797SOL    HW129024   2.347   3.360  15.324 -0.6038 -0.2898 -1.5427
 5797SOL    HW229025   2.418   3.284  15.219 -1.4442 -0.8850  1.2012
 5798SOL     OW29026   0.349   4.355   9.163 -0.3655  0.8825 -0.0359
 5798SOL    HW129027   0.295   4.406   9.102 -0.5606 -1.0177 -1.4713
 5798SOL    HW229028   0.339   4.267   9.128 -2.0951  1.2262 -0.3947
 5799SOL     OW29029   4.116   4.075  12.257  0.5391  0.2983 -0.2381
 5799SOL    HW129030   4.162   4.098  12.337 -1.0187  1.4982  0.3140
 5799SOL    HW229031   4.170   4.002  12.227 -0.9965  0.5960 -3.7464
 5800SOL     OW29032   3.952   1.991   1.703 -0.1987  0.0825  0.5550
 5800SOL    HW129033   3.858   1.997   1.684 -0.7468 -3.4844  2.1337
 5800SOL    HW229034   3.984   2.021   1.618 -0.6641  0.8579  0.6436
 5801SOL     OW29035   4.499   2.021   4.568  0.3154  0.1274  0.0984
 5801SOL    HW129036   4.482   1.977   4.484 -4.0971 -1.6078  1.9371
 5801SOL    HW229037   4.572   2.081   4.549  0.9975 -0.3984  1.0350
 5802SOL     OW29038   0.112   3.912  12.566  0.7837  0.2958 -0.2642
 5802SOL    HW129039   0.114   3.979  12.498 -1.9126 -0.8241 -1.4412
 5802SOL    HW229040   0.114   3.960  12.648  4.0311 -1.2387  0.5629
 5803SOL     OW29041   3.845   2.076  16.317 -0.6067 -0.6416  0.0048
 5803SOL    HW129042   3.899   2.106  16.244 -2.0156 -0.4015 -0.9429
 5803SOL    HW229043   3.779   2.053  16.252 -1.6551 -3.0584  1.9466
 5804SOL     OW29044   4.185   2.371  14.704  0.0672  0.4649  0.2134
 5804SOL    HW129045   4.110   2.365  14.764  0.9416  0.6266  1.3103
 5804SOL    HW229046   4.147   2.364  14.616  0.4596  0.1977  0.0664
 5805SOL     OW29047   3.202   0.127   3.857 -0.4032  0.1121 -1.0250
 5805SOL    HW129048   3.216   0.214   3.821  2.0045 -0.5982 -1.8165
 5805SOL    HW229049   3.173   0.153   3.945  0.8219 -4.2705  0.6930
 5806SOL     OW29050   1.685   3.956   8.141  0.8824  0.1914  0.3857
 5806SOL    HW129051   1.757   3.898   8.119  1.0366  2.0029 -3.7514
 5806SOL    HW229052   1.656   3.979   8.053  0.3686  2.0203  1.0316
 5807SOL     OW29053   3.454   3.728  10.823  0.3090 -0.6935  0.2900
 5807SOL    HW129054   3.501   3.654  10.861  0.7144 -0.1786  0.7935
 5807SOL    HW229055   3.441   3.690  10.736  0.5753 -3.3235  1.3922
 5808SOL     OW29056   4.564   3.134   3.500  0.1888  0.4879  0.5966
 5808SOL    HW129057   4.541   3.221   3.533  2.3243  1.1319  0.3920
 5808SOL    HW229058   4.482   3.086   3.494  0.8099 -0.8166  2.4282
 5809SOL     OW29059   4.483   4.275   2.322  0.5106 -0.0447  0.0542
 5809SOL    HW129060   4.527   4.336   2.263 -0.2667 -2.9191 -3.5169
 5809SOL    HW229061   4.540   4.198   2.324 -0.0913 -0.5924 -3.4233
 5810SOL     OW29062   4.399   0.456   2.585 -0.2300  0.1362  0.0576
 5810SOL    HW129063   4.462   0.503   2.531  0.3543  1.2307  1.7122
 5810SOL    HW229064   4.448   0.433   2.664  0.1622 -1.1892 -0.5786
 5811SOL     OW29065   4.102   1.948   5.341 -0.5720 -0.3077  0.1027
 5811SOL    HW129066   4.155   1.896   5.401  1.0729 -0.1507 -1.2050
 5811SOL    HW229067   4.140   2.034   5.360  0.2271 -0.1810 -1.9903
 5812SOL     OW29068   0.653   3.036   3.835 -0.0137 -0.0856 -0.3292
 5812SOL    HW129069   0.595   2.960   3.833 -0.2062 -0.0363  2.3449
 5812SOL    HW229070   0.602   3.094   3.892 -1.6027 -0.3885 -1.4464
 5813SOL     OW29071   4.148   2.474   5.734 -0.5201  0.6209  0.2738
 5813SOL    HW129072   4.199   2.404   5.775 -0.8445 -0.6859 -1.5085
 5813SOL    HW229073   4.202   2.489   5.656  0.5114  0.6475  0.9855
 5814SOL     OW29074   0.937   2.739   8.030  0.2526 -0.5725 -0.4983
 5814SOL    HW129075   0.891   2.822   8.037 -1.5232 -1.4169 -2.3180
 5814SOL    HW229076   0.997   2.740   7.956 -0.0848 -0.0234 -0.7589
 5815SOL     OW29077   1.563   1.425  12.076  0.8682 -0.1904  0.6346
 5815SOL    HW129078   1.611   1.442  12.157 -0.6899  2.7570  0.9209
 5815SOL    HW229079   1.510   1.348  12.099  0.8522 -0.5609 -0.6526
 5816SOL     OW29080   3.835   0.311   1.836  0.3218  0.2924 -0.6572
 5816SOL    HW129081   3.747   0.283   1.860  0.2718  0.2097 -0.9288
 5816SOL    HW229082   3.805   0.371   1.767  1.5206  0.6603 -0.8701
 5817SOL     OW29083   3.632   0.926  11.636  0.3015  0.2538 -0.5393
 5817SOL    HW129084   3.648   0.862  11.567 -0.5836 -0.9069  0.3211
 5817SOL    HW229085   3.716   0.971  11.639  0.5918 -0.1921 -2.0290
 5818SOL     OW29086   4.553   2.627   8.954  0.2241 -0.1050  0.5129
 5818SOL    HW129087   4.594   2.711   8.973 -0.1050 -0.4996  2.9341
 5818SOL    HW229088   4.471   2.647   8.999 -0.6113  0.0825 -1.1076
 5819SOL     OW29089   4.667   1.531  15.416 -0.9359 -0.1147 -0.5425
 5819SOL    HW129090   4.648   1.536  15.322 -0.5647  1.2924 -0.5402
 5819SOL    HW229091   4.588   1.531  15.471 -0.9482 -4.0004 -0.5341
 5820SOL     OW29092   0.362   3.519   5.735  0.0983 -0.1018  0.2379
 5820SOL    HW129093   0.296   3.586   5.716 -1.5358 -1.5444  0.8906
 5820SOL    HW229094   0.376   3.483   5.647 -0.3403  0.6900 -0.1603
 5821SOL     OW29095   2.163   4.632  15.736 -0.1263  0.7592  1.1155
 5821SOL    HW129096   2.095   4.583  15.690  0.3985  0.0745  1.0766
 5821SOL    HW229097   2.125   4.720  15.731 -1.3072  0.3829  3.3257
 5822SOL     OW29098   2.675   4.629  14.760 -0.2166  0.1388  0.2516
 5822SOL    HW129099   2.589   4.614  14.720 -0.5572  1.1383  0.6171
 5822SOL    HW229100   2.710   4.541  14.750 -0.0415  0.2996 -0.5606
 5823SOL     OW29101   1.676   2.601   3.411 -0.5707  0.5966 -0.4634
 5823SOL    HW129102   1.673   2.581   3.317 -0.7761  0.8080 -0.5029
 5823SOL    HW229103   1.584   2.615   3.434 -1.0620 -2.1746 -0.7206
 5824SOL     OW29104   2.267   3.785   4.085 -0.2431  0.0861 -0.1965
 5824SOL    HW129105   2.319   3.849   4.133 -0.6037  1.8854 -2.1878
 5824SOL    HW229106   2.210   3.843   4.033 -0.2812 -2.9325 -3.5271
 5825SOL     OW29107   0.736   1.508   9.724 -0.2670  0.1427  0.5188
 5825SOL    HW129108   0.772   1.570   9.661 -0.8762  0.6696  0.6953
 5825SOL    HW229109   0.792   1.499   9.800  3.1908 -2.3819 -2.3187
 5826SOL     OW29110   4.433   2.939   8.780  0.0276  0.1514  0.6439
 5826SOL    HW129111   4.524   2.960   8.802 -0.4384  2.0203  0.7580
 5826SOL    HW229112   4.434   2.846   8.758  0.2792  0.3330 -0.1007
 5827SOL     OW29113   1.902   1.132   9.149  0.2010 -0.1836  0.2301
 5827SOL    HW129114   1.897   1.221   9.115  1.0073  0.1855  1.0894
 5827SOL    HW229115   1.958   1.084   9.089  1.1606  2.0143 -0.6350
 5828SOL     OW29116   1.281   1.883   9.918  0.0065  0.6644  0.1711
 5828SOL    HW129117   1.216   1.819   9.889  1.3302 -0.5233 -0.1601
 5828SOL    HW229118   1.337   1.821   9.966 -1.9647 -1.2071  0.0695
 5829SOL     OW29119   4.381   4.693   8.687 -0.5919 -0.2292 -0.2212
 5829SOL    HW129120   4.444   4.732   8.748 -0.5245 -3.2465  1.6483
 5829SOL    HW229121   4.312   0.020   8.700  1.4665  1.9294 -0.2001
 5830SOL     OW29122   4.053   2.642   2.096  0.0434  0.1639 -0.2334
 5830SOL    HW129123   4.042   2.581   2.169 -0.3413  0.3971 -0.0994
 5830SOL    HW229124   4.148   2.652   2.092 -0.1123  1.0335 -1.5249
 5831SOL     OW29125   4.463   3.385  17.446  0.0956  0.4051 -0.0680
 5831SOL    HW129126   4.460   3.447  17.372  2.0539  0.6953  0.0899
 5831SOL    HW229127   4.481   3.439  17.523  2.1686  0.3959 -0.5237
 5832SOL     OW29128   3.994   4.586   7.681 -0.2682  0.0606 -0.3841
 5832SOL    HW129129   3.974   4.556   7.770  2.4676 -0.4813  0.0500
 5832SOL    HW229130   3.984   4.510   7.624 -1.7197  0.3326 -0.4730
 5833SOL     OW29131   3.948   3.642   8.899  0.2630  0.0651 -0.2637
 5833SOL    HW129132   3.951   3.557   8.943 -0.6532 -0.0733 -0.4639
 5833SOL    HW229133   3.986   3.709   8.956 -2.8174 -0.0498  1.9366
 5834SOL     OW29134   1.486   3.221  15.314  0.0165 -0.1248  0.8256
 5834SOL    HW129135   1.477   3.307  15.273  0.4326 -0.5049 -0.0651
 5834SOL    HW229136   1.511   3.253  15.401  2.1833  1.2390 -0.3034
 5835SOL     OW29137   1.363   2.082   4.915  0.0724  0.0259  0.1962
 5835SOL    HW129138   1.453   2.049   4.918 -0.5359 -1.5491  0.7874
 5835SOL    HW229139   1.380   2.176   4.908  2.8271 -0.5434 -1.0141
 5836SOL     OW29140   3.378   1.038   1.225  0.0899 -0.3764  0.0930
 5836SOL    HW129141   3.464   1.018   1.189  0.3255 -0.2555  0.5778
 5836SOL    HW229142   3.392   1.132   1.221 -1.5333 -0.0575  1.5906
 5837SOL     OW29143   1.676   3.239   6.285 -0.8336  0.0606 -0.1099
 5837SOL    HW129144   1.680   3.333   6.268  0.7647  0.1180  0.6016
 5837SOL    HW229145   1.589   3.232   6.325 -0.9421 -1.4854 -0.6205
 5838SOL     OW29146   3.326   1.310  11.725  0.5023 -0.7717 -0.1869
 5838SOL    HW129147   3.335   1.319  11.820  1.2226  0.4780 -0.3696
 5838SOL    HW229148   3.339   1.216  11.711 -1.5824 -1.0915 -0.0200
 5839SOL     OW29149   2.734   0.913   0.137  0.2205 -0.1897  0.9274
 5839SOL    HW129150   2.664   0.877   0.083 -0.5358 -0.8777  2.3777
 5839SOL    HW229151   2.747   0.999   0.096 -0.0504  0.2992  1.8736
 5840SOL     OW29152   0.186   4.162   5.472 -0.0206  0.1856 -0.2810
 5840SOL    HW129153   0.095   4.158   5.442 -0.3674 -1.5008  0.9497
 5840SOL    HW229154   0.198   4.256   5.483  1.9752  0.3966 -4.3116
 5841SOL     OW29155   2.718   3.881  13.250 -0.8795 -0.2661  0.3520
 5841SOL    HW129156   2.680   3.812  13.303 -1.0428  0.3659  1.0735
 5841SOL    HW229157   2.769   3.922  13.320 -2.0407  1.1210  0.3838
 5842SOL     OW29158   3.115   4.669  17.305  0.5524  0.5257 -0.7502
 5842SOL    HW129159   3.073   4.690  17.389  2.1003 -0.2521  0.2129
 5842SOL    HW229160   3.092   0.010  17.258 -1.0485 -1.0759 -2.7057
 5843SOL     OW29161   2.221   4.668   1.695  0.0543 -0.1879 -0.0720
 5843SOL    HW129162   2.206   4.718   1.776  0.3352 -0.7565  0.3324
 5843SOL    HW229163   2.305   4.626   1.709 -0.3949 -1.6004 -1.6032
 5844SOL     OW29164   0.427   4.373   3.647  0.2117 -0.0185  0.4979
 5844SOL    HW129165   0.348   4.365   3.701 -2.3590 -1.4893 -3.4890
 5844SOL    HW229166   0.435   4.285   3.612  1.9543  0.7335 -1.0207
 5845SOL     OW29167   2.370   0.329   2.483  0.0224 -0.1205  0.1721
 5845SOL    HW129168   2.336   0.281   2.558 -1.3906 -0.7731 -0.8987
 5845SOL    HW229169   2.337   0.416   2.504  2.4335  0.9954 -0.6084
 5846SOL     OW29170   1.741   4.176   5.273 -0.7433 -0.3229  0.0074
 5846SOL    HW129171   1.748   4.146   5.364 -2.1086  0.3155  0.3150
 5846SOL    HW229172   1.653   4.209   5.258 -1.1004 -1.0397  0.5560
 5847SOL     OW29173   2.798   3.433   2.027  0.2176 -0.1249 -0.4417
 5847SOL    HW129174   2.773   3.474   1.945 -1.3524  0.7295  0.4664
 5847SOL    HW229175   2.828   3.353   1.983  0.6757 -0.8448  1.1722
 5848SOL     OW29176   4.377   4.310   2.587  0.0160  0.1853 -0.1161
 5848SOL    HW129177   4.449   4.373   2.587  1.3779 -1.3788  0.6288
 5848SOL    HW229178   4.393   4.270   2.501  3.6012  1.4430 -0.0329
 5849SOL     OW29179   2.373   2.790   4.538 -0.0663  0.4071  0.0211
 5849SOL    HW129180   2.278   2.774   4.532 -0.1316  1.3466 -1.3378
 5849SOL    HW229181   2.364   2.883   4.561  1.9971  0.4929  0.4045
 5850SOL     OW29182   1.228   3.771  12.004 -0.2148  0.5331 -0.5815
 5850SOL    HW129183   1.180   3.715  12.065 -2.4345  2.4570 -0.5797
 5850SOL    HW229184   1.160   3.788  11.939 -1.1749  1.6714  0.7235
 5851SOL     OW29185   1.353   3.389   2.557  0.2364 -0.3422 -0.4298
 5851SOL    HW129186   1.408   3.457   2.517 -0.9305 -0.3984 -2.1136
 5851SOL    HW229187   1.410   3.313   2.542  0.4280 -0.4053  0.6511
 5852SOL     OW29188   4.525   3.614  12.478  0.4124 -0.9103  0.0753
 5852SOL    HW129189   4.568   3.544  12.429 -1.7387 -1.9330 -0.3438
 5852SOL    HW229190   4.549   3.602  12.570  2.1007 -3.7325 -0.7464
 5853SOL     OW29191   2.899   1.341   5.473  0.8009 -0.0071  0.2251
 5853SOL    HW129192   2.948   1.419   5.447 -0.1271  0.3296 -0.5169
 5853SOL    HW229193   2.829   1.336   5.407  2.5654  1.8078 -1.7460
 5854SOL     OW29194   2.730   1.160  17.750  0.8530 -0.3359  1.1670
 5854SOL    HW129195   2.703   1.251   0.015  1.1122 -0.1255  0.4594
 5854SOL    HW229196   2.678   1.152  17.671  0.0865  3.5996  1.2753
 5855SOL     OW29197   4.630   1.191   7.238  0.1351  0.4858  0.2162
 5855SOL    HW129198   4.714   1.166   7.275  0.4034 -1.8043 -1.9597
 5855SOL    HW229199   4.582   1.169   7.318 -0.1377 -0.0787 -0.1058
 5856SOL     OW29200   2.898   1.782   2.214 -0.4139  0.0597  0.3423
 5856SOL    HW129201   2.926   1.869   2.243  0.4412  0.1635 -0.7686
 5856SOL    HW229202   2.814   1.804   2.174  0.6221  2.2842 -0.6460
 5857SOL     OW29203   1.840   0.156   7.347 -0.2301 -0.2358 -0.2762
 5857SOL    HW129204   1.783   0.129   7.275  0.0720 -4.0534  0.8839
 5857SOL    HW229205   1.857   0.245   7.317 -2.2164  0.1583 -0.2168
 5858SOL     OW29206   4.562   2.530   7.788 -0.5416  0.2063  0.2006
 5858SOL    HW129207   4.491   2.593   7.800 -1.0936 -0.1659 -1.1107
 5858SOL    HW229208   4.630   2.572   7.841  0.2795  1.6317 -1.9389
 5859SOL     OW29209   1.058   2.664   8.786  0.1256 -0.1406  0.4317
 5859SOL    HW129210   1.104   2.592   8.744 -0.9619 -0.6677  0.1339
 5859SOL    HW229211   0.968   2.659   8.754  0.5089 -2.5213 -0.2750
 5860SOL     OW29212   1.104   2.453   5.476  0.7365 -0.2689  0.3565
 5860SOL    HW129213   1.076   2.491   5.559 -0.8085  0.7422 -0.6234
 5860SOL    HW229214   1.185   2.407   5.497  0.3279 -1.0387  0.2480
 5861SOL     OW29215   3.328   1.776   6.498 -0.5461  0.1345 -0.3004
 5861SOL    HW129216   3.383   1.773   6.420 -1.1452 -0.5286 -0.7031
 5861SOL    HW229217   3.271   1.853   6.497  1.8753  1.9078  0.9854
 5862SOL     OW29218   1.558   4.379   2.518  0.6616 -0.2089  0.3473
 5862SOL    HW129219   1.578   4.306   2.460 -0.5570  0.1570 -0.5391
 5862SOL    HW229220   1.568   4.454   2.460 -0.0916  1.5227  2.4186
 5863SOL     OW29221   2.272   3.945  16.797 -0.2453 -0.4200  0.0108
 5863SOL    HW129222   2.285   4.005  16.723  1.8069  0.6319  1.2096
 5863SOL    HW229223   2.179   3.925  16.791 -0.4849  0.9361 -0.7166
 5864SOL     OW29224   2.554   3.403   3.893 -0.2383  0.5446 -0.0309
 5864SOL    HW129225   2.474   3.456   3.900 -0.2104  0.4888  0.6267
 5864SOL    HW229226   2.582   3.383   3.982 -0.5701  3.3531  0.7126
 5865SOL     OW29227   0.572   4.516   3.222 -0.3451  0.6840 -0.0284
 5865SOL    HW129228   0.521   4.439   3.248 -0.2977  1.3094  1.9102
 5865SOL    HW229229   0.567   4.564   3.304  0.5754  1.6347 -0.5393
 5866SOL     OW29230   2.982   4.599   8.273  0.3674  0.0658  0.6426
 5866SOL    HW129231   3.007   4.668   8.334  0.5464  1.3438 -0.8645
 5866SOL    HW229232   3.070   4.562   8.260  0.6827  1.6114 -1.5740
 5867SOL     OW29233   2.769   3.140  17.243  0.4323 -0.3504  0.0471
 5867SOL    HW129234   2.740   3.126  17.153 -0.1709 -0.5792  0.2798
 5867SOL    HW229235   2.714   3.217  17.258 -2.6240 -2.8410  1.4912
 5868SOL     OW29236   0.376   0.022   7.130  0.0665 -0.2198  0.2390
 5868SOL    HW129237   0.390   4.708   7.209 -0.7355  0.6670  0.9750
 5868SOL    HW229238   0.296   4.723   7.095  2.1358 -2.8086 -1.7358
 5869SOL     OW29239   3.020   3.709   3.651 -0.3300  0.2084  0.3990
 5869SOL    HW129240   2.991   3.629   3.607 -0.2561 -1.1432  2.8161
 5869SOL    HW229241   2.956   3.774   3.621 -1.0320 -1.4855 -1.8414
 5870SOL     OW29242   0.148   3.743  11.007  0.8050 -0.6751  0.4878
 5870SOL    HW129243   0.143   3.660  11.053 -1.4653 -1.1889 -0.6771
 5870SOL    HW229244   0.232   3.752  10.962  2.6397 -0.9825  3.8524
 5871SOL     OW29245   4.672   3.390   7.515 -0.5610  0.1033  0.4681
 5871SOL    HW129246   4.733   3.457   7.547  1.0280 -2.0777  1.9981
 5871SOL    HW229247   4.611   3.387   7.588  0.5540  0.6119  1.4214
 5872SOL     OW29248   3.289   3.270   4.492 -0.0965  0.6637 -0.3200
 5872SOL    HW129249   3.347   3.273   4.416 -1.5288 -1.2572 -1.4875
 5872SOL    HW229250   3.222   3.331   4.464 -0.5734 -0.6387 -2.0207
 5873SOL     OW29251   1.463   4.423   8.303  0.0275 -0.0282  0.0480
 5873SOL    HW129252   1.511   4.342   8.284 -0.2143  0.4056 -2.5288
 5873SOL    HW229253   1.500   4.470   8.228 -1.1627  1.3207  0.3119
 5874SOL     OW29254   2.965   1.985   1.547 -0.3477  0.1008  1.0641
 5874SOL    HW129255   2.902   2.020   1.484 -1.8452 -2.4804  1.1237
 5874SOL    HW229256   3.040   2.045   1.544  1.1202 -1.7639  0.1530
 5875SOL     OW29257   0.749   1.836  15.760 -0.1353 -0.5587  0.1936
 5875SOL    HW129258   0.779   1.921  15.728 -2.3642  0.3251  0.4545
 5875SOL    HW229259   0.780   1.826  15.850  3.1381 -2.3226 -1.1412
 5876SOL     OW29260   2.798   3.589   5.985  0.1206 -0.0823 -0.2548
 5876SOL    HW129261   2.794   3.505   5.939 -0.4641 -0.5758  0.6821
 5876SOL    HW229262   2.890   3.603   6.007  0.1371 -1.6144  0.6165
 5877SOL     OW29263   2.867   4.080   4.933  0.8410 -0.1642 -0.0339
 5877SOL    HW129264   2.937   4.103   4.872  0.1789  1.5685 -0.1429
 5877SOL    HW229265   2.871   3.986   4.917 -1.0808 -0.7749  3.1146
 5878SOL     OW29266   3.156   2.875   7.234 -0.3228 -0.5949  0.0504
 5878SOL    HW129267   3.243   2.901   7.264 -2.7567  1.8657  4.9843
 5878SOL    HW229268   3.092   2.918   7.291 -1.1506 -0.6930 -0.8037
 5879SOL     OW29269   3.819   0.326   6.125 -0.7326 -0.0150  0.2370
 5879SOL    HW129270   3.775   0.250   6.162  1.2891  0.0487  2.7876
 5879SOL    HW229271   3.746   0.388   6.118 -1.5342 -0.9744  0.1606
 5880SOL     OW29272   2.215   1.613   6.979 -0.3263  0.0438  0.4586
 5880SOL    HW129273   2.157   1.597   7.054 -0.7174 -0.1354  0.1190
 5880SOL    HW229274   2.201   1.535   6.925  0.1790  0.3023 -0.0425
 5881SOL     OW29275   1.034   3.095   8.707  0.3015 -0.3171 -0.5466
 5881SOL    HW129276   1.064   3.016   8.662  0.6899  0.2660 -1.2864
 5881SOL    HW229277   1.043   3.145   8.626  0.4985 -0.9400 -0.9184
 5882SOL     OW29278   2.232   1.481   0.043 -0.6420 -0.0673 -0.7006
 5882SOL    HW129279   2.186   1.402   0.016  1.0299 -0.5922 -2.0038
 5882SOL    HW229280   2.201   1.497   0.132  4.7395 -0.3589  1.2429
 5883SOL     OW29281   2.320   4.444   7.897 -0.1177  0.1303 -0.0215
 5883SOL    HW129282   2.337   4.378   7.830 -3.1795  1.2358 -1.9118
 5883SOL    HW229283   2.410   4.473   7.909 -0.2409 -0.3744  2.1715
 5884SOL     OW29284   2.286   1.002  12.714  0.1024  0.4269 -0.9977
 5884SOL    HW129285   2.321   0.916  12.691 -1.3829 -1.0247  2.1226
 5884SOL    HW229286   2.207   1.006  12.660 -0.2201  0.8109 -0.4925
 5885SOL     OW29287   1.388   4.393   2.199  0.1659  0.1514  0.4152
 5885SOL    HW129288   1.415   4.477   2.236 -0.2823 -0.0579  1.2386
 5885SOL    HW229289   1.441   4.380   2.121 -2.3598  0.9568 -1.4456
 5886SOL     OW29290   2.883   1.204   3.896  0.0820  0.3398 -0.3394
 5886SOL    HW129291   2.959   1.234   3.846 -0.7573  1.8990 -0.6835
 5886SOL    HW229292   2.825   1.277   3.877 -0.9035 -0.3566 -0.0038
 5887SOL     OW29293   1.393   0.435  13.008 -0.0017 -0.2376  0.1612
 5887SOL    HW129294   1.350   0.389  13.080 -0.3682 -1.3542 -0.7910
 5887SOL    HW229295   1.339   0.417  12.932 -2.2650  1.5113  1.3562
 5888SOL     OW29296   1.753   0.911   0.498  0.2242 -0.0903 -0.0622
 5888SOL    HW129297   1.727   0.933   0.587 -0.2070  1.1888 -0.5122
 5888SOL    HW229298   1.721   0.986   0.448 -2.5832  0.9001  3.2280
 5889SOL     OW29299   4.225   2.026   3.183 -0.7284  0.1953 -0.7271
 5889SOL    HW129300   4.213   1.950   3.240 -1.2964 -0.4139 -1.6725
 5889SOL    HW229301   4.138   2.033   3.144 -0.4997  2.0878 -0.8984
 5890SOL     OW29302   2.862   3.995   9.022  0.3772 -0.5567 -0.0033
 5890SOL    HW129303   2.936   3.947   9.060  0.9345  0.1248 -0.2303
 5890SOL    HW229304   2.860   3.970   8.929 -0.1147  0.8237 -0.3570
 5891SOL     OW29305   0.058   2.985   2.485  0.4065  0.4898  0.0985
 5891SOL    HW129306   0.014   3.052   2.431  0.1238  0.6857  0.5717
 5891SOL    HW229307   0.145   2.980   2.445  0.1906  0.5709 -0.3891
 5892SOL     OW29308   3.638   3.645   5.426 -0.4376  0.5818  0.3698
 5892SOL    HW129309   3.732   3.657   5.431 -0.6971  2.5366  0.5639
 5892SOL    HW229310   3.608   3.727   5.385 -1.4555 -0.7942 -1.6748
 5893SOL     OW29311   1.758   2.340   9.529  0.5980  0.6857 -0.7009
 5893SOL    HW129312   1.806   2.309   9.606 -0.0616  0.9890 -0.1641
 5893SOL    HW229313   1.709   2.415   9.564  1.8594  1.8209 -1.3810
 5894SOL     OW29314   1.327   1.132   7.190 -0.1471 -0.1575  0.1593
 5894SOL    HW129315   1.416   1.118   7.221 -0.6306 -1.2957  1.0592
 5894SOL    HW229316   1.275   1.134   7.271 -1.4946 -2.0937 -0.6711
 5895SOL     OW29317   2.245   2.975   3.624 -0.0380  0.5495 -0.3013
 5895SOL    HW129318   2.325   2.969   3.676 -0.0466  0.0201 -0.3528
 5895SOL    HW229319   2.280   2.998   3.538 -0.5450  4.5065  0.5414
 5896SOL     OW29320   3.624   3.776  15.641  0.7229 -0.3060  0.2138
 5896SOL    HW129321   3.556   3.740  15.584  1.7141  0.0750 -1.2306
 5896SOL    HW229322   3.563   3.813  15.704  0.8168  1.3369 -0.6477
 5897SOL     OW29323   4.676   1.605  12.279  0.1097 -0.4530  0.6270
 5897SOL    HW129324   4.731   1.683  12.283  0.3250 -0.5558 -0.4869
 5897SOL    HW229325   4.601   1.637  12.231 -1.5546 -0.6096  3.0948
 5898SOL     OW29326   4.556   2.675   0.618  0.3321  0.5218 -0.3310
 5898SOL    HW129327   4.602   2.744   0.569  1.6753  0.1421  0.4143
 5898SOL    HW229328   4.478   2.656   0.565  1.1200 -2.3990 -0.3982
 5899SOL     OW29329   4.052   4.144  10.808  0.0693  0.2703 -0.6490
 5899SOL    HW129330   4.064   4.050  10.810  2.2846  0.5685  0.3625
 5899SOL    HW229331   4.014   4.163  10.894  1.1635  1.6816 -0.4863
 5900SOL     OW29332   2.281   0.208   2.703 -0.5280 -0.0386 -0.1348
 5900SOL    HW129333   2.207   0.262   2.732 -0.0442  1.0100 -0.8358
 5900SOL    HW229334   2.303   0.157   2.781 -0.6424 -1.0369 -0.7522
 5901SOL     OW29335   0.745   4.320   6.999 -0.2343 -0.2295 -0.2818
 5901SOL    HW129336   0.703   4.240   7.031 -1.0691  1.0860  1.8925
 5901SOL    HW229337   0.678   4.388   6.997 -2.2918 -2.2292  1.0557
 5902SOL     OW29338   0.085   0.582   7.083  0.2272  0.6477 -0.2312
 5902SOL    HW129339   0.121   0.521   7.148  3.0129  3.2452  0.6473
 5902SOL    HW229340   0.022   0.632   7.134 -0.0503  0.0229  0.0366
 5903SOL     OW29341   3.431   1.370   0.655  0.0216  0.2278  0.0514
 5903SOL    HW129342   3.495   1.327   0.598 -0.3589  0.8972 -0.8791
 5903SOL    HW229343   3.386   1.430   0.596 -0.1742  1.4110  1.4021
 5904SOL     OW29344   2.848   1.002   3.636  0.1515  0.3645  0.0514
 5904SOL    HW129345   2.768   1.002   3.689  0.8457 -0.0858  1.1013
 5904SOL    HW229346   2.846   1.088   3.595  2.4840  1.0981  1.4588
 5905SOL     OW29347   2.450   0.217  13.755 -0.0275  0.0298 -0.0368
 5905SOL    HW129348   2.518   0.167  13.800 -2.7364 -3.7994 -0.1679
 5905SOL    HW229349   2.485   0.216  13.666  0.7243 -2.9556  0.2752
 5906SOL     OW29350   0.517   4.081   8.427  0.5836 -0.6154 -0.3823
 5906SOL    HW129351   0.495   3.988   8.440 -0.4030 -0.2732  0.3216
 5906SOL    HW229352   0.442   4.126   8.464  0.2866 -2.7846  1.6729
 5907SOL     OW29353   3.830   3.784  10.776  0.1150  0.3287  0.1320
 5907SOL    HW129354   3.833   3.704  10.723 -3.5201 -0.0552  0.5218
 5907SOL    HW229355   3.762   3.826  10.723  1.4181 -0.3136 -2.0357
 5908SOL     OW29356   2.992   2.377   0.915 -0.0215 -0.0728 -0.0022
 5908SOL    HW129357   3.047   2.454   0.905 -2.9042  1.8738 -0.6794
 5908SOL    HW229358   2.948   2.400   0.997  1.4683  2.2533  0.1178
 5909SOL     OW29359   1.932   1.395   4.567 -0.5629  0.3873 -0.2557
 5909SOL    HW129360   2.002   1.433   4.514  0.6602 -1.0331  0.3441
 5909SOL    HW229361   1.920   1.471   4.623  2.0207  2.0640 -1.9792
 5910SOL     OW29362   0.903   2.250  11.309  0.4361 -0.3634  0.3184
 5910SOL    HW129363   0.880   2.173  11.257  1.9257 -0.9800  0.5751
 5910SOL    HW229364   0.836   2.246  11.377 -1.8325  0.7302 -1.8592
 5911SOL     OW29365   3.424   3.102   2.367 -0.4703 -0.4341  0.3295
 5911SOL    HW129366   3.518   3.122   2.378 -0.3245 -1.0489  0.1770
 5911SOL    HW229367   3.387   3.138   2.447 -1.3877  0.5927 -0.5580
 5912SOL     OW29368   4.355   3.476   3.363  0.3471 -0.1056 -0.2989
 5912SOL    HW129369   4.421   3.453   3.428  0.0407  0.3951  0.1805
 5912SOL    HW229370   4.306   3.551   3.396  0.6513  0.2922 -0.7560
 5913SOL     OW29371   1.214   4.371   8.220 -0.6234 -0.0626  0.3819
 5913SOL    HW129372   1.241   4.370   8.128 -0.6803  1.1133  0.3581
 5913SOL    HW229373   1.302   4.373   8.258 -0.5267 -1.1509  0.2357
 5914SOL     OW29374   0.408   3.670   3.766  0.2634 -0.5236 -0.5298
 5914SOL    HW129375   0.364   3.585   3.770 -0.2218 -0.2282  0.2069
 5914SOL    HW229376   0.437   3.680   3.856  3.3853 -1.6753 -1.3872
 5915SOL     OW29377   3.112   3.360   8.632 -0.6220 -0.0837 -0.3656
 5915SOL    HW129378   3.032   3.412   8.628  0.7290  1.8946 -2.0028
 5915SOL    HW229379   3.097   3.297   8.702  0.6234  0.5024  0.4446
 5916SOL     OW29380   0.223   3.715   4.561 -0.3257 -0.2520  0.4092
 5916SOL    HW129381   0.274   3.659   4.502 -1.4878  1.2899 -2.0551
 5916SOL    HW229382   0.241   3.802   4.527 -1.5135 -0.3062 -0.3750
 5917SOL     OW29383   2.387   0.595   7.916  0.0792 -0.5573  0.5424
 5917SOL    HW129384   2.351   0.533   7.980  0.1641 -0.8257  0.3314
 5917SOL    HW229385   2.318   0.660   7.903 -1.2220 -1.8456  0.9698
 5918SOL     OW29386   1.568   0.500   6.061 -0.1404 -0.3457 -0.3527
 5918SOL    HW129387   1.516   0.420   6.065 -1.8074  0.7497  0.1943
 5918SOL    HW229388   1.523   0.551   6.129 -1.8815  0.2083 -1.9194
 5919SOL     OW29389   0.900   3.410   0.510  0.6240  0.1441  0.1976
 5919SOL    HW129390   0.815   3.433   0.474  0.6472 -0.2541 -0.1118
 5919SOL    HW229391   0.919   3.479   0.575 -0.9403  0.5142  0.2429
 5920SOL     OW29392   3.880   0.721  13.909 -0.5346  0.2259 -0.0751
 5920SOL    HW129393   3.788   0.720  13.934  0.1392  0.2623  2.4339
 5920SOL    HW229394   3.862   0.763  13.824 -0.3963 -0.8381 -0.6221
 5921SOL     OW29395   1.478   3.960  15.943  0.2935  0.0811 -0.5798
 5921SOL    HW129396   1.529   3.958  16.024  0.1129 -0.6926 -0.4863
 5921SOL    HW229397   1.427   4.040  15.953 -0.2839 -0.0105 -2.8500
 5922SOL     OW29398   4.327   1.527   8.404 -0.7391 -0.3866  0.3529
 5922SOL    HW129399   4.330   1.585   8.328 -0.1208 -0.5123  0.2833
 5922SOL    HW229400   4.389   1.460   8.376  1.5377  1.4747  0.8823
 5923SOL     OW29401   1.086   1.456   8.510  0.0583 -0.1131  0.4793
 5923SOL    HW129402   1.025   1.493   8.446 -0.1149 -0.5785  0.3770
 5923SOL    HW229403   1.153   1.524   8.514 -0.3240  0.3399 -0.7566
 5924SOL     OW29404   2.130   4.727   1.950 -0.3302  0.1238  0.2489
 5924SOL    HW129405   2.162   0.003   2.039  1.5170  0.8191 -0.5220
 5924SOL    HW229406   2.095   4.639   1.961 -1.9863  1.0028  1.9190
 5925SOL     OW29407   2.704   3.845   4.644  0.0989  0.2713 -0.2028
 5925SOL    HW129408   2.716   3.881   4.556  0.5265 -0.3032 -0.3762
 5925SOL    HW229409   2.732   3.754   4.637 -1.4087 -0.1954  0.0331
 5926SOL     OW29410   1.722   1.425   2.928 -0.3752  0.1142  0.1845
 5926SOL    HW129411   1.726   1.475   3.009 -1.5459  1.5394 -0.6512
 5926SOL    HW229412   1.789   1.359   2.943 -0.3868  0.1328  0.3209
 5927SOL     OW29413   4.461   2.596  10.571  0.2487  0.0577  0.3236
 5927SOL    HW129414   4.435   2.604  10.663  1.1784 -3.1648  0.8495
 5927SOL    HW229415   4.554   2.572  10.574  0.5108  0.9735 -0.1350
 5928SOL     OW29416   1.720   4.345   6.812  0.0089 -0.2881  0.1299
 5928SOL    HW129417   1.675   4.392   6.883  0.9139  1.7437 -0.6193
 5928SOL    HW229418   1.677   4.261   6.823  0.4923 -0.5077  0.3686
 5929SOL     OW29419   4.548   4.021   3.959 -0.1822  0.0843  0.0973
 5929SOL    HW129420   4.556   3.928   3.938 -1.5869 -0.6450  2.7379
 5929SOL    HW229421   4.640   4.048   3.953  0.1700 -0.6111  2.4067
 5930SOL     OW29422   0.982   1.293   5.540  0.1145  0.1780 -0.2804
 5930SOL    HW129423   0.927   1.255   5.609 -0.5129  0.9904 -0.3277
 5930SOL    HW229424   1.065   1.313   5.582  1.5124 -1.0078 -2.4919
 5931SOL     OW29425   1.122   0.281   5.943 -0.9352  0.7943  0.2688
 5931SOL    HW129426   1.150   0.314   5.857  0.4372 -1.9103 -0.3241
 5931SOL    HW229427   1.093   0.366   5.976  0.3011  0.7381  1.4657
 5932SOL     OW29428   3.982   2.862   3.525  0.3663 -0.2864  0.1853
 5932SOL    HW129429   4.001   2.929   3.459  0.8721  0.1364  0.7651
 5932SOL    HW229430   3.982   2.927   3.595  1.8667 -0.4596  0.3340
 5933SOL     OW29431   2.587   2.857   9.547 -0.3380 -0.3445  0.3768
 5933SOL    HW129432   2.523   2.793   9.514 -1.3580  0.4905  0.7412
 5933SOL    HW229433   2.585   2.848   9.642 -0.9647  0.3675  0.4264
 5934SOL     OW29434   0.840   1.445   9.371 -0.0601  0.4410 -0.5621
 5934SOL    HW129435   0.904   1.513   9.393 -0.3034  0.0111  1.4693
 5934SOL    HW229436   0.858   1.430   9.278  2.2655 -0.9068  0.1115
 5935SOL     OW29437   2.546   2.089   7.220 -0.1839  0.3541 -0.5123
 5935SOL    HW129438   2.602   2.115   7.146 -0.8774  0.6702 -0.9221
 5935SOL    HW229439   2.470   2.140   7.192 -0.5663  0.4464  0.7093
 5936SOL     OW29440   1.130   1.142   5.164  0.3536  0.1293 -0.2225
 5936SOL    HW129441   1.169   1.222   5.126 -1.6566  0.3266 -1.8316
 5936SOL    HW229442   1.162   1.073   5.106  0.6670 -0.2624  0.4130
 5937SOL     OW29443   2.105   4.433   8.070  0.1192  0.5494  0.5823
 5937SOL    HW129444   2.124   4.389   8.153  3.5876  0.6281 -0.1522
 5937SOL    HW229445   2.181   4.414   8.015  0.2152 -0.5491  1.0945
 5938SOL     OW29446   0.691   4.449   5.369  0.0561  0.0878  0.0354
 5938SOL    HW129447   0.748   4.472   5.442  0.5236  0.6558 -0.4977
 5938SOL    HW229448   0.653   4.535   5.347  2.2378  1.3349  1.2183
 5939SOL     OW29449   3.720   4.223   3.093 -0.2900 -0.3856  0.2228
 5939SOL    HW129450   3.649   4.252   3.151  0.3804  1.2754  0.2324
 5939SOL    HW229451   3.779   4.298   3.094 -1.4489  0.5727 -1.5557
 5940SOL     OW29452   2.534   4.276   6.491 -0.6864  0.5226  0.0756
 5940SOL    HW129453   2.458   4.324   6.523 -1.1290  0.5711 -1.0503
 5940SOL    HW229454   2.574   4.250   6.574 -0.5448 -0.6480 -0.3525
 5941SOL     OW29455   1.831   1.844  12.805 -0.3380  0.0172  0.0064
 5941SOL    HW129456   1.915   1.890  12.804 -0.2698 -0.0301  2.1111
 5941SOL    HW229457   1.779   1.901  12.749  1.2506 -0.4183 -1.9221
 5942SOL     OW29458   0.664   0.687   6.651 -0.2783  0.3491  0.2275
 5942SOL    HW129459   0.656   0.778   6.622  1.7343 -0.1536 -1.8168
 5942SOL    HW229460   0.572   0.673   6.673 -0.1080 -0.5334  0.3743
 5943SOL     OW29461   4.613   3.999   8.462  0.0530  0.5320  0.2791
 5943SOL    HW129462   4.574   3.937   8.400  2.8236 -1.1268  0.1867
 5943SOL    HW229463   4.539   4.035   8.510  0.4328  1.1646  0.3840
 5944SOL     OW29464   3.949   3.592   4.363 -0.2872 -0.4769  0.1609
 5944SOL    HW129465   4.028   3.625   4.405  2.5640 -1.0132 -4.7450
 5944SOL    HW229466   3.885   3.662   4.377 -0.3486 -0.0016 -2.3990
 5945SOL     OW29467   2.109   0.245  10.988 -0.2593  0.5763 -0.0329
 5945SOL    HW129468   2.152   0.320  11.029 -3.1317  1.3795  1.5183
 5945SOL    HW229469   2.067   0.211  11.067  0.7722 -0.4588  0.0706
 5946SOL     OW29470   2.746   4.608   9.195  0.3512 -0.1201  0.0378
 5946SOL    HW129471   2.739   4.671   9.267  2.7385 -1.5647  1.5354
 5946SOL    HW229472   2.822   4.563   9.232  0.7190  1.4088  1.1764
 5947SOL     OW29473   3.196   1.399   5.039 -0.1584 -0.1195  0.0246
 5947SOL    HW129474   3.111   1.390   5.081 -0.9738  0.9418 -1.4073
 5947SOL    HW229475   3.214   1.308   5.016  0.4725 -0.5877  2.3410
 5948SOL     OW29476   1.844   4.732   1.348  0.3152 -0.0752 -0.3875
 5948SOL    HW129477   1.889   4.663   1.397 -0.4361  2.3344  3.6365
 5948SOL    HW229478   1.859   0.063   1.412  1.7646  0.0554 -0.8763
 5949SOL     OW29479   0.711   0.094   7.376  0.0530  0.3832 -0.0664
 5949SOL    HW129480   0.788   0.126   7.422  1.1009 -0.8188 -0.9773
 5949SOL    HW229481   0.640   0.103   7.440 -1.7911 -0.8435 -1.9207
 5950SOL     OW29482   1.110   4.228  11.659 -0.0599  0.4231  0.7461
 5950SOL    HW129483   1.030   4.223  11.606  0.6308  0.3260 -0.2936
 5950SOL    HW229484   1.071   4.193  11.739  1.4142 -0.1005  1.2253
 5951SOL     OW29485   1.878   3.605   4.832  0.1723 -0.2517  0.2145
 5951SOL    HW129486   1.935   3.679   4.815  0.5104 -0.4568  0.4455
 5951SOL    HW229487   1.924   3.547   4.893  3.0625 -0.3898 -2.1284
 5952SOL     OW29488   0.594   4.647   6.263  0.5122 -0.2385 -0.1027
 5952SOL    HW129489   0.662   4.640   6.196  0.6164  1.5866 -0.2099
 5952SOL    HW229490   0.531   4.705   6.221 -0.1321 -0.7871  0.1144
 5953SOL     OW29491   1.511   3.746  12.029 -1.0178  0.5013 -0.0301
 5953SOL    HW129492   1.417   3.766  12.034 -0.9119  1.2861 -1.2245
 5953SOL    HW229493   1.509   3.686  12.104 -2.4378  0.1812 -0.3152
 5954SOL     OW29494   1.724   4.119   6.038  0.1527 -0.6505 -0.1455
 5954SOL    HW129495   1.816   4.125   6.012 -0.1433 -0.3031 -1.0778
 5954SOL    HW229496   1.697   4.050   5.978 -0.3572 -0.4346 -0.1589
 5955SOL     OW29497   2.018   3.821   8.070  0.5313  0.3976 -0.2307
 5955SOL    HW129498   2.097   3.874   8.075  0.3731  0.5761  0.4274
 5955SOL    HW229499   2.028   3.770   8.151  0.3931  0.2351 -0.3145
 5956SOL     OW29500   3.000   2.451   7.170 -0.3718  0.3348  0.2131
 5956SOL    HW129501   3.080   2.492   7.136 -0.7608  2.6923  2.0623
 5956SOL    HW229502   2.981   2.527   7.226 -5.2068 -2.0724  1.8737
 5957SOL     OW29503   0.215   4.602   4.108 -0.0252  0.0748  0.6160
 5957SOL    HW129504   0.207   4.651   4.026 -0.4175  2.5341  2.1087
 5957SOL    HW229505   0.263   4.665   4.162  2.3268 -0.2487 -1.1121
 5958SOL     OW29506   3.661   3.994   6.655  0.0157 -0.1932  0.5298
 5958SOL    HW129507   3.721   3.986   6.729 -0.4210  0.9610  1.0101
 5958SOL    HW229508   3.663   4.089   6.645  0.8670 -0.2513  0.0972
 5959SOL     OW29509   0.911   1.527   1.125 -0.2533  0.1457 -0.1498
 5959SOL    HW129510   0.845   1.484   1.071 -0.1238  0.5198 -0.5992
 5959SOL    HW229511   0.850   1.573   1.182  0.4473  0.4222  0.3760
 5960SOL     OW29512   1.668   2.979   7.251 -0.0636 -0.3342 -0.1883
 5960SOL    HW129513   1.667   2.890   7.214  1.1512  0.3464 -1.8664
 5960SOL    HW229514   1.576   3.007   7.255 -0.4489 -1.5113 -0.7617
 5961SOL     OW29515   3.805   0.819  11.145  0.4886  0.1868  0.5001
 5961SOL    HW129516   3.892   0.858  11.140  0.5807  0.2341  2.7323
 5961SOL    HW229517   3.785   0.795  11.054 -1.6615  0.7702  0.8271
 5962SOL     OW29518   1.833   0.041   6.445  0.3363  0.5315  0.0667
 5962SOL    HW129519   1.777   0.051   6.522  0.9775  0.6002  0.5266
 5962SOL    HW229520   1.847   4.686   6.456 -0.4528  0.5374  1.0090
 5963SOL     OW29521   3.408   1.419   1.423  0.5065 -0.7000  0.0509
 5963SOL    HW129522   3.341   1.481   1.394  0.4285 -0.9149 -0.2224
 5963SOL    HW229523   3.406   1.361   1.347 -1.0787 -0.5559 -0.0301
 5964SOL     OW29524   4.142   4.455   2.363 -0.6995  0.6687  0.1533
 5964SOL    HW129525   4.175   4.484   2.277  0.1819 -0.5888  0.0729
 5964SOL    HW229526   4.191   4.377   2.386 -2.4151 -0.5502 -0.3694
 5965SOL     OW29527   0.450   2.461   5.484  0.2424  0.3312  0.3368
 5965SOL    HW129528   0.522   2.461   5.421 -1.4664 -1.3117 -1.6138
 5965SOL    HW229529   0.485   2.403   5.551 -1.0658 -1.4466 -0.5381
 5966SOL     OW29530   2.105   4.524  11.765  0.0333 -0.1352  0.0009
 5966SOL    HW129531   2.074   4.538  11.855 -0.2641  0.5400 -0.2014
 5966SOL    HW229532   2.035   4.570  11.718  0.5962 -0.9643 -1.6379
 5967SOL     OW29533   0.214   0.694   2.837  0.4600 -0.2691  0.6658
 5967SOL    HW129534   0.270   0.643   2.895  1.5320 -0.6453 -0.7232
 5967SOL    HW229535   0.134   0.695   2.890 -0.0318  1.3967 -0.1096
 5968SOL     OW29536   1.903   3.653  15.474  0.2509  0.2007  0.4279
 5968SOL    HW129537   1.949   3.680  15.394  0.3144 -1.4284 -0.0918
 5968SOL    HW229538   1.938   3.712  15.541 -0.2147  0.9938 -0.0261
 5969SOL     OW29539   1.543   0.319   8.464 -0.6254 -0.7449 -0.5230
 5969SOL    HW129540   1.594   0.239   8.473 -0.1397 -0.4766 -0.9043
 5969SOL    HW229541   1.581   0.379   8.529  0.2161  1.1535 -2.7474
 5970SOL     OW29542   4.165   1.332   6.176 -0.0048  0.4808 -0.6656
 5970SOL    HW129543   4.127   1.416   6.148  1.1608  1.5797  1.0440
 5970SOL    HW229544   4.218   1.340   6.255 -1.1800  2.1221 -0.0290
 5971SOL     OW29545   2.429   4.564   6.296  0.3104 -0.1107 -0.0064
 5971SOL    HW129546   2.378   4.571   6.215 -0.5322 -1.2513  0.4376
 5971SOL    HW229547   2.370   4.597   6.364 -0.6278 -1.6908 -0.0627
 5972SOL     OW29548   1.266   2.378   4.952 -0.2468 -0.3014  0.5214
 5972SOL    HW129549   1.180   2.419   4.958 -0.4773 -0.7053  0.0199
 5972SOL    HW229550   1.317   2.441   5.003  0.5695  1.9018 -2.9417
 5973SOL     OW29551   1.407   2.675  16.694  0.7965 -0.3363 -0.1189
 5973SOL    HW129552   1.388   2.735  16.766 -1.6573 -0.5661 -0.5738
 5973SOL    HW229553   1.348   2.709  16.627  0.4596  2.5320  1.6112
 5974SOL     OW29554   2.984   1.200  11.982 -0.2156 -0.3882  0.0941
 5974SOL    HW129555   3.004   1.238  11.896 -2.8872 -2.9963 -1.6578
 5974SOL    HW229556   2.889   1.191  11.976 -0.1849 -0.9733  0.5993
 5975SOL     OW29557   3.136   4.435   2.664 -0.2761 -0.3983  0.1728
 5975SOL    HW129558   3.128   4.347   2.699 -3.1608  0.4235  1.5728
 5975SOL    HW229559   3.059   4.437   2.607  0.4833  0.8019 -0.8191
 5976SOL     OW29560   3.664   2.473   8.008 -0.0153 -0.1343 -0.2660
 5976SOL    HW129561   3.696   2.545   7.952 -0.3573 -0.4076 -0.8114
 5976SOL    HW229562   3.584   2.455   7.959 -0.5690  0.1191  0.5475
 5977SOL     OW29563   3.535   1.430   3.699 -0.1821 -0.5163  0.2297
 5977SOL    HW129564   3.518   1.479   3.618  0.5041 -1.2502 -0.3486
 5977SOL    HW229565   3.556   1.345   3.661  2.3151  0.1306  0.1320
 5978SOL     OW29566   2.058   1.577  13.780 -0.0142  0.3755  0.5875
 5978SOL    HW129567   2.127   1.535  13.729  0.6334 -0.5601  2.2679
 5978SOL    HW229568   2.089   1.549  13.866  3.1068 -2.6039 -1.5301
 5979SOL     OW29569   2.504   3.018   4.829 -0.4418 -0.7039  0.0262
 5979SOL    HW129570   2.551   3.072   4.892 -0.3129 -0.1854 -0.5222
 5979SOL    HW229571   2.467   2.952   4.888 -0.4955 -1.3320 -0.7060
 5980SOL     OW29572   0.922   3.213   6.908 -0.0180  0.0057  0.2802
 5980SOL    HW129573   0.844   3.266   6.925  0.8300  1.7101 -1.1112
 5980SOL    HW229574   0.992   3.269   6.942  0.6518  0.6728 -2.1882
 5981SOL     OW29575   2.153   4.706   2.885  0.3164 -0.0974 -0.0357
 5981SOL    HW129576   2.143   4.663   2.970 -0.8224 -0.0872 -0.1612
 5981SOL    HW229577   2.246   4.723   2.899  0.4259  0.1262 -1.0228
 5982SOL     OW29578   0.643   2.645   6.345 -0.4685 -0.9327 -0.1666
 5982SOL    HW129579   0.565   2.685   6.307 -0.2990 -1.2057 -0.7982
 5982SOL    HW229580   0.611   2.600   6.423  1.1426  1.4686  1.8946
 5983SOL     OW29581   0.550   0.283   4.905  0.3247 -0.3328 -0.0079
 5983SOL    HW129582   0.512   0.303   4.820  1.7814  3.7307  0.2908
 5983SOL    HW229583   0.473   0.300   4.959  1.1462  0.7315  0.8252
 5984SOL     OW29584   3.203   0.413   6.169  0.2088 -0.3688 -0.4776
 5984SOL    HW129585   3.261   0.401   6.244  0.8657 -2.0717 -1.2513
 5984SOL    HW229586   3.119   0.385   6.204 -1.3127  2.2026 -2.0213
 5985SOL     OW29587   0.758   4.071   4.006  0.2419  0.3713 -0.0331
 5985SOL    HW129588   0.713   4.030   4.079  0.0559  0.0258 -0.3387
 5985SOL    HW229589   0.817   3.999   3.987  1.6715  2.1405 -2.2493
 5986SOL     OW29590   1.593   0.374   5.315 -0.3700  0.0392  0.3092
 5986SOL    HW129591   1.568   0.307   5.379 -2.4705  1.9752  1.5428
 5986SOL    HW229592   1.685   0.347   5.317  0.0630  1.4265 -0.9786
 5987SOL     OW29593   1.279   2.407   7.629 -0.0131  0.4426  0.2044
 5987SOL    HW129594   1.333   2.352   7.572  0.3601  1.0051  0.0196
 5987SOL    HW229595   1.241   2.437   7.546  2.2351  1.4565 -0.4642
 5988SOL     OW29596   0.075   0.176  11.517 -0.0531 -0.0530  0.3239
 5988SOL    HW129597   0.145   0.115  11.538  0.3301  1.3751  3.2120
 5988SOL    HW229598   0.101   0.248  11.574  1.4660  1.3803 -2.2215
 5989SOL     OW29599   3.980   0.038   6.722 -0.1339  0.4070  0.3526
 5989SOL    HW129600   3.911   4.715   6.746 -1.0028  1.5016  0.6457
 5989SOL    HW229601   3.999   0.022   6.630 -0.7053 -2.8119  0.8023
 5990SOL     OW29602   3.136   0.771  15.694  0.4408  0.0891  0.1084
 5990SOL    HW129603   3.113   0.769  15.601 -0.9594  1.7462  0.4311
 5990SOL    HW229604   3.065   0.720  15.733  1.5126 -0.7855  0.9533
 5991SOL     OW29605   1.395   2.671   2.415 -0.1897  0.1303 -0.1067
 5991SOL    HW129606   1.475   2.674   2.362  0.8616  1.7720  1.5704
 5991SOL    HW229607   1.395   2.759   2.454 -1.1353  0.5478 -1.0452
 5992SOL     OW29608   3.619   0.835   4.550  0.1984 -0.3180 -0.5814
 5992SOL    HW129609   3.611   0.787   4.632  3.2308 -0.2871 -0.2515
 5992SOL    HW229610   3.558   0.909   4.559  1.9106  1.0274 -0.0506
 5993SOL     OW29611   1.333   0.019  13.976  0.4929 -0.3609  0.2282
 5993SOL    HW129612   1.242   0.036  14.002  1.0994  2.9973  0.1746
 5993SOL    HW229613   1.381   0.064  14.045  0.2515 -0.8909  0.7434
 5994SOL     OW29614   0.408   1.104  15.567 -0.1005 -0.1084  0.0011
 5994SOL    HW129615   0.361   1.021  15.566  1.0650 -0.7646 -0.1707
 5994SOL    HW229616   0.351   1.155  15.510  0.8265 -2.7200 -3.2612
 5995SOL     OW29617   0.087   0.810   7.953  0.8006 -0.4228  0.0150
 5995SOL    HW129618   0.114   0.773   7.869 -0.1263  0.3544 -0.6281
 5995SOL    HW229619   0.149   0.777   8.018  1.0136 -1.1584 -0.5588
 5996SOL     OW29620   4.721   0.285   3.719  0.8389  0.4159  0.2547
 5996SOL    HW129621   4.630   0.258   3.705  1.3891 -0.9118 -0.8520
 5996SOL    HW229622   4.721   0.372   3.680  0.1684  1.1800  1.9788
 5997SOL     OW29623   0.646   4.205   9.370  0.3172 -0.2004  0.1479
 5997SOL    HW129624   0.635   4.273   9.303  0.4637  0.5511  0.8758
 5997SOL    HW229625   0.630   4.123   9.324  3.1169 -0.7018  0.0678
 5998SOL     OW29626   3.762   1.664  15.911 -0.0639 -0.3064  0.2559
 5998SOL    HW129627   3.730   1.750  15.884  2.6638 -0.2037 -2.6281
 5998SOL    HW229628   3.770   1.607  15.835 -0.8972 -0.9383  0.6388
 5999SOL     OW29629   0.274   2.824   4.430  0.1153 -0.3936  0.0797
 5999SOL    HW129630   0.240   2.863   4.349 -2.0365 -0.2543  1.0687
 5999SOL    HW229631   0.361   2.861   4.444  0.0109  0.2897 -1.0815
 6000SOL     OW29632   4.196   2.373  14.187  0.9373 -0.1038 -0.8840
 6000SOL    HW129633   4.191   2.368  14.091  0.1892  1.5870 -0.9325
 6000SOL    HW229634   4.279   2.333  14.214  0.1524 -1.3687 -0.3366
 6001SOL     OW29635   1.858   3.717   5.810 -0.5602 -0.0446  0.2558
 6001SOL    HW129636   1.932   3.740   5.753 -0.8035 -0.5014 -0.2455
 6001SOL    HW229637   1.887   3.751   5.895 -1.6103 -1.6539  1.2563
 6002SOL     OW29638   1.270   2.196  17.292 -0.0783  0.1790 -0.2275
 6002SOL    HW129639   1.345   2.251  17.315 -0.9360  0.3265  2.1971
 6002SOL    HW229640   1.299   2.163  17.206 -2.5396 -1.4597 -0.4199
 6003SOL     OW29641   0.744   0.203   6.064  0.4653  0.1407  0.3571
 6003SOL    HW129642   0.804   0.135   6.033 -1.1232  0.0938 -2.6499
 6003SOL    HW229643   0.810   0.251   6.113  2.8113 -3.1746  0.4810
 6004SOL     OW29644   2.994   2.675  15.183  0.3206  0.0196 -0.1489
 6004SOL    HW129645   2.955   2.749  15.231 -1.1642  0.2958 -1.7955
 6004SOL    HW229646   3.047   2.708  15.110  1.4566  1.2608  1.2250
 6005SOL     OW29647   1.291   1.881   2.371  0.2286  0.1623 -0.2771
 6005SOL    HW129648   1.323   1.930   2.447 -1.8820  0.5192  0.3968
 6005SOL    HW229649   1.209   1.846   2.407 -0.3277  1.6685 -0.0726
 6006SOL     OW29650   3.388   2.767   8.999  0.2426  0.1833 -0.6144
 6006SOL    HW129651   3.338   2.721   9.066 -2.0762  3.2612 -0.2782
 6006SOL    HW229652   3.381   2.706   8.926 -0.7174 -0.4400 -0.0048
 6007SOL     OW29653   0.404   2.253   7.650 -0.1376 -0.0334 -0.4180
 6007SOL    HW129654   0.321   2.239   7.606 -0.6365  0.5159  0.3508
 6007SOL    HW229655   0.421   2.336   7.607  2.7606 -0.1761  0.4557
 6008SOL     OW29656   2.675   3.854  15.932  0.3201  0.0351  0.2156
 6008SOL    HW129657   2.755   3.883  15.977  0.3236 -1.6732  1.3285
 6008SOL    HW229658   2.713   3.778  15.888 -2.1641 -1.2084  0.1811
 6009SOL     OW29659   3.099   4.628   9.861 -0.1461  0.0281  0.5590
 6009SOL    HW129660   3.107   4.655   9.770 -1.5854  1.4838  0.8703
 6009SOL    HW229661   3.192   4.619   9.883  0.2816  0.7610 -0.9731
 6010SOL     OW29662   1.929   4.340  17.615 -0.2388 -0.4252  0.2732
 6010SOL    HW129663   1.946   4.381  17.700  0.0887  1.7591 -0.8597
 6010SOL    HW229664   1.975   4.397  17.554 -0.1330  0.2473  0.9858
 6011SOL     OW29665   2.885   1.224   1.114 -0.2691  0.1655 -0.5082
 6011SOL    HW129666   2.908   1.276   1.191 -0.5389  1.5741 -1.3769
 6011SOL    HW229667   2.953   1.157   1.121  0.2402  0.6589 -0.7291
 6012SOL     OW29668   3.697   0.672   2.448  0.5998 -0.0694  0.1839
 6012SOL    HW129669   3.772   0.614   2.446  0.9664  0.4304 -0.4932
 6012SOL    HW229670   3.710   0.712   2.534  0.3186  0.5748 -0.0740
 6013SOL     OW29671   2.836   2.161   2.709  0.7417 -0.2955 -0.0595
 6013SOL    HW129672   2.923   2.200   2.705  0.8961 -0.7097 -0.6908
 6013SOL    HW229673   2.804   2.208   2.787 -0.8704  2.2112 -2.2284
 6014SOL     OW29674   2.129   0.652  14.700  0.0822  0.4632  0.0717
 6014SOL    HW129675   2.077   0.628  14.776 -1.0785 -0.2002 -0.9225
 6014SOL    HW229676   2.072   0.639  14.624  1.0302 -1.6270 -0.3165
 6015SOL     OW29677   0.844   0.126   9.364 -0.0414 -0.1608 -0.0873
 6015SOL    HW129678   0.856   0.040   9.323 -0.7587 -0.5905  0.5916
 6015SOL    HW229679   0.854   0.182   9.288  0.9818  3.1504  2.4855
 6016SOL     OW29680   4.698   2.360   3.036 -0.1492 -0.1709  0.1519
 6016SOL    HW129681   4.682   2.450   3.062  0.6746 -0.3265  1.2133
 6016SOL    HW229682   4.646   2.361   2.956  0.1215 -1.9544 -0.0565
 6017SOL     OW29683   3.123   4.465   3.699 -0.4402 -0.4723 -0.0994
 6017SOL    HW129684   3.181   4.539   3.721 -1.6673  0.5068 -0.1838
 6017SOL    HW229685   3.136   4.404   3.771  1.8256 -0.4304 -0.4698
 6018SOL     OW29686   0.468   4.099   3.589  0.4745 -0.2351  0.2178
 6018SOL    HW129687   0.517   4.053   3.657  1.4576 -0.0312 -0.3704
 6018SOL    HW229688   0.386   4.049   3.597 -0.5726  1.3541 -0.4999
 6019SOL     OW29689   1.673   2.298  11.772 -0.1833  0.1440 -0.0377
 6019SOL    HW129690   1.649   2.391  11.767 -2.6798 -0.5177 -0.4267
 6019SOL    HW229691   1.717   2.291  11.687 -0.6234  1.1695 -0.3602
 6020SOL     OW29692   2.882   2.995   2.783 -0.0368 -0.4320  0.0085
 6020SOL    HW129693   2.865   2.914   2.735 -0.0123 -0.3427 -0.1471
 6020SOL    HW229694   2.798   2.996   2.830  1.0098  0.6496  1.8325
 6021SOL     OW29695   3.087   2.304   7.400  0.1955  0.1997 -0.1292
 6021SOL    HW129696   3.059   2.345   7.318 -1.4435 -1.2320 -0.2959
 6021SOL    HW229697   3.011   2.303   7.458  0.4529 -1.0650  0.2066
 6022SOL     OW29698   1.140   1.962   1.767 -0.3966 -0.0320 -0.4081
 6022SOL    HW129699   1.224   1.959   1.722  0.2796  0.4559  0.8197
 6022SOL    HW229700   1.083   1.960   1.690 -0.9796  1.0982 -0.0026
 6023SOL     OW29701   3.592   3.816   3.776  0.2819  0.3830 -0.3312
 6023SOL    HW129702   3.500   3.796   3.792 -0.3045  0.6316 -3.3535
 6023SOL    HW229703   3.595   3.910   3.794 -3.5644  0.5099 -0.2996
 6024SOL     OW29704   2.875   3.108   2.217 -0.1597 -0.8455 -0.3932
 6024SOL    HW129705   2.876   3.158   2.298  0.7218 -1.1636 -0.2120
 6024SOL    HW229706   2.933   3.168   2.169  1.9869 -1.1911  1.7950
 6025SOL     OW29707   1.208   0.617   7.004 -0.1830 -0.0929 -0.5445
 6025SOL    HW129708   1.215   0.674   7.081  3.9081 -1.0168 -0.2111
 6025SOL    HW229709   1.117   0.589   7.010 -1.1389  3.3704  1.0970
 6026SOL     OW29710   1.317   3.297   3.267 -0.0590  0.8582 -0.4087
 6026SOL    HW129711   1.412   3.286   3.267 -0.3906 -1.9909 -0.5901
 6026SOL    HW229712   1.286   3.225   3.212 -0.5072  0.8020 -0.0903
 6027SOL     OW29713   4.183   0.190   8.754  0.0574  0.1411 -0.6989
 6027SOL    HW129714   4.188   0.285   8.754  0.6059  0.1294  1.6383
 6027SOL    HW229715   4.093   0.175   8.783  0.3950  0.1534  0.3730
 6028SOL     OW29716   2.351   1.534   4.231  0.6342  0.0679  0.1567
 6028SOL    HW129717   2.370   1.548   4.139 -1.5282  0.0732 -0.2925
 6028SOL    HW229718   2.439   1.511   4.262  0.7170 -2.6812 -2.2160
 6029SOL     OW29719   1.942   3.784  12.246 -0.1307  0.0984  0.2096
 6029SOL    HW129720   1.866   3.790  12.303 -0.3734  0.5482 -0.1615
 6029SOL    HW229721   1.915   3.857  12.190 -2.6293  0.2195  1.5936
 6030SOL     OW29722   0.943   3.608   2.505 -0.1531  0.7524  0.2439
 6030SOL    HW129723   0.949   3.644   2.593  2.3523 -0.7174  0.6685
 6030SOL    HW229724   1.031   3.630   2.474 -0.4078 -0.3715 -1.3179
 6031SOL     OW29725   0.102   4.622  17.190 -0.2984  0.7687  0.2262
 6031SOL    HW129726   0.031   4.685  17.176 -0.4078  0.3307 -1.1384
 6031SOL    HW229727   0.073   4.619  17.282  5.3131 -3.0673  1.8443
 6032SOL     OW29728   3.179   1.639   4.938  0.3418 -0.2988 -0.2859
 6032SOL    HW129729   3.154   1.580   4.867 -1.4946 -0.7131  0.6987
 6032SOL    HW229730   3.207   1.574   5.003 -2.6623 -1.3248  0.0128
 6033SOL     OW29731   1.891   1.719   9.665 -0.1534 -0.2733  0.2330
 6033SOL    HW129732   1.985   1.722   9.650 -0.1767 -1.8236 -0.2163
 6033SOL    HW229733   1.861   1.636   9.628 -0.9758  1.4778 -3.0459
 6034SOL     OW29734   1.385   0.004   4.908  0.1254 -0.1413  0.1734
 6034SOL    HW129735   1.423   4.698   4.832 -2.5832  0.3301 -1.4561
 6034SOL    HW229736   1.458   0.061   4.933  0.2044 -0.9087  1.6894
 6035SOL     OW29737   0.602   0.683   8.703 -0.5757  0.4754  0.0486
 6035SOL    HW129738   0.649   0.653   8.625  0.1794 -0.0337  0.6972
 6035SOL    HW229739   0.536   0.728   8.651 -1.5008 -0.3524  0.5213
 6036SOL     OW29740   0.092   2.260   1.436 -0.1980  0.0517  0.2186
 6036SOL    HW129741   0.171   2.284   1.483  2.9033 -2.0598 -3.9390
 6036SOL    HW229742   0.042   2.335   1.469  0.8630  0.1826  1.5042
 6037SOL     OW29743   4.297   0.009  16.755 -0.2350  0.2238 -0.2224
 6037SOL    HW129744   4.271   0.072  16.687  0.6451  1.0865  0.2463
 6037SOL    HW229745   4.315   4.675  16.695 -4.2930 -1.0740  0.1526
 6038SOL     OW29746   1.119   4.283   8.921  0.3182  0.2347 -0.6253
 6038SOL    HW129747   1.079   4.300   8.836 -0.6814 -1.4511 -0.5034
 6038SOL    HW229748   1.115   4.187   8.929 -2.8756  0.5230  1.0073
 6039SOL     OW29749   2.529   0.186   7.295 -0.0270  0.4509 -0.1863
 6039SOL    HW129750   2.503   0.269   7.335 -1.1792  0.2974 -0.6264
 6039SOL    HW229751   2.564   0.216   7.211 -0.2983  0.0080 -0.4567
 6040SOL     OW29752   2.689   0.177   2.600  0.2938  0.1355  0.0132
 6040SOL    HW129753   2.671   0.267   2.575 -1.1922 -0.2286 -0.2404
 6040SOL    HW229754   2.765   0.150   2.549  1.1432  1.9053  0.3680
 6041SOL     OW29755   3.610   2.912   8.366  0.7067  0.5361  0.6080
 6041SOL    HW129756   3.659   2.991   8.341 -1.7451  1.1565 -2.2191
 6041SOL    HW229757   3.520   2.944   8.360  0.6484 -0.2948 -2.5233
 6042SOL     OW29758   2.848   0.001   3.415 -0.4798 -0.2563 -0.9651
 6042SOL    HW129759   2.846   0.048   3.498  0.3687  2.1875 -2.2961
 6042SOL    HW229760   2.935   0.025   3.382 -0.1413 -1.1925 -0.7352
 6043SOL     OW29761   3.803   2.502   1.599 -0.0501  0.3433  0.4616
 6043SOL    HW129762   3.890   2.511   1.560 -0.8632  0.1744 -1.3704
 6043SOL    HW229763   3.748   2.491   1.522  1.5289  0.0422 -0.6237
 6044SOL     OW29764   1.184   2.934   2.322  0.2797  0.0565 -0.4756
 6044SOL    HW129765   1.181   2.964   2.412  2.6544  2.4353 -1.1927
 6044SOL    HW229766   1.099   2.891   2.308  1.2471 -1.9072 -0.2666
 6045SOL     OW29767   0.979   1.731  11.673  0.1545 -0.4115  0.0539
 6045SOL    HW129768   0.998   1.810  11.724 -1.1486  0.1016 -0.2646
 6045SOL    HW229769   1.047   1.748  11.608  0.8832 -0.5605  0.7789
 6046SOL     OW29770   0.959   2.312   6.042 -0.4450  0.0369 -0.3985
 6046SOL    HW129771   0.885   2.341   6.096  1.0688 -0.2381  1.8446
 6046SOL    HW229772   0.998   2.253   6.107  0.4478  0.0501 -0.9185
 6047SOL     OW29773   0.222   0.871   6.543 -0.3644  0.5961  0.2995
 6047SOL    HW129774   0.288   0.826   6.597 -0.7534  0.0928  0.3557
 6047SOL    HW229775   0.167   0.794   6.527  0.6689 -0.0051 -0.3423
 6048SOL     OW29776   3.118   2.822   1.343  0.5908  0.0459  0.3513
 6048SOL    HW129777   3.122   2.727   1.351 -1.5505  0.0417  1.3511
 6048SOL    HW229778   3.064   2.842   1.419  0.8997 -1.7902  1.0458
 6049SOL     OW29779   0.620   2.305  13.844  0.5681 -0.1423  0.6616
 6049SOL    HW129780   0.527   2.296  13.827  0.7880 -0.6423 -0.2557
 6049SOL    HW229781   0.641   2.395  13.819  1.0991 -1.1623 -2.5115
 6050SOL     OW29782   3.660   4.383   5.039 -0.0291 -0.2422 -0.1237
 6050SOL    HW129783   3.659   4.405   5.133  0.0302  1.8784 -0.6137
 6050SOL    HW229784   3.647   4.469   4.999  0.9893  0.3276  0.7629
 6051SOL     OW29785   0.192   0.350   7.918  0.0681 -0.9047 -0.5104
 6051SOL    HW129786   0.164   0.288   7.985  0.2280  1.4013  1.6896
 6051SOL    HW229787   0.109   0.395   7.901  0.3761  0.5903  2.0171
 6052SOL     OW29788   0.610   4.351   5.917  0.1224  0.3416 -0.0149
 6052SOL    HW129789   0.673   4.407   5.963  0.1824 -0.2483  0.6097
 6052SOL    HW229790   0.662   4.280   5.880  2.7771  2.1843  0.1746
 6053SOL     OW29791   4.341   4.212   7.764  0.0662 -0.5693  0.2188
 6053SOL    HW129792   4.377   4.296   7.734 -1.4219  0.4370  1.2443
 6053SOL    HW229793   4.416   4.176   7.812  0.2793 -0.9329 -0.3855
 6054SOL     OW29794   1.454   3.236   5.942  0.0418  0.2223  0.3722
 6054SOL    HW129795   1.425   3.236   5.851 -0.4276 -1.0090  0.5213
 6054SOL    HW229796   1.509   3.158   5.953 -1.0243 -0.4523  0.9434
 6055SOL     OW29797   3.731   2.422   0.639  0.0117  0.1840  0.1909
 6055SOL    HW129798   3.735   2.330   0.614 -0.5576  0.5651 -1.3064
 6055SOL    HW229799   3.643   2.438   0.605  1.0881  1.4055 -2.0050
 6056SOL     OW29800   1.042   2.198   1.466 -0.0143 -0.2674  0.4062
 6056SOL    HW129801   1.129   2.217   1.500 -0.1861  1.7260 -0.2790
 6056SOL    HW229802   1.042   2.256   1.390 -0.7564 -0.9043 -0.0765
 6057SOL     OW29803   3.003   4.571   5.316 -0.6030 -0.2475  0.2937
 6057SOL    HW129804   2.995   4.493   5.371  2.5864 -0.6890  0.1833
 6057SOL    HW229805   2.983   4.631   5.388  4.2678  0.9081  0.7277
 6058SOL     OW29806   0.618   1.800   1.937 -0.2224  0.1257 -0.0627
 6058SOL    HW129807   0.664   1.766   2.013 -2.3593 -2.0619  0.2342
 6058SOL    HW229808   0.646   1.892   1.939  0.3649 -0.0716  0.8234
 6059SOL     OW29809   2.651   0.093   9.906 -0.8366  0.4046  0.0914
 6059SOL    HW129810   2.677   0.149   9.979 -1.2912  3.0851 -1.8037
 6059SOL    HW229811   2.688   0.009   9.932 -2.8355  0.2449  2.3797
 6060SOL     OW29812   4.609   0.811   3.838 -0.5834 -0.5316 -0.3681
 6060SOL    HW129813   4.606   0.885   3.778  3.3666  1.0129  1.2968
 6060SOL    HW229814   4.623   0.868   3.913 -2.2060  1.9309 -1.9246
 6061SOL     OW29815   3.317   0.427  13.270  0.6625 -0.1901  0.0338
 6061SOL    HW129816   3.345   0.515  13.245 -1.5400 -0.2463 -2.6259
 6061SOL    HW229817   3.377   0.405  13.342  1.3956  0.7058 -0.3050
 6062SOL     OW29818   0.066   4.594   2.513 -0.0232 -0.2547  0.3638
 6062SOL    HW129819   0.059   4.687   2.536  3.0742 -0.5954  2.6350
 6062SOL    HW229820   0.151   4.584   2.556 -0.0059  0.8971  0.6172
 6063SOL     OW29821   1.739   0.722  13.132  0.1597  1.2159 -0.0305
 6063SOL    HW129822   1.649   0.745  13.109 -0.8954 -2.6844  0.2237
 6063SOL    HW229823   1.782   0.748  13.051  2.9981  0.0162  1.1200
 6064SOL     OW29824   2.348   0.813  14.651  0.0749 -0.5967 -0.1551
 6064SOL    HW129825   2.291   0.802  14.727  1.8201  0.8941  1.3481
 6064SOL    HW229826   2.306   0.743  14.601  0.6806 -1.5773  0.7175
 6065SOL     OW29827   4.364   2.717   7.838 -0.7298 -0.2396 -0.1010
 6065SOL    HW129828   4.281   2.674   7.857  0.3766 -2.7948 -1.1304
 6065SOL    HW229829   4.394   2.741   7.925  0.0406 -0.8196 -0.2063
 6066SOL     OW29830   2.716   0.312   7.601  0.1433  0.0992  0.3992
 6066SOL    HW129831   2.638   0.349   7.643  0.5514  1.5810 -0.1141
 6066SOL    HW229832   2.682   0.227   7.576 -0.3697  0.0440  1.2919
 6067SOL     OW29833   0.169   2.918   3.631  0.0224  0.4457  0.2405
 6067SOL    HW129834   0.093   2.976   3.638  0.0939  0.5123  0.4500
 6067SOL    HW229835   0.223   2.967   3.569  0.1459 -2.1723 -1.7366
 6068SOL     OW29836   4.040   0.820   9.079 -0.0665 -0.1350 -0.1790
 6068SOL    HW129837   3.984   0.876   9.131 -0.8571 -1.8393  0.7770
 6068SOL    HW229838   4.120   0.833   9.131  1.5624 -3.1414 -1.8908
 6069SOL     OW29839   2.028   0.918   6.150  0.2528  0.4727 -0.2904
 6069SOL    HW129840   1.961   0.983   6.130 -0.4531  0.2083  1.2298
 6069SOL    HW229841   2.080   0.921   6.070 -0.2176 -0.6552 -0.6386
 6070SOL     OW29842   0.292   0.295   5.874  0.4475 -0.3767 -0.0943
 6070SOL    HW129843   0.202   0.306   5.905  0.6062 -2.5279  1.0737
 6070SOL    HW229844   0.318   0.387   5.864 -1.1868 -0.0381 -1.2044
 6071SOL     OW29845   0.485   2.778   9.445  0.0570  0.3499  0.7533
 6071SOL    HW129846   0.575   2.766   9.414  0.4115  2.8043  0.8119
 6071SOL    HW229847   0.460   2.688   9.425 -0.6364  0.4383  1.2313
 6072SOL     OW29848   2.254   4.232   4.354 -0.0858  0.1661  0.1646
 6072SOL    HW129849   2.294   4.218   4.440  0.0463 -0.3011  0.0308
 6072SOL    HW229850   2.329   4.254   4.298 -0.2260  2.1300  0.7652
 6073SOL     OW29851   1.218   3.302   4.891 -0.1997 -0.2002 -0.0985
 6073SOL    HW129852   1.177   3.336   4.971  0.2530  1.2387 -0.4895
 6073SOL    HW229853   1.308   3.332   4.904  0.3926 -1.4445 -1.2852
 6074SOL     OW29854   2.080   1.959  12.839  0.2809 -0.0805  0.1384
 6074SOL    HW129855   2.136   1.952  12.917  1.3060 -1.6510 -0.7473
 6074SOL    HW229856   2.119   2.039  12.804 -0.0878  0.0658  0.0573
 6075SOL     OW29857   1.897   0.522   7.549  0.2957 -0.1249 -0.1002
 6075SOL    HW129858   1.906   0.533   7.644  0.0564 -1.0230  0.0225
 6075SOL    HW229859   1.808   0.489   7.539 -0.2277  1.2261 -0.0167
 6076SOL     OW29860   4.702   4.393   7.386  0.2370 -0.1241 -0.6452
 6076SOL    HW129861   0.007   4.410   7.303 -2.6469  0.5498 -1.9831
 6076SOL    HW229862   4.627   4.341   7.359 -0.3908 -0.1629  1.1883
 6077SOL     OW29863   2.968   1.411   6.101  0.7505  0.5055  0.2780
 6077SOL    HW129864   2.971   1.480   6.035 -1.6462  1.9608  1.6726
 6077SOL    HW229865   2.992   1.336   6.048 -2.6903 -0.2710 -0.2097
 6078SOL     OW29866   0.973   4.137  11.880  0.7420  0.4362 -0.1216
 6078SOL    HW129867   0.964   4.218  11.930 -0.2498  0.9497 -1.1110
 6078SOL    HW229868   0.880   4.130  11.857  0.7525  2.0721 -0.6549
 6079SOL     OW29869   1.521   1.438   7.707 -0.6797  0.5183  0.2014
 6079SOL    HW129870   1.473   1.509   7.750 -1.3168 -0.1479  0.5860
 6079SOL    HW229871   1.507   1.457   7.614 -2.7810 -1.7999  0.0461
 6080SOL     OW29872   1.125   3.533   1.964  0.3712 -0.6209 -0.0376
 6080SOL    HW129873   1.204   3.482   1.981  0.2577 -0.6953  0.2584
 6080SOL    HW229874   1.152   3.624   1.948  1.8446 -1.0060  0.2791
 6081SOL     OW29875   0.279   2.381  16.598  0.0798 -0.0678  0.0502
 6081SOL    HW129876   0.342   2.317  16.566  0.4931  0.3665  0.0000
 6081SOL    HW229877   0.327   2.462  16.615  0.0577 -0.0453  0.0061
 6082SOL     OW29878   0.708   1.974   7.848 -0.6915 -0.0554 -0.1526
 6082SOL    HW129879   0.644   1.904   7.835 -0.8229  0.3095 -1.4839
 6082SOL    HW229880   0.653   2.052   7.850 -0.3967  0.1826 -1.3209
 6083SOL     OW29881   3.591   4.026  10.033 -0.3756  0.0511  0.1428
 6083SOL    HW129882   3.656   4.092  10.013 -1.9809  1.0818 -1.6613
 6083SOL    HW229883   3.600   3.958   9.966 -0.6618  0.2278 -0.0734
 6084SOL     OW29884   3.202   3.260  12.429  0.3089 -0.3117 -0.0785
 6084SOL    HW129885   3.288   3.217  12.425  1.5619  2.2148 -0.0050
 6084SOL    HW229886   3.184   3.288  12.340 -1.1858 -0.2951  0.2295
 6085SOL     OW29887   4.315   1.768  16.731 -0.2974  0.4215 -0.2639
 6085SOL    HW129888   4.370   1.829  16.683  0.1730 -1.1948 -1.7924
 6085SOL    HW229889   4.380   1.729  16.790 -1.1453 -0.0166  0.3885
 6086SOL     OW29890   0.622   1.319   6.467  0.6417 -0.2598 -0.1450
 6086SOL    HW129891   0.709   1.360   6.463  0.6642 -0.4544 -1.8308
 6086SOL    HW229892   0.600   1.344   6.556  1.4162 -1.9558  0.5348
 6087SOL     OW29893   1.212   3.238   2.370  0.1442 -0.0478 -0.1149
 6087SOL    HW129894   1.273   3.167   2.389  0.1096 -0.1951 -0.5613
 6087SOL    HW229895   1.239   3.300   2.438 -0.4368 -1.3659  1.3369
 6088SOL     OW29896   1.116   4.404   2.348  0.5913  0.0970 -0.3133
 6088SOL    HW129897   1.210   4.410   2.332  0.9662 -1.7877  1.1785
 6088SOL    HW229898   1.086   4.340   2.283 -0.0002 -3.9786  3.9526
 6089SOL     OW29899   4.727   3.102  16.642  0.1146  0.2704  0.1602
 6089SOL    HW129900   0.020   3.113  16.552  2.1524  1.5893  1.0351
 6089SOL    HW229901   0.055   3.040  16.672 -1.2426  0.4860  3.6841
 6090SOL     OW29902   3.697   1.595   8.809 -0.7322 -0.2818  0.7887
 6090SOL    HW129903   3.720   1.642   8.729 -0.9551 -0.3420  0.6913
 6090SOL    HW229904   3.744   1.642   8.878  2.9630  1.7685 -3.1407
 6091SOL     OW29905   2.147   3.580   6.212 -0.7241 -0.1550  0.1610
 6091SOL    HW129906   2.138   3.672   6.238  0.2920  0.1728 -0.6410
 6091SOL    HW229907   2.061   3.541   6.226 -0.3304 -1.3682 -0.8671
 6092SOL     OW29908   3.999   0.090   4.861  0.6300 -0.3177  0.7644
 6092SOL    HW129909   4.037   0.015   4.906  0.6224 -0.2278  0.9201
 6092SOL    HW229910   3.969   0.147   4.932 -1.8399  1.3640 -1.6325
 6093SOL     OW29911   1.920   0.536  11.995  0.3856  0.6455 -0.3289
 6093SOL    HW129912   1.860   0.595  11.950 -1.0548  0.5265  1.4482
 6093SOL    HW229913   1.894   0.531  12.087 -0.8466  2.1569 -0.5933
 6094SOL     OW29914   4.302   2.972   2.846  0.2234 -0.3930 -0.2530
 6094SOL    HW129915   4.352   3.047   2.814 -0.8594  0.5971  0.4041
 6094SOL    HW229916   4.282   2.921   2.768  1.1209  0.1121 -0.8043
 6095SOL     OW29917   4.130   3.811   5.831 -0.2151 -0.2888  0.3396
 6095SOL    HW129918   4.053   3.846   5.787  0.1742 -0.8025 -0.7526
 6095SOL    HW229919   4.104   3.786   5.920 -0.2596  0.6586  0.5939
 6096SOL     OW29920   3.736   3.091   8.212  0.3871  0.0258 -0.1262
 6096SOL    HW129921   3.668   3.127   8.156 -1.2340 -0.9406  1.2412
 6096SOL    HW229922   3.811   3.136   8.172 -0.9213  0.5721 -1.9231
 6097SOL     OW29923   1.366   1.850   3.985 -0.1003 -0.0980 -0.2406
 6097SOL    HW129924   1.322   1.852   3.900  0.7143  3.9727 -0.5390
 6097SOL    HW229925   1.294   1.820   4.041 -0.2444 -0.5559 -0.6709
 6098SOL     OW29926   0.962   0.460   5.601 -0.3096  0.0964 -0.0768
 6098SOL    HW129927   0.913   0.378   5.597  0.4288 -0.2363 -2.8646
 6098SOL    HW229928   0.924   0.512   5.531  3.1497 -1.0997 -2.9042
 6099SOL     OW29929   2.684   1.728   6.989 -0.3155  0.1577 -0.1902
 6099SOL    HW129930   2.611   1.700   6.933 -0.8969 -3.0855  2.1629
 6099SOL    HW229931   2.637   1.735   7.072  1.1107  3.6528  0.3067
 6100SOL     OW29932   1.701   4.579   7.888  0.3535  0.3477  0.3730
 6100SOL    HW129933   1.759   4.509   7.917 -1.5589 -0.9379  1.0511
 6100SOL    HW229934   1.761   4.649   7.914  0.3923  0.2712  0.4869
 6101SOL     OW29935   4.563   1.445  17.113 -0.4839  0.0985 -0.0515
 6101SOL    HW129936   4.610   1.528  17.113 -0.8346  0.2993 -1.6584
 6101SOL    HW229937   4.627   1.384  17.149 -0.2029  0.2135 -0.3513
 6102SOL     OW29938   3.795   3.505  14.654  0.0505 -0.2838 -0.9248
 6102SOL    HW129939   3.849   3.584  14.647 -2.7487  1.8916  1.8369
 6102SOL    HW229940   3.846   3.454  14.716 -2.0475  0.6114  1.5345
 6103SOL     OW29941   1.100   3.214   2.870 -0.3489 -0.1297  0.3386
 6103SOL    HW129942   1.077   3.122   2.859 -1.6646  0.3481 -0.9208
 6103SOL    HW229943   1.039   3.227   2.942 -1.2105  0.6785 -0.5339
 6104SOL     OW29944   1.935   3.951   0.842 -0.3297  0.3991  0.1632
 6104SOL    HW129945   1.911   3.904   0.763 -0.5410 -1.4126  1.3033
 6104SOL    HW229946   1.948   3.882   0.907  1.8866  0.7696  0.1265
 6105SOL     OW29947   3.876   2.561   5.755  0.4774 -0.1656  0.4030
 6105SOL    HW129948   3.889   2.525   5.843  2.2336 -1.1152 -0.2551
 6105SOL    HW229949   3.957   2.533   5.713  0.1850  1.2741 -1.0879
 6106SOL     OW29950   4.593   4.717  12.394  0.2203 -0.5371  0.4165
 6106SOL    HW129951   4.574   4.623  12.391  1.1450 -0.8132  3.5183
 6106SOL    HW229952   4.535   0.014  12.327  1.1640  0.4391  0.1231
 6107SOL     OW29953   3.919   2.435   3.671 -0.7596  0.4064 -0.6064
 6107SOL    HW129954   3.863   2.454   3.747 -1.1201 -0.8087 -0.5675
 6107SOL    HW229955   4.001   2.430   3.719  0.3034  0.7592 -2.3995
 6108SOL     OW29956   1.708   0.495   7.085 -0.2408 -0.3448 -0.3295
 6108SOL    HW129957   1.671   0.499   7.173 -0.6805  0.0567 -0.5271
 6108SOL    HW229958   1.638   0.491   7.019  0.4056 -0.6372 -0.9879
 6109SOL     OW29959   3.514   1.185   2.660  0.0126  0.2073  0.1033
 6109SOL    HW129960   3.473   1.214   2.741  0.1180 -1.6433  0.8099
 6109SOL    HW229961   3.510   1.261   2.602  2.1680  0.1981 -0.0428
 6110SOL     OW29962   2.162   0.357   6.081 -0.4877 -0.2178 -0.6142
 6110SOL    HW129963   2.068   0.367   6.065 -0.5976  1.4591  1.0850
 6110SOL    HW229964   2.156   0.263   6.064 -1.2454 -0.1138 -0.9233
 6111SOL     OW29965   2.969   2.399  15.133  0.0916  0.4279 -0.2145
 6111SOL    HW129966   3.050   2.351  15.150 -1.3783 -2.4861 -1.4115
 6111SOL    HW229967   2.990   2.492  15.136 -2.1591  0.9657 -0.4524
 6112SOL     OW29968   1.446   2.296   2.274  0.3380  0.4220  0.1182
 6112SOL    HW129969   1.436   2.334   2.362  1.9636 -1.7847  1.2568
 6112SOL    HW229970   1.524   2.241   2.282  0.6718  0.7926 -0.6069
 6113SOL     OW29971   0.058   0.199   6.658 -0.1191 -0.3500 -0.6860
 6113SOL    HW129972   0.102   0.145   6.723  3.2082  2.3538 -0.7268
 6113SOL    HW229973   0.005   0.261   6.708  0.0143 -1.9832  1.4631
 6114SOL     OW29974   4.189   1.740   1.485 -0.2775 -0.3863 -0.1748
 6114SOL    HW129975   4.134   1.666   1.511 -0.4834 -0.0789  0.2700
 6114SOL    HW229976   4.264   1.691   1.453 -1.1705 -0.4337 -2.2229
 6115SOL     OW29977   2.745   1.415   0.376  1.0595  0.0361 -0.2376
 6115SOL    HW129978   2.657   1.431   0.342  1.4184  2.5347 -0.0042
 6115SOL    HW229979   2.723   1.389   0.465  2.2572 -0.7444 -0.1633
 6116SOL     OW29980   1.214   4.157  17.404  0.0367  0.2524  0.4638
 6116SOL    HW129981   1.241   4.086  17.345 -1.6102 -0.8107  1.0054
 6116SOL    HW229982   1.300   4.175  17.442  0.3287  2.2292 -1.1335
 6117SOL     OW29983   3.178   2.828  11.669 -0.5420 -0.1659 -0.3396
 6117SOL    HW129984   3.140   2.892  11.730 -0.6017  0.0088 -0.5608
 6117SOL    HW229985   3.121   2.840  11.593 -0.8088 -1.8334 -0.4021
 6118SOL     OW29986   2.131   4.014   3.684 -0.6689 -0.3436 -0.3738
 6118SOL    HW129987   2.119   4.101   3.648  0.0798 -0.1220 -0.0781
 6118SOL    HW229988   2.037   3.996   3.693 -0.9149  0.7023 -0.9321
 6119SOL     OW29989   1.726   3.650  12.486 -0.5041 -0.6542  0.2411
 6119SOL    HW129990   1.690   3.722  12.433  0.1743 -0.8818 -0.5351
 6119SOL    HW229991   1.801   3.689  12.533 -1.4584  0.6190  0.7212
 6120SOL     OW29992   0.681   0.615   5.790 -0.0538 -0.2058  0.5593
 6120SOL    HW129993   0.674   0.524   5.818 -0.4648 -0.1392  0.6729
 6120SOL    HW229994   0.629   0.659   5.858  0.8022  3.4198 -1.1113
 6121SOL     OW29995   3.021   1.174  15.675 -0.0923 -0.2127 -0.3230
 6121SOL    HW129996   3.007   1.215  15.760  0.1820 -4.5827  1.8240
 6121SOL    HW229997   3.082   1.106  15.703 -1.1246 -1.6786 -1.6215
 6122SOL     OW29998   2.925   0.479   6.018  0.3203 -0.0448  0.1400
 6122SOL    HW129999   2.939   0.421   6.094  0.6362  1.3627  1.1538
 6122SOL    HW230000   2.840   0.521   6.034  0.1746  0.4720 -1.9876
 6123SOL     OW30001   2.382   3.242   8.485 -0.5485 -0.3784 -0.3968
 6123SOL    HW130002   2.415   3.157   8.511 -0.0711 -0.5778 -1.6651
 6123SOL    HW230003   2.295   3.249   8.525 -1.4287  0.3606 -2.3881
 6124SOL     OW30004   4.133   0.568   7.156 -0.0196  0.3057  0.6128
 6124SOL    HW130005   4.085   0.590   7.236 -4.0897  0.4905 -1.8367
 6124SOL    HW230006   4.223   0.581   7.183  0.4589 -2.0773  0.1452
 6125SOL     OW30007   4.221   2.636   3.157 -0.1718 -0.4230 -0.0083
 6125SOL    HW130008   4.301   2.653   3.108  0.8103  1.8237  2.3387
 6125SOL    HW230009   4.154   2.669   3.098 -1.2562 -2.4742  0.0890
 6126SOL     OW30010   4.474   0.822   2.639 -0.3580  0.1113 -0.1963
 6126SOL    HW130011   4.558   0.775   2.644 -2.8309 -4.5587 -2.6654
 6126SOL    HW230012   4.428   0.774   2.571  2.4547 -1.1019 -1.2719
 6127SOL     OW30013   2.575   0.988   9.959 -0.2982 -0.4965 -0.2219
 6127SOL    HW130014   2.491   1.033   9.974 -0.2461 -1.1348  2.0025
 6127SOL    HW230015   2.615   1.022  10.039  0.7219 -0.7730 -0.6217
 6128SOL     OW30016   0.579   1.981   4.632 -0.5378  0.3254  0.5517
 6128SOL    HW130017   0.543   1.957   4.717 -0.1733 -1.4538  0.2047
 6128SOL    HW230018   0.542   2.068   4.619 -1.0817 -0.5673 -3.8176
 6129SOL     OW30019   1.144   2.913   4.706 -0.0000 -0.0537 -0.1463
 6129SOL    HW130020   1.197   2.835   4.692 -0.2242 -0.2308 -0.0063
 6129SOL    HW230021   1.056   2.893   4.672  0.8442  0.4548 -2.6650
 6130SOL     OW30022   1.858   1.532  15.915  0.3443  0.1386  0.4788
 6130SOL    HW130023   1.822   1.519  16.003 -1.1738 -0.6573 -0.2783
 6130SOL    HW230024   1.815   1.461  15.869 -0.6925 -0.9573  3.1324
 6131SOL     OW30025   1.227   2.091   8.872 -0.0851  0.0647 -0.3951
 6131SOL    HW130026   1.239   2.182   8.901 -4.6757  0.4999  0.0830
 6131SOL    HW230027   1.310   2.070   8.830 -0.0440  3.1723 -1.9028
 6132SOL     OW30028   1.616   2.547   1.955  0.5666 -0.5078 -0.5062
 6132SOL    HW130029   1.638   2.455   1.966  2.1474  0.0777  1.3272
 6132SOL    HW230030   1.572   2.548   1.871  1.1327  3.9175 -0.7847
 6133SOL     OW30031   3.041   1.946  10.728 -0.3638  0.0575  0.2665
 6133SOL    HW130032   3.047   1.851  10.732  1.4783  0.1535 -0.3517
 6133SOL    HW230033   3.057   1.974  10.818 -1.3577 -0.1148  0.5013
 6134SOL     OW30034   1.211   2.029   6.139  0.5555 -0.3665 -0.3265
 6134SOL    HW130035   1.266   2.102   6.111  1.2658 -0.1176  1.7026
 6134SOL    HW230036   1.195   1.982   6.057  0.9808  1.8233 -1.6610
 6135SOL     OW30037   3.863   3.106  11.655  0.6048 -0.0383 -0.0795
 6135SOL    HW130038   3.774   3.091  11.687  0.8944  1.2425  1.3352
 6135SOL    HW230039   3.854   3.053  11.576 -3.3221  1.1311 -0.4059
 6136SOL     OW30040   0.685   3.580   4.567 -0.2524  0.4777  0.1774
 6136SOL    HW130041   0.624   3.527   4.618  0.2524  1.6585  2.0399
 6136SOL    HW230042   0.660   3.665   4.605 -2.0188 -0.8586  2.0112
 6137SOL     OW30043   3.724   2.008   5.563  0.2364 -0.4538  0.3242
 6137SOL    HW130044   3.635   1.992   5.595 -0.9155  0.4010 -2.5252
 6137SOL    HW230045   3.752   2.057   5.641 -1.7584 -2.5788  2.3649
 6138SOL     OW30046   1.999   3.778   8.426 -0.3162 -0.4331 -0.2919
 6138SOL    HW130047   1.960   3.693   8.406  0.0353 -0.3102 -1.4962
 6138SOL    HW230048   1.923   3.835   8.410  0.2461  0.4592  0.2342
 6139SOL     OW30049   1.748   2.799  15.475  0.0768 -0.1231 -0.2036
 6139SOL    HW130050   1.703   2.800  15.391  0.1042  0.0488 -0.2170
 6139SOL    HW230051   1.833   2.795  15.431 -2.0058  0.4460 -4.2343
 6140SOL     OW30052   4.202   0.562  14.939 -0.5322 -0.3531 -0.2621
 6140SOL    HW130053   4.291   0.588  14.962 -0.9632  1.2829 -0.4097
 6140SOL    HW230054   4.216   0.482  14.889  1.5467 -1.1702  1.6488
 6141SOL     OW30055   0.065   2.762   2.911  0.3332 -0.3964  0.2303
 6141SOL    HW130056   0.002   2.833   2.916 -1.9067 -2.3241 -0.6563
 6141SOL    HW230057   0.146   2.810   2.893  1.6867 -2.8395 -0.1852
 6142SOL     OW30058   2.185   2.399   1.813 -0.7480 -0.3650  0.0402
 6142SOL    HW130059   2.195   2.307   1.791 -2.4239 -0.7433  0.7979
 6142SOL    HW230060   2.219   2.439   1.733  1.6422  1.6679  2.0733
 6143SOL     OW30061   3.807   1.465   2.985  0.5899 -0.0031 -0.2697
 6143SOL    HW130062   3.765   1.550   2.970 -0.5339 -0.4152  0.4870
 6143SOL    HW230063   3.733   1.417   3.024  0.6396 -0.2992 -0.5447
 6144SOL     OW30064   1.412   2.389   4.713  0.1960 -0.1062  0.8205
 6144SOL    HW130065   1.468   2.346   4.777  0.4874 -0.1504  0.5379
 6144SOL    HW230066   1.339   2.412   4.771 -2.2534 -0.6571 -2.0427
 6145SOL     OW30067   1.897   3.348   8.196 -0.5476  0.1708 -0.2428
 6145SOL    HW130068   1.870   3.356   8.104 -1.7029 -0.4162  0.0447
 6145SOL    HW230069   1.982   3.306   8.185 -0.4448  0.0747  0.9269
 6146SOL     OW30070   3.657   2.492   0.265 -0.0310  0.1928  0.0972
 6146SOL    HW130071   3.627   2.437   0.338  0.0797  1.0574  0.7885
 6146SOL    HW230072   3.733   2.446   0.229  0.0583 -1.8079  2.8396
 6147SOL     OW30073   1.979   4.677   3.715 -0.7998  0.2698 -0.6381
 6147SOL    HW130074   1.948   0.028   3.729  1.1619  0.7354  0.7418
 6147SOL    HW230075   1.895   4.639   3.742 -0.2403  0.5951  1.5427
 6148SOL     OW30076   3.879   1.994   6.495  0.0104 -0.1403  0.1473
 6148SOL    HW130077   3.874   2.089   6.507  1.6047  0.4978 -4.0661
 6148SOL    HW230078   3.838   1.959   6.573 -0.1473  1.4615  0.7908
 6149SOL     OW30079   0.104   1.072   5.433 -0.0933  0.1057 -0.1371
 6149SOL    HW130080   0.075   1.050   5.522  1.4042 -0.5456  0.1936
 6149SOL    HW230081   0.023   1.093   5.387  0.1668  0.8226 -0.2764
 6150SOL     OW30082   0.649   3.788  13.250  0.4305 -0.0150  0.0127
 6150SOL    HW130083   0.643   3.855  13.318  0.3300  0.2074 -0.2159
 6150SOL    HW230084   0.558   3.759  13.249  0.5813 -0.5749  1.4713
 6151SOL     OW30085   1.367   0.331   8.279  0.2325  0.0869  0.1176
 6151SOL    HW130086   1.390   0.424   8.285  2.9512 -0.7382  2.3672
 6151SOL    HW230087   1.423   0.314   8.354 -0.0922 -1.4135  0.0177
 6152SOL     OW30088   3.958   2.579   1.278 -0.1361 -0.2042 -0.6261
 6152SOL    HW130089   4.038   2.631   1.283  0.3620 -1.0763  0.3245
 6152SOL    HW230090   3.975   2.550   1.188  0.6787 -0.7085 -0.3011
 6153SOL     OW30091   3.844   4.383  11.540  0.2448 -0.4477  0.3014
 6153SOL    HW130092   3.774   4.394  11.475 -0.4048  0.6701  1.1931
 6153SOL    HW230093   3.793   4.377  11.621 -2.0123 -0.9082 -1.1328
 6154SOL     OW30094   2.610   2.407   2.804 -0.4480  0.1492  0.1271
 6154SOL    HW130095   2.602   2.341   2.735  2.1336 -0.2795  0.2394
 6154SOL    HW230096   2.516   2.424   2.800 -0.3607  0.2319 -1.9365
 6155SOL     OW30097   0.130   4.165   7.896 -0.3308  0.1089  0.0903
 6155SOL    HW130098   0.173   4.235   7.847 -0.4386  0.9330  1.1652
 6155SOL    HW230099   0.107   4.218   7.972  0.0445 -0.3321  0.5110
 6156SOL     OW30100   0.641   2.852   6.591  0.5356  0.4046  0.7977
 6156SOL    HW130101   0.657   2.781   6.654 -1.6944 -0.2255  0.6369
 6156SOL    HW230102   0.623   2.930   6.643 -3.3746 -0.7099  1.0912
 6157SOL     OW30103   0.269   4.223   8.488 -0.1054 -0.4319  0.1519
 6157SOL    HW130104   0.277   4.318   8.484 -1.0383 -0.4685 -2.3689
 6157SOL    HW230105   0.184   4.209   8.447 -0.1326  1.6305 -0.4669
 6158SOL     OW30106   2.370   2.552  12.826  0.1587  0.4526  0.1582
 6158SOL    HW130107   2.393   2.471  12.871  0.5271 -0.4277 -1.6446
 6158SOL    HW230108   2.377   2.527  12.734  0.5461  0.1627  0.2682
 6159SOL     OW30109   4.507   2.416   5.369  0.0205 -0.2350 -0.2833
 6159SOL    HW130110   4.453   2.488   5.335 -0.4522 -1.4294 -2.0815
 6159SOL    HW230111   4.588   2.460   5.392  0.5718 -0.7762 -1.1929
 6160SOL     OW30112   4.207   1.644   2.860 -0.0010 -0.1960 -0.2368
 6160SOL    HW130113   4.165   1.570   2.903  0.6209 -0.4874 -0.1390
 6160SOL    HW230114   4.214   1.610   2.770 -1.6742  3.0382 -1.6076
 6161SOL     OW30115   3.370   1.173   1.541  0.5492 -0.0780  0.0650
 6161SOL    HW130116   3.419   1.158   1.622  0.0900 -0.1533  0.3308
 6161SOL    HW230117   3.371   1.269   1.535  1.8316 -0.0433  0.7798
 6162SOL     OW30118   3.506   3.036   5.698  0.3292  0.5249 -0.0792
 6162SOL    HW130119   3.554   3.066   5.774 -1.6642  1.4332  0.8252
 6162SOL    HW230120   3.546   3.089   5.629 -0.8427  3.5655  1.5754
 6163SOL     OW30121   0.019   1.888   0.672 -0.0084  0.5793 -0.1355
 6163SOL    HW130122   0.099   1.940   0.671  0.5086 -0.2382 -0.7462
 6163SOL    HW230123   0.062   1.803   0.681 -1.6985 -0.3941 -1.2317
 6164SOL     OW30124   1.760   0.317   3.866  0.4560  0.1477 -0.1333
 6164SOL    HW130125   1.668   0.342   3.872  0.2638 -0.5168 -0.2495
 6164SOL    HW230126   1.804   0.396   3.835 -2.1831  1.5200 -0.3726
 6165SOL     OW30127   4.125   0.648   8.253  0.3942  0.4136  0.2519
 6165SOL    HW130128   4.035   0.654   8.221  0.1466  0.7214  1.0185
 6165SOL    HW230129   4.156   0.738   8.246 -0.3367  0.7043  0.7642
 6166SOL     OW30130   2.539   2.648   3.867 -0.2153 -0.0896  0.3250
 6166SOL    HW130131   2.460   2.701   3.875  0.6737  1.3367 -0.2902
 6166SOL    HW230132   2.582   2.662   3.951  0.0173  0.8130  0.0588
 6167SOL     OW30133   2.839   3.394   6.232 -0.7291  0.0986  0.5033
 6167SOL    HW130134   2.875   3.482   6.233 -0.6760  0.0915 -0.8563
 6167SOL    HW230135   2.748   3.420   6.223 -0.4282  0.5261 -1.2754
 6168SOL     OW30136   4.013   0.969   7.468 -0.1743  0.0343  0.2343
 6168SOL    HW130137   3.932   1.019   7.481  1.5108  2.4322  1.6304
 6168SOL    HW230138   4.025   0.975   7.373 -1.5037 -0.7343  0.0122
 6169SOL     OW30139   4.502   1.373   3.148 -0.2335  0.2153  0.4943
 6169SOL    HW130140   4.530   1.282   3.143  1.4581  0.8006 -0.5386
 6169SOL    HW230141   4.540   1.404   3.231  2.0156  0.0778 -0.4858
 6170SOL     OW30142   4.222   1.374  11.477  0.0333  0.4352 -0.4040
 6170SOL    HW130143   4.264   1.297  11.515 -1.0730 -0.2046 -0.4806
 6170SOL    HW230144   4.296   1.428  11.450 -0.0275  0.5886 -0.2635
 6171SOL     OW30145   3.934   3.248   8.120  0.2156 -0.1568  0.1479
 6171SOL    HW130146   3.957   3.308   8.192  0.6833  0.0686 -0.1829
 6171SOL    HW230147   3.865   3.300   8.079 -0.7171 -0.8978  0.8168
 6172SOL     OW30148   4.606   2.107   3.996 -0.0697 -0.1111 -0.6764
 6172SOL    HW130149   4.567   2.135   3.913  0.8850  0.4999 -0.9182
 6172SOL    HW230150   4.683   2.163   3.995 -0.5320  0.5002 -2.3516
 6173SOL     OW30151   1.424   1.666   5.023  0.0982 -0.0979  0.2238
 6173SOL    HW130152   1.343   1.620   5.043  0.6790 -1.0843  0.3629
 6173SOL    HW230153   1.425   1.665   4.928  0.6127  0.5351  0.2224
 6174SOL     OW30154   1.708   1.745   5.044 -0.1015  0.4617  0.1761
 6174SOL    HW130155   1.742   1.656   5.049 -0.1469  0.4630  0.5133
 6174SOL    HW230156   1.618   1.730   5.073 -0.7607  1.1400 -1.5438
 6175SOL     OW30157   3.435   1.418   7.658 -0.4243  0.3598  0.3290
 6175SOL    HW130158   3.476   1.347   7.608  1.7592  0.7098  1.6396
 6175SOL    HW230159   3.440   1.382   7.746 -0.0324 -3.5675 -1.2813
 6176SOL     OW30160   4.603   2.944   2.908  0.5774 -0.1097 -0.3426
 6176SOL    HW130161   4.572   2.961   2.819 -0.6066 -0.0546  0.0804
 6176SOL    HW230162   4.520   2.908   2.940  0.0500 -1.3822 -3.1607
 6177SOL     OW30163   1.026   1.132   7.944 -0.3452 -0.2304  0.1066
 6177SOL    HW130164   0.949   1.188   7.959 -2.2975 -1.9249 -3.5012
 6177SOL    HW230165   1.094   1.174   7.997  0.3328  1.6325 -2.1973
 6178SOL     OW30166   0.169   3.481   6.375  0.2474 -0.2489  0.1997
 6178SOL    HW130167   0.214   3.566   6.379 -0.3035  0.0402  0.2213
 6178SOL    HW230168   0.084   3.506   6.410  0.1231 -0.2961 -0.0669
 6179SOL     OW30169   3.935   1.635   5.202  0.2726  0.0488 -0.3834
 6179SOL    HW130170   3.877   1.670   5.269  1.0010  0.0264  0.2626
 6179SOL    HW230171   3.944   1.697   5.130 -0.5514 -0.9545 -1.3484
 6180SOL     OW30172   4.205   0.668   9.373  0.6528 -0.0770 -0.0490
 6180SOL    HW130173   4.239   0.752   9.343  1.9206 -0.1288  1.2727
 6180SOL    HW230174   4.278   0.612   9.343  0.2417 -0.5728 -0.1298
 6181SOL     OW30175   4.179   1.004  11.626  0.8513 -0.1044  0.6288
 6181SOL    HW130176   4.268   1.039  11.627  0.4865  0.9282 -3.4737
 6181SOL    HW230177   4.178   0.940  11.697  1.0078  0.3812  1.0723
 6182SOL     OW30178   2.939   0.932  14.787  0.0190  0.2238  0.0266
 6182SOL    HW130179   2.862   0.877  14.776  0.2761 -0.4774  1.7480
 6182SOL    HW230180   2.968   0.933  14.696  2.0170  1.2920  0.6668
 6183SOL     OW30181   0.704   1.478  14.180  0.4798 -0.3893  0.2998
 6183SOL    HW130182   0.632   1.539  14.197 -0.3021 -1.0262 -0.7194
 6183SOL    HW230183   0.654   1.400  14.158  1.1615 -0.4824 -0.9273
 6184SOL     OW30184   3.848   3.845   0.147  0.3389 -1.1228 -0.2298
 6184SOL    HW130185   3.789   3.844   0.072 -0.7523 -0.7367  0.6243
 6184SOL    HW230186   3.844   3.754   0.176  0.5322 -0.7791  0.8688
 6185SOL     OW30187   3.109   1.419  12.528  0.6932 -0.0686 -0.0461
 6185SOL    HW130188   3.200   1.439  12.549 -0.3472  1.5869  2.8822
 6185SOL    HW230189   3.084   1.500  12.483  1.1984  0.4043  0.5309
 6186SOL     OW30190   2.805   1.136   8.814  0.0724  1.0196 -0.4008
 6186SOL    HW130191   2.829   1.225   8.838 -0.7944  0.9908  0.5447
 6186SOL    HW230192   2.781   1.089   8.894  0.5901  0.9390 -0.2897
 6187SOL     OW30193   2.269   3.240   3.439  0.2213  0.1472  0.0146
 6187SOL    HW130194   2.227   3.323   3.461  1.0469  0.9268 -1.2913
 6187SOL    HW230195   2.343   3.248   3.498  1.2696  0.3538 -1.3258
 6188SOL     OW30196   4.420   2.758   8.488 -0.4627  0.3518  0.5710
 6188SOL    HW130197   4.387   2.821   8.425 -1.9079 -1.5101 -0.5365
 6188SOL    HW230198   4.353   2.692   8.474 -0.1505  0.3682 -0.9909
 6189SOL     OW30199   0.116   2.821   5.967  0.3219  0.2187  0.8267
 6189SOL    HW130200   0.112   2.916   5.971  3.7771  0.2754  2.3308
 6189SOL    HW230201   0.211   2.813   5.963  0.0189 -2.1426 -1.5521
 6190SOL     OW30202   0.007   0.842   5.824  0.5505 -0.5894 -0.1832
 6190SOL    HW130203   0.093   0.825   5.787  1.2933 -0.5027  1.5289
 6190SOL    HW230204   4.725   0.914   5.764 -0.7804  1.3335  2.6033
 6191SOL     OW30205   4.156   1.005   1.189 -0.2674 -0.1090  0.5677
 6191SOL    HW130206   4.127   1.095   1.199 -1.9189 -0.3863 -1.5813
 6191SOL    HW230207   4.175   1.009   1.096 -2.7936 -2.0048 -0.0471
 6192SOL     OW30208   0.952   1.326   5.971 -0.3613  0.0821  0.2849
 6192SOL    HW130209   1.022   1.261   5.968 -0.6605 -0.3565  2.2572
 6192SOL    HW230210   0.887   1.282   5.917  1.5586 -0.8737 -1.2315
 6193SOL     OW30211   2.223   3.636   4.761 -0.7106  0.3665  0.1220
 6193SOL    HW130212   2.311   3.622   4.795 -1.8581 -1.3076  2.4031
 6193SOL    HW230213   2.166   3.665   4.833  0.1496  0.2908  0.8380
 6194SOL     OW30214   1.529   0.839   8.847 -0.3004  0.0925  0.2836
 6194SOL    HW130215   1.581   0.764   8.876  0.1734  0.0173 -0.7280
 6194SOL    HW230216   1.497   0.887   8.923 -2.9595 -2.0611  0.4949
 6195SOL     OW30217   0.280   2.114   6.290 -0.2868 -0.6797 -0.2083
 6195SOL    HW130218   0.343   2.042   6.288  0.4987  0.0385 -0.7462
 6195SOL    HW230219   0.278   2.144   6.381 -1.0655 -0.2903 -0.3534
 6196SOL     OW30220   2.844   0.045   5.898 -0.1099 -0.2412 -0.0272
 6196SOL    HW130221   2.883   0.020   5.982 -1.8887 -0.3258  0.7765
 6196SOL    HW230222   2.915   0.043   5.834  0.9561 -0.2648  1.1596
 6197SOL     OW30223   1.712   2.387  11.363  0.1491 -0.1440 -0.1646
 6197SOL    HW130224   1.748   2.312  11.411  2.0606  2.0108  1.7293
 6197SOL    HW230225   1.763   2.379  11.282  0.7789 -2.2548  0.4367
 6198SOL     OW30226   0.197   2.284   7.442  0.0024 -0.2226 -0.1670
 6198SOL    HW130227   0.123   2.259   7.387  0.7323  0.4362 -1.4552
 6198SOL    HW230228   0.154   2.348   7.498  1.3144 -0.7170  1.3911
 6199SOL     OW30229   2.358   3.426   2.830 -0.0471 -0.9444 -0.1016
 6199SOL    HW130230   2.295   3.361   2.800 -1.5512  0.6158 -0.3257
 6199SOL    HW230231   2.375   3.401   2.920 -0.0171  0.0110  0.1531
 6200SOL     OW30232   0.541   2.065   5.251  0.0097 -0.2470 -0.0747
 6200SOL    HW130233   0.600   2.060   5.326  0.7975  0.4381 -0.6474
 6200SOL    HW230234   0.458   2.051   5.296  0.5197  0.3701  1.0552
 6201SOL     OW30235   3.432   2.758   4.459 -0.0745  0.0128 -0.1956
 6201SOL    HW130236   3.365   2.721   4.517  0.0093  0.4644  0.1881
 6201SOL    HW230237   3.426   2.848   4.489 -0.6642 -0.7703  2.0289
 6202SOL     OW30238   4.345   3.452   8.213  0.6497 -0.2243  0.0234
 6202SOL    HW130239   4.418   3.402   8.249  0.5954  0.5171  1.1838
 6202SOL    HW230240   4.319   3.513   8.283 -0.4338  3.0680 -3.2449
 6203SOL     OW30241   3.995   3.030  16.304  0.2194 -0.3075  0.1521
 6203SOL    HW130242   3.957   2.972  16.239  0.3420  1.3474 -1.3994
 6203SOL    HW230243   3.916   3.037  16.359 -0.2189  1.3493 -0.6852
 6204SOL     OW30244   0.584   2.974  11.931  0.4293 -0.0397 -0.0479
 6204SOL    HW130245   0.653   2.914  11.960 -0.3358 -0.1884  1.4820
 6204SOL    HW230246   0.540   2.985  12.015 -0.1821  0.8700 -0.4800
 6205SOL     OW30247   4.163   1.405  14.757 -0.0359  0.5365 -0.1413
 6205SOL    HW130248   4.141   1.314  14.736 -0.4055  0.7310 -0.5853
 6205SOL    HW230249   4.113   1.443  14.685 -0.3281  1.4384  0.5458
 6206SOL     OW30250   1.519   1.343   7.040 -0.2678 -0.5095 -0.1523
 6206SOL    HW130251   1.495   1.253   7.062 -1.3960 -0.3079 -0.5406
 6206SOL    HW230252   1.461   1.385   7.105 -0.0683  0.8068 -0.8219
 6207SOL     OW30253   3.417   3.244   3.258  0.7221 -0.4877 -0.5136
 6207SOL    HW130254   3.475   3.175   3.290 -0.5158 -0.2571  2.2186
 6207SOL    HW230255   3.455   3.266   3.173 -0.4711  3.2396 -0.0874
 6208SOL     OW30256   0.127   3.751  11.638 -0.0434  0.6877 -0.2678
 6208SOL    HW130257   0.044   3.797  11.647 -1.6168 -1.8768 -1.6405
 6208SOL    HW230258   0.124   3.698  11.717 -0.6528 -1.3374 -1.6571
 6209SOL     OW30259   2.925   3.899   8.770  0.0985 -0.4510  0.0986
 6209SOL    HW130260   2.944   3.963   8.701  0.8552  1.2830  1.9133
 6209SOL    HW230261   2.834   3.883   8.745  0.2978  0.3540 -1.1511
 6210SOL     OW30262   3.691   0.274   9.145 -0.5854 -0.5055  0.6772
 6210SOL    HW130263   3.681   0.239   9.057 -1.7858 -1.8562  1.3544
 6210SOL    HW230264   3.604   0.314   9.152  0.9129  3.0126 -0.6306
 6211SOL     OW30265   3.718   0.503   3.477 -0.1874  0.3615 -0.0050
 6211SOL    HW130266   3.720   0.599   3.476 -0.4652  0.3923  3.6156
 6211SOL    HW230267   3.803   0.483   3.516 -0.0192  0.5264 -0.2829
 6212SOL     OW30268   3.722   4.383  16.584  0.0296  0.0053 -0.8228
 6212SOL    HW130269   3.694   4.453  16.643 -2.9479 -0.4722 -1.6815
 6212SOL    HW230270   3.652   4.319  16.590  1.9605 -2.3207 -3.1199
 6213SOL     OW30271   1.938   2.315   9.754  0.2565  0.5086 -0.2700
 6213SOL    HW130272   1.944   2.249   9.823  0.3673 -0.4131 -1.1632
 6213SOL    HW230273   1.931   2.388   9.816 -0.1683 -0.3200  0.6634
 6214SOL     OW30274   3.246   2.508   1.858 -0.2317  0.5705  0.0899
 6214SOL    HW130275   3.300   2.433   1.835  0.8908  1.8984 -1.6190
 6214SOL    HW230276   3.211   2.479   1.942  0.3387  2.6287  1.0158
 6215SOL     OW30277   3.658   0.429   4.874 -0.5327  0.0950  0.0326
 6215SOL    HW130278   3.567   0.429   4.904 -0.4825 -1.2419  0.2091
 6215SOL    HW230279   3.693   0.402   4.959 -1.9420  0.5293  0.7530
 6216SOL     OW30280   1.545   0.967   2.825  0.5251  0.8975  0.6705
 6216SOL    HW130281   1.584   0.994   2.908  1.9347 -0.2463  0.3628
 6216SOL    HW230282   1.480   0.904   2.858 -1.2287  0.4214 -3.6574
 6217SOL     OW30283   1.788   1.733   6.519 -0.2953 -0.5380  0.0042
 6217SOL    HW130284   1.714   1.766   6.571 -0.9170 -1.0051 -0.5761
 6217SOL    HW230285   1.835   1.677   6.580 -0.6437 -1.0035 -0.1570
 6218SOL     OW30286   1.009   2.493   4.920 -0.8479 -0.4730  0.0798
 6218SOL    HW130287   0.956   2.418   4.894 -0.6388  0.4828 -3.1021
 6218SOL    HW230288   0.941   2.560   4.916 -0.4512 -0.0209  0.9413
 6219SOL     OW30289   2.728   4.494   5.647 -0.1231  0.4696 -0.2975
 6219SOL    HW130290   2.687   4.553   5.710  0.2302 -1.3587  1.6199
 6219SOL    HW230291   2.801   4.463   5.700 -1.6380  1.1918  2.2130
 6220SOL     OW30292   2.081   2.566   5.732  0.2437 -0.4085  0.0596
 6220SOL    HW130293   2.138   2.538   5.804 -0.6596  1.9045  1.6660
 6220SOL    HW230294   2.103   2.659   5.734  1.0982 -0.5916 -0.6532
 6221SOL     OW30295   2.221   2.800   5.877  0.4115 -0.6314  0.7949
 6221SOL    HW130296   2.197   2.781   5.968 -1.0644 -0.8094  0.3618
 6221SOL    HW230297   2.304   2.754   5.861  0.3779 -0.2659 -0.4537
 6222SOL     OW30298   0.363   2.815   9.711 -0.0921 -0.0114  0.0276
 6222SOL    HW130299   0.405   2.806   9.626  1.0983 -1.3604  0.7522
 6222SOL    HW230300   0.289   2.870   9.687 -0.3538 -0.2929  0.1808
 6223SOL     OW30301   4.070   1.879   1.302  0.5379 -0.9965  0.4271
 6223SOL    HW130302   4.100   1.845   1.386  0.1318  0.6275  1.2257
 6223SOL    HW230303   4.142   1.867   1.239  0.4300  2.4987 -0.3456
 6224SOL     OW30304   4.675   2.292   2.195 -0.5921 -0.5840 -0.4706
 6224SOL    HW130305   4.702   2.206   2.227  2.2694  0.5781  0.2557
 6224SOL    HW230306   4.729   2.348   2.251 -0.2321 -0.0399 -1.3580
 6225SOL     OW30307   2.100   0.609   2.308 -0.1967  0.6302 -0.2835
 6225SOL    HW130308   2.037   0.554   2.262 -0.0122  1.5954 -1.7112
 6225SOL    HW230309   2.110   0.671   2.235  1.1330 -0.2462 -0.8468
 6226SOL     OW30310   4.532   3.227   3.106 -0.5351 -0.4552 -0.9792
 6226SOL    HW130311   4.603   3.245   3.044 -0.2307 -1.9974 -1.0918
 6226SOL    HW230312   4.585   3.210   3.183 -0.8895  0.1253 -0.6075
 6227SOL     OW30313   0.802   0.900  14.592 -0.1784 -0.2156  0.4653
 6227SOL    HW130314   0.844   0.873  14.510  0.3564  0.9856  0.3452
 6227SOL    HW230315   0.720   0.945  14.570  0.6343  0.3321 -1.4040
 6228SOL     OW30316   2.585   0.117   4.403  0.0434 -0.6375  0.5969
 6228SOL    HW130317   2.622   0.167   4.331 -2.8647 -0.6032 -0.8719
 6228SOL    HW230318   2.637   0.037   4.400  0.3494 -0.4783  1.8094
 6229SOL     OW30319   0.484   0.861   2.596  0.0888 -0.4465 -0.3844
 6229SOL    HW130320   0.513   0.939   2.550  0.4833  0.7802  1.9607
 6229SOL    HW230321   0.404   0.891   2.638 -0.7407 -0.9318 -1.5888
 6230SOL     OW30322   0.295   3.729   6.415  0.3500 -0.9710 -0.5636
 6230SOL    HW130323   0.388   3.751   6.419  0.4081 -1.1035 -1.3256
 6230SOL    HW230324   0.272   3.791   6.346 -1.5481 -0.0403  0.8998
 6231SOL     OW30325   2.534   3.468   8.467 -0.1099 -0.1893  0.1575
 6231SOL    HW130326   2.519   3.374   8.463 -2.8714  0.2535 -0.2156
 6231SOL    HW230327   2.623   3.472   8.432  0.3452  1.3111  1.4807
 6232SOL     OW30328   2.263   2.706  11.424 -0.0333 -0.2933 -0.2759
 6232SOL    HW130329   2.168   2.719  11.418  0.4832  2.2803 -2.7752
 6232SOL    HW230330   2.283   2.681  11.514  2.7850 -0.9502 -1.1215
 6233SOL     OW30331   3.449   1.586   8.539  0.1641  0.3984  0.2711
 6233SOL    HW130332   3.433   1.632   8.621  1.7620 -0.3157  0.9845
 6233SOL    HW230333   3.388   1.512   8.537  1.9871 -1.1265  0.8397
 6234SOL     OW30334   1.888   2.212   6.325 -0.0719  0.3101  0.3827
 6234SOL    HW130335   1.895   2.262   6.406 -2.4283  0.5000  0.4584
 6234SOL    HW230336   1.891   2.130   6.375  0.1678 -0.1637 -0.3884
 6235SOL     OW30337   1.489   1.497   2.198 -0.5677  0.3722 -0.4778
 6235SOL    HW130338   1.489   1.591   2.215  0.6604 -0.2460  2.9345
 6235SOL    HW230339   1.399   1.481   2.227 -0.1696 -0.2622  0.4117
 6236SOL     OW30340   3.332   1.452   4.372 -0.6935 -0.2946 -0.8110
 6236SOL    HW130341   3.293   1.539   4.380  1.9799  0.7747  0.4146
 6236SOL    HW230342   3.263   1.406   4.323 -0.5286 -1.0212 -0.3696
 6237SOL     OW30343   0.622   2.949   3.117 -0.1527  0.3723 -0.4769
 6237SOL    HW130344   0.624   3.006   3.040  2.2227 -2.1019 -2.2244
 6237SOL    HW230345   0.528   2.947   3.138  0.0263 -0.3382  0.2133
 6238SOL     OW30346   4.499   1.532  15.159  0.2234 -0.4911  0.0092
 6238SOL    HW130347   4.480   1.519  15.067 -0.5842  2.1065 -0.1814
 6238SOL    HW230348   4.409   1.528  15.191  1.1979  0.4057  2.8569
 6239SOL     OW30349   1.343   2.385  11.616  0.1411 -0.6105  0.3977
 6239SOL    HW130350   1.429   2.420  11.592  0.9908 -2.1191  1.2346
 6239SOL    HW230351   1.314   2.431  11.695 -0.8449 -0.2050 -0.1941
 6240SOL     OW30352   0.025   3.820  14.970  0.7918 -0.2589  0.3353
 6240SOL    HW130353   0.087   3.793  14.903 -0.8865 -0.3171 -1.1988
 6240SOL    HW230354   0.037   3.915  14.960 -0.4838 -0.0756  0.5364
 6241SOL     OW30355   3.296   4.442   6.244  0.5159 -0.3254 -0.4159
 6241SOL    HW130356   3.224   4.496   6.277 -0.5767 -2.1698  0.2192
 6241SOL    HW230357   3.305   4.387   6.323 -0.3579  0.2121  0.0542
 6242SOL     OW30358   4.490   4.068  12.860  0.1382  0.4080 -0.7361
 6242SOL    HW130359   4.547   4.083  12.935  1.7396  1.2225 -2.1065
 6242SOL    HW230360   4.416   4.127  12.872 -2.0511 -2.5174  0.0723
 6243SOL     OW30361   1.235   1.208   1.467 -0.2409 -0.0251  0.3575
 6243SOL    HW130362   1.234   1.125   1.420  3.4280  1.3321 -2.0571
 6243SOL    HW230363   1.188   1.260   1.402 -0.6025 -1.4700 -0.5276
 6244SOL     OW30364   0.655   3.345   6.040 -0.5551  0.3321  0.4667
 6244SOL    HW130365   0.677   3.402   5.967 -3.6531  0.4451 -0.3969
 6244SOL    HW230366   0.702   3.266   6.014  0.0746  0.6630  0.6062
 6245SOL     OW30367   3.449   4.682   1.551 -0.3478 -0.0036  0.3359
 6245SOL    HW130368   3.390   0.016   1.530 -1.6342 -1.6598 -1.8476
 6245SOL    HW230369   3.416   4.622   1.483 -0.1670  0.6420 -0.3278
 6246SOL     OW30370   2.814   1.191   2.426 -0.4341  0.2288 -0.7754
 6246SOL    HW130371   2.814   1.191   2.522  0.7390  0.7326 -0.7770
 6246SOL    HW230372   2.770   1.108   2.410  0.3626 -0.0150 -1.6728
 6247SOL     OW30373   0.366   3.368   5.224  0.4046 -0.3212  0.3061
 6247SOL    HW130374   0.326   3.440   5.175  0.9719 -1.4978 -1.8952
 6247SOL    HW230375   0.385   3.313   5.149  1.7286 -0.1679  0.5186
 6248SOL     OW30376   2.497   4.428  17.103 -0.2384  0.2622 -0.0937
 6248SOL    HW130377   2.526   4.509  17.144  0.9705 -0.5727  0.6831
 6248SOL    HW230378   2.476   4.387  17.187  0.6919  0.3504  0.1742
 6249SOL     OW30379   1.335   2.720  14.999  0.4025 -0.1056  0.2551
 6249SOL    HW130380   1.241   2.731  15.015  0.9968 -1.1636  4.4664
 6249SOL    HW230381   1.353   2.659  15.071 -0.9662 -0.3526  0.3915
 6250SOL     OW30382   2.588   0.224   5.991 -0.8190 -0.1037  0.1126
 6250SOL    HW130383   2.507   0.190   5.953 -0.9303 -0.5226  0.7185
 6250SOL    HW230384   2.653   0.164   5.956 -0.0943  0.8969 -0.2346
 6251SOL     OW30385   3.156   0.178  12.068 -0.3177 -0.4309  0.3494
 6251SOL    HW130386   3.091   0.112  12.093  0.5587 -0.9925  1.1388
 6251SOL    HW230387   3.202   0.131  11.998 -2.8518 -0.9718 -0.9589
 6252SOL     OW30388   2.650   1.333   8.152 -0.4319  0.2318  0.3439
 6252SOL    HW130389   2.596   1.298   8.081  1.6130  0.1226 -1.1784
 6252SOL    HW230390   2.641   1.427   8.138 -1.7676 -0.0652 -0.8113
 6253SOL     OW30391   0.811   1.701  12.498  0.0168 -0.3473  0.4609
 6253SOL    HW130392   0.896   1.729  12.532 -1.2896  0.4806  3.1163
 6253SOL    HW230393   0.791   1.634  12.564 -1.3731 -1.3469 -0.9828
 6254SOL     OW30394   2.745   3.455   7.501  0.1405 -0.1463  0.2592
 6254SOL    HW130395   2.697   3.372   7.495 -0.7849  0.5351 -1.6902
 6254SOL    HW230396   2.771   3.468   7.410  0.9773 -0.6880  0.4223
 6255SOL     OW30397   3.957   1.613  14.971 -0.5865  0.0072  0.2820
 6255SOL    HW130398   4.025   1.676  14.948  0.7304 -1.9596 -1.1908
 6255SOL    HW230399   4.009   1.540  15.005 -2.3909 -1.7918 -0.7765
 6256SOL     OW30400   1.552   0.618   8.315  0.0716  0.0653  0.4332
 6256SOL    HW130401   1.639   0.645   8.285 -0.5023  0.4909 -0.8278
 6256SOL    HW230402   1.556   0.626   8.411  1.4850 -0.9810  0.4680
 6257SOL     OW30403   2.053   2.649   1.694 -0.1509  0.0242 -0.4553
 6257SOL    HW130404   2.138   2.617   1.665 -0.0216 -2.7944  3.0545
 6257SOL    HW230405   2.022   2.694   1.616  0.0692  1.0140  0.0316
 6258SOL     OW30406   4.432   0.597   7.953  0.4674  0.3970  1.1615
 6258SOL    HW130407   4.403   0.686   7.931 -1.2997 -0.6746 -0.8624
 6258SOL    HW230408   4.373   0.575   8.025 -1.2511  1.1702 -0.0057
 6259SOL     OW30409   4.081   3.306   6.603  0.1525 -0.2078  0.3036
 6259SOL    HW130410   4.120   3.219   6.616 -0.9485 -0.8349 -0.6831
 6259SOL    HW230411   4.066   3.332   6.694  0.5479  0.5930  0.1409
 6260SOL     OW30412   3.675   1.053   2.057  0.1297  0.3741 -0.0114
 6260SOL    HW130413   3.686   0.980   2.118 -0.1608  1.8418  1.7759
 6260SOL    HW230414   3.759   1.059   2.011 -0.3785  0.5504 -0.9296
 6261SOL     OW30415   3.522   3.541   3.289  0.2461 -0.1218  0.4678
 6261SOL    HW130416   3.439   3.567   3.329  1.2080  1.1793  1.6211
 6261SOL    HW230417   3.492   3.536   3.198  2.0315  1.2917 -0.1935
 6262SOL     OW30418   3.351   1.903   2.020  0.2724 -0.3385 -0.6625
 6262SOL    HW130419   3.403   1.831   1.987  2.1170  0.3864  0.6699
 6262SOL    HW230420   3.406   1.980   2.007 -1.1647  0.5436 -1.6552
 6263SOL     OW30421   0.996   3.999  17.475  0.6207 -0.2527  0.0292
 6263SOL    HW130422   1.080   3.966  17.506  1.8076 -0.1471 -3.0730
 6263SOL    HW230423   1.026   4.090  17.468  1.1344 -0.3248  1.3000
 6264SOL     OW30424   2.013   3.387   1.941 -0.0138  0.2309  0.5701
 6264SOL    HW130425   1.952   3.327   1.982  1.2478 -1.0117  0.6191
 6264SOL    HW230426   2.099   3.372   1.979 -0.2474  0.1677  1.0720
 6265SOL     OW30427   1.058   4.200   9.623 -0.2464  0.0004  0.7687
 6265SOL    HW130428   0.968   4.172   9.640 -0.0048 -0.1966  1.7588
 6265SOL    HW230429   1.054   4.229   9.532  1.6974  1.7837  1.2574
 6266SOL     OW30430   0.036   3.808   6.536  0.6115  0.0010  0.1100
 6266SOL    HW130431   4.737   3.823   6.449  0.7400 -2.8335 -0.4171
 6266SOL    HW230432   0.124   3.784   6.507 -0.4459 -2.7723 -0.7247
 6267SOL     OW30433   1.795   4.578   7.186 -0.6656 -0.4543  0.6421
 6267SOL    HW130434   1.756   4.665   7.198  0.6564  0.0294  1.3804
 6267SOL    HW230435   1.720   4.521   7.169 -0.0984 -1.4694  1.6307
 6268SOL     OW30436   2.917   2.675   7.287 -0.0518 -0.2508 -0.0785
 6268SOL    HW130437   2.902   2.756   7.238 -0.5756 -0.0201  0.4637
 6268SOL    HW230438   2.993   2.698   7.341  0.7587  0.0995 -1.3555
 6269SOL     OW30439   0.389   0.283   8.435 -0.3140 -0.2147 -0.1812
 6269SOL    HW130440   0.393   0.336   8.515  0.9567 -0.8583  0.1854
 6269SOL    HW230441   0.481   0.284   8.411  0.0088 -0.7508  1.0073
 6270SOL     OW30442   3.948   0.853  13.339 -1.0958  0.4718  0.0306
 6270SOL    HW130443   4.036   0.814  13.339 -1.7670 -1.0270  2.2837
 6270SOL    HW230444   3.972   0.925  13.282  0.9916  0.8658  1.3902
 6271SOL     OW30445   1.693   1.192  12.433 -0.1710 -0.6298 -0.0450
 6271SOL    HW130446   1.605   1.229  12.426  0.7846  1.5857 -0.4229
 6271SOL    HW230447   1.739   1.248  12.495  1.8665 -0.2140 -1.9353
 6272SOL     OW30448   0.044   2.571   2.062  0.7444  0.0463  0.1970
 6272SOL    HW130449   0.094   2.491   2.076  1.1526  0.4097  0.8021
 6272SOL    HW230450   0.056   2.582   1.967 -0.8444  0.8935  0.0879
 6273SOL     OW30451   4.280   1.203  13.361 -0.1904  0.8829  0.7660
 6273SOL    HW130452   4.238   1.238  13.440 -1.6660 -1.5333  1.0461
 6273SOL    HW230453   4.340   1.133  13.385 -0.7722  0.0064 -0.3241
 6274SOL     OW30454   4.096   4.513   4.328 -0.1028 -0.1798 -0.0843
 6274SOL    HW130455   4.022   4.529   4.387  0.8488 -0.7583  1.2622
 6274SOL    HW230456   4.048   4.458   4.266 -0.3606  2.0853 -1.8838
 6275SOL     OW30457   2.501   3.246  14.668 -0.7213 -0.6378 -0.1412
 6275SOL    HW130458   2.458   3.331  14.669 -3.2247 -1.9211  0.8382
 6275SOL    HW230459   2.566   3.261  14.737  2.3883  2.2346 -3.7156
 6276SOL     OW30460   0.905   1.937   2.816  0.0333 -0.4196 -0.2583
 6276SOL    HW130461   0.812   1.955   2.800  0.0907  0.0486 -0.0729
 6276SOL    HW230462   0.942   1.975   2.736  0.6879  0.8253  0.6256
 6277SOL     OW30463   2.583   4.201   6.251 -0.1499 -0.5003 -0.3991
 6277SOL    HW130464   2.594   4.214   6.346  1.7950 -0.5605 -0.6263
 6277SOL    HW230465   2.521   4.270   6.226  0.9931  0.7330  0.1424
 6278SOL     OW30466   1.528   1.516   9.086 -0.7115  0.1509  0.1321
 6278SOL    HW130467   1.566   1.444   9.136 -0.3447 -1.3904 -2.4099
 6278SOL    HW230468   1.571   1.588   9.133  2.9652 -0.7939 -1.8199
 6279SOL     OW30469   3.528   3.130   8.019  0.4119 -0.3950 -0.8924
 6279SOL    HW130470   3.499   3.218   7.995  0.4556  0.0350  0.6482
 6279SOL    HW230471   3.440   3.094   8.034 -0.7029  1.9332 -1.8954
 6280SOL     OW30472   3.675   4.264   6.705 -0.0371 -0.4201 -0.4181
 6280SOL    HW130473   3.629   4.346   6.688 -3.9872 -2.2422  1.4226
 6280SOL    HW230474   3.700   4.267   6.798  2.5603  2.4490 -1.2049
 6281SOL     OW30475   0.043   2.888   5.250  0.1873 -0.2111  0.9632
 6281SOL    HW130476   0.050   2.859   5.341 -0.7236 -1.7731  0.5342
 6281SOL    HW230477   4.687   2.884   5.234  0.2519 -2.1514  1.1335
 6282SOL     OW30478   2.691   2.352  12.934  0.0331  0.4370 -0.2064
 6282SOL    HW130479   2.686   2.362  13.029  1.0298 -0.4981 -0.0508
 6282SOL    HW230480   2.787   2.355  12.931  0.0394  1.4595  1.0192
 6283SOL     OW30481   2.116   2.539   6.329 -0.2838  0.0514 -0.3800
 6283SOL    HW130482   2.210   2.535   6.349 -0.7349 -3.2750  1.0077
 6283SOL    HW230483   2.123   2.467   6.267  0.6814 -0.7437  0.6356
 6284SOL     OW30484   4.639   0.918   2.934 -0.7542  0.6435 -0.2027
 6284SOL    HW130485   4.687   0.986   2.887  0.6568 -0.9887 -1.1250
 6284SOL    HW230486   4.561   0.906   2.880 -1.3042  0.2976  0.6640
 6285SOL     OW30487   0.532   2.690  16.922 -0.0486  0.1854 -0.0640
 6285SOL    HW130488   0.578   2.698  16.838 -0.0324  0.9354  0.0227
 6285SOL    HW230489   0.574   2.611  16.956  2.2053  0.8693 -1.2434
 6286SOL     OW30490   4.243   4.577  13.233  0.0077 -0.2885  0.2174
 6286SOL    HW130491   4.324   4.629  13.239  1.0111 -1.7267 -0.7689
 6286SOL    HW230492   4.274   4.506  13.177 -0.6345  0.3482 -0.9597
 6287SOL     OW30493   3.038   0.646   9.415 -0.1400 -0.2100 -0.4298
 6287SOL    HW130494   3.004   0.647   9.325  1.4158 -0.5738 -1.0201
 6287SOL    HW230495   3.102   0.576   9.424 -1.2973 -0.9191  2.0826
 6288SOL     OW30496   1.636   2.724   7.108  0.3093  0.3474  0.6680
 6288SOL    HW130497   1.589   2.640   7.103  0.3225  0.3709  0.1878
 6288SOL    HW230498   1.688   2.728   7.027  1.9782 -0.0682  1.7113
 6289SOL     OW30499   3.224   1.106  14.693  0.1762  0.4168 -0.2196
 6289SOL    HW130500   3.188   1.192  14.671  2.3413  2.2432  3.4751
 6289SOL    HW230501   3.164   1.051  14.642  0.3827 -0.6203  0.6623
 6290SOL     OW30502   4.484   4.371   5.595  0.0228 -0.1192 -0.1846
 6290SOL    HW130503   4.547   4.302   5.618 -0.3566  0.0227  1.2768
 6290SOL    HW230504   4.507   4.431   5.666 -2.0506  0.7129 -0.2275
 6291SOL     OW30505   1.201   1.003   4.390  0.3439 -0.4956  0.1249
 6291SOL    HW130506   1.260   1.075   4.363  0.9448 -0.3509  1.8370
 6291SOL    HW230507   1.121   1.032   4.347  0.9858 -1.0658 -1.4683
 6292SOL     OW30508   4.153   1.776  14.813 -0.0475  0.3228 -0.8280
 6292SOL    HW130509   4.076   1.736  14.773 -0.7178  1.5243 -0.7491
 6292SOL    HW230510   4.151   1.862  14.771  1.5380 -0.3452 -2.2779
 6293SOL     OW30511   2.306   2.661   9.703  0.3396 -0.7217  0.1672
 6293SOL    HW130512   2.295   2.567   9.718  3.4704 -1.1147  0.0193
 6293SOL    HW230513   2.400   2.670   9.713  0.6312 -2.2754 -1.2179
 6294SOL     OW30514   1.241   3.105   8.027 -0.3084  0.4337  0.0008
 6294SOL    HW130515   1.267   3.019   7.994 -2.1089 -0.0251 -0.2210
 6294SOL    HW230516   1.281   3.166   7.965 -0.6320 -0.0149 -0.6443
 6295SOL     OW30517   1.042   0.680  13.107  0.5797 -0.8806 -0.0849
 6295SOL    HW130518   1.137   0.674  13.108  0.6572  0.2912 -0.6277
 6295SOL    HW230519   1.022   0.598  13.060  1.0395 -0.0264 -1.7552
 6296SOL     OW30520   3.509   4.395   6.052  0.4452  0.0278 -0.4603
 6296SOL    HW130521   3.443   4.373   5.986 -1.6459  0.8376  1.3555
 6296SOL    HW230522   3.446   4.403   6.124  0.6389  0.3155 -0.3239
 6297SOL     OW30523   2.257   0.386   7.059  0.1765 -0.4078 -0.1613
 6297SOL    HW130524   2.212   0.363   6.978  0.0242 -0.6468 -0.0120
 6297SOL    HW230525   2.272   0.297   7.092 -1.7435 -0.4769  0.5616
 6298SOL     OW30526   2.229   2.483   5.961 -0.4756  0.0565  0.5890
 6298SOL    HW130527   2.167   2.432   6.013 -0.4429  1.4011  1.9409
 6298SOL    HW230528   2.305   2.456   6.012  0.9023  0.2621 -1.3804
 6299SOL     OW30529   2.849   3.206   1.902 -0.2465 -0.8426 -0.1730
 6299SOL    HW130530   2.788   3.132   1.905 -1.8029  0.5739  2.7559
 6299SOL    HW230531   2.914   3.180   1.836 -0.0024  0.9905 -0.6655
 6300SOL     OW30532   1.537   3.818   4.984  0.5064 -0.2147  0.0785
 6300SOL    HW130533   1.482   3.803   4.907 -0.1646  1.5444  0.2073
 6300SOL    HW230534   1.477   3.815   5.058  1.0282  0.3171  0.5156
 6301SOL     OW30535   1.962   2.758   7.185 -0.0078  0.6244  0.0829
 6301SOL    HW130536   1.972   2.741   7.279 -0.8231 -0.4309 -0.0120
 6301SOL    HW230537   1.910   2.681   7.160  0.5558  0.6302 -1.0843
 6302SOL     OW30538   0.394   2.392   4.867 -0.6161  0.3971  0.5517
 6302SOL    HW130539   0.441   2.310   4.882 -1.6854 -0.2555  0.3084
 6302SOL    HW230540   0.438   2.429   4.943  1.9285 -0.9416 -0.2543
 6303SOL     OW30541   2.806   1.611   6.515  0.2740  0.1165  0.0420
 6303SOL    HW130542   2.850   1.573   6.592 -0.1787 -1.2141 -0.3601
 6303SOL    HW230543   2.716   1.589   6.541 -0.1064  2.6881  0.8814
 6304SOL     OW30544   3.669   4.058   4.962  0.6002 -0.5389  0.2720
 6304SOL    HW130545   3.677   4.029   5.053  1.8532 -1.4664 -0.1322
 6304SOL    HW230546   3.598   4.122   4.971  0.9394  0.1537 -2.0021
 6305SOL     OW30547   3.880   1.011  17.508 -0.2516 -0.0543 -0.2456
 6305SOL    HW130548   3.839   1.012  17.594  0.4438  2.5269  0.0686
 6305SOL    HW230549   3.842   0.928  17.480  0.3420 -0.1296 -0.8541
 6306SOL     OW30550   3.417   4.211   9.775 -0.3683  0.0583  0.0551
 6306SOL    HW130551   3.344   4.256   9.817 -0.0222 -1.7404  2.5625
 6306SOL    HW230552   3.415   4.130   9.826  1.0071 -0.2701 -0.4081
 6307SOL     OW30553   4.142   0.281   5.283  0.8971 -0.1936 -0.3223
 6307SOL    HW130554   4.203   0.207   5.287 -0.2834 -1.0736  1.3995
 6307SOL    HW230555   4.118   0.278   5.376  1.2977 -0.2335 -0.2209
 6308SOL     OW30556   2.384   3.740   5.439  0.3039  0.1694 -0.4187
 6308SOL    HW130557   2.367   3.712   5.529 -2.0426  2.2508 -0.2214
 6308SOL    HW230558   2.380   3.834   5.454 -0.3299  0.2220 -0.9660
 6309SOL     OW30559   2.382   4.488   5.747  0.4083 -0.0645 -0.4950
 6309SOL    HW130560   2.412   4.508   5.836 -0.0239  0.0905 -0.3817
 6309SOL    HW230561   2.302   4.541   5.747  1.0518  0.9047 -0.1461
 6310SOL     OW30562   3.910   0.708  17.130 -0.6486 -0.3508 -0.1202
 6310SOL    HW130563   3.820   0.688  17.102 -0.8331 -0.2881  0.4339
 6310SOL    HW230564   3.936   0.628  17.175 -0.4456 -1.2184 -1.7636
 6311SOL     OW30565   1.060   0.092   3.607  0.2157  0.0446  0.1308
 6311SOL    HW130566   1.049   0.117   3.516  2.8931 -1.8955 -0.7438
 6311SOL    HW230567   0.988   0.149   3.634  0.5383 -0.5892  2.4042
 6312SOL     OW30568   4.560   0.688   5.589  0.3016 -0.4980  0.5596
 6312SOL    HW130569   4.647   0.652   5.607 -0.0295 -0.7827  1.6081
 6312SOL    HW230570   4.515   0.674   5.672  1.7056  1.7958  1.7175
 6313SOL     OW30571   3.144   2.859  17.274  0.3463 -0.3053 -0.2804
 6313SOL    HW130572   3.050   2.864  17.290  0.5363  1.9412  0.0363
 6313SOL    HW230573   3.171   2.947  17.250  1.1817 -0.2242  0.9711
 6314SOL     OW30574   1.270   2.190   2.085 -0.2545  0.3000  1.0172
 6314SOL    HW130575   1.328   2.114   2.078  1.6971  2.0838 -2.0643
 6314SOL    HW230576   1.336   2.248   2.125  0.3092 -0.1762  0.7840
 6315SOL     OW30577   0.811   1.376   7.910 -0.3440 -0.0126  0.5860
 6315SOL    HW130578   0.755   1.440   7.866 -0.7396 -1.3180 -0.8061
 6315SOL    HW230579   0.882   1.433   7.939  1.3059 -1.7287 -0.0797
 6316SOL     OW30580   3.824   2.186   3.536 -0.1730  0.0270  0.4040
 6316SOL    HW130581   3.739   2.190   3.579 -0.0108  1.8523  0.5255
 6316SOL    HW230582   3.870   2.260   3.575 -0.4829 -0.9206  2.6002
 6317SOL     OW30583   4.177   2.761   4.404  0.2542 -0.5440  0.2609
 6317SOL    HW130584   4.225   2.709   4.340 -1.1191  0.7881 -1.8948
 6317SOL    HW230585   4.154   2.833   4.345 -0.9570 -1.3374 -0.2496
 6318SOL     OW30586   0.378   2.074   5.507 -0.1109 -0.2263  0.2238
 6318SOL    HW130587   0.358   2.025   5.587 -4.4269 -1.8438 -1.8136
 6318SOL    HW230588   0.442   2.138   5.538 -1.1858  0.8702  0.1998
 6319SOL     OW30589   1.686   2.631   5.078 -0.1778 -0.3224  0.0961
 6319SOL    HW130590   1.748   2.571   5.120 -0.5335  0.7832  2.2191
 6319SOL    HW230591   1.654   2.675   5.157 -2.0819  1.7948 -1.8535
 6320SOL     OW30592   4.597   4.505   9.495 -0.0263 -0.3494 -0.7103
 6320SOL    HW130593   4.676   4.451   9.507  1.2068  2.5023  3.9730
 6320SOL    HW230594   4.601   4.522   9.401 -2.6409  0.4837 -0.6583
 6321SOL     OW30595   1.493   3.642   6.766  0.3009  0.1650 -0.0750
 6321SOL    HW130596   1.520   3.567   6.713  1.1108 -0.5582  1.3510
 6321SOL    HW230597   1.556   3.641   6.839  0.1921  1.0213  0.0214
 6322SOL     OW30598   1.207   1.051   3.068  0.3108  1.0254  0.0427
 6322SOL    HW130599   1.188   1.014   2.982  0.0108 -0.8717  0.9313
 6322SOL    HW230600   1.124   1.085   3.100  0.6541  1.5704  0.3406
 6323SOL     OW30601   0.405   1.217   3.525 -0.8785  0.3641  0.1366
 6323SOL    HW130602   0.453   1.273   3.586 -3.4741  3.3962 -0.6023
 6323SOL    HW230603   0.392   1.286   3.460  1.5369  0.1768 -0.5578
 6324SOL     OW30604   2.849   0.380   5.215  0.1744  0.0447  0.3928
 6324SOL    HW130605   2.932   0.402   5.172  0.1311  2.5051  1.5645
 6324SOL    HW230606   2.854   0.425   5.299  1.1489  0.0597  0.3237
 6325SOL     OW30607   1.637   1.035   2.271 -0.4810  0.1000  0.1395
 6325SOL    HW130608   1.675   1.099   2.210  0.9439 -0.7018  0.1842
 6325SOL    HW230609   1.711   0.975   2.278  1.5811  2.3486 -2.1717
 6326SOL     OW30610   1.901   0.789   9.758 -0.5134 -0.3589 -0.0757
 6326SOL    HW130611   1.931   0.722   9.819  1.4870 -0.3896 -1.0615
 6326SOL    HW230612   1.925   0.868   9.806 -3.4126  0.1606  0.5039
 6327SOL     OW30613   3.856   0.095  15.495  0.0298  0.4248  0.2622
 6327SOL    HW130614   3.791   0.049  15.441  1.6324  0.1665 -1.4528
 6327SOL    HW230615   3.861   0.044  15.575 -0.2709 -0.0314 -0.0093
 6328SOL     OW30616   3.112   3.794   2.000 -0.1168 -0.5401  0.6402
 6328SOL    HW130617   3.155   3.880   2.000  1.4607 -1.3321  1.2783
 6328SOL    HW230618   3.187   3.739   2.023  1.2060  1.1394  0.3456
 6329SOL     OW30619   2.692   4.054   3.235  0.2051  0.1683 -0.6192
 6329SOL    HW130620   2.693   4.149   3.234  1.9561  0.1419 -0.9756
 6329SOL    HW230621   2.786   4.038   3.241  0.1851  0.6740  0.9516
 6330SOL     OW30622   3.848   0.258  10.613 -0.3088  0.3851 -0.1255
 6330SOL    HW130623   3.835   0.352  10.616 -1.6195  0.2624 -1.9451
 6330SOL    HW230624   3.805   0.233  10.695 -1.2384 -2.5680 -1.4955
 6331SOL     OW30625   2.129   1.039   9.598 -0.3721 -0.1343  0.0359
 6331SOL    HW130626   2.041   1.053   9.632 -0.4747 -0.8394  0.0627
 6331SOL    HW230627   2.164   1.001   9.678 -0.4703 -0.9049 -0.2916
 6332SOL     OW30628   2.091   3.442   3.536 -0.0941 -0.4356 -0.7989
 6332SOL    HW130629   2.059   3.472   3.621 -1.4655  2.2407 -2.2647
 6332SOL    HW230630   2.078   3.527   3.494 -0.4426 -0.6320 -1.0826
 6333SOL     OW30631   0.527   1.349   8.085 -0.1159 -0.4204  0.9397
 6333SOL    HW130632   0.621   1.359   8.065 -0.4826 -0.3262 -0.7549
 6333SOL    HW230633   0.487   1.433   8.065 -1.0110 -1.0289  0.1945
 6334SOL     OW30634   0.342   2.828   3.954  0.3660  0.2916 -0.1486
 6334SOL    HW130635   0.382   2.840   4.041  1.0923 -2.3505 -0.0884
 6334SOL    HW230636   0.302   2.912   3.933  0.9707  0.5701 -0.1948
 6335SOL     OW30637   0.719   1.255   8.940 -0.3358  0.4901 -0.7197
 6335SOL    HW130638   0.732   1.284   8.850  0.2935 -0.9133 -1.0958
 6335SOL    HW230639   0.628   1.227   8.935 -0.2467  0.2698 -1.1442
 6336SOL     OW30640   1.198   2.641  15.765  0.1828 -0.0931 -0.3304
 6336SOL    HW130641   1.196   2.681  15.852 -2.4965  1.2906 -1.0290
 6336SOL    HW230642   1.123   2.677  15.718 -0.7395 -3.1932 -1.1954
 6337SOL     OW30643   1.574   2.538  11.533 -0.2272 -0.9439 -0.1670
 6337SOL    HW130644   1.635   2.567  11.601  0.2117 -1.0719 -0.5027
 6337SOL    HW230645   1.632   2.487  11.476 -1.3720 -1.0193 -1.2439
 6338SOL     OW30646   0.124   4.436   5.753  0.0460  0.2127 -0.5179
 6338SOL    HW130647   0.105   4.344   5.771  1.1694  0.0055 -0.3674
 6338SOL    HW230648   0.217   4.444   5.777 -0.5622 -0.2006  1.9009
 6339SOL     OW30649   2.064   0.667   3.930  0.4004 -0.1033 -0.2198
 6339SOL    HW130650   2.150   0.672   3.972  1.7965 -0.8546 -2.9572
 6339SOL    HW230651   2.016   0.709   4.001  0.3772  1.1431 -0.9589
 6340SOL     OW30652   2.635   1.864   8.055 -0.3518  0.7277 -0.3926
 6340SOL    HW130653   2.684   1.942   8.081  1.0948 -0.4254  0.3268
 6340SOL    HW230654   2.592   1.902   7.979 -1.4482  0.5211  0.1287
 6341SOL     OW30655   3.433   1.038  11.354 -0.6029  0.5376 -0.1143
 6341SOL    HW130656   3.368   0.978  11.317 -2.3318  1.5598  1.2817
 6341SOL    HW230657   3.501   1.037  11.286 -2.3839 -0.2190 -1.9001
 6342SOL     OW30658   0.066   0.139   5.025 -0.4592 -0.1655 -0.4452
 6342SOL    HW130659   0.088   0.110   5.114 -0.4640 -1.7573 -0.9632
 6342SOL    HW230660   4.725   0.094   4.999  0.6686 -1.3051 -1.9838
 6343SOL     OW30661   1.649   3.096  16.736  0.2673 -0.0825  0.6849
 6343SOL    HW130662   1.737   3.124  16.712  0.2476 -2.2197 -1.9384
 6343SOL    HW230663   1.658   3.071  16.828  0.5807 -1.1143  0.3697
 6344SOL     OW30664   1.646   0.410   7.599  0.2991 -0.1095 -0.1703
 6344SOL    HW130665   1.613   0.442   7.683  0.6002  0.9895 -0.4755
 6344SOL    HW230666   1.660   0.316   7.609 -0.8909 -0.0121  2.2455
 6345SOL     OW30667   1.702   4.152   3.838 -0.1475 -0.4171  0.6015
 6345SOL    HW130668   1.677   4.098   3.913 -0.6636  2.1359  2.2735
 6345SOL    HW230669   1.619   4.200   3.826  0.7448  1.0297  0.2482
 6346SOL     OW30670   3.446   2.814  16.192 -0.2278 -0.1010  0.2773
 6346SOL    HW130671   3.393   2.866  16.252 -0.5803  0.1582 -0.2632
 6346SOL    HW230672   3.483   2.877  16.129 -2.0961  0.4039 -0.3060
 6347SOL     OW30673   3.601   0.934   1.129 -0.0942 -0.6516 -0.2178
 6347SOL    HW130674   3.675   0.936   1.068 -1.0983  0.2111 -1.3921
 6347SOL    HW230675   3.579   0.841   1.138  1.2108 -0.9729 -0.3319
 6348SOL     OW30676   0.545   1.229   4.653  0.3162 -0.7846 -0.6054
 6348SOL    HW130677   0.483   1.291   4.691  0.1006 -1.0883 -0.4620
 6348SOL    HW230678   0.515   1.141   4.674 -1.2784  0.1779  1.1023
 6349SOL     OW30679   4.229   3.284   2.235 -0.0616  0.2014 -0.3167
 6349SOL    HW130680   4.223   3.198   2.192 -1.3087 -0.2149  0.6983
 6349SOL    HW230681   4.154   3.330   2.197  0.1016  0.1880 -0.6582
 6350SOL     OW30682   3.611   1.306   2.082  0.1334  0.1527 -0.0946
 6350SOL    HW130683   3.555   1.317   2.159  0.4310  0.8651  0.0246
 6350SOL    HW230684   3.651   1.221   2.097 -0.9052 -0.4177 -0.6081
 6351SOL     OW30685   2.394   3.080   8.002 -1.0467  0.0064 -0.6655
 6351SOL    HW130686   2.412   3.125   7.919  0.0660 -0.0493 -0.4607
 6351SOL    HW230687   2.415   2.987   7.989 -0.1853  0.2264 -0.8373
 6352SOL     OW30688   0.126   1.909   3.806  0.6145 -0.6187 -0.1547
 6352SOL    HW130689   0.090   1.992   3.775 -0.1677 -0.7316  0.4617
 6352SOL    HW230690   0.045   1.871   3.839  0.1317 -0.7485 -1.4642
 6353SOL     OW30691   2.462   1.539  14.218 -0.0217 -0.3548  0.6034
 6353SOL    HW130692   2.533   1.495  14.265 -0.6735 -0.1982  1.7380
 6353SOL    HW230693   2.386   1.482  14.234 -0.2226 -0.2451  0.0335
 6354SOL     OW30694   1.280   1.562   7.959 -0.0934  0.1454  0.2936
 6354SOL    HW130695   1.201   1.530   8.004 -1.6210  2.1193 -0.9756
 6354SOL    HW230696   1.252   1.619   7.888 -0.2463  1.4297  1.3728
 6355SOL     OW30697   3.612   2.874  17.288 -0.5979  0.2330  0.4371
 6355SOL    HW130698   3.530   2.869  17.336 -1.4533  1.0863 -0.9559
 6355SOL    HW230699   3.603   2.964  17.258 -1.7283 -0.6578 -1.8724
 6356SOL     OW30700   0.533   0.519   6.086  0.1693  0.0982  0.0088
 6356SOL    HW130701   0.466   0.561   6.032 -2.0777 -2.1285  1.0607
 6356SOL    HW230702   0.479   0.487   6.159 -0.8339 -1.6253 -1.4836
 6357SOL     OW30703   0.316   2.895   4.828 -0.1425  0.6198  0.0030
 6357SOL    HW130704   0.322   2.989   4.810  1.2228  0.1640 -1.8500
 6357SOL    HW230705   0.225   2.894   4.859  0.3231 -2.8004  1.3207
 6358SOL     OW30706   4.303   1.842   8.756 -0.3255  0.4840  0.1677
 6358SOL    HW130707   4.246   1.836   8.679  1.9362 -0.7070 -1.3959
 6358SOL    HW230708   4.357   1.914   8.726  0.1855  0.1525  0.2999
 6359SOL     OW30709   3.886   0.497   3.025  0.1036 -0.0874 -0.1923
 6359SOL    HW130710   3.937   0.578   3.021  0.8646 -0.4932  1.1633
 6359SOL    HW230711   3.947   0.441   3.073 -1.6939  1.2161  3.6321
 6360SOL     OW30712   0.161   2.191   5.169  0.1894  0.3795 -0.0476
 6360SOL    HW130713   0.121   2.153   5.090  0.0452  0.2674  0.0784
 6360SOL    HW230714   0.101   2.263   5.186 -1.3723 -0.7219 -0.9219
 6361SOL     OW30715   0.590   4.491   4.024  0.0602  0.0636 -0.2080
 6361SOL    HW130716   0.658   4.496   4.091 -0.0730  0.5071 -0.1055
 6361SOL    HW230717   0.517   4.457   4.075  0.3407 -0.0898  0.0846
 6362SOL     OW30718   0.457   4.451   6.397 -0.2376 -0.2959  0.5993
 6362SOL    HW130719   0.509   4.515   6.349  0.8106 -1.5907  0.0053
 6362SOL    HW230720   0.421   4.400   6.324  0.5548 -0.7095  0.4987
 6363SOL     OW30721   2.689   1.738   0.351 -0.6158  0.1042 -0.4113
 6363SOL    HW130722   2.704   1.787   0.432 -0.7386 -1.4008  0.5150
 6363SOL    HW230723   2.648   1.659   0.387  0.6964 -1.0912 -1.5471
 6364SOL     OW30724   3.576   4.356   3.897 -0.1220  0.5801  0.0924
 6364SOL    HW130725   3.485   4.369   3.869 -0.0454  2.3842  0.6723
 6364SOL    HW230726   3.596   4.285   3.836  0.4004  1.3679 -0.6588
 6365SOL     OW30727   1.694   0.491   9.179 -0.0957  0.5192  0.2629
 6365SOL    HW130728   1.654   0.406   9.161 -1.8292  0.9836  1.9478
 6365SOL    HW230729   1.753   0.487   9.254 -0.4504  0.6180  0.5491
 6366SOL     OW30730   1.444   0.893   0.615 -0.5219 -1.0688 -0.0473
 6366SOL    HW130731   1.525   0.904   0.663 -1.4373 -2.9116  1.9063
 6366SOL    HW230732   1.376   0.892   0.682 -1.4227  0.3242 -0.9300
 6367SOL     OW30733   2.617   1.878  10.879  0.0468  0.0972 -0.3528
 6367SOL    HW130734   2.661   1.876  10.964  2.1466  2.1131 -1.3593
 6367SOL    HW230735   2.685   1.926  10.831 -0.6146 -0.3345 -1.7487
 6368SOL     OW30736   4.634   2.620   3.158 -0.6278  0.3986  0.5992
 6368SOL    HW130737   4.592   2.647   3.240 -0.5292  0.9641  0.4581
 6368SOL    HW230738   4.727   2.634   3.173 -0.0518 -1.4101 -1.2062
 6369SOL     OW30739   0.053   2.042   6.128  0.0388 -0.4248 -0.0478
 6369SOL    HW130740   0.056   2.112   6.063 -1.9358 -0.5652 -0.2826
 6369SOL    HW230741   0.130   2.067   6.179 -1.7193  2.0856  1.4133
 6370SOL     OW30742   1.116   2.093   9.965 -0.0530  0.5329  0.1824
 6370SOL    HW130743   1.161   2.165   9.921  1.4841 -0.5903 -0.0902
 6370SOL    HW230744   1.171   2.016   9.951 -0.5695  0.5510 -1.9726
 6371SOL     OW30745   4.437   0.711   3.672  0.1307 -0.0510 -0.6124
 6371SOL    HW130746   4.461   0.772   3.602  1.6378  2.0417  1.7820
 6371SOL    HW230747   4.493   0.730   3.746  0.4129 -2.4270 -0.2174
 6372SOL     OW30748   2.277   2.076   9.446 -0.5103 -0.2691 -0.3333
 6372SOL    HW130749   2.257   2.057   9.538  0.6618  1.5071  0.2887
 6372SOL    HW230750   2.351   2.017   9.433 -2.1926 -1.8978 -2.5585
 6373SOL     OW30751   2.175   0.711   2.681 -0.3609  0.6092 -0.4096
 6373SOL    HW130752   2.103   0.750   2.632  0.1714  1.8251 -0.2386
 6373SOL    HW230753   2.181   0.780   2.747  2.1392 -0.8331  0.8843
 6374SOL     OW30754   0.955   2.533   7.139 -0.0133  0.0873  0.1679
 6374SOL    HW130755   0.930   2.441   7.132  1.8047 -0.4150  0.3285
 6374SOL    HW230756   0.943   2.543   7.234 -0.1170 -2.3539  0.3926
 6375SOL     OW30757   0.367   2.899   6.582 -0.4751 -0.5357 -0.0947
 6375SOL    HW130758   0.451   2.852   6.577 -1.5402 -2.4030 -0.2978
 6375SOL    HW230759   0.339   2.883   6.492  0.0058  0.4170 -0.4102
 6376SOL     OW30760   2.548   4.344   5.247 -0.0194 -0.1992  0.4568
 6376SOL    HW130761   2.455   4.367   5.248 -0.2062 -0.9845  1.6891
 6376SOL    HW230762   2.584   4.407   5.309 -0.8755 -0.5498  1.3103
 6377SOL     OW30763   3.721   2.199   0.483 -0.1496  0.1995  0.1410
 6377SOL    HW130764   3.666   2.210   0.405 -2.8646  0.4381  2.1065
 6377SOL    HW230765   3.786   2.137   0.449 -0.0683  0.5989 -0.4373
 6378SOL     OW30766   2.444   2.847   6.242 -0.3423  0.0096 -0.0038
 6378SOL    HW130767   2.465   2.905   6.169 -1.0049  1.3898  0.9115
 6378SOL    HW230768   2.475   2.900   6.315  2.4563 -1.9732  0.2764
 6379SOL     OW30769   3.222   1.480   6.467 -0.2518  0.3482 -0.4101
 6379SOL    HW130770   3.227   1.503   6.560  1.2596 -1.2278 -0.0976
 6379SOL    HW230771   3.191   1.561   6.428 -0.4369  1.3053  1.7430
 6380SOL     OW30772   3.947   3.599   3.332 -0.0583  0.8388  0.2726
 6380SOL    HW130773   3.972   3.526   3.276 -0.3385  1.2570 -0.3997
 6380SOL    HW230774   3.875   3.573   3.390  1.4861 -1.3234  1.1865
 6381SOL     OW30775   0.171   0.431  17.506  0.2084 -0.6861  0.2076
 6381SOL    HW130776   0.158   0.342  17.471 -2.7102 -0.4849  0.7688
 6381SOL    HW230777   0.237   0.412  17.573 -0.7771 -0.9898  1.0828
 6382SOL     OW30778   0.784   2.045   3.611  0.2250  0.1300 -0.2524
 6382SOL    HW130779   0.715   2.108   3.632 -0.6716 -0.6266 -0.9474
 6382SOL    HW230780   0.857   2.102   3.589 -0.4237  0.9765 -0.2139
 6383SOL     OW30781   3.051   4.507   4.798  0.5787  0.4565  0.5088
 6383SOL    HW130782   2.989   4.449   4.754  0.2721  0.5081  0.8801
 6383SOL    HW230783   3.001   4.525   4.877  0.1131  1.0383  0.0812
 6384SOL     OW30784   3.545   0.223   0.029 -0.6824 -0.6187 -0.1558
 6384SOL    HW130785   3.520   0.282   0.100  0.5932  0.0580 -0.2630
 6384SOL    HW230786   3.475   0.241  17.718 -1.6969 -0.5023  0.9987
 6385SOL     OW30787   3.596   1.230   0.467  0.0143  0.0878 -0.1988
 6385SOL    HW130788   3.679   1.191   0.441 -0.9706 -2.3572  0.3951
 6385SOL    HW230789   3.535   1.163   0.436  1.6402 -0.9109 -1.1926
 6386SOL     OW30790   1.419   0.745   7.285 -0.3522  0.2302  1.1945
 6386SOL    HW130791   1.432   0.784   7.199  3.1904 -2.0372  0.6852
 6386SOL    HW230792   1.326   0.763   7.299  0.1530  6.0721 -3.3957
 6387SOL     OW30793   1.021   4.314   3.646 -0.0636  0.1300 -0.1176
 6387SOL    HW130794   1.010   4.391   3.701 -1.0637  1.3465 -1.9986
 6387SOL    HW230795   0.932   4.288   3.623  0.6058  0.1136 -2.7788
 6388SOL     OW30796   2.160   3.654   5.297 -0.3109  0.2407  0.0375
 6388SOL    HW130797   2.118   3.740   5.301 -1.3980 -0.2621 -0.7968
 6388SOL    HW230798   2.253   3.677   5.298 -0.2839  0.1351 -0.7772
 6389SOL     OW30799   4.500   3.824   9.426  0.0213 -0.2024 -0.1665
 6389SOL    HW130800   4.569   3.820   9.359  0.3828 -1.1001  0.2571
 6389SOL    HW230801   4.559   3.837   9.501 -2.7290 -0.9953  2.1001
 6390SOL     OW30802   1.479   4.080   5.703 -0.7523 -0.2364 -0.2638
 6390SOL    HW130803   1.446   4.041   5.784 -1.7199 -0.3750 -0.7277
 6390SOL    HW230804   1.497   4.167   5.739  1.8210 -1.2087  0.8379
 6391SOL     OW30805   4.619   0.819   5.353  0.0050 -0.2896 -0.0792
 6391SOL    HW130806   4.559   0.892   5.335  1.4111  0.4839 -1.6748
 6391SOL    HW230807   4.601   0.789   5.442  0.5446  1.2523  0.5523
 6392SOL     OW30808   0.168   1.626   2.072  0.1500 -0.4454 -0.1910
 6392SOL    HW130809   0.089   1.583   2.105  0.0494  0.0008  0.1343
 6392SOL    HW230810   0.141   1.647   1.983  0.0407 -1.6489 -0.4412
 6393SOL     OW30811   2.448   3.810  10.360 -0.1819  0.2367 -0.0290
 6393SOL    HW130812   2.445   3.804  10.456 -0.9794 -1.3910 -0.1613
 6393SOL    HW230813   2.479   3.723  10.336  0.1065  0.8565 -1.8810
 6394SOL     OW30814   4.082   2.230   0.533 -0.8079 -0.0506 -0.1141
 6394SOL    HW130815   4.076   2.255   0.625 -1.5554  0.0673 -0.1983
 6394SOL    HW230816   4.084   2.135   0.533 -0.5550 -0.0451 -0.5416
 6395SOL     OW30817   3.525   4.254   1.033 -0.0778 -0.0746 -0.1155
 6395SOL    HW130818   3.515   4.240   1.127 -0.6397  0.2117 -0.1338
 6395SOL    HW230819   3.539   4.167   0.995 -0.3292  0.3886 -1.2615
 6396SOL     OW30820   2.803   0.014   6.545  0.2155 -0.2427 -0.5182
 6396SOL    HW130821   2.875   4.708   6.590  1.4357  3.4461  1.1790
 6396SOL    HW230822   2.765   4.679   6.498 -1.2956 -0.5187  1.1613
 6397SOL     OW30823   1.189   3.030  13.133 -0.5820  0.1347 -0.3578
 6397SOL    HW130824   1.113   3.086  13.150 -0.5929  0.1803 -0.5668
 6397SOL    HW230825   1.251   3.100  13.152 -2.6815  1.7012  0.8402
 6398SOL     OW30826   2.556   2.920   7.261  0.5388 -0.1687  0.1930
 6398SOL    HW130827   2.550   2.828   7.289 -3.2537  0.1382  0.3216
 6398SOL    HW230828   2.493   2.959   7.321 -0.3061  1.5186 -1.8234
 6399SOL     OW30829   3.977   2.000   4.317 -0.0418 -0.2221  0.9022
 6399SOL    HW130830   3.911   1.949   4.363  0.8964 -1.8675  0.4201
 6399SOL    HW230831   4.045   1.936   4.295 -0.7390 -0.8373  0.5656
 6400SOL     OW30832   0.158   3.497   2.655 -0.7008  0.2300  0.3359
 6400SOL    HW130833   0.182   3.477   2.564  1.2845 -0.8307  1.0815
 6400SOL    HW230834   0.152   3.409   2.693  1.0047 -0.1613 -0.3035
 6401SOL     OW30835   3.318   4.558   4.862 -0.5601 -0.5182 -0.1546
 6401SOL    HW130836   3.225   4.543   4.845 -1.1628  3.8305 -0.5981
 6401SOL    HW230837   3.324   4.609   4.943 -0.2097  1.1038 -1.2146
 6402SOL     OW30838   3.489   2.311  15.418 -0.4639  0.3197  0.5645
 6402SOL    HW130839   3.445   2.396  15.418 -0.1964  0.4588  0.2454
 6402SOL    HW230840   3.578   2.333  15.391 -0.3239 -0.5716  0.3023
 6403SOL     OW30841   0.789   3.860   6.615  0.4415 -0.5583 -0.3477
 6403SOL    HW130842   0.850   3.841   6.544  0.0752  0.0994 -0.8513
 6403SOL    HW230843   0.789   3.779   6.665  2.3457 -0.1373  0.3031
 6404SOL     OW30844   3.351   4.714   7.850  0.2255 -0.9375  0.5687
 6404SOL    HW130845   3.435   0.004   7.886  1.2754 -1.6477 -1.2580
 6404SOL    HW230846   3.359   4.725   7.755 -1.0432  4.0371  1.0434
 6405SOL     OW30847   4.643   4.185   6.417  0.0565 -0.1005  0.2325
 6405SOL    HW130848   4.610   4.268   6.452 -0.4754 -0.9137  1.6191
 6405SOL    HW230849   4.718   4.184   6.476  0.4667  0.1127 -0.2774
 6406SOL     OW30850   3.120   1.050   6.086 -0.7616  0.1342  0.4259
 6406SOL    HW130851   3.155   1.125   6.134  0.1472 -0.1821  0.2498
 6406SOL    HW230852   3.071   1.095   6.017 -2.4798 -2.2187  0.1505
 6407SOL     OW30853   0.807   1.020  15.451  0.1895 -0.1772 -0.0910
 6407SOL    HW130854   0.820   1.009  15.357 -1.8892  1.8177 -0.5788
 6407SOL    HW230855   0.868   0.953  15.482  0.5193 -0.1329 -0.6471
 6408SOL     OW30856   0.764   2.544   5.715 -0.0891 -0.1639  0.5783
 6408SOL    HW130857   0.697   2.555   5.783 -1.0190 -1.3638 -0.1593
 6408SOL    HW230858   0.709   2.511   5.644 -0.1499 -2.5001  1.7248
 6409SOL     OW30859   0.365   1.602   6.713  0.6867 -0.1579  0.1415
 6409SOL    HW130860   0.330   1.616   6.625  0.7815  3.7111  0.7420
 6409SOL    HW230861   0.364   1.507   6.727 -0.0237  0.2785  3.1306
 6410SOL     OW30862   4.380   4.125   6.616 -0.0553 -0.2075 -0.1139
 6410SOL    HW130863   4.296   4.079   6.617  0.0411 -0.3659  0.3385
 6410SOL    HW230864   4.384   4.130   6.520 -0.6317 -3.6527 -0.3082
 6411SOL     OW30865   0.769   1.848   5.560  0.4137  0.4394 -0.2431
 6411SOL    HW130866   0.755   1.869   5.653 -1.3704  0.0704 -0.4208
 6411SOL    HW230867   0.749   1.932   5.519  1.7696 -0.2781 -2.3806
 6412SOL     OW30868   3.995   2.127  11.239 -0.2744 -0.1776  0.3548
 6412SOL    HW130869   3.923   2.169  11.285 -2.8946 -0.6486 -3.2556
 6412SOL    HW230870   3.970   2.035  11.226 -1.0852 -0.1157  1.5697
 6413SOL     OW30871   1.398   3.134  16.627  0.7095 -0.3739 -0.3758
 6413SOL    HW130872   1.390   3.225  16.599  2.6519  0.5453  1.9979
 6413SOL    HW230873   1.487   3.130  16.661  0.8983 -0.4996 -0.8842
 6414SOL     OW30874   0.988   0.593   6.324  0.2869 -0.4078  0.4507
 6414SOL    HW130875   0.931   0.577   6.249  1.0168  1.3451 -0.4755
 6414SOL    HW230876   0.925   0.585   6.396 -1.1362 -0.5847 -0.8261
 6415SOL     OW30877   2.918   3.522   2.795  0.2309  0.4977  0.0474
 6415SOL    HW130878   2.938   3.445   2.742 -1.7813  1.5874 -2.3018
 6415SOL    HW230879   2.888   3.483   2.877 -0.9727  0.5937 -0.3550
 6416SOL     OW30880   0.817   2.387   0.377 -0.5338  0.1381 -0.2651
 6416SOL    HW130881   0.790   2.440   0.452 -2.2775 -2.1519  0.7154
 6416SOL    HW230882   0.747   2.401   0.313 -0.9374 -2.2371 -0.3200
 6417SOL     OW30883   2.151   3.757   5.010  0.4763  0.4902 -0.8643
 6417SOL    HW130884   2.214   3.805   5.063 -0.8741  0.1585  1.0347
 6417SOL    HW230885   2.087   3.828   5.000 -0.5392 -0.2161  0.5859
 6418SOL     OW30886   1.860   2.958   2.839  0.6877 -0.1593  0.6331
 6418SOL    HW130887   1.842   2.935   2.930  1.1527  1.0639  1.0288
 6418SOL    HW230888   1.947   2.923   2.819  1.3791  2.9039 -1.8089
 6419SOL     OW30889   2.636   1.574  13.279  0.2315  0.7456  0.5502
 6419SOL    HW130890   2.602   1.591  13.367  0.2162  0.5671  0.5790
 6419SOL    HW230891   2.730   1.575  13.295  0.4867 -0.7031 -0.8193
 6420SOL     OW30892   0.065   4.654  13.677 -0.5345  0.1710  0.7152
 6420SOL    HW130893   0.070   4.721  13.745 -0.1460  0.5830  0.2824
 6420SOL    HW230894   0.061   4.574  13.730  1.1049  0.2200  0.9159
 6421SOL     OW30895   1.748   3.252  10.809  0.0377  0.1433 -0.1434
 6421SOL    HW130896   1.706   3.235  10.893 -0.3267  1.2932 -0.0908
 6421SOL    HW230897   1.823   3.306  10.834  0.1712 -0.1270  0.0297
 6422SOL     OW30898   1.199   2.151   5.293 -0.4557 -0.0569  0.3205
 6422SOL    HW130899   1.207   2.068   5.245  0.5516  1.2953 -1.8775
 6422SOL    HW230900   1.193   2.125   5.384  0.0090  0.9727  0.6490
 6423SOL     OW30901   3.908   2.324   2.722  0.1440 -0.5780  0.1301
 6423SOL    HW130902   3.824   2.351   2.760  0.6135 -0.7004  1.2530
 6423SOL    HW230903   3.950   2.294   2.802 -1.4255 -0.1042  1.1397
 6424SOL     OW30904   0.806   0.172   4.371  1.2123  0.2759 -0.2201
 6424SOL    HW130905   0.871   0.232   4.335  0.7650  0.6506 -0.4021
 6424SOL    HW230906   0.778   0.126   4.292  1.2287  1.1652 -0.7363
 6425SOL     OW30907   4.293   0.058   5.280  0.0562 -0.0876 -0.4663
 6425SOL    HW130908   4.364   0.006   5.317  0.2271  1.1429  0.9428
 6425SOL    HW230909   4.329   0.085   5.196  0.7322  2.1546  0.5453
 6426SOL     OW30910   3.489   3.036   7.040 -0.3026  0.5605  0.3978
 6426SOL    HW130911   3.574   3.042   6.996  0.0605 -1.2431  0.8328
 6426SOL    HW230912   3.432   3.057   6.966  1.0073  1.7396 -0.2736
 6427SOL     OW30913   4.663   3.148   0.749  0.6617 -0.6260 -0.2082
 6427SOL    HW130914   4.574   3.170   0.720  0.7016 -0.2694 -0.0650
 6427SOL    HW230915   4.717   3.164   0.671  0.7100 -0.6256 -0.1741
 6428SOL     OW30916   2.414   0.856  13.294 -0.1092 -0.2742  0.3507
 6428SOL    HW130917   2.366   0.773  13.299 -2.6494  1.1856  0.3580
 6428SOL    HW230918   2.478   0.834  13.226  1.2174 -0.2912  1.6218
 6429SOL     OW30919   0.025   1.468  11.691 -0.1599 -0.2994 -0.1856
 6429SOL    HW130920   0.045   1.562  11.690 -0.0360 -0.3284 -0.8107
 6429SOL    HW230921   4.689   1.477  11.750  1.5892 -1.4577  2.1888
 6430SOL     OW30922   1.917   2.636  17.408 -0.4197  0.4341 -0.2241
 6430SOL    HW130923   1.976   2.712  17.410 -1.0695  0.9715 -1.5453
 6430SOL    HW230924   1.981   2.578  17.367  1.2773  2.3217 -0.2167
 6431SOL     OW30925   2.212   0.398   1.761 -0.4554 -0.3716 -0.3416
 6431SOL    HW130926   2.174   0.464   1.703  0.6657  0.6015  0.0355
 6431SOL    HW230927   2.278   0.357   1.704 -0.2860 -1.8484  0.9089
 6432SOL     OW30928   3.399   0.853   6.327  0.4572 -0.4726  0.0221
 6432SOL    HW130929   3.489   0.881   6.314  0.3788 -0.5030 -0.5782
 6432SOL    HW230930   3.359   0.868   6.242 -0.4116  1.4595  0.7788
 6433SOL     OW30931   3.389   3.590   7.794  0.2887 -0.9086  0.3198
 6433SOL    HW130932   3.295   3.610   7.786  0.4230 -0.2497  0.3469
 6433SOL    HW230933   3.425   3.655   7.734 -0.1751 -0.4522  0.5265
 6434SOL     OW30934   1.994   1.986   4.543 -0.4358 -0.6900  0.1429
 6434SOL    HW130935   2.050   2.022   4.474  0.8536 -0.7898  1.1250
 6434SOL    HW230936   1.913   2.014   4.502 -1.0760 -1.8558  0.6380
 6435SOL     OW30937   1.178   1.834  14.846  0.0803 -0.9500 -0.2104
 6435SOL    HW130938   1.237   1.908  14.858 -1.1254 -0.2534  1.3849
 6435SOL    HW230939   1.140   1.818  14.933 -1.8587  0.0650 -0.8651
 6436SOL     OW30940   2.828   2.797  14.574  0.3110 -0.1073  0.2317
 6436SOL    HW130941   2.886   2.839  14.638  2.7188 -1.5794 -1.0236
 6436SOL    HW230942   2.739   2.820  14.601  0.0063 -1.2801  0.1926
 6437SOL     OW30943   3.437   0.588   3.530  0.2506  0.1483 -0.2134
 6437SOL    HW130944   3.493   0.519   3.493 -0.2262 -0.9847  1.1766
 6437SOL    HW230945   3.397   0.628   3.453 -2.2409  0.7858  1.4088
 6438SOL     OW30946   0.838   2.061   3.897 -0.2166  0.3430 -0.0227
 6438SOL    HW130947   0.914   2.057   3.838 -2.0960  2.7207 -2.5660
 6438SOL    HW230948   0.811   1.969   3.893 -0.0918  0.3273 -0.6013
 6439SOL     OW30949   4.273   1.855   4.116 -0.0947  0.1547  0.3263
 6439SOL    HW130950   4.366   1.837   4.133 -0.3849 -1.7169 -0.0456
 6439SOL    HW230951   4.250   1.887   4.203 -3.8866 -0.5484 -0.4207
 6440SOL     OW30952   2.986   1.092   4.846  0.1389 -0.1045  0.0327
 6440SOL    HW130953   2.981   1.003   4.813  0.2845  0.2325 -0.8971
 6440SOL    HW230954   2.958   1.147   4.773  2.0886  3.4820  1.9876
 6441SOL     OW30955   0.839   0.995   4.542 -0.2851 -0.3959 -0.6215
 6441SOL    HW130956   0.917   0.954   4.579  0.3937  1.8147  0.4246
 6441SOL    HW230957   0.775   0.927   4.560  0.6074 -1.1591 -0.3704
 6442SOL     OW30958   0.101   1.880  10.919  0.1010  0.0089 -0.4605
 6442SOL    HW130959   0.029   1.921  10.871  1.0936 -1.5359 -3.2843
 6442SOL    HW230960   0.083   1.790  10.892  1.2251  0.2307 -1.9255
 6443SOL     OW30961   0.150   1.521  12.837  0.9931  1.0073 -0.2536
 6443SOL    HW130962   0.138   1.578  12.914  3.6744  2.6591 -1.0723
 6443SOL    HW230963   0.070   1.470  12.826  1.2486  0.8276 -1.2717
 6444SOL     OW30964   2.846   2.967  10.761 -0.3615 -0.2146 -0.4289
 6444SOL    HW130965   2.805   2.979  10.675 -0.6270  4.4090  0.3468
 6444SOL    HW230966   2.904   2.895  10.737 -0.0470  0.5113 -1.8663
 6445SOL     OW30967   2.856   1.944  12.309 -0.1996 -0.1890 -0.1557
 6445SOL    HW130968   2.932   1.981  12.265 -0.9190  1.9413  0.4051
 6445SOL    HW230969   2.868   1.972  12.400  0.2957 -1.8002  0.2825
 6446SOL     OW30970   1.535   2.681  10.475 -0.6276  0.0254 -0.0088
 6446SOL    HW130971   1.504   2.772  10.482 -2.8329 -0.6637 -0.8462
 6446SOL    HW230972   1.541   2.666  10.380  0.1715 -1.2086  0.2552
 6447SOL     OW30973   0.465   1.552   0.236  0.2558 -0.5628  0.3599
 6447SOL    HW130974   0.519   1.478   0.208 -2.3432 -1.3711 -2.4257
 6447SOL    HW230975   0.394   1.504   0.277 -0.3336 -1.2997 -1.5218
 6448SOL     OW30976   1.493   4.091  15.103 -0.0804  0.3008 -0.5937
 6448SOL    HW130977   1.463   4.114  15.015 -1.2955  0.0452 -0.2406
 6448SOL    HW230978   1.522   4.174  15.140  1.2366 -0.9585  1.2137
 6449SOL     OW30979   3.299   3.038   2.129  0.3154 -0.4399  0.4872
 6449SOL    HW130980   3.346   3.076   2.203 -0.9584  0.8834  0.6116
 6449SOL    HW230981   3.357   3.066   2.058  1.9886 -1.1923  1.5530
 6450SOL     OW30982   2.273   0.719   4.393  0.0189 -0.4105 -0.0577
 6450SOL    HW130983   2.245   0.750   4.478 -1.6021 -2.5672  0.1978
 6450SOL    HW230984   2.357   0.677   4.413  0.4219 -0.1709 -1.2455
 6451SOL     OW30985   2.584   3.508  10.576  0.5843 -0.0301 -0.4683
 6451SOL    HW130986   2.539   3.517  10.660 -2.8225 -2.3392 -2.0219
 6451SOL    HW230987   2.656   3.568  10.596  1.8702 -1.2868 -1.3007
 6452SOL     OW30988   1.508   0.670   3.256  0.0048  0.2766 -0.3144
 6452SOL    HW130989   1.560   0.731   3.308  0.2231 -0.1008 -0.0926
 6452SOL    HW230990   1.438   0.717   3.211 -1.6330 -0.0131  1.9472
 6453SOL     OW30991   2.247   2.125  17.292 -0.1472 -0.2212  0.1264
 6453SOL    HW130992   2.209   2.205  17.328  1.0952  0.8464 -0.9001
 6453SOL    HW230993   2.173   2.065  17.302 -0.0555 -0.1071  1.4232
 6454SOL     OW30994   3.886   4.622  12.888  0.0471 -0.6098 -0.5944
 6454SOL    HW130995   3.857   4.558  12.954 -0.1882  1.7086  1.5493
 6454SOL    HW230996   3.873   4.563  12.814 -0.3494 -0.4810 -0.6257
 6455SOL     OW30997   0.390   3.823   0.803  0.2880  0.3915  0.0167
 6455SOL    HW130998   0.344   3.876   0.868  1.4408  0.7537  0.5272
 6455SOL    HW230999   0.316   3.798   0.747  0.6739  0.5438 -0.5656
 6456SOL     OW31000   1.194   2.481   2.453  0.3927 -0.2575  0.2505
 6456SOL    HW131001   1.242   2.559   2.428 -0.1882 -0.6996 -2.2503
 6456SOL    HW231002   1.261   2.421   2.486 -0.1667 -1.2758 -0.4695
 6457SOL     OW31003   2.966   2.258  10.499 -0.3685  0.4257 -0.5921
 6457SOL    HW131004   2.915   2.222  10.426  0.3443  1.9498 -1.8487
 6457SOL    HW231005   2.902   2.298  10.557 -0.7074  2.0139 -2.0479
 6458SOL     OW31006   4.585   1.720   6.279  0.8824  0.1072 -0.1094
 6458SOL    HW131007   4.537   1.707   6.361  0.4467  2.1393 -0.0338
 6458SOL    HW231008   4.674   1.745   6.302  0.2835  1.3557  0.8837
 6459SOL     OW31009   0.210   1.626   8.778 -0.0518 -0.4863 -0.0116
 6459SOL    HW131010   0.233   1.717   8.797 -1.7683 -0.3569  1.4712
 6459SOL    HW231011   0.117   1.647   8.788  0.2834  1.6677 -1.4212
 6460SOL     OW31012   0.512   1.064   4.973 -0.5972  0.2729  0.1107
 6460SOL    HW131013   0.602   1.091   4.992 -1.1092  0.7877  1.8221
 6460SOL    HW231014   0.466   1.136   5.017 -0.4175 -0.0549  0.8369
 6461SOL     OW31015   0.375   4.086   4.221  0.0540  0.5822 -0.5983
 6461SOL    HW131016   0.396   4.173   4.188 -0.9814  0.1437 -2.3783
 6461SOL    HW231017   0.280   4.092   4.233  0.4999  1.5081  2.4315
 6462SOL     OW31018   2.060   4.726   4.059 -0.0113 -0.2069 -0.2059
 6462SOL    HW131019   1.966   0.003   4.065  0.3394  2.8366 -2.8119
 6462SOL    HW231020   2.049   4.634   4.035  1.3167 -0.0702 -1.3503
 6463SOL     OW31021   2.136   4.639  14.622 -0.0765 -0.2388 -0.4572
 6463SOL    HW131022   2.169   4.718  14.664  3.3787 -1.8462 -0.2108
 6463SOL    HW231023   2.060   4.680  14.580  0.1281  0.3030 -0.2967
 6464SOL     OW31024   2.137   4.647   5.785  1.0512  0.2295  0.0757
 6464SOL    HW131025   2.070   4.693   5.835  1.4302  1.9761 -1.0197
 6464SOL    HW231026   2.111   4.673   5.696  3.3072  0.6868 -0.4588
 6465SOL     OW31027   4.544   3.397   8.411 -0.1297  0.0234  0.1970
 6465SOL    HW131028   4.489   3.429   8.482  1.2080  1.1301  0.7520
 6465SOL    HW231029   4.535   3.303   8.426 -1.0758 -0.1004 -1.2128
 6466SOL     OW31030   0.461   1.694  15.768 -0.4445 -0.1757 -0.1411
 6466SOL    HW131031   0.555   1.706  15.778 -0.5869  0.5316  0.3683
 6466SOL    HW231032   0.434   1.768  15.713 -1.7953 -1.0543 -0.6640
 6467SOL     OW31033   4.442   0.115  12.206  0.6492 -0.1788  0.9903
 6467SOL    HW131034   4.354   0.129  12.241 -0.4334  1.6939 -2.4274
 6467SOL    HW231035   4.484   0.201  12.217  0.6759 -0.1073  0.3278
 6468SOL     OW31036   1.258   0.502   2.668 -0.0497 -0.7882 -0.3753
 6468SOL    HW131037   1.315   0.470   2.599  0.8848 -1.3322  0.6475
 6468SOL    HW231038   1.273   0.597   2.668 -0.5256 -0.7139  0.3741
 6469SOL     OW31039   4.342   2.443  12.428 -0.1588  0.3117 -0.1081
 6469SOL    HW131040   4.361   2.359  12.386  2.3704  1.7043 -1.7647
 6469SOL    HW231041   4.280   2.489  12.373 -0.5687 -1.1807 -0.8997
 6470SOL     OW31042   4.166   0.794   5.153 -0.7865 -0.1195  0.6637
 6470SOL    HW131043   4.095   0.757   5.206 -0.6413  0.0185  0.9531
 6470SOL    HW231044   4.133   0.793   5.063  0.3552 -0.1899  0.2477
 6471SOL     OW31045   1.484   0.472   5.070  0.8163  0.3771  0.1118
 6471SOL    HW131046   1.538   0.453   4.994 -1.6951  3.1854 -2.3424
 6471SOL    HW231047   1.533   0.429   5.141  1.4894 -0.4052 -0.8288
 6472SOL     OW31048   0.752   2.320  12.034  0.4652  0.2597 -0.0144
 6472SOL    HW131049   0.846   2.322  12.021  0.6429  0.0132  1.2056
 6472SOL    HW231050   0.732   2.227  12.045 -1.5604  0.7072  0.2013
 6473SOL     OW31051   0.153   0.150   3.230  0.7062  0.0245 -0.4860
 6473SOL    HW131052   0.203   0.222   3.193  0.9132 -0.0703 -0.3900
 6473SOL    HW231053   0.100   0.211   3.281  0.4517  0.1307 -0.8688
 6474SOL     OW31054   3.235   0.908  12.125 -0.6121 -0.5381 -0.2716
 6474SOL    HW131055   3.245   0.909  12.029  2.5738  0.7884  0.0679
 6474SOL    HW231056   3.327   0.912  12.151 -1.7263  2.4847  3.1208
 6475SOL     OW31057   4.010   1.189  16.286 -0.3018 -0.3212 -0.5756
 6475SOL    HW131058   4.056   1.215  16.365 -1.6816 -0.3086  0.2155
 6475SOL    HW231059   3.969   1.265  16.245 -0.2385  0.3106  0.5568
 6476SOL     OW31060   2.079   2.348   6.129 -0.2847  0.7954 -0.2390
 6476SOL    HW131061   1.997   2.316   6.166  0.1182  3.5005  2.9743
 6476SOL    HW231062   2.142   2.282   6.159 -1.7654  0.5317  2.2737
 6477SOL     OW31063   2.088   0.384  11.445  0.0531  0.3366  0.1862
 6477SOL    HW131064   2.089   0.468  11.490  1.4867  1.0130 -1.0875
 6477SOL    HW231065   2.112   0.332  11.521 -2.7459 -2.7395 -1.0196
 6478SOL     OW31066   3.700   4.186  11.035 -0.4641 -0.1482 -0.0529
 6478SOL    HW131067   3.673   4.097  11.010 -0.3871  0.3448 -1.9022
 6478SOL    HW231068   3.788   4.183  10.998 -0.5184  0.3434 -0.2166
 6479SOL     OW31069   1.661   0.988  15.842 -0.0468  1.0568 -0.6896
 6479SOL    HW131070   1.709   0.968  15.761  1.3502  1.6756 -0.0227
 6479SOL    HW231071   1.576   1.016  15.807 -0.6724  1.4619  1.1976
 6480SOL     OW31072   0.089   1.427   7.663 -0.4730  0.0225  0.4721
 6480SOL    HW131073   0.007   1.431   7.613 -1.2066  2.5589  1.8868
 6480SOL    HW231074   0.149   1.491   7.626  0.5079 -0.9243  0.4265
 6481SOL     OW31075   3.874   0.924   1.014 -0.5589  0.0238  0.1626
 6481SOL    HW131076   3.901   1.016   1.010  0.4158 -0.0734  4.1229
 6481SOL    HW231077   3.925   0.885   0.944  1.2363  0.1665  1.3750
 6482SOL     OW31078   3.996   1.304   9.232  0.0485  0.2256  0.1463
 6482SOL    HW131079   4.013   1.328   9.323  0.2159  2.1456 -0.3798
 6482SOL    HW231080   4.037   1.377   9.186 -1.3335  1.8693  1.5242
 6483SOL     OW31081   1.849   1.253   5.322 -0.0564  0.2243  0.0122
 6483SOL    HW131082   1.849   1.157   5.324 -0.5067  0.2503  1.0229
 6483SOL    HW231083   1.808   1.265   5.237 -2.2893  1.6819  1.3046
 6484SOL     OW31084   1.947   2.195   3.397 -0.0371 -0.0091  0.0077
 6484SOL    HW131085   1.981   2.259   3.335  0.9479 -0.4790  0.0509
 6484SOL    HW231086   2.020   2.133   3.405 -0.5624 -0.6336 -0.0860
 6485SOL     OW31087   2.490   4.671  10.154 -0.3907  0.4469 -0.4797
 6485SOL    HW131088   2.408   4.625  10.139  1.0696 -1.5818 -2.2274
 6485SOL    HW231089   2.467   0.022  10.181 -0.8046 -0.3845  1.8552
 6486SOL     OW31090   4.268   1.924   5.543 -0.5669  0.1042 -0.5349
 6486SOL    HW131091   4.297   1.872   5.618 -1.9716 -1.8815 -1.3843
 6486SOL    HW231092   4.353   1.947   5.506 -0.0489 -0.6820  0.1589
 6487SOL     OW31093   1.933   0.662   7.189 -0.0234  0.4193 -0.2414
 6487SOL    HW131094   1.993   0.691   7.119  1.9030  0.1593  1.2905
 6487SOL    HW231095   1.864   0.622   7.137  0.5505  1.9722 -2.2071
 6488SOL     OW31096   1.157   3.018   4.949  0.1082 -0.5204  0.1491
 6488SOL    HW131097   1.215   3.094   4.940  0.1351 -0.5759 -0.1672
 6488SOL    HW231098   1.150   2.989   4.858  0.5530 -0.3919  0.0768
 6489SOL     OW31099   0.753   4.031  15.044  0.3915 -0.1946 -0.2220
 6489SOL    HW131100   0.719   4.115  15.013  2.7250  0.1943 -1.7784
 6489SOL    HW231101   0.817   4.068  15.105  3.0392 -3.5018 -0.9698
 6490SOL     OW31102   0.963   2.136   1.065 -0.0334 -0.2860 -0.8069
 6490SOL    HW131103   0.957   2.059   1.007 -0.2406  0.0285 -1.2072
 6490SOL    HW231104   0.957   2.089   1.148  0.7908  2.9409  1.0824
 6491SOL     OW31105   2.450   3.933   8.038  0.0299  0.3940 -1.1475
 6491SOL    HW131106   2.370   3.941   8.091  0.6982  0.2084 -0.1003
 6491SOL    HW231107   2.488   3.861   8.089 -0.6163  1.5798  1.0065
 6492SOL     OW31108   2.744   0.942   6.784  0.6907  0.3415 -0.8037
 6492SOL    HW131109   2.737   1.023   6.834 -3.0775 -1.0144  0.8829
 6492SOL    HW231110   2.827   0.951   6.737  0.5126 -2.5630 -1.6921
 6493SOL     OW31111   0.154   1.103   2.539  0.6510 -0.0003  0.4267
 6493SOL    HW131112   0.195   1.047   2.605  2.7012  1.3676  0.3011
 6493SOL    HW231113   0.224   1.137   2.484  2.5549 -0.8705  2.3394
 6494SOL     OW31114   2.796   3.627   3.809 -0.3105 -0.4687  0.0415
 6494SOL    HW131115   2.890   3.637   3.791 -0.5715 -0.6891 -1.3994
 6494SOL    HW231116   2.797   3.548   3.863 -0.0877 -1.3905 -1.3118
 6495SOL     OW31117   0.997   3.012   7.085 -0.2972  0.3658  0.2570
 6495SOL    HW131118   0.979   3.094   7.038 -0.2946  0.2792  0.1063
 6495SOL    HW231119   0.960   3.037   7.170  0.8811  1.4614  0.4606
 6496SOL     OW31120   3.004   3.353   3.299  0.0973  0.0204 -0.4155
 6496SOL    HW131121   3.010   3.401   3.382  0.0858 -0.1429 -0.3209
 6496SOL    HW231122   2.929   3.299   3.324  1.0571 -3.6155 -5.5256
 6497SOL     OW31123   1.988   2.047   9.568  0.5652  0.6138  0.1012
 6497SOL    HW131124   1.920   2.111   9.589 -2.2394 -1.9573 -0.9217
 6497SOL    HW231125   2.057   2.064   9.631 -0.1875 -0.3078  1.1825
 6498SOL     OW31126   2.292   1.621  15.356  0.0881  0.4274 -0.7394
 6498SOL    HW131127   2.303   1.664  15.441  0.5164 -1.0438 -0.0614
 6498SOL    HW231128   2.332   1.683  15.295 -0.8473 -1.1132 -2.9019
 6499SOL     OW31129   3.622   2.459   1.416  0.3523 -0.2830  0.3592
 6499SOL    HW131130   3.535   2.496   1.428  0.5263 -0.2502  1.5108
 6499SOL    HW231131   3.651   2.512   1.342 -0.6114  0.6356  0.6597
 6500SOL     OW31132   2.101   2.999   8.735  0.2872 -0.0920  0.1155
 6500SOL    HW131133   2.113   2.910   8.767 -2.2697 -0.3319  0.4031
 6500SOL    HW231134   2.008   2.998   8.711  0.3569 -1.4304 -0.0864
 6501SOL     OW31135   2.611   3.692  10.857 -0.0162 -0.4254  0.6360
 6501SOL    HW131136   2.562   3.728  10.783  2.3565  1.1766 -0.1256
 6501SOL    HW231137   2.636   3.773  10.902  2.2882 -0.9072  0.2119
 6502SOL     OW31138   2.809   2.389   8.869 -0.0421 -0.0658  0.0409
 6502SOL    HW131139   2.901   2.381   8.891  0.3178  0.4112 -1.2739
 6502SOL    HW231140   2.792   2.483   8.868  1.1175  0.1385 -0.4352
 6503SOL     OW31141   2.086   2.924   7.474  0.0892 -0.2200 -0.4845
 6503SOL    HW131142   2.151   2.975   7.522 -0.1896  0.1835 -0.5342
 6503SOL    HW231143   2.035   2.991   7.428  0.6144  0.1457 -0.5314
 6504SOL     OW31144   1.548   4.572   5.924  0.1355  0.1907  0.1700
 6504SOL    HW131145   1.479   4.537   5.981  0.1518  1.0211  0.6962
 6504SOL    HW231146   1.624   4.537   5.970 -1.0331 -0.7168  1.4144
 6505SOL     OW31147   3.756   2.693   0.482  0.2061  0.1976 -0.1181
 6505SOL    HW131148   3.678   2.665   0.531 -0.2245  0.0002 -0.9176
 6505SOL    HW231149   3.731   2.642   0.405 -0.8496 -0.9021  0.9601
 6506SOL     OW31150   4.210   1.779   3.270 -0.1641  0.0649  0.2388
 6506SOL    HW131151   4.142   1.775   3.203 -1.0151 -0.4639  1.1295
 6506SOL    HW231152   4.156   1.772   3.349 -0.7098 -3.2569 -0.4317
 6507SOL     OW31153   0.478   1.658  14.354 -0.0898 -0.2596  0.5145
 6507SOL    HW131154   0.513   1.745  14.334 -0.1421 -0.2549  0.4427
 6507SOL    HW231155   0.543   1.623  14.414  2.2444  1.9779 -0.7386
 6508SOL     OW31156   4.380   2.257   4.728 -0.1189  0.0997 -0.0603
 6508SOL    HW131157   4.455   2.290   4.779 -0.2517  2.3527 -1.3473
 6508SOL    HW231158   4.409   2.177   4.683 -0.8112 -0.2697  0.1511
 6509SOL     OW31159   1.890   4.145   1.048 -0.2123 -0.6421  0.1960
 6509SOL    HW131160   1.957   4.079   1.066  1.5880  1.0659 -0.1545
 6509SOL    HW231161   1.880   4.135   0.954 -2.7912 -1.8928  0.6097
 6510SOL     OW31162   0.329   3.316   8.396  0.4401  0.5655 -0.3050
 6510SOL    HW131163   0.415   3.357   8.393  0.5112  0.4920  0.8665
 6510SOL    HW231164   0.278   3.368   8.458 -0.2212 -1.3131  0.7054
 6511SOL     OW31165   4.282   0.845   5.865  0.2473 -0.3955 -0.2115
 6511SOL    HW131166   4.303   0.917   5.925  1.0909 -0.6012 -0.2644
 6511SOL    HW231167   4.188   0.837   5.882  0.1587 -2.2683 -1.6381
 6512SOL     OW31168   4.661   1.206  16.084  0.9853  0.2255  0.5591
 6512SOL    HW131169   4.636   1.296  16.067 -1.8324 -0.7138 -0.3569
 6512SOL    HW231170   4.590   1.187  16.146 -0.9901  1.3386 -1.3698
 6513SOL     OW31171   2.413   1.051   4.541  0.9150 -0.1557 -0.1144
 6513SOL    HW131172   2.457   0.965   4.542 -0.4103 -0.8529 -2.5902
 6513SOL    HW231173   2.404   1.065   4.635  0.4185  0.4219 -0.2535
 6514SOL     OW31174   3.181   2.890  12.037  0.3273 -0.2479 -0.3177
 6514SOL    HW131175   3.134   2.942  12.102  0.9510 -0.0634 -0.0212
 6514SOL    HW231176   3.134   2.900  11.954 -2.2927 -1.2629  1.0185
 6515SOL     OW31177   3.593   2.983   2.966 -0.7722  0.0426  0.2382
 6515SOL    HW131178   3.677   3.026   2.949 -0.2055 -1.4965 -0.7946
 6515SOL    HW231179   3.561   2.973   2.877 -1.1588 -0.1398  0.3972
 6516SOL     OW31180   2.142   4.016   3.986 -0.0100 -0.3140 -0.0964
 6516SOL    HW131181   2.148   4.109   4.010 -0.1939 -0.0335 -1.1666
 6516SOL    HW231182   2.160   4.014   3.892  2.8419  0.2835  0.4379
 6517SOL     OW31183   1.805   2.791   7.446  0.6902  0.2805  0.3178
 6517SOL    HW131184   1.777   2.860   7.385 -0.8979 -1.4586 -0.8967
 6517SOL    HW231185   1.857   2.842   7.508  2.6092 -1.4409  0.1244
 6518SOL     OW31186   3.328   2.871   3.055  0.1123 -0.2885 -0.1168
 6518SOL    HW131187   3.424   2.864   3.052  0.0463 -0.1111 -2.8869
 6518SOL    HW231188   3.310   2.790   3.006  2.1821 -0.6092 -0.3692
 6519SOL     OW31189   2.082   1.334  11.491  0.0682  0.0197  0.1735
 6519SOL    HW131190   2.118   1.414  11.528  0.3965  0.2664 -0.6845
 6519SOL    HW231191   2.029   1.293  11.560 -0.7043 -0.2532 -0.5753
 6520SOL     OW31192   2.015   0.131   8.830  0.0151  0.5104  0.2416
 6520SOL    HW131193   1.999   0.055   8.773  1.4322  0.4804 -0.1085
 6520SOL    HW231194   1.925   0.160   8.845 -0.4117 -1.3112  1.3065
 6521SOL     OW31195   2.226   1.276  15.161  0.0638 -0.4329  0.0815
 6521SOL    HW131196   2.254   1.294  15.251  0.4969  2.8177 -0.6861
 6521SOL    HW231197   2.310   1.269  15.116 -0.1750  2.1580 -0.7840
 6522SOL     OW31198   1.177   2.617   4.766  0.0838  0.2181  0.2028
 6522SOL    HW131199   1.127   2.582   4.839 -0.6728  1.0126  0.0722
 6522SOL    HW231200   1.109   2.632   4.701 -0.0913 -2.4188 -0.1936
 6523SOL     OW31201   0.638   3.711   7.390  0.0869 -0.0080  0.2348
 6523SOL    HW131202   0.655   3.728   7.298  0.3039  0.4421  0.3580
 6523SOL    HW231203   0.575   3.640   7.381  1.0178 -1.3254  3.9914
 6524SOL     OW31204   3.790   2.579  14.180 -0.4860  0.2016  0.0155
 6524SOL    HW131205   3.802   2.526  14.101  0.4275 -1.2672  1.1352
 6524SOL    HW231206   3.877   2.616  14.195 -0.2732  0.6234 -2.2207
 6525SOL     OW31207   0.387   0.351   7.540 -0.1709  0.1102  0.3564
 6525SOL    HW131208   0.331   0.427   7.558 -1.3750 -0.7524  0.3264
 6525SOL    HW231209   0.451   0.339   7.610 -0.0448 -0.9718  0.0599
 6526SOL     OW31210   1.065   2.768  15.029  0.0771  0.2994  0.6187
 6526SOL    HW131211   1.036   2.779  14.939  0.5049  1.8842  0.6828
 6526SOL    HW231212   0.982   2.757  15.077 -0.4053 -0.8173 -0.4662
 6527SOL     OW31213   3.410   3.714   1.284 -0.2823 -0.2429  0.3095
 6527SOL    HW131214   3.386   3.621   1.285 -2.1832  0.2396 -1.9446
 6527SOL    HW231215   3.325   3.743   1.251  0.3540 -2.1491 -3.0149
 6528SOL     OW31216   4.093   0.021   3.927 -0.1364 -0.1049 -0.6413
 6528SOL    HW131217   4.103   0.116   3.919 -0.1752 -0.4594 -4.6891
 6528SOL    HW231218   4.022   0.000   3.867 -0.2174  0.4255 -0.7298
 6529SOL     OW31219   4.682   1.692   7.349 -0.0132 -0.7192  0.2797
 6529SOL    HW131220   4.634   1.709   7.430  0.6458 -0.6273  0.6472
 6529SOL    HW231221   4.715   1.776   7.316 -0.3641  0.1423  2.1163
 6530SOL     OW31222   4.278   1.060   7.047 -0.0296  0.0882  0.4522
 6530SOL    HW131223   4.208   1.017   6.998 -0.1054  0.8908 -0.1534
 6530SOL    HW231224   4.228   1.124   7.098 -0.0758  0.6587 -0.3163
 6531SOL     OW31225   3.189   1.465   3.952 -0.3499 -0.5727 -0.4651
 6531SOL    HW131226   3.124   1.445   3.884 -1.1340  1.0342 -0.1822
 6531SOL    HW231227   3.267   1.481   3.899  0.2092 -1.9941 -0.0971
 6532SOL     OW31228   4.724   1.721   6.747 -0.9054 -0.3646 -0.2279
 6532SOL    HW131229   4.733   1.734   6.841 -0.7311 -0.4041 -0.2388
 6532SOL    HW231230   4.716   1.626   6.736  0.2961 -0.8266  2.9843
 6533SOL     OW31231   1.660   4.172  11.019  0.1792  0.2795  0.0094
 6533SOL    HW131232   1.734   4.232  11.025 -0.6874  1.5789 -2.0549
 6533SOL    HW231233   1.686   4.086  11.053  1.5542  0.1257 -1.4446
 6534SOL     OW31234   3.467   3.801  12.575 -0.0783  0.4804  0.0098
 6534SOL    HW131235   3.377   3.833  12.571  0.2860  1.5054 -0.0539
 6534SOL    HW231236   3.504   3.883  12.609 -0.7100  0.9265 -0.3846
 6535SOL     OW31237   2.894   0.213   3.980  0.2019 -0.0617  0.3817
 6535SOL    HW131238   2.913   0.151   3.909 -2.8123  0.3099 -0.7494
 6535SOL    HW231239   2.970   0.197   4.036 -0.0286  0.5411  0.8626
 6536SOL     OW31240   3.729   4.647   3.053 -0.3123 -0.0050  0.2894
 6536SOL    HW131241   3.755   4.556   3.063 -0.8910  0.0676  2.4127
 6536SOL    HW231242   3.635   4.642   3.035 -0.1540  0.5159 -0.6604
 6537SOL     OW31243   0.352   1.192   2.928  0.2461 -0.4928 -0.1915
 6537SOL    HW131244   0.419   1.258   2.910 -1.4751  1.2924 -0.0834
 6537SOL    HW231245   0.278   1.251   2.940  2.2465  1.7733  1.1097
 6538SOL     OW31246   0.095   1.642   4.081 -0.2997 -0.3232 -0.0699
 6538SOL    HW131247   0.064   1.709   4.021 -1.0976  0.0270  0.7471
 6538SOL    HW231248   0.187   1.668   4.086  0.0460 -1.7489  0.9398
 6539SOL     OW31249   1.618   0.686  10.556 -0.4386  0.3354  0.3493
 6539SOL    HW131250   1.708   0.684  10.524  0.0603  1.2769  1.6822
 6539SOL    HW231251   1.635   0.637  10.637  0.1499  0.3889  0.2561
 6540SOL     OW31252   3.661   0.967   3.566 -0.3885 -0.4954  0.8732
 6540SOL    HW131253   3.650   1.060   3.587  1.9224 -0.1458  0.6035
 6540SOL    HW231254   3.724   0.969   3.494  0.5735  0.2247  1.7252
 6541SOL     OW31255   2.624   3.364  14.901  0.8834 -0.4439  0.0646
 6541SOL    HW131256   2.608   3.294  14.964  0.0395 -1.0487 -0.8307
 6541SOL    HW231257   2.719   3.373  14.888  0.5314  2.1080 -0.6868
 6542SOL     OW31258   3.701   2.745   1.449  0.0500 -0.5993 -0.0282
 6542SOL    HW131259   3.765   2.782   1.510  0.8125 -0.7517 -0.7277
 6542SOL    HW231260   3.635   2.718   1.512  0.3110  0.4218  0.6698
 6543SOL     OW31261   1.108   3.873   9.440 -0.2226 -0.1004 -0.7108
 6543SOL    HW131262   1.165   3.847   9.513  0.2523 -0.0373 -1.0569
 6543SOL    HW231263   1.116   3.968   9.453  0.5317 -0.3202  0.5244
 6544SOL     OW31264   4.700   2.977   8.773  0.1839 -0.0897  0.1057
 6544SOL    HW131265   0.047   2.995   8.734  1.4344 -0.7346  2.5431
 6544SOL    HW231266   4.713   3.015   8.859  0.0821 -3.6932  1.7154
 6545SOL     OW31267   2.616   1.418   5.923 -0.0283  0.2532  0.3873
 6545SOL    HW131268   2.646   1.365   5.849 -0.4171 -1.4492  1.4505
 6545SOL    HW231269   2.533   1.459   5.897 -1.0232 -2.1498 -0.2180
 6546SOL     OW31270   4.560   1.185   0.618 -0.3764 -1.1999  0.5301
 6546SOL    HW131271   4.470   1.210   0.638 -0.5507 -2.1585  0.9449
 6546SOL    HW231272   4.608   1.237   0.683  1.3569 -0.8580 -1.0092
 6547SOL     OW31273   4.128   4.632   5.026  0.4128  0.4698 -0.4205
 6547SOL    HW131274   4.209   4.588   5.053 -1.3488 -2.1341  0.5814
 6547SOL    HW231275   4.087   4.652   5.111  0.4100 -0.0649 -0.2982
 6548SOL     OW31276   0.632   2.904   5.424  0.1186  0.2430  0.4234
 6548SOL    HW131277   0.693   2.883   5.354 -0.9970  0.1884 -0.5411
 6548SOL    HW231278   0.690   2.905   5.500 -0.4408  1.0344  0.8457
 6549SOL     OW31279   1.952   1.664   5.822  0.5556  0.0120  0.3211
 6549SOL    HW131280   2.042   1.659   5.790  0.0761 -1.9142 -0.7103
 6549SOL    HW231281   1.912   1.642   5.738  1.8836  1.9440 -0.8042
 6550SOL     OW31282   3.040   3.025   1.732  0.1842  0.5878 -0.3401
 6550SOL    HW131283   3.119   3.067   1.700  0.2579  1.2867  0.7531
 6550SOL    HW231284   3.063   2.985   1.816  0.0961 -0.1611 -0.6668
 6551SOL     OW31285   2.949   4.238   6.703  0.2908 -0.4184  0.7680
 6551SOL    HW131286   2.923   4.234   6.795  2.5810 -1.9302  1.3650
 6551SOL    HW231287   3.037   4.203   6.720 -0.5063 -1.6474  2.3905
 6552SOL     OW31288   0.665   1.936   8.854 -0.1454 -0.4214  0.2333
 6552SOL    HW131289   0.646   1.995   8.927  2.2925  1.4525 -0.6708
 6552SOL    HW231290   0.600   1.968   8.790  0.3263  0.1343  0.0293
 6553SOL     OW31291   2.864   0.475   3.977  0.2166  0.5036  0.1542
 6553SOL    HW131292   2.848   0.387   3.943  2.0079  0.3050 -0.1832
 6553SOL    HW231293   2.850   0.443   4.066  2.3327 -2.7410 -0.6551
 6554SOL     OW31294   2.095   4.465  10.956 -0.1769 -0.4307  0.5675
 6554SOL    HW131295   2.163   4.512  11.005  0.6161 -1.5598  0.5402
 6554SOL    HW231296   2.091   4.379  10.998  1.7274 -0.8745 -0.1468
 6555SOL     OW31297   0.601   4.702   4.467  0.5495 -0.0005  0.2380
 6555SOL    HW131298   0.593   4.728   4.559 -1.7894  1.0356 -0.2563
 6555SOL    HW231299   0.672   0.018   4.433 -0.6306  1.0936 -0.4636
 6556SOL     OW31300   4.376   3.663  12.737  0.1598  0.4875  0.2653
 6556SOL    HW131301   4.392   3.598  12.805  2.2861 -1.2552 -1.9415
 6556SOL    HW231302   4.345   3.725  12.804  0.3368  0.2026  0.6133
 6557SOL     OW31303   3.540   0.660  14.319  0.4266  0.0185  0.3435
 6557SOL    HW131304   3.546   0.601  14.394 -1.3081  0.6506  0.9676
 6557SOL    HW231305   3.475   0.616  14.264  1.7430  0.1667 -1.3250
 6558SOL     OW31306   4.255   4.041   8.374  0.5540 -0.6341 -0.0410
 6558SOL    HW131307   4.225   4.131   8.385  1.1065 -0.1547 -2.3973
 6558SOL    HW231308   4.170   3.997   8.369  0.6942 -0.8194 -0.7459
 6559SOL     OW31309   1.109   1.910   4.201  0.3404  0.1130 -0.4389
 6559SOL    HW131310   1.153   1.885   4.282 -0.9113 -1.8470 -0.3777
 6559SOL    HW231311   1.057   1.988   4.220  2.9445  1.4776  1.0087
 6560SOL     OW31312   4.542   0.148   2.775  0.2649  0.3972 -0.5121
 6560SOL    HW131313   4.486   0.189   2.841  0.3877  0.4578 -0.4455
 6560SOL    HW231314   4.614   0.106   2.821  1.2637 -1.2875 -3.5785
 6561SOL     OW31315   3.749   2.788   0.205 -0.1992 -0.1344  0.7737
 6561SOL    HW131316   3.790   2.703   0.197 -1.1916 -0.5408 -0.0029
 6561SOL    HW231317   3.746   2.816   0.114 -0.7809  0.9673  1.1258
 6562SOL     OW31318   4.085   1.922  16.773  0.4220 -0.2499  0.0871
 6562SOL    HW131319   4.081   1.988  16.703 -0.2239  0.7182  1.0438
 6562SOL    HW231320   4.160   1.869  16.746 -0.5653 -1.1594 -0.8554
 6563SOL     OW31321   0.808   0.137   2.591 -0.3162  0.2104  0.5625
 6563SOL    HW131322   0.714   0.137   2.611  0.2013  1.3695  2.9921
 6563SOL    HW231323   0.846   0.072   2.650 -1.5099 -0.4972  0.5550
 6564SOL     OW31324   3.090   1.434   4.192  0.1617  0.1462 -0.1813
 6564SOL    HW131325   3.120   1.433   4.102  2.0683  0.8274  0.4567
 6564SOL    HW231326   3.122   1.523   4.211  0.6159  0.0028 -0.2818
 6565SOL     OW31327   0.073   1.967  12.114 -0.3598 -0.6487 -0.0944
 6565SOL    HW131328   0.154   1.999  12.075  0.5713 -1.2945  1.2870
 6565SOL    HW231329   0.063   2.021  12.193 -0.0771 -1.7556  0.7031
 6566SOL     OW31330   2.015   0.844  16.037 -0.4141  0.2215 -0.7664
 6566SOL    HW131331   1.947   0.816  15.976  0.8452 -1.1779 -1.5244
 6566SOL    HW231332   1.982   0.933  16.052  2.2827  0.6010  2.8826
 6567SOL     OW31333   4.319   2.062   4.957  0.0461  0.6191 -0.1733
 6567SOL    HW131334   4.401   2.014   4.972 -0.7832 -0.5506  0.5664
 6567SOL    HW231335   4.268   1.998   5.007  0.7835  0.7858  0.7830
 6568SOL     OW31336   3.972   1.784   9.514 -0.3506  0.2035 -0.2945
 6568SOL    HW131337   3.999   1.861   9.564  2.7938 -0.1301 -1.5111
 6568SOL    HW231338   3.994   1.712   9.574 -0.3593 -0.5889 -1.2369
 6569SOL     OW31339   2.109   4.114   2.339  0.4651 -0.1622 -0.0608
 6569SOL    HW131340   2.159   4.043   2.300 -0.5156  0.1434 -1.8736
 6569SOL    HW231341   2.156   4.129   2.421  0.4910  0.8309 -0.2604
 6570SOL     OW31342   2.613   3.826   3.828 -0.2421  0.0822 -0.3972
 6570SOL    HW131343   2.619   3.862   3.739 -0.1489 -0.9857 -0.8242
 6570SOL    HW231344   2.664   3.746   3.817 -1.3092 -0.5061 -1.0758
 6571SOL     OW31345   3.333   3.395   7.334  0.1048 -0.6331 -0.3868
 6571SOL    HW131346   3.296   3.420   7.419 -1.2719 -1.9672 -0.6045
 6571SOL    HW231347   3.400   3.462   7.320  0.2456 -0.6541  0.1801
 6572SOL     OW31348   1.425   2.244   7.082  0.3739  0.0380 -0.7708
 6572SOL    HW131349   1.502   2.188   7.085 -1.4772 -2.5484 -1.2931
 6572SOL    HW231350   1.378   2.206   7.156  1.6850 -3.3182 -1.6495
 6573SOL     OW31351   1.474   1.058   7.611  0.0101 -0.5600  0.0505
 6573SOL    HW131352   1.385   1.053   7.646 -1.1141 -1.5905 -3.0037
 6573SOL    HW231353   1.487   0.967   7.585  2.4647 -0.0809 -0.3768
 6574SOL     OW31354   3.559   3.755   5.820  0.1070  0.1758 -0.3840
 6574SOL    HW131355   3.633   3.757   5.881  0.9165 -1.7367 -1.3015
 6574SOL    HW231356   3.566   3.840   5.776  0.4382  0.4370  0.1688
 6575SOL     OW31357   4.428   3.548   4.386 -0.1262 -0.0849 -0.2141
 6575SOL    HW131358   4.493   3.508   4.444  0.0457  1.2266  0.5005
 6575SOL    HW231359   4.367   3.582   4.451 -1.5963 -0.9086 -1.1616
 6576SOL     OW31360   0.061   3.947  16.796 -0.4440  0.1542 -0.2186
 6576SOL    HW131361   0.130   3.909  16.851 -2.1430 -2.5106  0.0786
 6576SOL    HW231362   4.725   3.962  16.855 -1.7861 -4.9457 -0.6266
 6577SOL     OW31363   4.156   0.425   2.412 -0.9408  0.3385 -0.7390
 6577SOL    HW131364   4.183   0.475   2.335  0.2079 -0.5568 -0.9151
 6577SOL    HW231365   4.233   0.407   2.465 -2.3239  1.4144  1.6433
 6578SOL     OW31366   2.109   2.614   3.396 -0.2402 -0.7303 -0.5581
 6578SOL    HW131367   2.105   2.527   3.357  0.3611 -1.8293  1.8646
 6578SOL    HW231368   2.203   2.635   3.396 -0.7156  1.4223 -0.0347
 6579SOL     OW31369   1.816   2.111   8.931 -0.0526 -0.1089 -0.0245
 6579SOL    HW131370   1.788   2.020   8.918  0.9657 -0.1735 -1.7571
 6579SOL    HW231371   1.760   2.166   8.876 -1.1456 -0.4838  0.7180
 6580SOL     OW31372   1.732   1.138  15.240  0.5274  0.1094 -0.2909
 6580SOL    HW131373   1.682   1.150  15.159  2.6492 -1.0438 -1.7556
 6580SOL    HW231374   1.665   1.133  15.308  0.2893  1.1286 -0.4389
 6581SOL     OW31375   2.738   1.502   1.949 -0.4664  0.0134 -0.2845
 6581SOL    HW131376   2.756   1.450   2.028 -1.6279  2.2948  1.4817
 6581SOL    HW231377   2.666   1.445   1.920 -0.5958  0.1008 -0.1394
 6582SOL     OW31378   2.375   4.049   1.724  0.1074 -0.1431  0.3540
 6582SOL    HW131379   2.314   4.018   1.657  0.0825  1.5073 -0.3953
 6582SOL    HW231380   2.341   4.001   1.800  0.8079 -0.2384  0.6140
 6583SOL     OW31381   3.404   3.868   7.397 -0.4291 -0.4944  0.5833
 6583SOL    HW131382   3.380   3.861   7.304 -2.2875  1.4149  0.9347
 6583SOL    HW231383   3.499   3.864   7.383 -0.5060  1.2267 -0.4165
 6584SOL     OW31384   1.080   4.224   4.897 -0.3974 -0.5910  0.3179
 6584SOL    HW131385   1.048   4.198   4.984 -1.8362  3.4128  0.9753
 6584SOL    HW231386   1.170   4.195   4.908 -0.4048  0.0184  2.0335
 6585SOL     OW31387   0.128   1.400   8.631  0.6626 -0.0934 -0.1427
 6585SOL    HW131388   0.129   1.434   8.542 -1.4094  4.1617  1.4871
 6585SOL    HW231389   0.146   1.479   8.682 -1.3196 -0.6871  1.4662
 6586SOL     OW31390   4.045   0.046   8.482 -0.5229 -0.5787  0.5940
 6586SOL    HW131391   4.022   0.133   8.448 -2.8121 -1.1386  0.7336
 6586SOL    HW231392   4.139   0.050   8.499 -0.5870 -0.3705  0.9190
 6587SOL     OW31393   2.555   1.668   9.000 -0.0223 -0.4593 -0.1779
 6587SOL    HW131394   2.568   1.620   9.082 -1.0839 -0.6752 -0.1366
 6587SOL    HW231395   2.512   1.604   8.943 -2.1100  0.5684  0.2454
 6588SOL     OW31396   3.472   4.654   4.290  0.1362 -0.4910 -0.0396
 6588SOL    HW131397   3.478   4.558   4.290  0.8490 -0.4497 -0.5987
 6588SOL    HW231398   3.456   4.664   4.196 -1.0094 -1.3055  0.0666
 6589SOL     OW31399   4.602   0.386   2.310 -0.0629 -0.1954  0.0658
 6589SOL    HW131400   4.578   0.328   2.383 -2.0319  1.1808  0.4976
 6589SOL    HW231401   4.627   0.318   2.247  2.6630 -0.4101  1.3574
 6590SOL     OW31402   3.399   2.996  11.616 -0.4726 -0.0625  0.2700
 6590SOL    HW131403   3.355   2.917  11.586 -0.8522  0.6962 -1.1742
 6590SOL    HW231404   3.385   2.981  11.710 -1.0801 -0.0645  0.1781
 6591SOL     OW31405   1.151   1.927   3.054 -0.0058  0.0217  0.0368
 6591SOL    HW131406   1.206   1.997   3.020  1.3371 -2.4725 -2.9913
 6591SOL    HW231407   1.085   1.923   2.984  2.9149 -0.1387 -2.7291
 6592SOL     OW31408   1.855   4.314   0.395 -0.1364  0.3633  0.3156
 6592SOL    HW131409   1.770   4.360   0.393 -0.1441  0.4201  2.0451
 6592SOL    HW231410   1.885   4.338   0.482  0.3351  2.9780 -0.5770
 6593SOL     OW31411   4.289   3.757  17.152  0.0848  0.1263  0.0357
 6593SOL    HW131412   4.200   3.779  17.127 -0.6163 -0.5222  1.9235
 6593SOL    HW231413   4.321   3.838  17.192  0.1692  0.2364 -0.2549
 6594SOL     OW31414   2.528   3.287   7.372 -0.2550  0.1308 -0.5830
 6594SOL    HW131415   2.467   3.358   7.389  0.5506  0.6049  0.2992
 6594SOL    HW231416   2.552   3.306   7.281  3.4176  0.1159  0.3887
 6595SOL     OW31417   3.242   0.971   2.571 -0.0908  0.1124  0.1218
 6595SOL    HW131418   3.168   0.917   2.542 -0.3735  0.6996 -0.2651
 6595SOL    HW231419   3.312   0.949   2.509 -0.4232 -0.2396 -0.1326
 6596SOL     OW31420   3.598   3.301   1.862 -0.7791 -0.2308  0.2723
 6596SOL    HW131421   3.547   3.380   1.844  1.2563  0.9113 -0.5374
 6596SOL    HW231422   3.690   3.328   1.856 -1.0725  1.0355  1.4792
 6597SOL     OW31423   1.621   0.342   2.670  0.0640 -0.3065  0.6259
 6597SOL    HW131424   1.582   0.373   2.752 -1.9408 -0.3953 -0.3037
 6597SOL    HW231425   1.546   0.302   2.627  1.4399 -1.0649 -1.0982
 6598SOL     OW31426   3.110   2.618   0.867  0.2804  0.3931  0.1549
 6598SOL    HW131427   3.077   2.636   0.779  1.0685  0.3821 -0.1458
 6598SOL    HW231428   3.121   2.709   0.895  0.9548  0.1561  0.6734
 6599SOL     OW31429   2.306   0.507   8.557  0.5795  0.2480  0.3312
 6599SOL    HW131430   2.330   0.561   8.632  2.4508  0.6571 -0.5475
 6599SOL    HW231431   2.239   0.450   8.593  1.7847 -0.2546  1.7545
 6600SOL     OW31432   2.596   2.820   8.209  0.6633 -0.2122  0.3381
 6600SOL    HW131433   2.651   2.853   8.280  0.0969  2.1279 -0.3236
 6600SOL    HW231434   2.521   2.879   8.208 -0.7392 -1.9676  0.1895
 6601SOL     OW31435   2.267   1.174   6.287  0.1914 -0.4318 -0.0284
 6601SOL    HW131436   2.238   1.265   6.300 -2.7404 -1.1115 -1.8598
 6601SOL    HW231437   2.202   1.127   6.339 -2.0663 -0.0327 -2.5031
 6602SOL     OW31438   3.087   2.351   5.418 -0.0545 -0.0600  0.3942
 6602SOL    HW131439   3.161   2.373   5.362  1.0440 -2.7799  0.8100
 6602SOL    HW231440   3.009   2.382   5.371  0.4819  1.2514  0.3686
 6603SOL     OW31441   2.345   1.740   9.788 -0.4832 -0.1506 -0.0959
 6603SOL    HW131442   2.423   1.790   9.765 -0.7160  0.5742  0.6918
 6603SOL    HW231443   2.325   1.717   9.698  0.0527 -0.2264 -0.1949
 6604SOL     OW31444   0.372   2.909  14.579 -0.0831  0.0892 -0.3270
 6604SOL    HW131445   0.445   2.965  14.605 -0.5254  0.8021 -0.6234
 6604SOL    HW231446   0.424   2.864  14.511  0.0776  1.8121 -1.3310
 6605SOL     OW31447   4.313   2.275   7.845  0.8560  0.0102  0.4256
 6605SOL    HW131448   4.326   2.192   7.798  0.0990 -0.1632  0.5303
 6605SOL    HW231449   4.259   2.315   7.777  0.9451  0.5002  0.6406
 6606SOL     OW31450   0.344   2.182   9.184  0.0839  0.2834  0.0480
 6606SOL    HW131451   0.301   2.268   9.181 -1.2285 -0.5286 -3.7810
 6606SOL    HW231452   0.278   2.137   9.236 -0.9712  2.3744  0.5537
 6607SOL     OW31453   2.028   3.629  12.042 -0.2150  0.2195 -0.4999
 6607SOL    HW131454   2.001   3.707  11.994 -0.3894  1.9852  2.4918
 6607SOL    HW231455   1.999   3.658  12.128  0.7073 -1.6588  0.4342
 6608SOL     OW31456   0.217   1.223  13.119 -0.1775 -0.1668  0.1776
 6608SOL    HW131457   0.308   1.255  13.119 -0.8458  1.7341 -0.4711
 6608SOL    HW231458   0.203   1.224  13.025 -1.6328  0.8335  0.4080
 6609SOL     OW31459   4.730   2.109   3.633  0.2114 -0.2778  0.5036
 6609SOL    HW131460   4.693   2.034   3.586 -0.2069 -0.9889  1.9938
 6609SOL    HW231461   0.070   2.132   3.584 -1.0946  0.9921 -0.9708
 6610SOL     OW31462   0.499   0.329   6.718 -0.6457  0.2461 -0.7813
 6610SOL    HW131463   0.499   0.364   6.807 -2.7622 -0.2796 -0.5665
 6610SOL    HW231464   0.560   0.257   6.733 -1.1288  0.1677  0.7515
 6611SOL     OW31465   2.922   0.577  13.276 -0.0707  0.1434 -0.6597
 6611SOL    HW131466   3.005   0.574  13.324 -0.4609  0.5682  0.0239
 6611SOL    HW231467   2.868   0.535  13.343 -0.0793  1.2431  0.0126
 6612SOL     OW31468   4.501   0.088   3.775 -0.7070  0.1833 -0.1738
 6612SOL    HW131469   4.440   0.062   3.844 -0.2430  2.5370  1.1154
 6612SOL    HW231470   4.442   0.079   3.700 -1.8794  2.4339  0.4998
 6613SOL     OW31471   3.773   4.056   2.893  0.1582  0.0351  0.0605
 6613SOL    HW131472   3.721   4.090   2.820  0.2532 -1.7113 -0.8199
 6613SOL    HW231473   3.727   4.106   2.961 -0.4242  0.3575 -0.5618
 6614SOL     OW31474   3.451   0.929   2.367  0.1314 -0.0864 -0.0213
 6614SOL    HW131475   3.407   0.874   2.302 -2.3225  0.1124  1.4533
 6614SOL    HW231476   3.470   1.002   2.309 -1.3723  2.4111  2.6186
 6615SOL     OW31477   2.194   0.791   7.963 -0.1687  0.1370  1.0309
 6615SOL    HW131478   2.267   0.849   7.942  0.8607 -1.4213  0.2691
 6615SOL    HW231479   2.176   0.815   8.054 -0.3249  0.6338  0.8691
 6616SOL     OW31480   2.814   1.656   8.858  0.1004 -0.7780  0.0268
 6616SOL    HW131481   2.726   1.654   8.821 -0.4033 -0.1852  1.1860
 6616SOL    HW231482   2.803   1.730   8.918  0.2776 -0.3380 -0.4883
 6617SOL     OW31483   4.500   3.309   2.182 -0.4410  0.1003  0.3268
 6617SOL    HW131484   4.498   3.255   2.103 -1.7209 -1.4234  1.3837
 6617SOL    HW231485   4.410   3.341   2.193 -0.6751 -0.5093  0.1706
 6618SOL     OW31486   1.973   0.275   1.858  0.4038  0.1254  0.0756
 6618SOL    HW131487   1.994   0.262   1.950  1.3223 -1.8143 -0.4269
 6618SOL    HW231488   2.059   0.291   1.819  0.1656  0.0452 -0.4977
 6619SOL     OW31489   3.182   4.003   4.548  0.6919 -0.4618 -0.1495
 6619SOL    HW131490   3.189   3.921   4.598  3.5026  0.0356  0.2691
 6619SOL    HW231491   3.267   4.045   4.560  1.3074 -1.3623 -1.2967
 6620SOL     OW31492   0.483   0.697   9.987  0.0746 -0.4909 -0.0945
 6620SOL    HW131493   0.486   0.611  10.030  0.4296 -0.3620  0.1356
 6620SOL    HW231494   0.561   0.740  10.022 -0.6497 -1.0179  2.2246
 6621SOL     OW31495   3.438   4.566   1.927  0.3686 -0.5726 -0.7981
 6621SOL    HW131496   3.510   4.585   1.867 -1.0556 -1.4613 -2.7558
 6621SOL    HW231497   3.473   4.523   2.006  3.3077 -0.1008 -1.8224
 6622SOL     OW31498   3.419   2.037   4.659 -0.0081 -0.0974 -0.5007
 6622SOL    HW131499   3.450   2.093   4.588  2.9653  0.6819  1.4095
 6622SOL    HW231500   3.440   1.948   4.633 -3.2553 -0.3025 -2.5150
 6623SOL     OW31501   2.080   2.496   9.228 -0.4032  0.4952 -0.8411
 6623SOL    HW131502   2.116   2.447   9.301  1.5493  2.7347 -0.2896
 6623SOL    HW231503   1.991   2.460   9.233  0.6271 -1.9544 -0.1602
 6624SOL     OW31504   2.561   0.859   3.228 -0.4772  0.0065  0.0377
 6624SOL    HW131505   2.577   0.823   3.316  2.3409 -1.8989 -1.2572
 6624SOL    HW231506   2.522   0.942   3.255  0.5744  1.0754 -1.7188
 6625SOL     OW31507   3.970   2.698   2.486 -1.2354 -0.6142  0.6253
 6625SOL    HW131508   4.013   2.618   2.518 -2.8195 -2.2358 -1.3010
 6625SOL    HW231509   4.030   2.762   2.524 -0.5746  0.7878 -2.7720
 6626SOL     OW31510   2.622   2.992  14.829  0.4503 -0.5706  0.2798
 6626SOL    HW131511   2.606   3.056  14.898  0.6150  1.0105 -1.1423
 6626SOL    HW231512   2.714   2.969  14.843  0.6911  1.0441  1.3089
 6627SOL     OW31513   3.016   1.461   9.143 -0.3592  0.0331  0.9273
 6627SOL    HW131514   3.077   1.451   9.215  0.5272  0.5449  0.2484
 6627SOL    HW231515   3.076   1.503   9.081 -1.4942 -0.5209 -0.5576
 6628SOL     OW31516   2.159   3.678   5.935  0.4493 -0.1725 -0.1914
 6628SOL    HW131517   2.142   3.772   5.936 -2.5050 -0.6892 -1.0530
 6628SOL    HW231518   2.177   3.660   6.028 -0.0589 -0.2165 -0.0980
 6629SOL     OW31519   2.995   1.485   7.993 -0.0723 -0.4205  0.0485
 6629SOL    HW131520   2.944   1.511   7.917 -0.7002  1.4324  1.1252
 6629SOL    HW231521   2.928   1.473   8.060  0.0445  0.4266  0.3061
 6630SOL     OW31522   1.365   3.638   2.169 -0.6829  0.1439  0.4743
 6630SOL    HW131523   1.376   3.699   2.096  0.0551  1.8275  1.9902
 6630SOL    HW231524   1.375   3.553   2.127 -1.6557 -0.3499  1.2757
 6631SOL     OW31525   2.936   2.863   1.540 -0.3831  0.6649  0.8135
 6631SOL    HW131526   2.954   2.922   1.613  1.4396 -0.9438  1.6826
 6631SOL    HW231527   2.877   2.921   1.491 -0.9438  0.2662  1.0206
 6632SOL     OW31528   0.814   0.992  10.124 -0.3933  0.6323 -0.3360
 6632SOL    HW131529   0.809   1.033  10.037 -0.4908  1.6008  0.1193
 6632SOL    HW231530   0.774   0.909  10.099  0.2724  0.0708  0.4609
 6633SOL     OW31531   4.272   1.817  11.617 -0.3340 -0.7440  0.1018
 6633SOL    HW131532   4.294   1.725  11.607 -2.3969 -1.2928  0.6274
 6633SOL    HW231533   4.227   1.841  11.536  1.5018 -1.8135 -1.2298
 6634SOL     OW31534   3.991   0.925   3.458 -0.3564 -0.0848  0.4365
 6634SOL    HW131535   3.926   0.903   3.391  0.8363  1.7374 -1.3518
 6634SOL    HW231536   4.037   0.844   3.480  0.8181  0.1923 -0.9487
 6635SOL     OW31537   2.517   2.911   5.521 -0.2025  0.0097 -0.5470
 6635SOL    HW131538   2.599   2.862   5.513 -0.1845 -0.2430  1.2651
 6635SOL    HW231539   2.486   2.894   5.432 -0.1625  0.4956 -0.6525
 6636SOL     OW31540   3.807   1.389   7.886 -0.1121 -0.2799 -0.2755
 6636SOL    HW131541   3.778   1.299   7.897 -2.2742  0.5764  0.9690
 6636SOL    HW231542   3.841   1.412   7.973 -1.6739  2.8825 -0.5022
 6637SOL     OW31543   0.861   0.491   7.421 -0.1188 -0.1089  0.2281
 6637SOL    HW131544   0.892   0.448   7.500  0.9461  0.7679  0.2826
 6637SOL    HW231545   0.767   0.476   7.433  0.2823 -1.7869  1.2282
 6638SOL     OW31546   1.196   2.860   6.605 -0.1209 -0.5190 -0.5913
 6638SOL    HW131547   1.103   2.836   6.596  0.1691 -2.2524  0.8594
 6638SOL    HW231548   1.169   2.942   6.645 -2.1743 -1.2481 -0.4599
 6639SOL     OW31549   2.117   1.098   5.531  0.5627 -0.4473  0.2093
 6639SOL    HW131550   2.032   1.102   5.575 -1.2679  2.5438 -3.6022
 6639SOL    HW231551   2.119   1.006   5.506 -0.8051 -0.6314  0.7862
 6640SOL     OW31552   0.197   3.059   1.743 -0.2068 -0.3137  0.5676
 6640SOL    HW131553   0.170   3.100   1.825 -2.8618 -0.1220 -0.4133
 6640SOL    HW231554   0.207   3.130   1.679 -0.3928  0.4344  1.3606
 6641SOL     OW31555   2.289   0.512   5.339  0.4970  0.1557 -0.3562
 6641SOL    HW131556   2.311   0.486   5.428 -3.3665  1.8107  1.0466
 6641SOL    HW231557   2.234   0.438   5.314  0.6542 -0.3760  0.9044
 6642SOL     OW31558   4.305   3.995  17.330  0.1784 -0.1799  0.2237
 6642SOL    HW131559   4.398   3.979  17.343 -0.1844 -1.6505  1.0170
 6642SOL    HW231560   4.278   4.012  17.420 -1.7701  1.4533 -0.6420
 6643SOL     OW31561   4.097   4.499   2.744  0.1504 -0.3369 -0.5526
 6643SOL    HW131562   4.038   4.529   2.674  0.9396  1.1894 -0.5555
 6643SOL    HW231563   4.175   4.540   2.707  1.0246 -1.4035  0.1188
 6644SOL     OW31564   3.080   0.739  12.806 -0.7090  0.1855  0.1690
 6644SOL    HW131565   3.118   0.762  12.891 -2.0767  0.8739  0.5973
 6644SOL    HW231566   3.106   0.811  12.748 -0.6124 -0.5457 -0.6909
 6645SOL     OW31567   0.185   3.394   8.175 -0.1590 -0.0758 -0.4442
 6645SOL    HW131568   0.230   3.389   8.259  1.5646  0.0680 -1.3614
 6645SOL    HW231569   0.116   3.327   8.178 -0.6461  0.5399  1.9935
 6646SOL     OW31570   0.070   0.642   6.583  0.2590  0.2663 -0.0595
 6646SOL    HW131571   0.007   0.710   6.609 -0.4947  0.4142 -2.2596
 6646SOL    HW231572   0.066   0.580   6.655 -2.3102 -0.1954 -0.5794
 6647SOL     OW31573   4.507   1.594   6.519  0.1852  0.3075 -0.2951
 6647SOL    HW131574   4.564   1.523   6.549  1.6578  1.8559  0.5747
 6647SOL    HW231575   4.531   1.667   6.576 -1.6791  0.6562  0.0436
 6648SOL     OW31576   0.002   2.799  17.252 -0.4731  0.2133  0.6215
 6648SOL    HW131577   0.089   2.793  17.292 -0.4063  0.6873  0.5437
 6648SOL    HW231578   0.015   2.740  17.178  0.2927  0.6250  0.4185
 6649SOL     OW31579   0.107   1.700  12.070 -0.2649 -1.0353 -0.1996
 6649SOL    HW131580   0.196   1.692  12.104 -0.6193  0.1303  1.0408
 6649SOL    HW231581   0.088   1.792  12.091  1.0255 -0.9803  0.7038
 6650SOL     OW31582   2.783   1.371   9.254  0.1403 -0.3546 -0.5320
 6650SOL    HW131583   2.834   1.317   9.315  1.1455  0.0066 -1.0497
 6650SOL    HW231584   2.852   1.393   9.191  0.9177 -0.8293  0.1580
 6651SOL     OW31585   4.590   1.194   2.154 -0.3329 -0.2340 -0.2670
 6651SOL    HW131586   4.498   1.181   2.180 -0.0122 -0.1957  0.8718
 6651SOL    HW231587   4.604   1.118   2.097  0.4567 -0.2551 -0.0397
 6652SOL     OW31588   3.394   1.695   2.407 -0.0222  0.4410 -0.3301
 6652SOL    HW131589   3.485   1.711   2.435 -0.5502 -0.1544  1.7221
 6652SOL    HW231590   3.335   1.691   2.482  0.5378 -3.2564 -0.0686
 6653SOL     OW31591   2.312   1.879   0.516  0.5944  0.3818 -0.3393
 6653SOL    HW131592   2.228   1.924   0.508 -0.1908 -0.8895  0.7898
 6653SOL    HW231593   2.288   1.808   0.576  0.7375  1.9664  1.5602
 6654SOL     OW31594   4.278   0.791   2.859  0.1640 -0.4034  0.2751
 6654SOL    HW131595   4.290   0.881   2.890 -1.2562  0.3589 -1.3863
 6654SOL    HW231596   4.316   0.796   2.771  1.4545 -1.2596  0.7889
 6655SOL     OW31597   2.679   1.079  10.189 -0.4383  0.3842 -0.8416
 6655SOL    HW131598   2.605   1.068  10.248 -0.0933  1.8163 -0.1535
 6655SOL    HW231599   2.747   1.123  10.240 -0.6554  2.4098 -2.2902
 6656SOL     OW31600   1.950   1.555   9.441  0.0018  0.1814 -0.1288
 6656SOL    HW131601   2.013   1.619   9.408 -1.7964  2.5427  1.0259
 6656SOL    HW231602   2.000   1.510   9.509  0.6813  0.2691 -0.5705
 6657SOL     OW31603   2.643   1.906   8.934 -0.0492  0.4876  0.8281
 6657SOL    HW131604   2.733   1.891   8.962 -0.9202  0.4017  3.6481
 6657SOL    HW231605   2.600   1.828   8.968 -2.5832  1.1484 -0.8536
 6658SOL     OW31606   4.517   2.719  12.527 -0.2633 -0.2412  0.1426
 6658SOL    HW131607   4.440   2.676  12.489 -0.5840  1.7276 -1.4596
 6658SOL    HW231608   4.532   2.669  12.607 -0.9811 -0.0790  0.3725
 6659SOL     OW31609   0.084   4.118   8.938  0.1984 -0.2134  0.6493
 6659SOL    HW131610   0.150   4.088   9.001  1.4179  0.6071 -0.2341
 6659SOL    HW231611   0.140   4.147   8.866 -1.8459 -0.3769 -0.9930
 6660SOL     OW31612   3.105   4.158   3.586 -0.4652 -0.0838  0.1288
 6660SOL    HW131613   3.151   4.114   3.658 -2.6389 -1.7540  0.5015
 6660SOL    HW231614   3.021   4.172   3.629 -0.2894  2.0071 -0.2181
 6661SOL     OW31615   0.780   1.659  10.935  0.9422  0.0515 -0.1433
 6661SOL    HW131616   0.702   1.697  10.975  0.4479 -1.5814  0.4044
 6661SOL    HW231617   0.777   1.569  10.967 -0.1936  0.0335 -0.3028
 6662SOL     OW31618   2.194   0.755  15.160  0.4024 -0.5474  0.0394
 6662SOL    HW131619   2.212   0.848  15.148  1.3795 -0.7833 -0.2997
 6662SOL    HW231620   2.253   0.746  15.235 -0.2043  1.8599  0.8131
 6663SOL     OW31621   2.128   4.398   7.306 -0.1262 -0.2027  0.2093
 6663SOL    HW131622   2.216   4.392   7.344 -1.1660 -1.7498  2.3497
 6663SOL    HW231623   2.092   4.477   7.344  0.7087 -0.4023  1.4018
 6664SOL     OW31624   3.398   3.732   9.985 -0.1044  0.0040 -0.1313
 6664SOL    HW131625   3.391   3.671  10.058 -2.4407 -0.0416 -0.4058
 6664SOL    HW231626   3.459   3.680   9.933 -3.1461 -0.7825 -2.8878
 6665SOL     OW31627   1.905   3.123   7.381  0.1028  0.2691 -0.4892
 6665SOL    HW131628   1.968   3.153   7.316  1.2214  0.1248  0.5465
 6665SOL    HW231629   1.836   3.124   7.314 -0.7088  0.1532  0.3318
 6666SOL     OW31630   0.397   4.380   4.212  0.1432  0.3962  0.1544
 6666SOL    HW131631   0.454   4.408   4.284  1.1402 -0.3025 -0.3737
 6666SOL    HW231632   0.320   4.428   4.244 -0.1796  0.2778 -0.4538
 6667SOL     OW31633   1.911   2.046   5.254 -0.2827  0.4405  0.1544
 6667SOL    HW131634   1.932   2.133   5.287  1.7670  0.0842 -0.2194
 6667SOL    HW231635   1.860   2.016   5.330 -0.4677 -0.6912 -0.4216
 6668SOL     OW31636   0.935   3.472   6.040  0.3771  0.1776 -0.0111
 6668SOL    HW131637   0.997   3.525   6.092  0.9508 -0.5860  0.0763
 6668SOL    HW231638   0.884   3.440   6.114 -0.7403 -1.5702 -1.5500
 6669SOL     OW31639   2.138   2.721   8.794 -0.5342 -0.0455  0.2632
 6669SOL    HW131640   2.158   2.705   8.886  4.1759 -1.0035 -0.9441
 6669SOL    HW231641   2.201   2.655   8.767  1.4580  1.8534  0.2594
 6670SOL     OW31642   2.553   1.648   4.500  0.4387 -0.1584 -0.0943
 6670SOL    HW131643   2.616   1.660   4.571  0.6836 -2.0980  0.0338
 6670SOL    HW231644   2.593   1.578   4.448  1.0060  0.9677 -1.1567
 6671SOL     OW31645   0.206   4.288   6.238  0.1590  0.7657 -0.2236
 6671SOL    HW131646   0.242   4.204   6.266  1.0371  1.5614  1.0654
 6671SOL    HW231647   0.279   4.320   6.184  0.0934  0.6377 -0.3860
 6672SOL     OW31648   4.337   0.072   3.564 -0.3887 -0.2593  0.2651
 6672SOL    HW131649   4.288   4.728   3.555 -0.2385 -0.4699  1.4783
 6672SOL    HW231650   4.408   0.047   3.504  1.3718  2.8553  1.0529
 6673SOL     OW31651   4.407   3.011   0.599  0.0116  0.2417 -0.2013
 6673SOL    HW131652   4.396   2.986   0.691 -0.0337  1.7111  0.1907
 6673SOL    HW231653   4.319   2.996   0.564  0.9535 -1.1585 -1.9932
 6674SOL     OW31654   0.135   3.208   2.726 -0.0678 -0.1536  0.6026
 6674SOL    HW131655   0.223   3.171   2.736  0.6690  1.5880  0.6436
 6674SOL    HW231656   0.096   3.157   2.655  0.0654 -1.5055  1.5196
 6675SOL     OW31657   4.489   1.174   7.453  0.0218 -0.0331 -0.6827
 6675SOL    HW131658   4.500   1.231   7.529 -1.8859  0.7066 -0.9528
 6675SOL    HW231659   4.399   1.195   7.428  0.7651 -0.6926 -3.9572
 6676SOL     OW31660   2.256   1.755   5.043 -0.1183 -0.0776 -0.2824
 6676SOL    HW131661   2.177   1.809   5.036  0.3323  0.6061 -0.0681
 6676SOL    HW231662   2.239   1.719   5.130  1.5803 -0.0833  0.0376
 6677SOL     OW31663   4.526   0.301   9.056 -0.1879  0.3163 -0.0611
 6677SOL    HW131664   4.590   0.358   9.099 -2.2363  1.9452  0.8501
 6677SOL    HW231665   4.511   0.341   8.970 -0.1462 -0.5706 -0.4810
 6678SOL     OW31666   1.243   3.515  14.366 -0.1991 -0.1621 -0.3570
 6678SOL    HW131667   1.313   3.574  14.338  0.0214  1.1497  2.8767
 6678SOL    HW231668   1.279   3.497  14.453 -0.7840 -0.8328 -0.2636
 6679SOL     OW31669   4.603   3.387   4.642 -0.2728 -0.5369  0.2911
 6679SOL    HW131670   4.618   3.479   4.666 -2.1199 -0.0486 -0.3524
 6679SOL    HW231671   4.662   3.345   4.704  0.0572 -3.1475 -1.8233
 6680SOL     OW31672   1.559   3.952   5.450 -0.0206  0.3380  0.4154
 6680SOL    HW131673   1.569   3.990   5.538  1.9402 -0.0413  0.3359
 6680SOL    HW231674   1.517   4.023   5.401 -1.4323 -0.8826 -0.1662
 6681SOL     OW31675   4.605   4.417   2.892  0.4591  0.1611 -0.0195
 6681SOL    HW131676   4.656   4.339   2.915  0.1585  0.4044  1.4876
 6681SOL    HW231677   4.606   4.459   2.978 -1.9119 -2.2501  1.1883
 6682SOL     OW31678   1.177   1.059  15.247 -0.3814  0.2271  0.2539
 6682SOL    HW131679   1.122   0.981  15.235  0.5070 -0.3189 -0.2379
 6682SOL    HW231680   1.264   1.020  15.241 -0.6375 -0.0730 -1.4446
 6683SOL     OW31681   1.636   2.251   2.673  0.4123  0.2188  0.3374
 6683SOL    HW131682   1.621   2.186   2.741  1.3463 -3.6541 -3.2047
 6683SOL    HW231683   1.649   2.330   2.726 -1.0722 -0.1294  1.2067
 6684SOL     OW31684   1.210   1.268   8.096 -0.2447  0.2608  0.0357
 6684SOL    HW131685   1.293   1.283   8.142 -0.7993 -0.6703  1.3419
 6684SOL    HW231686   1.153   1.325   8.147 -0.3489 -1.4303  1.8287
 6685SOL     OW31687   3.478   0.947   7.038  0.6026  0.0358  0.1519
 6685SOL    HW131688   3.397   0.996   7.022 -0.2640 -1.5909 -0.4325
 6685SOL    HW231689   3.479   0.954   7.134 -0.5606  0.8937  0.1108
 6686SOL     OW31690   1.404   1.707  14.311  0.2091 -0.0415  0.1439
 6686SOL    HW131691   1.437   1.617  14.302  0.7497  0.1803 -0.0857
 6686SOL    HW231692   1.315   1.702  14.275  0.0883 -0.5069  0.5093
 6687SOL     OW31693   0.939   1.295  17.730  0.0730  0.1383  0.6174
 6687SOL    HW131694   0.994   1.316   0.053 -0.0985  1.1185  0.4663
 6687SOL    HW231695   0.942   1.200  17.738  1.6054  0.0682 -0.7761
 6688SOL     OW31696   4.615   2.148   9.417 -0.5022 -0.6982  0.5111
 6688SOL    HW131697   4.591   2.226   9.466 -1.6020 -0.7483  0.0482
 6688SOL    HW231698   4.562   2.078   9.456  0.2024 -0.8129  1.2601
 6689SOL     OW31699   4.045   0.541   7.896  0.3880 -0.0254  0.5390
 6689SOL    HW131700   4.019   0.631   7.916  0.9315  0.6575 -1.9441
 6689SOL    HW231701   4.016   0.538   7.805  0.8178 -0.5547  0.4204
 6690SOL     OW31702   2.830   4.348   9.615 -0.4620 -0.4294  0.1962
 6690SOL    HW131703   2.778   4.405   9.558 -1.0059  0.8881  1.9973
 6690SOL    HW231704   2.765   4.284   9.644  0.4461 -2.4669 -2.2950
 6691SOL     OW31705   3.835   3.636  12.849  0.1104  0.2689 -0.2714
 6691SOL    HW131706   3.764   3.612  12.790 -0.9055  0.1455  1.0120
 6691SOL    HW231707   3.844   3.731  12.841  0.1837  0.4350  1.9243
 6692SOL     OW31708   2.450   2.312  11.341  0.0171 -0.1267  0.1835
 6692SOL    HW131709   2.427   2.327  11.432  0.2160  1.0520  0.0387
 6692SOL    HW231710   2.375   2.258  11.317 -0.0561 -0.5008  1.2535
 6693SOL     OW31711   1.250   0.083   8.135  0.1780 -0.1257  1.0107
 6693SOL    HW131712   1.205   0.119   8.211  1.3620  1.9409  0.7592
 6693SOL    HW231713   1.300   0.160   8.105 -0.9172 -0.0299 -0.5412
 6694SOL     OW31714   0.999   0.731   1.158 -0.2139  0.7747  0.0948
 6694SOL    HW131715   0.988   0.827   1.156  1.1294  0.9141 -0.7713
 6694SOL    HW231716   1.046   0.714   1.077  0.8589 -0.9365  1.0795
 6695SOL     OW31717   2.777   0.676   8.155 -0.4817 -1.0746 -0.3457
 6695SOL    HW131718   2.813   0.761   8.128 -1.3034 -0.9642 -1.0666
 6695SOL    HW231719   2.689   0.690   8.122 -0.2318 -0.1237 -0.6090
 6696SOL     OW31720   1.186   1.581   1.349  0.2058  0.3648  0.6708
 6696SOL    HW131721   1.168   1.516   1.281 -2.4402 -1.0863  2.7652
 6696SOL    HW231722   1.180   1.664   1.300  0.7824  0.5518  0.9210
 6697SOL     OW31723   4.072   1.341   6.898  0.2673  0.6053 -0.6288
 6697SOL    HW131724   4.010   1.283   6.854 -1.0379  2.1102 -0.7777
 6697SOL    HW231725   4.109   1.389   6.825  1.2853  1.0463  0.1749
 6698SOL     OW31726   1.913   2.199   1.266  0.0223 -0.1440  0.5191
 6698SOL    HW131727   1.919   2.110   1.301 -0.3569  1.2321  4.0564
 6698SOL    HW231728   1.981   2.203   1.198 -0.4650 -0.8184 -0.0054
 6699SOL     OW31729   4.365   1.725   5.736 -0.3614 -0.0359 -0.4901
 6699SOL    HW131730   4.407   1.780   5.801 -0.3099 -2.2023  1.3212
 6699SOL    HW231731   4.348   1.646   5.789 -0.2282  1.3651  1.6345
 6700SOL     OW31732   4.678   0.550   3.676 -0.2421  0.3107  0.4704
 6700SOL    HW131733   4.677   0.622   3.739 -2.4778  0.3159  0.4317
 6700SOL    HW231734   4.597   0.550   3.626  0.3561 -1.6291 -0.5140
 6701SOL     OW31735   2.114   2.919   2.910  0.0241  0.1498  0.0541
 6701SOL    HW131736   2.179   2.857   2.877 -1.3648  0.0213 -2.3911
 6701SOL    HW231737   2.112   2.901   3.004 -0.2227  0.9881  0.2057
 6702SOL     OW31738   4.713   2.225  15.306 -0.2917 -0.6101 -0.1172
 6702SOL    HW131739   4.697   2.212  15.400 -1.2367 -1.3254 -0.3752
 6702SOL    HW231740   0.005   2.315  15.295 -1.3181 -0.2797 -0.2800
 6703SOL     OW31741   4.074   3.673   9.840  0.4970  0.1391  0.0981
 6703SOL    HW131742   4.143   3.737   9.855  2.0575 -0.8268 -2.9186
 6703SOL    HW231743   3.998   3.730   9.844 -1.4565 -2.5168  1.3221
 6704SOL     OW31744   3.750   2.131   1.191 -0.2590 -0.4132  0.2189
 6704SOL    HW131745   3.808   2.141   1.116 -0.7944  0.5680 -0.0652
 6704SOL    HW231746   3.676   2.188   1.169 -0.8704 -1.2815  0.0160
 6705SOL     OW31747   2.547   3.976   8.971 -0.0485 -0.3517 -0.3737
 6705SOL    HW131748   2.560   3.958   9.064 -0.9744 -0.2758 -0.2274
 6705SOL    HW231749   2.577   4.066   8.957  1.1524 -0.4560  1.4690
 6706SOL     OW31750   3.953   1.103   8.207  0.1325 -0.9075 -0.0631
 6706SOL    HW131751   3.908   1.182   8.238  3.0550  0.8918 -0.2818
 6706SOL    HW231752   3.878   1.057   8.171  0.2823 -0.1579 -1.3523
 6707SOL     OW31753   4.645   3.543   6.413  0.0050 -0.0215  0.1106
 6707SOL    HW131754   4.593   3.580   6.342  0.6008 -1.0644 -0.8619
 6707SOL    HW231755   4.581   3.534   6.484  1.8628  0.3475  1.8475
 6708SOL     OW31756   1.085   1.487   6.963 -0.4275  0.4806 -0.1344
 6708SOL    HW131757   1.108   1.394   6.966 -1.8556  0.1294  0.0981
 6708SOL    HW231758   1.003   1.488   6.914  0.2132 -0.3082 -1.2192
 6709SOL     OW31759   0.283   4.474  17.670 -0.0100 -0.1905  0.2646
 6709SOL    HW131760   0.216   4.406  17.677  1.2756 -1.2883  1.8843
 6709SOL    HW231761   0.337   4.451  17.746 -2.8338 -1.0709  2.0144
 6710SOL     OW31762   0.341   4.208   2.084  0.5630 -0.7536  0.3855
 6710SOL    HW131763   0.426   4.213   2.127  1.5042  0.7278 -1.6260
 6710SOL    HW231764   0.278   4.212   2.156  2.8049  0.9550  2.2620
 6711SOL     OW31765   3.073   2.088  12.232 -0.4772  0.1370 -0.0582
 6711SOL    HW131766   3.059   2.163  12.176  1.9787  1.9781  1.8024
 6711SOL    HW231767   3.142   2.042  12.184 -1.0505  0.2297 -0.9741
 6712SOL     OW31768   0.847   2.219   3.057  0.0838  0.4634 -0.1226
 6712SOL    HW131769   0.761   2.249   3.088  0.1502 -1.6136  2.0357
 6712SOL    HW231770   0.852   2.125   3.072 -2.5579 -0.0929 -2.7741
 6713SOL     OW31771   3.314   2.969   5.242  0.2001 -0.0306 -0.0564
 6713SOL    HW131772   3.301   3.017   5.161  0.6134  0.8878  0.4218
 6713SOL    HW231773   3.406   2.990   5.257 -0.1688  0.9563  0.8569
 6714SOL     OW31774   4.355   3.403   4.143 -1.0883  0.3476  0.2768
 6714SOL    HW131775   4.423   3.336   4.148 -0.7491  0.6362 -0.4589
 6714SOL    HW231776   4.378   3.464   4.214  1.2840  0.1480 -0.3111
 6715SOL     OW31777   0.639   3.201   8.470 -0.1565 -0.4413  0.0624
 6715SOL    HW131778   0.579   3.147   8.419  0.8702  1.0517 -2.7216
 6715SOL    HW231779   0.615   3.288   8.438  1.4483 -0.3968 -1.0332
 6716SOL     OW31780   0.623   1.252   4.102  0.8542 -0.0576 -0.5010
 6716SOL    HW131781   0.590   1.208   4.180  1.4839 -0.5144 -0.4887
 6716SOL    HW231782   0.548   1.309   4.086  0.5604 -0.7052 -1.3585
 6717SOL     OW31783   4.607   1.459   8.391 -0.1265 -0.6517 -0.2499
 6717SOL    HW131784   4.700   1.484   8.393  0.2756 -2.1015 -0.6501
 6717SOL    HW231785   4.614   1.369   8.423  0.5482  0.6127  3.1395
 6718SOL     OW31786   1.838   3.191   4.762  0.1906 -1.2271  0.0274
 6718SOL    HW131787   1.817   3.202   4.855 -1.9537 -0.2259 -0.5968
 6718SOL    HW231788   1.766   3.236   4.718 -0.4146  0.0867  2.3733
 6719SOL     OW31789   3.624   0.149   3.464 -0.0814 -0.1559 -0.0316
 6719SOL    HW131790   3.656   0.081   3.523 -0.6923 -0.9134 -0.5663
 6719SOL    HW231791   3.529   0.138   3.475 -0.4867  0.9596 -2.2953
 6720SOL     OW31792   0.982   4.113   0.474  0.3603  0.2368  0.1757
 6720SOL    HW131793   0.923   4.181   0.442 -1.1119 -0.1713  2.0545
 6720SOL    HW231794   1.065   4.158   0.493  0.9737  1.1183 -4.4908
 6721SOL     OW31795   1.116   3.881   9.879  0.0982 -0.1501 -0.2092
 6721SOL    HW131796   1.154   3.946   9.938  0.9482 -0.4290 -0.4526
 6721SOL    HW231797   1.024   3.902   9.894 -0.3409 -2.1242 -0.1544
 6722SOL     OW31798   2.111   0.573   1.581  0.1430 -0.7844  0.5273
 6722SOL    HW131799   2.095   0.533   1.496 -1.9449 -0.0099  0.5532
 6722SOL    HW231800   2.040   0.635   1.597  1.3701  0.0448  2.8361
 6723SOL     OW31801   0.535   3.708   6.856  0.0614  0.2977 -0.1970
 6723SOL    HW131802   0.523   3.660   6.938  1.2198 -0.0913 -0.2475
 6723SOL    HW231803   0.526   3.796   6.893 -1.6440  0.3194 -0.6715
 6724SOL     OW31804   0.768   3.625   0.954 -0.8629  0.4270  0.0538
 6724SOL    HW131805   0.709   3.597   0.885  0.5170 -2.2512 -0.0374
 6724SOL    HW231806   0.844   3.657   0.906 -1.1995 -1.0339 -1.4252
 6725SOL     OW31807   0.166   1.115   3.891  0.0944 -0.1106 -0.7402
 6725SOL    HW131808   0.201   1.026   3.893 -1.2675 -0.6219  0.2365
 6725SOL    HW231809   0.177   1.120   3.796  0.0720 -0.3274 -0.7544
 6726SOL     OW31810   0.100   0.376  14.673  0.1627 -0.2463  0.0363
 6726SOL    HW131811   0.174   0.433  14.652 -1.0058  0.4883 -1.9587
 6726SOL    HW231812   0.067   0.436  14.740  0.5189  0.1599 -0.1522
 6727SOL     OW31813   2.879   0.458   7.008  0.0541 -0.3824  0.0240
 6727SOL    HW131814   2.877   0.408   6.926 -0.3238 -1.2302  0.5424
 6727SOL    HW231815   2.961   0.502   6.986  0.1019  0.4847  2.0271
 6728SOL     OW31816   1.646   4.359   8.682 -0.1236 -0.6307  0.1120
 6728SOL    HW131817   1.637   4.413   8.761  1.5814  1.0369 -0.8423
 6728SOL    HW231818   1.696   4.280   8.702  1.0036 -0.3544 -1.6961
 6729SOL     OW31819   0.482   0.861   3.921 -0.3183  0.4654 -0.1733
 6729SOL    HW131820   0.495   0.939   3.866 -1.4124 -0.1628 -1.3112
 6729SOL    HW231821   0.397   0.839   3.882 -0.2706 -1.0913  0.6179
 6730SOL     OW31822   2.969   2.717   5.271 -0.0302 -0.1168 -0.1908
 6730SOL    HW131823   2.900   2.689   5.211  0.8548 -1.5287 -0.5446
 6730SOL    HW231824   3.004   2.639   5.313 -0.0045 -0.1698 -0.3093
 6731SOL     OW31825   3.272   1.846   3.862 -0.2671  0.2347 -0.3676
 6731SOL    HW131826   3.323   1.851   3.942 -0.7772 -2.7937  0.1760
 6731SOL    HW231827   3.319   1.776   3.815 -1.1848 -0.1233 -0.7651
 6732SOL     OW31828   2.449   0.427   7.687  0.1704 -0.0855 -0.8555
 6732SOL    HW131829   2.483   0.393   7.770  0.3184  2.3499  0.1071
 6732SOL    HW231830   2.380   0.481   7.726  0.8582 -0.0440  0.3192
 6733SOL     OW31831   0.749   1.461   7.215  0.1445 -0.2416  0.4646
 6733SOL    HW131832   0.814   1.492   7.279  0.8569 -0.1525 -0.2959
 6733SOL    HW231833   0.708   1.547   7.206 -0.0936 -0.5423 -1.3425
 6734SOL     OW31834   1.212   1.577   2.260 -0.0148  0.2754  0.3413
 6734SOL    HW131835   1.188   1.485   2.272 -3.8622  1.3329  0.9206
 6734SOL    HW231836   1.185   1.588   2.169  1.2526 -0.4253 -0.1088
 6735SOL     OW31837   1.507   3.056   4.287 -0.1027  0.4746 -0.0763
 6735SOL    HW131838   1.552   3.138   4.306 -2.0149  1.8429 -1.4394
 6735SOL    HW231839   1.437   3.055   4.352 -0.8158 -1.7997 -0.8665
 6736SOL     OW31840   2.961   3.684   6.980 -0.2760 -0.1327  0.7241
 6736SOL    HW131841   3.050   3.648   6.981 -0.4984 -0.7070 -0.1003
 6736SOL    HW231842   2.961   3.740   6.902 -0.1815 -1.2597 -0.0862
 6737SOL     OW31843   1.886   0.899   2.229  0.8497 -0.5255 -0.3719
 6737SOL    HW131844   1.862   0.875   2.139  3.3002  0.2019 -1.2129
 6737SOL    HW231845   1.979   0.911   2.213  0.5266 -0.0141 -1.9083
 6738SOL     OW31846   1.100   2.893   7.659  0.7291  0.0468  0.0385
 6738SOL    HW131847   1.093   2.988   7.660  1.5169  0.0883  1.2613
 6738SOL    HW231848   1.015   2.871   7.698  1.5012 -1.4174  0.8890
 6739SOL     OW31849   3.243   0.062   0.265 -0.2525 -0.0089  0.2539
 6739SOL    HW131850   3.274   0.140   0.312  0.2937  1.3913 -2.4743
 6739SOL    HW231851   3.325   0.024   0.234  0.4696  2.2134 -0.5430
 6740SOL     OW31852   4.114   3.440   2.005 -0.0743  0.4012 -0.4423
 6740SOL    HW131853   4.030   3.398   2.021 -0.8293  2.6377  1.5802
 6740SOL    HW231854   4.149   3.383   1.937 -3.5567 -1.5092 -0.5839
 6741SOL     OW31855   2.338   4.356   3.609  0.3124  0.3099  0.0735
 6741SOL    HW131856   2.251   4.333   3.641 -0.1333 -1.7607 -2.6060
 6741SOL    HW231857   2.358   4.445   3.638  1.1932 -0.4449  1.7485
 6742SOL     OW31858   3.529   1.606  11.054  0.6130 -0.2267 -0.2510
 6742SOL    HW131859   3.490   1.566  11.132 -0.9011  0.0124 -0.8780
 6742SOL    HW231860   3.519   1.699  11.072  0.0649 -0.3736  0.1949
 6743SOL     OW31861   1.604   3.421  13.525  0.2014  0.1462  0.4807
 6743SOL    HW131862   1.543   3.494  13.539 -1.8459 -1.7831  1.6179
 6743SOL    HW231863   1.538   3.359  13.495 -0.4182  2.3079 -2.6164
 6744SOL     OW31864   1.298   0.766   5.433 -0.0816 -0.2337  0.0160
 6744SOL    HW131865   1.317   0.674   5.414  0.3569 -0.0104 -0.6097
 6744SOL    HW231866   1.207   0.748   5.456 -0.0376 -2.8157 -1.8157
 6745SOL     OW31867   2.577   4.187   8.178  0.2503 -0.7729 -0.4291
 6745SOL    HW131868   2.570   4.195   8.083 -0.3081 -1.6903 -0.4679
 6745SOL    HW231869   2.634   4.258   8.207 -1.6134  1.3932 -2.0485
 6746SOL     OW31870   0.914   1.384   2.140 -0.5567 -0.3888  0.2668
 6746SOL    HW131871   0.978   1.392   2.070 -1.9460 -0.5894 -1.0171
 6746SOL    HW231872   0.832   1.381   2.090 -0.0737  0.3058 -0.5417
 6747SOL     OW31873   1.979   3.694   1.907  0.0125 -0.5828  0.1632
 6747SOL    HW131874   1.885   3.676   1.908  0.1196 -1.1405  0.4464
 6747SOL    HW231875   2.009   3.603   1.911  0.9879 -0.2954 -0.7080
 6748SOL     OW31876   4.331   3.085   2.426 -0.2206  0.3385  0.5253
 6748SOL    HW131877   4.312   3.167   2.380 -0.9841  0.3601  0.8915
 6748SOL    HW231878   4.375   3.032   2.359  0.6917  0.4751  1.0131
 6749SOL     OW31879   2.273   4.436   5.299  0.1529  0.2862 -0.1707
 6749SOL    HW131880   2.272   4.531   5.294  0.5668  0.1764 -2.4057
 6749SOL    HW231881   2.241   4.415   5.386 -1.9183  2.1551 -0.4629
 6750SOL     OW31882   3.483   0.704  17.264 -0.2964  0.0147 -0.3034
 6750SOL    HW131883   3.430   0.719  17.186 -1.2953  0.5519  0.4833
 6750SOL    HW231884   3.552   0.648  17.227  1.3592  0.6304  1.8332
 6751SOL     OW31885   0.543   3.787   6.436 -0.0183 -0.0717  0.3060
 6751SOL    HW131886   0.607   3.795   6.508 -1.1602  2.7797  0.9877
 6751SOL    HW231887   0.599   3.786   6.358  0.5148 -0.7312  0.6938
 6752SOL     OW31888   2.659   4.670   5.132  0.4102 -0.2951 -0.2838
 6752SOL    HW131889   2.725   4.731   5.164 -0.4376  1.1977 -1.3860
 6752SOL    HW231890   2.636   4.621   5.211 -0.6055  1.3444  0.4233
 6753SOL     OW31891   4.534   1.885   4.177  0.2290  0.3886 -0.1753
 6753SOL    HW131892   4.593   1.855   4.246  0.0021 -1.3344 -0.7374
 6753SOL    HW231893   4.576   1.969   4.156  2.8279 -0.4234  1.7217
 6754SOL     OW31894   0.340   4.401   5.026 -0.0060  0.6033 -0.3531
 6754SOL    HW131895   0.326   4.494   5.046 -1.5923  0.4464 -0.7220
 6754SOL    HW231896   0.408   4.398   4.958  0.0855 -1.6208 -0.1381
 6755SOL     OW31897   3.378   3.866   9.375  0.1866 -0.2271  0.1942
 6755SOL    HW131898   3.366   3.944   9.428  2.7886  0.8420 -0.7338
 6755SOL    HW231899   3.456   3.833   9.419 -1.1859 -1.9960  1.2607
 6756SOL     OW31900   3.435   2.420  16.749 -0.4896 -0.1178 -0.0413
 6756SOL    HW131901   3.528   2.400  16.760 -0.9197 -1.3904  1.2586
 6756SOL    HW231902   3.413   2.383  16.663  0.6596 -1.3192  0.1886
 6757SOL     OW31903   4.324   2.185   4.073 -0.1506  0.3634 -0.2807
 6757SOL    HW131904   4.401   2.128   4.077 -0.2439  0.3524  1.2086
 6757SOL    HW231905   4.307   2.189   4.167 -1.9439 -0.1051 -0.6011
 6758SOL     OW31906   1.663   2.125  11.975 -0.0765  0.6254  0.0006
 6758SOL    HW131907   1.647   2.201  11.919  0.3963  0.4499 -0.3711
 6758SOL    HW231908   1.658   2.057  11.907 -2.6284 -0.0394  0.8500
 6759SOL     OW31909   1.779   3.955  13.281  0.5434 -0.1136 -0.4345
 6759SOL    HW131910   1.793   3.932  13.189  0.1569 -0.5983 -0.3713
 6759SOL    HW231911   1.802   4.048  13.286  0.7574 -0.1499 -0.7839
 6760SOL     OW31912   4.393   4.013   5.284 -0.0765  0.0076  0.1690
 6760SOL    HW131913   4.397   4.104   5.254 -1.6470 -0.3367 -1.1025
 6760SOL    HW231914   4.312   4.022   5.334 -0.1857 -1.0628  0.1891
 6761SOL     OW31915   0.575   2.170  13.565 -0.2520  0.1274  0.1342
 6761SOL    HW131916   0.595   2.101  13.628  0.7982  0.8778  0.6273
 6761SOL    HW231917   0.511   2.224  13.612  1.9775  0.2447  3.0526
 6762SOL     OW31918   2.030   1.143   3.254  0.6355 -0.0793  0.0555
 6762SOL    HW131919   2.070   1.168   3.338 -1.1397 -1.9102  1.4612
 6762SOL    HW231920   1.938   1.147   3.279  0.9697 -0.3779  1.3495
 6763SOL     OW31921   0.574   2.747   2.833 -0.5427  0.1212 -0.1641
 6763SOL    HW131922   0.603   2.717   2.919  0.2398 -0.1119 -0.5053
 6763SOL    HW231923   0.487   2.775   2.862 -1.2015  0.4079 -2.4316
 6764SOL     OW31924   2.753   0.089  14.937 -0.1872  0.3236  0.2082
 6764SOL    HW131925   2.682   0.025  14.930  0.0101  0.1258  0.0118
 6764SOL    HW231926   2.817   0.025  14.905 -1.4352 -0.4416 -0.8041
 6765SOL     OW31927   1.145   1.382  16.450 -0.3046  0.4134 -0.1940
 6765SOL    HW131928   1.144   1.323  16.526 -2.3875 -1.1712 -1.4583
 6765SOL    HW231929   1.209   1.344  16.389  1.2878  4.0001 -0.7605
 6766SOL     OW31930   1.839   2.662   6.895  0.3420  0.1045  0.1950
 6766SOL    HW131931   1.932   2.639   6.898  0.3051 -0.2087 -1.0982
 6766SOL    HW231932   1.807   2.578   6.862  2.2154 -1.2793  1.8677
 6767SOL     OW31933   2.750   4.003  10.659  0.0382 -0.1160 -0.1687
 6767SOL    HW131934   2.656   4.000  10.645  0.2600 -2.3502 -1.1461
 6767SOL    HW231935   2.759   3.963  10.746  0.6665 -0.6901 -0.5002
 6768SOL     OW31936   3.932   0.140   9.140  0.1436  0.0164 -0.1534
 6768SOL    HW131937   3.864   0.204   9.161 -2.6522 -2.7978 -0.5361
 6768SOL    HW231938   4.010   0.195   9.142  0.9434 -1.1105 -0.1650
 6769SOL     OW31939   3.547   4.184   2.286 -0.1341 -0.3545  0.0890
 6769SOL    HW131940   3.559   4.108   2.342 -0.3849 -0.6842 -0.3102
 6769SOL    HW231941   3.483   4.244   2.326 -1.6341 -0.9853 -1.3496
 6770SOL     OW31942   0.532   3.690   4.017  0.1005 -0.6263 -0.0528
 6770SOL    HW131943   0.535   3.764   4.077 -1.4347 -1.0042  0.5068
 6770SOL    HW231944   0.606   3.642   4.054 -0.9887 -2.7577 -0.6559
 6771SOL     OW31945   4.726   0.925   7.651  0.0749  0.3279 -0.0360
 6771SOL    HW131946   4.638   0.912   7.615  0.9584 -0.6384 -1.8514
 6771SOL    HW231947   4.706   0.984   7.723 -0.2319 -0.2890  0.3843
 6772SOL     OW31948   4.387   2.750   9.194  0.5951 -0.0269 -0.3999
 6772SOL    HW131949   4.356   2.788   9.276 -1.8599 -0.7644 -0.9878
 6772SOL    HW231950   4.451   2.812   9.160  0.8776 -0.5712 -0.8571
 6773SOL     OW31951   2.251   3.569  16.083  0.8878  0.1485 -0.5307
 6773SOL    HW131952   2.250   3.507  16.010 -0.1677  0.1007 -0.4821
 6773SOL    HW231953   2.261   3.514  16.160 -2.4284  1.0315  0.5500
 6774SOL     OW31954   2.117   2.436  11.231  0.1262 -0.2849  0.1308
 6774SOL    HW131955   2.148   2.519  11.194  0.2660  0.5781  2.1660
 6774SOL    HW231956   2.179   2.374  11.192 -0.4889 -0.1872 -1.0029
 6775SOL     OW31957   3.966   1.151   4.384  0.9132 -0.8801 -0.0903
 6775SOL    HW131958   4.012   1.174   4.303  0.9292 -0.3019  0.0798
 6775SOL    HW231959   3.968   1.056   4.377 -0.2980 -0.9003 -0.0558
 6776SOL     OW31960   1.583   1.763  12.077 -0.5085 -0.3917 -0.3117
 6776SOL    HW131961   1.675   1.783  12.060 -1.0975  1.2414 -1.6129
 6776SOL    HW231962   1.550   1.740  11.990 -0.6920 -2.1504  0.2215
 6777SOL     OW31963   4.123   0.704  16.741  0.1447  0.7127 -0.4912
 6777SOL    HW131964   4.204   0.703  16.690  0.5328  0.8813  0.1183
 6777SOL    HW231965   4.083   0.623  16.709  0.1558  0.9639 -1.1459
 6778SOL     OW31966   3.808   1.557   8.133  0.0636 -0.2029  0.1133
 6778SOL    HW131967   3.722   1.560   8.092 -0.7238 -0.3959  1.7555
 6778SOL    HW231968   3.790   1.577   8.225  0.8566 -1.5888  0.5669
 6779SOL     OW31969   0.781   0.536   3.961 -0.5760  0.5346 -0.5286
 6779SOL    HW131970   0.702   0.487   3.937  1.4852 -2.2169 -1.7196
 6779SOL    HW231971   0.743   0.589   4.031 -0.9338 -1.0132  0.4470
 6780SOL     OW31972   1.198   3.687   3.685  0.2265  0.1175  0.2183
 6780SOL    HW131973   1.259   3.693   3.758 -0.3201  0.4362  0.6462
 6780SOL    HW231974   1.267   3.685   3.618 -0.5418 -1.6295 -0.5019
 6781SOL     OW31975   1.181   0.667   8.030  0.4115  0.1326  0.5152
 6781SOL    HW131976   1.141   0.595   8.078  1.0445 -0.2909  0.4134
 6781SOL    HW231977   1.245   0.621   7.976  0.2283  0.0673  0.3530
 6782SOL     OW31978   1.973   1.741  16.729 -0.3199  0.0190 -0.1699
 6782SOL    HW131979   1.894   1.687  16.722 -0.0358 -0.0965 -2.2321
 6782SOL    HW231980   1.974   1.760  16.823 -0.9684 -3.7730  0.6264
 6783SOL     OW31981   0.784   1.122   3.919 -0.0226  0.1736 -0.6628
 6783SOL    HW131982   0.715   1.162   3.972  0.5279  1.2436 -0.7623
 6783SOL    HW231983   0.750   1.112   3.830 -0.8247  0.3302 -0.3726
 6784SOL     OW31984   3.429   2.220   8.105  0.3369 -0.2199  0.1925
 6784SOL    HW131985   3.480   2.289   8.147 -0.6017  1.0358 -0.7161
 6784SOL    HW231986   3.337   2.247   8.106  0.5951  0.6329  1.6775
 6785SOL     OW31987   2.351   1.327  10.684 -0.0132 -0.7402 -0.0434
 6785SOL    HW131988   2.331   1.374  10.604  1.1367 -1.1145 -0.5570
 6785SOL    HW231989   2.279   1.264  10.686 -1.5556  1.0169 -1.1096
 6786SOL     OW31990   3.913   3.018   1.877  0.2467 -0.4320  0.1245
 6786SOL    HW131991   3.981   2.960   1.910 -0.0991 -0.4659  0.7771
 6786SOL    HW231992   3.838   2.972   1.915 -0.7112 -0.9312 -2.3990
 6787SOL     OW31993   1.894   4.258   7.268 -0.8881  0.3650 -0.3387
 6787SOL    HW131994   1.965   4.320   7.251  1.4414 -1.8791  1.2749
 6787SOL    HW231995   1.910   4.235   7.359 -1.7450  0.5720 -0.1323
 6788SOL     OW31996   1.370   0.591  10.549  0.1605  0.0696  0.5682
 6788SOL    HW131997   1.454   0.636  10.537  0.0719  0.2096  0.4748
 6788SOL    HW231998   1.321   0.632  10.477  0.7635  0.0646  0.1505
 6789SOL     OW31999   1.476   2.501   8.523 -0.0788 -0.1185 -0.3611
 6789SOL    HW132000   1.547   2.546   8.478  1.4571 -0.0028  2.2051
 6789SOL    HW232001   1.467   2.417   8.478  0.8564 -0.0706 -0.6417
 6790SOL     OW32002   2.508   0.160   8.684  0.4304  0.3339  0.2042
 6790SOL    HW132003   2.484   0.070   8.705 -0.3916  0.3692 -0.5600
 6790SOL    HW232004   2.489   0.162   8.590  1.0097 -1.5383  0.0463
 6791SOL     OW32005   4.580   4.057   3.523 -0.6144 -0.1030  0.3596
 6791SOL    HW132006   4.491   4.072   3.556 -1.2389 -0.6422 -1.0880
 6791SOL    HW232007   4.612   3.982   3.572  3.1307  2.1573  1.3682
 6792SOL     OW32008   3.559   4.508  12.646  0.1322  0.4172 -0.5969
 6792SOL    HW132009   3.499   4.557  12.702  0.7274  0.6925 -0.1988
 6792SOL    HW232010   3.493   4.462  12.594 -0.8144 -1.8015  2.5757
 6793SOL     OW32011   1.521   0.539   8.030 -0.6342  0.0365 -0.5431
 6793SOL    HW132012   1.507   0.588   8.111 -3.1844 -1.0433 -0.3241
 6793SOL    HW232013   1.600   0.493   8.058 -0.2201  2.2023  1.8458
 6794SOL     OW32014   3.880   0.267   8.719  0.2971 -0.3777 -0.4554
 6794SOL    HW132015   3.860   0.309   8.803 -0.4504  0.8626 -1.2524
 6794SOL    HW232016   3.815   0.197   8.708  0.3604 -0.7595  1.6771
 6795SOL     OW32017   4.002   0.259   7.428 -0.3174 -0.1665 -0.0878
 6795SOL    HW132018   3.932   0.197   7.451  0.7455 -1.1255  0.5928
 6795SOL    HW232019   3.975   0.298   7.345 -0.3961  0.5893  0.2947
 6796SOL     OW32020   0.082   3.702   9.471 -0.0739 -0.0411 -0.1987
 6796SOL    HW132021   0.093   3.790   9.509  1.2160 -0.5257  0.5427
 6796SOL    HW232022   0.081   3.652   9.552  0.5111 -2.5776 -1.7602
 6797SOL     OW32023   2.642   3.783   6.089 -0.2280  0.0374  0.3458
 6797SOL    HW132024   2.699   3.709   6.068 -0.3855 -0.7908  2.8007
 6797SOL    HW232025   2.634   3.827   6.005  0.2751 -0.7706 -0.1205
 6798SOL     OW32026   3.368   2.527  10.947  0.0172 -0.3563 -0.3692
 6798SOL    HW132027   3.399   2.550  10.859  3.0671 -0.7962  0.5815
 6798SOL    HW232028   3.295   2.586  10.960 -0.4393 -2.0241  4.7003
 6799SOL     OW32029   0.492   2.610   6.800 -0.1825  0.2630 -0.0197
 6799SOL    HW132030   0.500   2.555   6.722  1.1175 -1.3847  1.2932
 6799SOL    HW232031   0.578   2.651   6.797 -0.6248  1.1385 -1.1056
 6800SOL     OW32032   1.926   3.465   4.560 -0.0720 -0.5834 -0.1937
 6800SOL    HW132033   1.878   3.382   4.565 -0.4143 -0.3604  0.2394
 6800SOL    HW232034   1.925   3.480   4.655  0.6258  1.1752 -0.4764
 6801SOL     OW32035   0.253   2.934  13.130 -0.1091 -0.4739  0.1061
 6801SOL    HW132036   0.217   2.946  13.218 -0.0007  1.7231 -0.1615
 6801SOL    HW232037   0.226   2.844  13.107 -1.1033 -0.2199  0.2812
 6802SOL     OW32038   2.950   3.151   7.759 -0.8462 -0.0701 -0.3522
 6802SOL    HW132039   2.984   3.185   7.676 -0.8405  0.5255 -0.1075
 6802SOL    HW232040   2.981   3.219   7.818  1.6212 -1.6068  0.1381
 6803SOL     OW32041   3.042   2.480   3.927 -0.7759 -0.5465  0.2138
 6803SOL    HW132042   3.009   2.477   3.837  0.0632 -1.8910 -0.0530
 6803SOL    HW232043   3.093   2.399   3.927  2.5658  1.5767 -1.2913
 6804SOL     OW32044   2.271   4.021   7.382 -0.3675  0.2995 -0.1950
 6804SOL    HW132045   2.351   4.074   7.390 -0.5168  0.8137 -1.9502
 6804SOL    HW232046   2.266   3.998   7.289 -0.9779  2.6778 -0.7504
 6805SOL     OW32047   1.154   1.609  14.246 -0.3741  0.9011 -0.1946
 6805SOL    HW132048   1.151   1.600  14.341  1.8736 -0.6393 -0.2862
 6805SOL    HW232049   1.130   1.521  14.217  0.1726 -0.2912  2.9971
 6806SOL     OW32050   1.800   0.246   4.315  0.2794 -0.0881 -0.0394
 6806SOL    HW132051   1.758   0.204   4.240  1.3932  0.3950 -0.9427
 6806SOL    HW232052   1.818   0.333   4.278 -0.1390  0.6102  1.4064
 6807SOL     OW32053   2.134   1.180   5.821  0.3916 -0.6648  0.4296
 6807SOL    HW132054   2.078   1.228   5.760 -0.4739  0.1688  1.8814
 6807SOL    HW232055   2.210   1.236   5.807  1.0281 -1.3235  1.2807
 6808SOL     OW32056   3.476   1.651   1.568 -0.3527 -0.0190 -0.2675
 6808SOL    HW132057   3.466   1.599   1.648 -1.4718  1.4719  0.5659
 6808SOL    HW232058   3.457   1.581   1.506  2.9331 -1.1329 -0.0289
 6809SOL     OW32059   1.553   4.323  16.718  0.2731 -0.3847 -0.2336
 6809SOL    HW132060   1.642   4.347  16.741 -0.0298  0.7009 -0.1629
 6809SOL    HW232061   1.510   4.298  16.800 -1.2216 -2.7730 -1.7466
 6810SOL     OW32062   1.301   2.377   8.929  0.1807  0.2250 -0.4270
 6810SOL    HW132063   1.270   2.405   8.842 -1.1849  1.3409  0.4106
 6810SOL    HW232064   1.369   2.443   8.944  2.2025 -2.4837  2.1114
 6811SOL     OW32065   2.740   4.134  14.022  0.1956  0.3067  0.2194
 6811SOL    HW132066   2.665   4.138  14.082  1.2235 -3.5410  1.7765
 6811SOL    HW232067   2.789   4.059  14.054  1.7083  1.8433  1.4759
 6812SOL     OW32068   1.518   0.882   3.491 -0.0655  0.7699 -0.0835
 6812SOL    HW132069   1.534   0.955   3.431 -1.9330  1.2979  0.0784
 6812SOL    HW232070   1.448   0.928   3.537  0.0493 -0.8216  1.6819
 6813SOL     OW32071   3.616   0.773  13.945 -0.8815  0.0064 -0.5346
 6813SOL    HW132072   3.630   0.863  13.918  2.3853 -1.0329 -2.2506
 6813SOL    HW232073   3.525   0.775  13.975 -0.8265  1.5143 -0.4854
 6814SOL     OW32074   4.726   3.232   1.004  0.2350  0.5569  0.0326
 6814SOL    HW132075   0.046   3.189   0.942  2.2098 -1.3038  3.1597
 6814SOL    HW232076   4.646   3.223   0.952  0.2375 -1.8263  0.4564
 6815SOL     OW32077   0.514   0.656   6.372 -0.0946 -0.6292 -0.0565
 6815SOL    HW132078   0.434   0.608   6.350 -0.4601  0.7614 -1.8598
 6815SOL    HW232079   0.506   0.628   6.463 -2.0982 -0.8708 -0.3135
 6816SOL     OW32080   4.058   3.273   5.621 -0.0720  0.1641  0.0376
 6816SOL    HW132081   4.068   3.360   5.583 -2.4717  0.1243 -0.6244
 6816SOL    HW232082   4.099   3.210   5.561  0.6908  1.4623 -0.7868
 6817SOL     OW32083   3.244   4.391   7.015 -0.5295 -0.1366  0.4330
 6817SOL    HW132084   3.219   4.455   6.948  2.0545  0.0714 -0.3164
 6817SOL    HW232085   3.164   4.339   7.014  0.3142 -1.4415  0.8920
 6818SOL     OW32086   0.399   0.370   1.728  0.2136 -0.1027 -0.0272
 6818SOL    HW132087   0.317   0.419   1.721  0.8714  0.8699 -0.9685
 6818SOL    HW232088   0.392   0.298   1.665 -0.2125  0.3212 -0.4627
 6819SOL     OW32089   0.506   2.403  16.785  0.4991 -0.5527  0.5172
 6819SOL    HW132090   0.510   2.415  16.880  0.8633 -1.6926  0.6385
 6819SOL    HW232091   0.428   2.349  16.777  0.1060  0.0549  0.2224
 6820SOL     OW32092   4.651   1.524   3.800  0.1968  0.7794 -0.7679
 6820SOL    HW132093   4.561   1.497   3.780  0.8087  0.2673 -2.8801
 6820SOL    HW232094   4.653   1.616   3.771 -1.7935  0.5275 -1.6819
 6821SOL     OW32095   4.347   2.323   1.611  0.6672  0.3243  0.1130
 6821SOL    HW132096   4.399   2.249   1.643 -0.8917 -1.0478 -0.4574
 6821SOL    HW232097   4.254   2.308   1.632  0.5663  1.3528  0.4121
 6822SOL     OW32098   1.700   4.713   5.216 -0.4224  0.1869 -0.0215
 6822SOL    HW132099   1.712   0.021   5.133  0.5061  0.1299  0.0711
 6822SOL    HW232100   1.607   4.693   5.210 -0.7336  0.6624  2.9266
 6823SOL     OW32101   2.270   3.333   4.630 -0.1421  0.0380  0.1409
 6823SOL    HW132102   2.227   3.340   4.715 -1.3139 -1.3991 -0.3446
 6823SOL    HW232103   2.298   3.423   4.614 -1.4409  0.6197  1.1655
 6824SOL     OW32104   1.367   3.544   8.747 -0.1774 -0.0487  0.0994
 6824SOL    HW132105   1.364   3.474   8.812  0.2167  1.8244  2.1610
 6824SOL    HW232106   1.423   3.604   8.796 -1.7557 -0.4130  2.3593
 6825SOL     OW32107   2.454   4.444  16.846  0.3126  0.1822  0.0995
 6825SOL    HW132108   2.428   4.534  16.826  2.7327  0.8714  0.0863
 6825SOL    HW232109   2.433   4.439  16.939  1.7988 -2.3063  0.2823
 6826SOL     OW32110   3.779   1.525   6.193  0.2180 -0.2992 -0.6618
 6826SOL    HW132111   3.836   1.594   6.158  0.7092 -0.0694  0.6133
 6826SOL    HW232112   3.709   1.529   6.128  1.0291 -0.6133 -1.5540
 6827SOL     OW32113   2.537   1.538   6.603 -0.3141  0.6701 -0.1201
 6827SOL    HW132114   2.533   1.615   6.660  0.2069  1.7940 -1.5897
 6827SOL    HW232115   2.486   1.477   6.656 -2.4505  1.4384 -1.2936
 6828SOL     OW32116   1.224   2.333   1.620  0.5840 -0.0504  0.0649
 6828SOL    HW132117   1.210   2.427   1.634  0.2362  0.1344 -1.5072
 6828SOL    HW232118   1.161   2.297   1.683  0.0981  0.2143 -0.2665
 6829SOL     OW32119   3.399   0.557   2.380 -0.0893 -0.0137  0.0377
 6829SOL    HW132120   3.361   0.476   2.415 -2.8379  1.3641  0.2607
 6829SOL    HW232121   3.492   0.552   2.399  0.0064  2.9036  0.3240
 6830SOL     OW32122   2.491   2.082   8.286  0.3485  0.8803 -0.7433
 6830SOL    HW132123   2.401   2.057   8.307  0.6463  1.8279  1.6256
 6830SOL    HW232124   2.551   2.030   8.339 -2.6167  0.6551  2.3551
 6831SOL     OW32125   4.322   4.595   0.841 -0.0604 -0.2139  0.1798
 6831SOL    HW132126   4.333   4.574   0.934  1.6608 -0.9522 -0.1924
 6831SOL    HW232127   4.259   4.667   0.846 -1.8681 -1.7743 -0.0348
 6832SOL     OW32128   0.393   1.056   9.055 -0.1960  0.2162 -0.0357
 6832SOL    HW132129   0.436   1.123   9.002  1.9524 -0.9228  0.2665
 6832SOL    HW232130   0.454   0.983   9.044 -0.7754 -0.7487  2.9255
 6833SOL     OW32131   1.311   1.597   5.949  0.0554 -0.3997 -0.7677
 6833SOL    HW132132   1.255   1.589   5.871 -0.0973  0.9339 -0.7960
 6833SOL    HW232133   1.315   1.502   5.963 -1.7103 -0.7369 -2.4116
 6834SOL     OW32134   4.575   4.000   2.273 -0.1204 -0.0597  0.0789
 6834SOL    HW132135   4.482   3.979   2.261 -0.1714 -0.9276  1.9794
 6834SOL    HW232136   4.605   3.954   2.351  1.1627 -1.1618 -1.0542
 6835SOL     OW32137   3.881   0.492  15.162 -0.0221  0.4375  0.0692
 6835SOL    HW132138   3.841   0.467  15.245  1.0598 -3.4351 -0.5394
 6835SOL    HW232139   3.825   0.564  15.134 -2.2776 -0.9946  0.8921
 6836SOL     OW32140   0.275   3.039   7.005  0.2292 -0.3454 -0.0795
 6836SOL    HW132141   0.208   3.058   6.939 -0.4844  1.0709  1.0444
 6836SOL    HW232142   0.320   3.122   7.017  0.3058 -0.4046  0.0427
 6837SOL     OW32143   0.463   3.711   8.255  0.2612  0.2875 -0.5614
 6837SOL    HW132144   0.404   3.690   8.182 -0.6597 -0.5505  0.4157
 6837SOL    HW232145   0.399   3.729   8.325 -1.0499 -1.0073 -1.4263
 6838SOL     OW32146   0.794   0.983   6.954 -0.5483 -0.7637  0.4314
 6838SOL    HW132147   0.777   0.998   6.861 -0.6910  2.1256  0.9331
 6838SOL    HW232148   0.797   1.069   6.995  0.0056 -0.6762  0.2134
 6839SOL     OW32149   2.582   0.058  14.289 -0.3000  0.1871  0.0713
 6839SOL    HW132150   2.658   0.053  14.347 -1.7345 -0.1922  1.8686
 6839SOL    HW232151   2.557   4.705  14.285 -0.0267  0.0951  0.5836
 6840SOL     OW32152   2.551   4.621   8.999  0.0786  0.2223 -0.0496
 6840SOL    HW132153   2.622   4.619   9.064 -1.2488  0.1137  1.3881
 6840SOL    HW232154   2.519   4.711   9.004 -0.7178 -0.0643 -0.0008
 6841SOL     OW32155   0.786   1.152   2.892  0.3433  0.1032  0.2608
 6841SOL    HW132156   0.864   1.153   2.837 -1.2746 -0.6026 -2.0418
 6841SOL    HW232157   0.744   1.078   2.848  1.1871 -0.5104  0.4919
 6842SOL     OW32158   3.430   3.455   6.875  0.2111  0.5779  0.0403
 6842SOL    HW132159   3.502   3.404   6.912  0.1263 -0.0495 -0.6410
 6842SOL    HW232160   3.428   3.414   6.788 -1.8186 -1.5702  1.1083
 6843SOL     OW32161   0.650   3.044  11.263 -0.7513 -0.3173 -0.1537
 6843SOL    HW132162   0.652   3.130  11.221 -0.6646 -0.7631 -1.0646
 6843SOL    HW232163   0.636   3.000  11.179  0.3631  1.2757 -1.1938
 6844SOL     OW32164   0.184   2.037   7.873 -0.0988 -0.4446 -0.1825
 6844SOL    HW132165   0.235   2.106   7.917 -0.4193 -1.2704  1.5049
 6844SOL    HW232166   0.118   2.009   7.937 -1.6741 -1.2048 -2.1430
 6845SOL     OW32167   3.364   3.058  14.783  0.6060 -0.0181 -0.1932
 6845SOL    HW132168   3.302   2.985  14.785 -1.6800  1.9463  1.8311
 6845SOL    HW232169   3.403   3.060  14.696  0.9738  0.7839 -0.0147
 6846SOL     OW32170   2.237   3.431   7.510  0.1211  0.1536  0.1072
 6846SOL    HW132171   2.183   3.481   7.572 -0.5068  0.4527 -0.6745
 6846SOL    HW232172   2.253   3.500   7.444  0.8732 -1.2316 -1.1498
 6847SOL     OW32173   0.352   1.972   8.290  0.3121  0.0836 -0.3913
 6847SOL    HW132174   0.392   1.894   8.251  1.3333  1.1746 -1.5324
 6847SOL    HW232175   0.274   1.928   8.321 -0.0475  1.0967  0.1214
 6848SOL     OW32176   3.322   0.057   6.328  0.0903  0.5191  0.5961
 6848SOL    HW132177   3.255   4.727   6.327  1.9510 -1.3432  4.2642
 6848SOL    HW232178   3.269   0.132   6.352 -0.2938  0.2974  0.4479
 6849SOL     OW32179   1.823   0.538   3.264 -0.0037  0.2591 -0.1614
 6849SOL    HW132180   1.846   0.631   3.264 -2.8932  0.9796  1.3848
 6849SOL    HW232181   1.801   0.525   3.356 -0.1253 -1.9335 -0.4963
 6850SOL     OW32182   0.242   1.867  12.958  0.3483 -0.1676  0.4383
 6850SOL    HW132183   0.225   1.781  12.996  0.5639 -0.1084  0.6729
 6850SOL    HW232184   0.312   1.833  12.902 -0.8487 -0.8757 -0.6252
 6851SOL     OW32185   2.155   0.005   2.244  0.5443  0.4118  0.5728
 6851SOL    HW132186   2.235   0.052   2.265 -1.0533  3.1021  0.5985
 6851SOL    HW232187   2.136   4.711   2.332  0.5618 -0.5777  0.2073
 6852SOL     OW32188   4.165   0.688   4.448 -0.6861  0.6256 -0.3162
 6852SOL    HW132189   4.108   0.742   4.393  0.8089  2.7652  0.2169
 6852SOL    HW232190   4.108   0.624   4.490 -0.3165 -0.1897 -1.0574
 6853SOL     OW32191   3.992   1.024   9.265 -0.2348 -0.2904  0.0384
 6853SOL    HW132192   3.956   1.013   9.354  2.6846 -1.0363  1.1201
 6853SOL    HW232193   3.971   1.117   9.252  0.5982  0.1481  1.7446
 6854SOL     OW32194   1.190   4.606   6.249 -0.0402 -0.9025  0.6509
 6854SOL    HW132195   1.254   4.629   6.316 -0.3705 -1.0482  1.0229
 6854SOL    HW232196   1.207   4.678   6.189 -0.8134 -0.7471  0.6100
 6855SOL     OW32197   3.904   4.683   6.201 -0.0242 -0.0735 -0.4628
 6855SOL    HW132198   3.871   4.729   6.124  2.2583  0.3779 -1.1646
 6855SOL    HW232199   3.937   4.601   6.166  0.7388  1.0997 -2.5047
 6856SOL     OW32200   0.210   0.077  14.120 -0.1753 -0.1511 -0.0607
 6856SOL    HW132201   0.268   0.136  14.169  0.4003 -1.7842  1.2446
 6856SOL    HW232202   0.168   0.026  14.189 -1.1679  0.6806 -0.0596
 6857SOL     OW32203   0.824   2.288   1.662 -0.2641  0.0712  0.1920
 6857SOL    HW132204   0.897   2.239   1.624 -0.5022  0.3973 -0.6886
 6857SOL    HW232205   0.869   2.370   1.682 -0.5669  0.2167  0.2782
 6858SOL     OW32206   0.902   1.396   9.104  0.0245 -0.1443 -0.4231
 6858SOL    HW132207   0.986   1.351   9.099  0.3944  0.7294 -2.1125
 6858SOL    HW232208   0.864   1.345   9.032  0.8606 -0.6239 -0.5176
 6859SOL     OW32209   4.545   1.167   2.793 -0.4590 -0.0288 -0.1788
 6859SOL    HW132210   4.464   1.136   2.834 -1.8767  1.1002 -2.0977
 6859SOL    HW232211   4.521   1.164   2.701 -0.1625 -1.3065 -0.2050
 6860SOL     OW32212   1.072   3.664  16.897 -0.1783  0.5158 -0.4318
 6860SOL    HW132213   0.992   3.623  16.928 -0.0211  0.1633 -0.5022
 6860SOL    HW232214   1.069   3.643  16.804 -0.6163  1.3577 -0.6150
 6861SOL     OW32215   2.724   4.067  15.623 -0.0564  0.4276 -0.5175
 6861SOL    HW132216   2.728   4.147  15.571 -0.4467  0.3566 -0.6547
 6861SOL    HW232217   2.759   4.086  15.710  1.2962  1.1289 -1.2060
 6862SOL     OW32218   2.594   0.867   3.778  0.1417 -0.4089  0.8946
 6862SOL    HW132219   2.626   0.828   3.859  1.1848  1.0074  1.1770
 6862SOL    HW232220   2.543   0.799   3.736 -0.4074 -0.0388  0.9634
 6863SOL     OW32221   0.422   2.946  13.565  0.6447 -0.5660  0.0984
 6863SOL    HW132222   0.402   3.014  13.501  0.1748 -0.3691  0.4515
 6863SOL    HW232223   0.330   2.922  13.579  1.1078 -1.2586  1.9397
 6864SOL     OW32224   1.294   2.939  11.206 -0.6994  0.9367 -0.0715
 6864SOL    HW132225   1.314   2.851  11.174 -2.4055  0.9665 -1.2076
 6864SOL    HW232226   1.212   2.920  11.252 -0.0271  0.5778  0.9802
 6865SOL     OW32227   1.994   3.054   6.377  0.2469  0.7456 -0.1119
 6865SOL    HW132228   2.074   3.101   6.402 -0.4928  1.4211  1.0193
 6865SOL    HW232229   2.025   2.967   6.400  0.4716  1.2907  1.6687
 6866SOL     OW32230   2.431   1.617  12.749  0.3066  0.6925  0.0391
 6866SOL    HW132231   2.434   1.566  12.830 -1.9156  0.1801 -0.1947
 6866SOL    HW232232   2.337   1.638  12.750 -0.8501 -4.4070 -0.3097
 6867SOL     OW32233   1.132   0.793   4.198 -0.5424 -0.0872  0.3977
 6867SOL    HW132234   1.040   0.767   4.197 -0.0296 -1.8398  0.2683
 6867SOL    HW232235   1.135   0.888   4.184 -0.4091 -0.2108 -0.3933
 6868SOL     OW32236   2.661   2.127  11.280 -0.0158  0.2158 -0.0701
 6868SOL    HW132237   2.635   2.169  11.198 -1.8926 -0.1882  0.3329
 6868SOL    HW232238   2.599   2.166  11.341  1.1574  1.2643  0.4770
 6869SOL     OW32239   1.143   2.236   8.055  0.1675  0.0309 -0.0156
 6869SOL    HW132240   1.144   2.324   8.093 -1.0274  1.5679 -3.5506
 6869SOL    HW232241   1.237   2.227   8.068  0.3802 -0.1965 -1.7657
 6870SOL     OW32242   4.567   1.763   1.984 -0.3269 -0.1061  0.3397
 6870SOL    HW132243   4.510   1.687   1.988  2.4446 -2.3076 -1.4226
 6870SOL    HW232244   4.564   1.778   2.078 -1.2441 -0.1507  0.3178
 6871SOL     OW32245   0.720   1.466  17.685 -0.1565  0.4179 -0.3718
 6871SOL    HW132246   0.805   1.432  17.657  0.6651  0.9468  1.5136
 6871SOL    HW232247   0.751   1.554  17.705  0.1382 -0.1064  1.4852
 6872SOL     OW32248   2.395   4.303   1.284  0.0457  0.2075  0.4823
 6872SOL    HW132249   2.422   4.255   1.205 -2.7195  2.1142 -1.6166
 6872SOL    HW232250   2.474   4.357   1.283 -0.8817  1.5530 -2.1627
 6873SOL     OW32251   2.047   0.250   8.447 -0.0247  0.5152  0.3127
 6873SOL    HW132252   1.984   0.188   8.484  0.4166 -1.4847 -2.3409
 6873SOL    HW232253   2.072   0.284   8.533  3.0500 -0.1675 -0.3303
 6874SOL     OW32254   3.838   4.685   4.257 -0.1268  0.1506  0.5002
 6874SOL    HW132255   3.908   4.707   4.196  0.7398 -2.8652  0.4188
 6874SOL    HW232256   3.787   4.639   4.190 -1.2373  1.1654  0.6387
 6875SOL     OW32257   2.774   0.758   1.485 -0.2947 -0.2727 -0.4280
 6875SOL    HW132258   2.800   0.683   1.432  1.1868  0.3976 -0.6524
 6875SOL    HW232259   2.790   0.829   1.422  0.3733  1.3039  1.5185
 6876SOL     OW32260   4.656   1.722  17.157 -0.1549  0.4729  0.1579
 6876SOL    HW132261   4.631   1.703  17.247  3.3920  1.0383  1.2570
 6876SOL    HW232262   0.006   1.688  17.143 -0.6101 -0.6398 -0.0594
 6877SOL     OW32263   1.203   2.444   8.268 -0.2685  0.3594  0.0019
 6877SOL    HW132264   1.299   2.447   8.276 -0.1767  0.0360 -0.9759
 6877SOL    HW232265   1.180   2.399   8.349 -1.0170  0.1768 -0.3177
 6878SOL     OW32266   3.272   0.066   6.694 -0.2030  0.4099  0.3834
 6878SOL    HW132267   3.257   0.122   6.619 -2.7426 -0.1026  0.5112
 6878SOL    HW232268   3.349   0.103   6.736  0.3167 -1.1738  0.8441
 6879SOL     OW32269   4.284   2.624   4.177 -0.1882 -0.5667  0.2478
 6879SOL    HW132270   4.374   2.649   4.198  1.0413 -2.6097 -2.5547
 6879SOL    HW232271   4.295   2.545   4.124  0.2703 -1.8855  2.3048
 6880SOL     OW32272   0.266   2.767  17.366  0.3693 -0.6916 -0.5846
 6880SOL    HW132273   0.315   2.726  17.294  0.1087  0.6457 -1.5117
 6880SOL    HW232274   0.295   2.858  17.360  0.1388 -0.7517 -2.4775
 6881SOL     OW32275   0.280   1.550   4.392 -0.4799 -0.3660  0.0198
 6881SOL    HW132276   0.242   1.497   4.322  0.7439 -0.2257 -0.7520
 6881SOL    HW232277   0.364   1.505   4.405 -1.2114 -1.3157  1.5140
 6882SOL     OW32278   1.861   4.344  12.025 -0.3215  0.1207  0.1543
 6882SOL    HW132279   1.769   4.317  12.036 -0.6884  0.4595 -1.9261
 6882SOL    HW232280   1.848   4.408  11.955 -0.9025  0.4300  0.5429
 6883SOL     OW32281   1.482   2.251  11.212 -0.0624 -0.5617 -0.0982
 6883SOL    HW132282   1.445   2.332  11.179  0.8148 -0.8099 -1.7032
 6883SOL    HW232283   1.541   2.289  11.277 -1.4281  1.5164 -0.0853
 6884SOL     OW32284   3.226   1.495  13.503  1.1640 -0.6707 -0.4382
 6884SOL    HW132285   3.286   1.551  13.552 -0.2373 -1.0599  1.7306
 6884SOL    HW232286   3.179   1.451  13.574  1.9663  2.1100  1.8241
 6885SOL     OW32287   0.750   4.012   4.408  0.6623  0.6710 -0.1038
 6885SOL    HW132288   0.777   3.988   4.497 -1.4603  1.8889  0.8801
 6885SOL    HW232289   0.831   4.036   4.364  0.4635 -0.0906 -0.8840
 6886SOL     OW32290   0.288   0.874   5.746  0.2354  0.2660  0.1061
 6886SOL    HW132291   0.347   0.949   5.752  0.8343 -0.2606  0.7315
 6886SOL    HW232292   0.329   0.822   5.677 -0.5479  0.4382 -0.4913
 6887SOL     OW32293   2.798   0.482   1.492  0.5492 -0.5347  0.0509
 6887SOL    HW132294   2.798   0.416   1.561  0.3334  0.7987  1.3358
 6887SOL    HW232295   2.880   0.530   1.508 -0.0988  0.0697  1.6772
 6888SOL     OW32296   3.289   4.540  10.717 -0.4562 -0.1791  0.2970
 6888SOL    HW132297   3.226   4.504  10.780 -0.1115 -1.8123 -0.3036
 6888SOL    HW232298   3.342   4.586  10.783  1.5820 -2.3551  0.1575
 6889SOL     OW32299   0.615   2.773  12.942  0.0632  0.8208  0.1202
 6889SOL    HW132300   0.601   2.838  13.011  0.1007  0.9843 -0.0246
 6889SOL    HW232301   0.526   2.763  12.906  0.2552 -0.8537  0.1380
 6890SOL     OW32302   3.649   2.129  16.711 -0.1938 -0.9260  0.4507
 6890SOL    HW132303   3.689   2.215  16.718  0.3595 -1.2550  1.2678
 6890SOL    HW232304   3.715   2.074  16.753  1.8625  1.3080  0.1440
 6891SOL     OW32305   0.569   1.130  12.409 -0.2515  0.1169 -0.4317
 6891SOL    HW132306   0.478   1.147  12.434 -1.0053 -1.8298 -1.7778
 6891SOL    HW232307   0.617   1.207  12.438 -2.5605  0.9461  1.1611
 6892SOL     OW32308   1.845   3.821  13.494  0.8132 -0.1590  0.1221
 6892SOL    HW132309   1.897   3.782  13.424  1.2182  0.9980 -0.2319
 6892SOL    HW232310   1.783   3.857  13.430 -0.5098  0.0867  1.5384
 6893SOL     OW32311   2.752   1.169  11.430  0.2928  0.1833 -0.3966
 6893SOL    HW132312   2.759   1.253  11.475  0.9221 -1.1603  2.0190
 6893SOL    HW232313   2.785   1.115  11.502  0.7917  0.2627 -0.5682
 6894SOL     OW32314   1.191   2.309  11.416 -0.4052  0.4807 -0.4960
 6894SOL    HW132315   1.225   2.343  11.498 -1.5326  1.9062 -0.5942
 6894SOL    HW232316   1.252   2.328  11.345  1.3452  1.1328  1.2108
 6895SOL     OW32317   0.242   3.145   7.495 -0.4864  0.3334 -0.0844
 6895SOL    HW132318   0.331   3.132   7.463 -0.8516 -1.0002 -0.5787
 6895SOL    HW232319   0.257   3.182   7.582 -2.5016 -1.8258  1.1737
 6896SOL     OW32320   1.162   4.068  10.709  0.2145  0.4512  0.6874
 6896SOL    HW132321   1.207   4.102  10.787  1.9857 -1.6982  0.6129
 6896SOL    HW232322   1.239   4.051  10.655 -1.2963 -1.3250 -0.8915
 6897SOL     OW32323   4.115   3.990   6.516  0.1379  0.3880 -0.0639
 6897SOL    HW132324   4.060   4.065   6.537  0.8629  0.3680  1.8939
 6897SOL    HW232325   4.102   3.933   6.592  0.4756 -1.2507 -1.2197
 6898SOL     OW32326   4.601   0.216   6.066 -0.0662  0.7650  0.2122
 6898SOL    HW132327   4.558   0.276   6.128  0.7355  0.7807  0.7576
 6898SOL    HW232328   4.671   0.183   6.123 -1.5149 -1.6420  0.5801
 6899SOL     OW32329   2.336   0.784   8.713  0.7402 -0.4865 -1.1031
 6899SOL    HW132330   2.403   0.811   8.776 -0.6404 -0.0519  0.1618
 6899SOL    HW232331   2.297   0.718   8.771  2.0994 -1.0458 -0.8164
 6900SOL     OW32332   2.030   1.139  13.282  0.0139 -0.2008 -0.5610
 6900SOL    HW132333   2.007   1.053  13.316 -1.6900  0.7118  0.6009
 6900SOL    HW232334   2.120   1.148  13.312 -0.7897  0.9713  1.4776
 6901SOL     OW32335   2.672   4.393   8.637 -0.4252 -0.0377 -0.1182
 6901SOL    HW132336   2.623   4.388   8.720  1.3631 -1.2560  0.8544
 6901SOL    HW232337   2.682   4.488   8.630  1.5484 -0.0837  2.0961
 6902SOL     OW32338   1.864   3.266  11.360 -0.3659 -0.2553 -0.5731
 6902SOL    HW132339   1.888   3.263  11.453 -1.4137 -0.1529 -0.2999
 6902SOL    HW232340   1.946   3.302  11.328 -1.5333  0.8141 -2.3790
 6903SOL     OW32341   1.562   2.570  16.465 -0.3980 -0.5323 -0.2290
 6903SOL    HW132342   1.513   2.493  16.434  1.3173 -1.5476 -0.3865
 6903SOL    HW232343   1.508   2.597  16.540  1.6466 -0.2236  1.1107
 6904SOL     OW32344   3.184   3.156   3.409 -0.8193 -0.1368  1.0785
 6904SOL    HW132345   3.271   3.178   3.377 -0.4742 -2.1164  0.6348
 6904SOL    HW232346   3.128   3.214   3.357 -0.7919  0.2054  1.4320
 6905SOL     OW32347   3.017   2.260   4.795 -0.2707 -1.0052  0.9284
 6905SOL    HW132348   3.045   2.186   4.848  2.3068 -1.9215 -1.7205
 6905SOL    HW232349   3.026   2.222   4.707 -0.1274  2.2078 -0.4577
 6906SOL     OW32350   2.164   3.377  14.680  0.3018  0.0050 -0.2109
 6906SOL    HW132351   2.141   3.409  14.768 -0.4237 -2.0089  0.3447
 6906SOL    HW232352   2.254   3.407  14.684  1.3991 -3.1853 -1.3648
 6907SOL     OW32353   3.374   2.333   2.588 -0.1826 -0.9489  0.6104
 6907SOL    HW132354   3.342   2.377   2.667 -0.8741 -0.6629  0.1721
 6907SOL    HW232355   3.466   2.317   2.611  0.3041 -0.2578 -0.8193
 6908SOL     OW32356   0.623   1.512   4.718  0.1442  0.7172 -0.1230
 6908SOL    HW132357   0.662   1.444   4.774  0.0831  1.4885  0.8617
 6908SOL    HW232358   0.532   1.523   4.745 -0.2543 -1.6216 -0.5471
 6909SOL     OW32359   4.000   3.491   8.288  0.1706 -0.0965  0.3068
 6909SOL    HW132360   3.987   3.518   8.197 -0.7488 -0.3433  0.3577
 6909SOL    HW232361   3.972   3.571   8.332 -0.3186 -0.7724  1.2315
 6910SOL     OW32362   4.156   4.307   6.719 -0.1355 -0.5674 -0.4509
 6910SOL    HW132363   4.124   4.377   6.776 -1.6259 -0.1472 -1.8066
 6910SOL    HW232364   4.248   4.330   6.712 -0.5514  1.2838  0.1341
 6911SOL     OW32365   4.464   1.849   7.065  0.0407  0.1628 -0.0986
 6911SOL    HW132366   4.407   1.863   7.141 -1.0415 -1.9354 -0.5191
 6911SOL    HW232367   4.400   1.848   6.994  2.4811  0.6250 -2.3011
 6912SOL     OW32368   3.837   4.236   3.437 -0.7319 -0.1802  0.2643
 6912SOL    HW132369   3.917   4.279   3.408  2.0164 -2.7670  4.1521
 6912SOL    HW232370   3.771   4.295   3.399 -1.4129 -0.4056  1.0885
 6913SOL     OW32371   3.026   0.627   5.616  0.5469  0.1261  0.1782
 6913SOL    HW132372   3.113   0.624   5.656 -0.0984 -1.0105  1.4967
 6913SOL    HW232373   2.978   0.622   5.699 -0.7309  2.0673 -0.4403
 6914SOL     OW32374   1.433   0.135   1.314 -0.4348  0.9263  0.1880
 6914SOL    HW132375   1.509   0.099   1.269 -0.9665  1.5027 -1.1602
 6914SOL    HW232376   1.444   0.091   1.398  1.2015  3.3493  1.2473
 6915SOL     OW32377   1.624   3.441   5.435  0.4487 -0.0433  0.1866
 6915SOL    HW132378   1.651   3.528   5.404  0.2679 -0.6462 -1.6728
 6915SOL    HW232379   1.571   3.422   5.358 -2.0863 -0.9420  2.1564
 6916SOL     OW32380   0.630   0.337   6.444  0.4629  0.2943  0.3184
 6916SOL    HW132381   0.561   0.340   6.511 -1.5183  0.5748 -1.7488
 6916SOL    HW232382   0.656   0.245   6.445 -1.0395 -0.1207  0.1063
 6917SOL     OW32383   2.634   0.498   0.889  0.3004  0.5168 -0.0942
 6917SOL    HW132384   2.687   0.564   0.933  0.1384 -0.2976  1.3211
 6917SOL    HW232385   2.673   0.490   0.802  1.7977 -0.9088  0.7325
 6918SOL     OW32386   2.225   2.347   9.393 -0.1261 -0.2754 -0.3188
 6918SOL    HW132387   2.241   2.385   9.479  2.0391 -0.1423 -0.7684
 6918SOL    HW232388   2.224   2.253   9.413  0.5445  0.0286  1.1088
 6919SOL     OW32389   2.353   2.877  14.894 -0.1548  0.6273 -0.2592
 6919SOL    HW132390   2.446   2.866  14.913  0.1586  1.8371 -1.0830
 6919SOL    HW232391   2.311   2.836  14.970  2.5084 -0.6352  0.5001
 6920SOL     OW32392   4.630   1.795   3.913 -0.0184 -0.2265  0.3031
 6920SOL    HW132393   4.537   1.785   3.889  0.3549  1.5953 -1.8698
 6920SOL    HW232394   4.634   1.871   3.971  1.3110 -0.3447  0.3527
 6921SOL     OW32395   0.485   2.143   3.905 -0.0811 -0.1570 -0.1660
 6921SOL    HW132396   0.546   2.188   3.847  0.8117  1.3875  1.9717
 6921SOL    HW232397   0.482   2.210   3.973 -0.2305  0.2214 -0.5424
 6922SOL     OW32398   1.070   3.848  11.352  0.5234 -0.8045 -0.9097
 6922SOL    HW132399   1.079   3.871  11.444  2.6107 -0.6593 -1.1519
 6922SOL    HW232400   0.976   3.861  11.339  0.2969 -2.0400 -0.5800
 6923SOL     OW32401   1.960   2.583   7.577  0.1868  0.2884 -0.4930
 6923SOL    HW132402   1.911   2.630   7.509  1.3915 -0.4012 -1.8413
 6923SOL    HW232403   1.939   2.649   7.644 -1.2466  1.3216 -1.9447
 6924SOL     OW32404   1.972   1.672   4.031 -0.2055  0.3684  0.2290
 6924SOL    HW132405   1.930   1.692   3.948  0.2325 -0.4449 -0.1867
 6924SOL    HW232406   1.982   1.578   4.016  2.5631  0.7535 -0.3926
 6925SOL     OW32407   1.161   1.525  14.515 -0.1943  0.6897 -0.2648
 6925SOL    HW132408   1.128   1.437  14.532  1.4397  0.4992  1.9113
 6925SOL    HW232409   1.222   1.542  14.586  1.2137 -1.4154 -0.9652
 6926SOL     OW32410   1.190   3.057   3.138 -0.5417  0.5260  0.0048
 6926SOL    HW132411   1.163   3.026   3.051  0.4183 -0.3808  0.0300
 6926SOL    HW232412   1.249   2.988   3.166  0.0949  0.6395 -1.0513
 6927SOL     OW32413   0.637   1.817   5.082  0.3751  0.5168  0.1721
 6927SOL    HW132414   0.628   1.902   5.125 -1.0979 -0.2396  1.3547
 6927SOL    HW232415   0.642   1.767   5.164 -2.2124  1.0623  0.6574
 6928SOL     OW32416   1.890   4.080  13.049 -0.1049  0.2649 -0.0012
 6928SOL    HW132417   1.891   4.144  13.120  0.6732  1.3281 -0.9774
 6928SOL    HW232418   1.976   4.039  13.062  0.4575  1.2632 -0.5224
 6929SOL     OW32419   2.500   3.009   4.098  0.4494  0.3324  0.0168
 6929SOL    HW132420   2.486   2.974   4.186  2.2122  3.2616  1.4377
 6929SOL    HW232421   2.596   3.009   4.098  0.4528 -2.0714  0.6072
 6930SOL     OW32422   0.188   1.167   4.897  0.6271 -0.2485 -0.3038
 6930SOL    HW132423   0.271   1.214   4.892  0.9362 -0.6551  1.0869
 6930SOL    HW232424   0.189   1.129   4.984  1.9179  0.4099 -0.0332
 6931SOL     OW32425   2.642   3.719   7.566 -0.1648 -0.2604 -0.4890
 6931SOL    HW132426   2.571   3.736   7.505 -1.1649  0.1000  0.7711
 6931SOL    HW232427   2.671   3.630   7.550  2.9646  0.7433 -0.5510
 6932SOL     OW32428   3.648   1.710   2.193  0.1323 -0.6736 -0.0518
 6932SOL    HW132429   3.669   1.795   2.156 -2.1039  0.5679  1.5481
 6932SOL    HW232430   3.664   1.725   2.286 -0.4594 -0.9845  0.1077
 6933SOL     OW32431   3.990   1.851  14.158  0.2486 -0.2575 -0.0448
 6933SOL    HW132432   4.075   1.891  14.142  1.2926 -1.2089  3.3087
 6933SOL    HW232433   3.946   1.909  14.220  0.2106 -0.9265  0.5480
 6934SOL     OW32434   0.687   3.764   5.067  0.5092 -0.0467  0.8194
 6934SOL    HW132435   0.699   3.751   5.161 -0.6629  0.0994  0.9847
 6934SOL    HW232436   0.642   3.683   5.043 -0.3349  0.4194  0.8293
 6935SOL     OW32437   1.278   2.208   6.865 -0.3055  0.5378 -0.4807
 6935SOL    HW132438   1.346   2.206   6.932 -0.2704  1.9658 -0.4758
 6935SOL    HW232439   1.222   2.137   6.895 -0.5532 -0.6700 -3.7178
 6936SOL     OW32440   3.483   0.879   8.064  0.4265 -0.4054 -0.2214
 6936SOL    HW132441   3.469   0.842   7.977 -1.9791 -0.8733  0.3669
 6936SOL    HW232442   3.433   0.825   8.126 -0.2141 -0.7759 -1.0646
 6937SOL     OW32443   2.476   1.711   3.528 -0.0328 -0.4219 -0.1309
 6937SOL    HW132444   2.554   1.749   3.488 -0.3211 -1.0633 -1.3094
 6937SOL    HW232445   2.425   1.689   3.450  1.7131  1.5255 -1.8356
 6938SOL     OW32446   2.879   3.195   6.414  0.5181 -0.0672 -0.1547
 6938SOL    HW132447   2.968   3.224   6.395  0.6574  0.5473  1.4496
 6938SOL    HW232448   2.821   3.257   6.370 -0.0063  0.5859  1.4497
 6939SOL     OW32449   2.612   4.667   6.094 -0.0579 -0.1903  0.6917
 6939SOL    HW132450   2.545   4.628   6.150  1.0959  0.8358  2.7642
 6939SOL    HW232451   2.621   0.014   6.136  2.8295 -0.0951 -0.1581
 6940SOL     OW32452   0.772   2.761   9.124 -0.5161 -0.0539 -0.0129
 6940SOL    HW132453   0.818   2.838   9.090  1.3865 -2.0124 -1.8078
 6940SOL    HW232454   0.770   2.780   9.218 -0.7897 -2.1658  0.4005
 6941SOL     OW32455   4.625   2.858   3.387  0.9718  0.2047 -0.7800
 6941SOL    HW132456   4.545   2.906   3.407  1.1163  1.1538 -2.4283
 6941SOL    HW232457   4.607   2.768   3.414  1.0271 -0.0618 -1.6204
 6942SOL     OW32458   0.892   4.375   0.326 -0.0660 -0.0501  0.2955
 6942SOL    HW132459   0.822   4.366   0.262 -1.0694  3.2410  0.8929
 6942SOL    HW232460   0.845   4.436   0.383 -0.7289 -0.0799 -0.2305
 6943SOL     OW32461   4.372   3.809   6.903  0.3714  0.1066 -0.3924
 6943SOL    HW132462   4.350   3.896   6.937  0.4041 -0.0369 -0.0092
 6943SOL    HW232463   4.442   3.839   6.845  2.0092  0.3023  1.7017
 6944SOL     OW32464   4.491   2.190   0.757  0.3250 -0.1176  0.9910
 6944SOL    HW132465   4.406   2.234   0.765 -0.3188 -1.0720 -0.5597
 6944SOL    HW232466   4.477   2.132   0.682 -0.6148  1.3554  0.0381
 6945SOL     OW32467   4.392   1.893  10.780 -0.2879 -0.3470  0.4172
 6945SOL    HW132468   4.322   1.839  10.744  1.5866 -2.0667 -0.6465
 6945SOL    HW232469   4.363   1.983  10.768 -0.7975 -0.4589  0.7840
 6946SOL     OW32470   2.206   1.578   5.693 -0.1417 -0.1198 -0.3623
 6946SOL    HW132471   2.281   1.586   5.751 -0.5593  0.0582  0.1583
 6946SOL    HW232472   2.246   1.597   5.608  1.3528 -0.5428  0.2485
 6947SOL     OW32473   2.090   3.967  10.472 -0.2914  0.2100 -0.5294
 6947SOL    HW132474   2.132   4.011  10.546 -2.5878  1.3678  0.0983
 6947SOL    HW232475   2.085   3.883  10.519  3.0915  0.2291 -0.1765
 6948SOL     OW32476   3.490   3.475   0.573  0.0274  0.0086  0.1291
 6948SOL    HW132477   3.484   3.461   0.479  1.5264  0.4802 -0.0387
 6948SOL    HW232478   3.455   3.564   0.577 -0.0886 -0.0795  1.0590
 6949SOL     OW32479   3.579   4.034   6.109 -0.0489  0.3359  0.6884
 6949SOL    HW132480   3.661   3.994   6.137  1.9210  1.5368 -3.3996
 6949SOL    HW232481   3.603   4.120   6.143  1.6525 -0.2423  0.9649
 6950SOL     OW32482   0.199   1.945   5.316 -0.0665  0.4517  0.7166
 6950SOL    HW132483   0.180   2.004   5.243 -1.4821 -0.3351  0.4427
 6950SOL    HW232484   0.217   2.011   5.383 -0.7607 -0.1093  1.4463
 6951SOL     OW32485   0.351   0.365   8.709 -0.2365 -0.0558  0.8164
 6951SOL    HW132486   0.351   0.386   8.802 -0.7104  0.5413  0.6819
 6951SOL    HW232487   0.431   0.313   8.706  0.5423  1.1470  0.7790
 6952SOL     OW32488   0.489   0.113   2.616 -0.2763  0.7039 -0.2978
 6952SOL    HW132489   0.499   0.168   2.539 -1.1146  1.1695 -0.0700
 6952SOL    HW232490   0.471   0.031   2.571  1.4726 -0.7702  1.6727
 6953SOL     OW32491   1.475   0.146   7.835  0.0752  0.1539 -0.0340
 6953SOL    HW132492   1.432   0.120   7.916 -1.2406  1.5801 -0.2774
 6953SOL    HW232493   1.552   0.195   7.860  0.5991 -1.3342  1.2482
 6954SOL     OW32494   4.539   3.655   4.167 -0.1220 -0.1773 -0.1445
 6954SOL    HW132495   4.484   3.646   4.244 -1.1449  1.8493 -0.6436
 6954SOL    HW232496   4.473   3.650   4.098  0.3989  0.1705 -0.6717
 6955SOL     OW32497   1.596   1.829   8.875  0.4226 -0.0797  1.3478
 6955SOL    HW132498   1.518   1.789   8.838  0.3356  0.4829  0.9301
 6955SOL    HW232499   1.578   1.827   8.969 -3.0450  1.8864  0.7167
 6956SOL     OW32500   3.706   4.381   5.742 -0.2953 -0.3719  0.2518
 6956SOL    HW132501   3.652   4.308   5.772 -1.5163  0.9051  1.1797
 6956SOL    HW232502   3.784   4.375   5.796  0.6794  2.7058 -0.7878
 6957SOL     OW32503   0.258   1.285   4.221 -0.6804  0.5943 -0.1406
 6957SOL    HW132504   0.224   1.197   4.204  0.3886 -0.4779  3.1869
 6957SOL    HW232505   0.175   1.322   4.253  0.0808  2.8173 -0.7792
 6958SOL     OW32506   3.373   2.207   0.096  0.0468 -0.1563  0.0936
 6958SOL    HW132507   3.287   2.187   0.058 -1.0342  2.0915  1.3983
 6958SOL    HW232508   3.352   2.288   0.143  0.5592 -0.3075  0.5780
 6959SOL     OW32509   1.465   3.637  13.449 -0.3717 -0.1575 -0.3388
 6959SOL    HW132510   1.495   3.681  13.529  1.7179 -0.1827 -1.1187
 6959SOL    HW232511   1.455   3.716  13.397 -0.0985 -0.6868 -1.2061
 6960SOL     OW32512   1.942   4.332   5.535 -0.6179 -0.4790  0.5226
 6960SOL    HW132513   1.900   4.398   5.479  1.7020  1.9769  1.6487
 6960SOL    HW232514   2.029   4.365   5.558 -0.6463 -0.2584  0.3069
 6961SOL     OW32515   3.417   1.716  13.312 -0.1087  0.3379 -0.3280
 6961SOL    HW132516   3.433   1.630  13.274 -1.8144 -0.8340  1.6478
 6961SOL    HW232517   3.475   1.760  13.249 -0.5798  0.7928 -0.4402
 6962SOL     OW32518   0.098   2.959   3.268  0.1210  0.0499  0.0816
 6962SOL    HW132519   0.125   2.874   3.234 -0.1696 -0.4679  1.1452
 6962SOL    HW232520   0.014   2.932   3.304  0.4739 -1.4712 -0.2467
 6963SOL     OW32521   2.109   1.248  10.936 -0.3797  0.3329 -0.0661
 6963SOL    HW132522   2.058   1.173  10.968  0.2948 -0.2276 -0.3204
 6963SOL    HW232523   2.038   1.285  10.884  0.5607  1.6862 -0.3743
 6964SOL     OW32524   1.869   2.517   2.660  0.0063  0.5373 -0.3718
 6964SOL    HW132525   1.837   2.512   2.750 -1.0931 -0.7951 -0.8273
 6964SOL    HW232526   1.955   2.554   2.680  1.4948 -3.2043  0.0292
 6965SOL     OW32527   2.016   1.360   5.685 -0.4425  0.4830  0.6095
 6965SOL    HW132528   1.958   1.408   5.625 -0.1384 -1.3439 -1.1400
 6965SOL    HW232529   2.076   1.427   5.716  0.6567 -0.3580  0.2875
 6966SOL     OW32530   1.179   0.934   5.722 -0.6343  0.1502 -0.2223
 6966SOL    HW132531   1.149   0.990   5.650 -0.3665  1.5061  0.7127
 6966SOL    HW232532   1.161   0.850   5.680  0.3832  0.1952 -0.7479
 6967SOL     OW32533   4.339   4.152   9.369 -0.0257 -0.9593  0.1670
 6967SOL    HW132534   4.370   4.074   9.323  1.5833 -0.3031  0.1435
 6967SOL    HW232535   4.251   4.162   9.332 -0.0928  0.3415  0.6936
 6968SOL     OW32536   1.272   3.508  15.128  0.0942 -0.4210 -0.2672
 6968SOL    HW132537   1.231   3.523  15.213  0.6253 -2.5213  0.3441
 6968SOL    HW232538   1.357   3.478  15.161  0.7891 -0.2302 -1.9075
 6969SOL     OW32539   2.627   0.300   6.406 -0.0031 -0.2902  0.2184
 6969SOL    HW132540   2.552   0.266   6.358  0.5183  1.0723 -1.5661
 6969SOL    HW232541   2.594   0.360   6.473 -0.1903  1.4279 -1.4238
 6970SOL     OW32542   1.932   3.630   2.385  0.3335 -0.2649  0.1452
 6970SOL    HW132543   2.025   3.613   2.377  0.5343  1.1853 -0.7251
 6970SOL    HW232544   1.903   3.579   2.460  2.8919 -0.3094  1.1023
 6971SOL     OW32545   3.381   2.083   4.102 -0.5656 -0.9735 -0.1537
 6971SOL    HW132546   3.364   2.052   4.191  0.4961  0.5047  0.5704
 6971SOL    HW232547   3.476   2.076   4.109 -0.5394 -0.2639  0.2228
 6972SOL     OW32548   0.785   0.250   5.660 -0.7110  0.1818  0.3582
 6972SOL    HW132549   0.818   0.202   5.737  1.5207 -0.6863 -1.1619
 6972SOL    HW232550   0.725   0.311   5.702 -3.2009 -3.0135  1.4773
 6973SOL     OW32551   1.842   3.996   7.454  0.0478  0.6138 -0.3116
 6973SOL    HW132552   1.774   4.060   7.474 -2.3462 -1.7979 -0.9142
 6973SOL    HW232553   1.799   3.914   7.476 -2.2025  1.8681 -0.0359
 6974SOL     OW32554   3.138   0.795   1.346 -0.4661 -0.1001  0.1660
 6974SOL    HW132555   3.055   0.753   1.324 -0.9705  0.3949  1.1555
 6974SOL    HW232556   3.170   0.805   1.256 -0.3516 -0.8414  0.1257
 6975SOL     OW32557   3.353   0.382   9.072  0.9223  0.2261 -0.2432
 6975SOL    HW132558   3.290   0.321   9.035  1.3470  0.2893 -1.0964
 6975SOL    HW232559   3.379   0.432   8.994 -2.9189 -2.3266 -3.1734
 6976SOL     OW32560   4.310   0.866  12.423 -0.2210  0.2002 -0.2638
 6976SOL    HW132561   4.404   0.849  12.433 -0.3113  0.0641  0.3268
 6976SOL    HW232562   4.284   0.792  12.477  0.6576  0.6517  0.7849
 6977SOL     OW32563   3.533   2.694   1.649  0.6646  0.2569  0.2817
 6977SOL    HW132564   3.562   2.669   1.737  2.3523 -2.1384 -0.9405
 6977SOL    HW232565   3.458   2.748   1.674 -0.6965 -1.9328  0.9305
 6978SOL     OW32566   1.755   2.718   4.827 -0.0268  0.2178 -0.6425
 6978SOL    HW132567   1.715   2.658   4.765 -1.3089  0.8421 -0.4214
 6978SOL    HW232568   1.718   2.682   4.907  0.9250  1.3262  0.3014
 6979SOL     OW32569   0.587   2.523   8.500 -0.2401 -0.0860 -0.2574
 6979SOL    HW132570   0.639   2.460   8.449 -1.1633 -1.8558  1.0297
 6979SOL    HW232571   0.531   2.467   8.553  0.2221 -0.4332 -0.1321
 6980SOL     OW32572   1.046   1.535   8.109  0.4944 -0.2173  0.0496
 6980SOL    HW132573   0.950   1.536   8.103  0.4308  1.7927  1.1464
 6980SOL    HW232574   1.053   1.630   8.120  0.6892  0.0200 -2.1169
 6981SOL     OW32575   2.114   4.718  16.281  0.4653 -0.1340 -0.9714
 6981SOL    HW132576   2.061   0.032  16.341 -1.2410 -2.6150 -0.3127
 6981SOL    HW232577   2.160   0.043  16.226 -0.8045  0.1182 -1.7307
 6982SOL     OW32578   3.593   2.612   3.048  0.5954 -0.5852 -1.1748
 6982SOL    HW132579   3.535   2.603   3.124  1.9425 -0.0641 -0.0983
 6982SOL    HW232580   3.668   2.559   3.073  0.4411 -0.2886 -0.0817
 6983SOL     OW32581   3.878   3.228   0.078  0.2190 -0.8571  0.0142
 6983SOL    HW132582   3.883   3.157   0.142 -0.6376 -1.4706 -0.5969
 6983SOL    HW232583   3.943   3.192   0.018  2.0141  1.1623  0.7554
 6984SOL     OW32584   0.371   3.756   3.269 -0.2118  0.5849  0.8646
 6984SOL    HW132585   0.329   3.703   3.336  0.1908 -1.7705 -0.7356
 6984SOL    HW232586   0.464   3.735   3.274 -0.7744 -2.3263 -0.9384
 6985SOL     OW32587   0.399   2.779   2.351  0.9584 -0.5936 -0.0354
 6985SOL    HW132588   0.364   2.859   2.391  1.6197 -0.7689  0.8995
 6985SOL    HW232589   0.316   2.747   2.317  1.8851 -1.6379 -1.3081
 6986SOL     OW32590   0.618   1.960  16.039  0.1208  0.3829 -0.9680
 6986SOL    HW132591   0.644   1.882  16.089  1.9155  2.0714  0.7413
 6986SOL    HW232592   0.531   1.928  16.015 -0.7844 -0.0098  2.6874
 6987SOL     OW32593   0.233   2.998   7.987  0.1090  0.1239  0.1307
 6987SOL    HW132594   0.222   2.974   7.895  0.8421  0.2499  0.0126
 6987SOL    HW232595   0.312   3.052   7.984  1.1173 -1.3093  0.3942
 6988SOL     OW32596   4.715   4.676   3.751  0.0641  0.0735 -0.3694
 6988SOL    HW132597   0.018   4.676   3.837 -1.3535  2.5661  0.3368
 6988SOL    HW232598   4.731   0.030   3.731  1.8804  0.0770  1.1006
 6989SOL     OW32599   2.550   3.349   4.938  0.5325 -0.3850 -0.1590
 6989SOL    HW132600   2.580   3.369   5.027  1.6207 -0.6859 -0.4602
 6989SOL    HW232601   2.468   3.307   4.964 -0.2492 -0.3053 -2.4782
 6990SOL     OW32602   2.001   0.474   4.640  0.1013 -0.3456  0.0144
 6990SOL    HW132603   1.920   0.430   4.669  0.5450  0.0113  1.8287
 6990SOL    HW232604   2.040   0.505   4.722  0.4747 -4.0445  1.2740
 6991SOL     OW32605   0.123   2.262   3.454 -0.2135 -0.6906  0.1657
 6991SOL    HW132606   0.135   2.353   3.428 -0.5325 -0.1456  1.9717
 6991SOL    HW232607   0.049   2.228   3.404  0.2079 -1.3696 -0.0021
 6992SOL     OW32608   2.321   3.040   4.622 -0.0431 -0.3353 -0.6851
 6992SOL    HW132609   2.377   3.050   4.699  0.3959 -1.8614 -0.8076
 6992SOL    HW232610   2.293   3.129   4.600  1.4432 -0.6350 -3.6899
 6993SOL     OW32611   3.573   2.507  10.100 -0.0515 -0.0935  0.0171
 6993SOL    HW132612   3.541   2.545  10.018  0.3032  0.5268  0.1607
 6993SOL    HW232613   3.498   2.518  10.158  0.3765  0.2960  0.4980
 6994SOL     OW32614   3.378   0.330  17.024  0.3372 -0.3087  0.0323
 6994SOL    HW132615   3.366   0.256  16.964  0.6253  0.2969 -0.7710
 6994SOL    HW232616   3.472   0.339  17.008  0.5469 -0.6523  1.0684
 6995SOL     OW32617   0.702   2.291   3.792 -0.4624 -0.7599 -0.1365
 6995SOL    HW132618   0.764   2.224   3.822  0.4967  0.0310 -0.3544
 6995SOL    HW232619   0.769   2.357   3.776 -0.6903 -0.8197 -1.3119
 6996SOL     OW32620   1.776   0.811   8.631  0.3912  0.3218  0.2031
 6996SOL    HW132621   1.858   0.777   8.597 -0.5211 -0.9418 -0.7285
 6996SOL    HW232622   1.730   0.826   8.549 -0.8902  2.0829  1.2253
 6997SOL     OW32623   3.373   0.761  14.077 -0.3659 -0.1542  0.1791
 6997SOL    HW132624   3.372   0.819  14.153  1.9858  1.1208 -0.7399
 6997SOL    HW232625   3.337   0.679  14.109 -1.8423  0.2699 -0.4227
 6998SOL     OW32626   0.112   4.315   3.280 -0.1192  0.5915  0.4967
 6998SOL    HW132627   0.101   4.225   3.248 -0.3931  0.6622  0.3936
 6998SOL    HW232628   0.146   4.299   3.368 -0.4064 -2.2320  0.0908
 6999SOL     OW32629   3.543   4.038  12.663  0.4126  0.3406  0.4307
 6999SOL    HW132630   3.518   4.130  12.671 -0.3005  0.1665  0.2020
 6999SOL    HW232631   3.617   4.051  12.721 -0.9494  2.6068  1.6225
 7000SOL     OW32632   4.160   1.828   7.848  0.1174  0.3683 -0.1471
 7000SOL    HW132633   4.073   1.868   7.844 -0.2704 -0.2142  2.4500
 7000SOL    HW232634   4.163   1.769   7.923 -2.6978 -0.9487 -1.0606
 7001SOL     OW32635   0.877   3.802   1.724  0.0229 -0.3797  0.1298
 7001SOL    HW132636   0.783   3.798   1.709 -0.0471  2.5149 -0.1083
 7001SOL    HW232637   0.902   3.790   1.632 -0.2065 -4.1764  0.5471
 7002SOL     OW32638   1.872   1.593  16.457 -0.4311 -0.6235  0.3403
 7002SOL    HW132639   1.808   1.595  16.528 -0.3319  0.9424  0.3878
 7002SOL    HW232640   1.947   1.552  16.499 -1.7854 -1.3857  2.0176
 7003SOL     OW32641   3.541   4.280   3.299 -0.7959 -0.5725 -0.0971
 7003SOL    HW132642   3.523   4.371   3.320  1.0166 -0.6153  1.6508
 7003SOL    HW232643   3.470   4.246   3.353  1.0077 -2.9068  0.8232
 7004SOL     OW32644   3.457   1.761  13.662 -0.2606  0.4809  0.7140
 7004SOL    HW132645   3.407   1.771  13.743 -0.8614 -2.3854  0.6865
 7004SOL    HW232646   3.545   1.744  13.695  0.4682 -1.0355 -2.0180
 7005SOL     OW32647   2.708   4.199   1.308  0.0403 -0.0525 -0.0138
 7005SOL    HW132648   2.702   4.294   1.320  3.5231 -0.0711  2.1213
 7005SOL    HW232649   2.662   4.171   1.386 -1.2245  0.0581 -0.7251
 7006SOL     OW32650   2.630   3.696   2.353 -0.6687  0.0444 -0.2128
 7006SOL    HW132651   2.678   3.667   2.431  0.1036 -0.4374 -0.8708
 7006SOL    HW232652   2.703   3.729   2.300 -0.5002 -0.5015 -0.3150
 7007SOL     OW32653   1.385   3.315   8.913  0.8290 -0.2299 -0.3023
 7007SOL    HW132654   1.335   3.234   8.920 -0.0781  0.3061 -0.4899
 7007SOL    HW232655   1.356   3.357   8.994  0.6278 -0.3166 -0.3297
 7008SOL     OW32656   2.579   0.072   8.390 -0.3172  0.4235 -0.1502
 7008SOL    HW132657   2.512   0.141   8.393 -0.3915  0.3398  0.2300
 7008SOL    HW232658   2.559   0.037   8.303 -0.1813 -1.8180  0.7154
 7009SOL     OW32659   3.274   3.235  16.993 -0.4312  0.0116 -0.0694
 7009SOL    HW132660   3.341   3.202  16.933 -1.2649  2.3462 -2.2985
 7009SOL    HW232661   3.286   3.329  16.985 -0.0217 -0.0061  0.3121
 7010SOL     OW32662   3.515   4.403  15.074  0.1495  0.6672 -0.0608
 7010SOL    HW132663   3.582   4.419  15.141  1.5232  0.7097 -1.4661
 7010SOL    HW232664   3.475   4.321  15.103  1.1695  0.5727  1.1003
 7011SOL     OW32665   0.320   1.856   4.369 -0.4526  0.3636  0.3501
 7011SOL    HW132666   0.352   1.822   4.285 -1.7515  1.4844 -0.6033
 7011SOL    HW232667   0.391   1.820   4.422 -0.5215  1.3667  1.1094
 7012SOL     OW32668   0.403   1.572   7.566 -0.3181  0.2792 -0.1758
 7012SOL    HW132669   0.449   1.490   7.580 -1.6269 -0.3382  0.5419
 7012SOL    HW232670   0.480   1.629   7.571  0.0825 -0.1981 -0.9001
 7013SOL     OW32671   1.933   2.228   4.042 -0.2500 -0.1149 -0.7120
 7013SOL    HW132672   1.914   2.136   4.027 -0.0946 -0.4994  1.4818
 7013SOL    HW232673   1.929   2.261   3.952 -2.2775  0.3162 -0.4679
 7014SOL     OW32674   0.762   1.524  12.673  0.4203 -0.3050 -0.1665
 7014SOL    HW132675   0.731   1.556  12.758  3.1553  2.2024 -0.1307
 7014SOL    HW232676   0.853   1.505  12.697  0.1822 -0.8533  0.3132
 7015SOL     OW32677   3.159   1.313   8.280  0.1376 -0.0006 -0.0518
 7015SOL    HW132678   3.170   1.227   8.322 -0.8356 -0.3497 -0.5033
 7015SOL    HW232679   3.150   1.278   8.191 -0.8603 -1.6070  0.6780
 7016SOL     OW32680   2.713   4.434   1.881  0.1095 -0.0249  0.3920
 7016SOL    HW132681   2.731   4.387   1.962  2.4984 -1.9334 -1.2330
 7016SOL    HW232682   2.797   4.424   1.836  0.2486  0.6469  0.5131
 7017SOL     OW32683   0.111   2.433   2.377 -0.2029  0.1806  0.6601
 7017SOL    HW132684   0.120   2.356   2.433 -2.2811 -0.1823  0.5108
 7017SOL    HW232685   0.136   2.495   2.445  1.6685 -1.9487  1.9064
 7018SOL     OW32686   4.503   1.640   1.689 -0.7581  0.6601  0.2237
 7018SOL    HW132687   4.499   1.667   1.597  0.5761  0.9322  0.2492
 7018SOL    HW232688   4.445   1.701   1.734 -1.1037  0.3709  0.1769
 7019SOL     OW32689   1.050   1.985   6.708  0.0651  0.6109  0.6743
 7019SOL    HW132690   0.998   2.028   6.641 -0.5588  0.8700  1.3253
 7019SOL    HW232691   1.073   1.895   6.686 -1.1792  0.6864 -0.8932
 7020SOL     OW32692   0.551   2.500   7.206 -0.0857 -0.5959 -1.0136
 7020SOL    HW132693   0.470   2.522   7.159 -1.5875 -0.7173  1.5402
 7020SOL    HW232694   0.579   2.419   7.163  1.5841 -0.1423 -0.7837
 7021SOL     OW32695   4.703   4.313   8.142  0.0760  0.3325 -0.0021
 7021SOL    HW132696   4.666   4.400   8.127 -2.3208 -0.4215  1.5418
 7021SOL    HW232697   0.039   4.339   8.196  0.5009 -0.4687 -0.1942
 7022SOL     OW32698   0.716   3.665   2.190 -0.6608  0.2346  0.2263
 7022SOL    HW132699   0.761   3.599   2.241 -0.8360  0.9720  1.3279
 7022SOL    HW232700   0.787   3.725   2.166 -1.5951  0.1117 -2.9401
 7023SOL     OW32701   2.793   0.736   2.956 -0.3256 -0.1546 -0.0977
 7023SOL    HW132702   2.747   0.685   3.023 -1.4813 -0.8479 -1.4225
 7023SOL    HW232703   2.718   0.791   2.935  0.1855  1.7437  3.2162
 7024SOL     OW32704   3.870   4.174  16.897  0.6036 -0.3656 -0.4925
 7024SOL    HW132705   3.859   4.249  16.955  2.3906  0.1728 -0.8474
 7024SOL    HW232706   3.893   4.216  16.814 -1.9480  0.1267 -0.9700
 7025SOL     OW32707   3.062   0.163   7.217 -0.0533  0.5172 -0.1013
 7025SOL    HW132708   3.063   0.155   7.121 -1.3827 -0.7838 -0.0210
 7025SOL    HW232709   3.132   0.098   7.218 -1.9029 -1.4861  0.5776
 7026SOL     OW32710   1.944   0.496   8.877 -0.4180  0.2327 -0.7269
 7026SOL    HW132711   1.856   0.530   8.864  0.4613  1.7005 -2.8028
 7026SOL    HW232712   1.937   0.445   8.958  0.1579 -1.3564 -1.6656
 7027SOL     OW32713   0.530   1.427   4.352  0.0015  0.0981 -0.2035
 7027SOL    HW132714   0.612   1.447   4.398  1.0802 -0.7957 -1.7251
 7027SOL    HW232715   0.544   1.335   4.333 -0.3040 -0.0108  0.1102
 7028SOL     OW32716   2.001   3.081   4.559 -0.4461 -0.4164 -0.5269
 7028SOL    HW132717   1.958   3.153   4.511 -0.4405 -0.4898 -0.6410
 7028SOL    HW232718   1.952   3.086   4.641 -0.1831 -0.3986 -0.3715
 7029SOL     OW32719   2.841   1.098   8.375  1.1205  0.2680  0.6053
 7029SOL    HW132720   2.779   1.051   8.432 -0.7368 -0.0378 -1.6972
 7029SOL    HW232721   2.925   1.054   8.388  1.7322  1.0350 -0.7549
 7030SOL     OW32722   2.551   0.474   9.012 -0.2338  0.5513 -0.8204
 7030SOL    HW132723   2.588   0.507   9.094 -0.0602 -1.7810  0.0607
 7030SOL    HW232724   2.464   0.445   9.039  0.5905  2.3531  3.7571
 7031SOL     OW32725   0.339   4.361   2.405  0.2712  0.3176 -0.1810
 7031SOL    HW132726   0.338   4.449   2.444  1.7446  0.7005 -1.0379
 7031SOL    HW232727   0.426   4.364   2.366  0.3639 -0.2045 -0.0096
 7032SOL     OW32728   2.079   2.405  10.119  0.6275 -0.7382 -0.3249
 7032SOL    HW132729   2.050   2.449  10.039  0.6989  2.6247  1.4852
 7032SOL    HW232730   1.992   2.390  10.156  0.1829  0.6368 -0.8100
 7033SOL     OW32731   4.288   3.766   1.674 -0.0342 -0.2084  0.3992
 7033SOL    HW132732   4.271   3.736   1.584 -2.0626 -0.5627  0.8836
 7033SOL    HW232733   4.235   3.846   1.675  0.4258  0.0585  2.0894
 7034SOL     OW32734   2.262   2.981   5.650 -0.4679  0.0168 -0.1771
 7034SOL    HW132735   2.330   2.915   5.635 -0.8764 -0.2188 -1.0039
 7034SOL    HW232736   2.251   2.976   5.744 -0.8408 -1.2964 -0.2979
 7035SOL     OW32737   2.993   1.765  13.841  0.2513 -0.2846  0.0901
 7035SOL    HW132738   3.074   1.785  13.887  0.2396  1.4000 -0.6336
 7035SOL    HW232739   2.998   1.669  13.837 -1.0472 -0.2929 -1.3716
 7036SOL     OW32740   0.122   1.718   0.399 -0.3977 -0.0169  0.1648
 7036SOL    HW132741   0.144   1.769   0.321 -2.6352 -0.8781 -1.0412
 7036SOL    HW232742   0.031   1.744   0.412  0.3321  2.6573 -0.0556
 7037SOL     OW32743   1.984   2.609   3.932 -0.6757  0.2379 -0.1182
 7037SOL    HW132744   1.989   2.672   3.860  0.0100 -1.2781 -1.3892
 7037SOL    HW232745   2.067   2.615   3.980  0.5102  0.4792 -2.2216
 7038SOL     OW32746   0.624   4.687   5.809  0.4419  0.0478 -0.5055
 7038SOL    HW132747   0.551   4.636   5.845 -1.0842  0.9025 -2.3986
 7038SOL    HW232748   0.578   0.020   5.765  0.3580  1.3760  1.7855
 7039SOL     OW32749   1.302   0.437  12.480  0.5370 -0.1038  0.0572
 7039SOL    HW132750   1.234   0.370  12.470  0.0411 -0.0379  3.0125
 7039SOL    HW232751   1.302   0.485  12.397 -3.2389  1.5555  0.9967
 7040SOL     OW32752   0.207   0.801   2.237 -0.4397 -0.9603 -0.2116
 7040SOL    HW132753   0.160   0.720   2.217 -0.8572 -0.1273 -2.6383
 7040SOL    HW232754   0.296   0.766   2.239  0.2547  0.8301  0.0150
 7041SOL     OW32755   1.863   1.431   1.671  0.0847  0.5388  0.2492
 7041SOL    HW132756   1.933   1.489   1.640 -0.1884  0.3230 -0.7681
 7041SOL    HW232757   1.808   1.448   1.594 -0.1456 -2.5204 -0.2448
 7042SOL     OW32758   3.968   4.715   6.457  0.1363 -0.2356  0.0874
 7042SOL    HW132759   4.057   4.707   6.421  1.2963  2.8215  2.3674
 7042SOL    HW232760   3.917   4.715   6.375  1.6664  0.1026 -0.8643
 7043SOL     OW32761   2.250   2.078  16.929  0.1623 -0.4940  0.4388
 7043SOL    HW132762   2.317   2.061  16.862  1.2917  0.6848  1.2583
 7043SOL    HW232763   2.199   1.998  16.938  0.8304 -0.8165  1.4329
 7044SOL     OW32764   2.816   3.807  15.561  0.2166  0.5757  0.2654
 7044SOL    HW132765   2.869   3.796  15.640  0.1348 -1.4169  0.0296
 7044SOL    HW232766   2.781   3.895  15.577 -0.6177  0.2433  0.2944
 7045SOL     OW32767   0.847   2.128   0.582 -1.1803  0.2702 -0.0756
 7045SOL    HW132768   0.836   2.206   0.527 -0.3027 -0.1886 -0.8965
 7045SOL    HW232769   0.908   2.078   0.528 -0.7680 -2.4658  2.9008
 7046SOL     OW32770   1.926   2.394   5.614  0.3202  0.4042  0.0763
 7046SOL    HW132771   1.982   2.468   5.639  1.3465  0.1939 -1.6318
 7046SOL    HW232772   1.848   2.410   5.667 -0.6295 -0.1763 -1.1501
 7047SOL     OW32773   3.523   3.076   7.437 -0.0015 -0.1600  0.6523
 7047SOL    HW132774   3.460   3.018   7.395  0.8491 -1.1386  0.7422
 7047SOL    HW232775   3.606   3.032   7.452 -0.0430 -0.9490 -1.4144
 7048SOL     OW32776   3.462   1.923   2.595  0.0713 -0.2327  0.1111
 7048SOL    HW132777   3.541   1.870   2.597  2.1551  2.7482 -3.0339
 7048SOL    HW232778   3.483   1.996   2.536 -3.2132  0.0909 -0.6753
 7049SOL     OW32779   1.437   3.192  13.494  0.4197  0.0439  0.3626
 7049SOL    HW132780   1.344   3.198  13.516  0.1594 -2.6711 -0.0268
 7049SOL    HW232781   1.453   3.099  13.509 -0.3849  0.0135  0.9877
 7050SOL     OW32782   2.523   1.539  13.028 -0.0166  0.1387 -0.2068
 7050SOL    HW132783   2.580   1.470  12.993 -0.9495  0.6653 -2.7722
 7050SOL    HW232784   2.579   1.559  13.103  2.0508  0.5615 -1.8395
 7051SOL     OW32785   1.414   2.143  10.218 -0.2883 -0.4152 -0.6804
 7051SOL    HW132786   1.346   2.093  10.264  0.3130 -0.2889  0.3491
 7051SOL    HW232787   1.399   2.137  10.124  3.6385 -3.0697 -1.1495
 7052SOL     OW32788   0.413   0.348   3.524 -0.7889  0.5675  0.0731
 7052SOL    HW132789   0.449   0.403   3.454 -0.2682 -0.5755 -0.5530
 7052SOL    HW232790   0.345   0.407   3.558 -0.0034  0.5966  1.5668
 7053SOL     OW32791   0.049   1.925   2.875  0.5697  0.5994 -0.0799
 7053SOL    HW132792   0.099   1.986   2.929  1.9101 -1.3165  0.8434
 7053SOL    HW232793   4.712   1.982   2.859 -0.6635 -0.8340  0.5597
 7054SOL     OW32794   3.278   0.135  10.029 -0.3574 -0.3069 -0.1990
 7054SOL    HW132795   3.334   0.068   9.989  0.9030 -0.9295  2.6034
 7054SOL    HW232796   3.236   0.074  10.090  0.8981 -2.2107 -1.2537
 7055SOL     OW32797   0.531   2.118  16.952  0.4616 -0.5274 -0.3753
 7055SOL    HW132798   0.571   2.103  16.866 -2.6243  1.9073 -2.2719
 7055SOL    HW232799   0.445   2.153  16.929 -0.2710 -1.2290  1.3164
 7056SOL     OW32800   3.735   4.623   2.120  0.4294  0.2812  0.1209
 7056SOL    HW132801   3.781   4.641   2.038  1.4444  0.1084  0.6463
 7056SOL    HW232802   3.802   4.590   2.180  0.8292  1.3604  0.2640
 7057SOL     OW32803   4.365   1.444   4.176 -0.1951 -0.0948 -0.3637
 7057SOL    HW132804   4.347   1.389   4.100  1.3157 -4.1859  2.2382
 7057SOL    HW232805   4.451   1.481   4.158 -0.0853  0.7042  1.7569
 7058SOL     OW32806   3.296   0.173   1.439 -0.3969  0.0173 -0.1521
 7058SOL    HW132807   3.331   0.239   1.498 -3.9519  0.7603  1.1350
 7058SOL    HW232808   3.341   0.189   1.356  1.5213 -0.5852  0.7562
 7059SOL     OW32809   0.491   0.686   9.354  0.4353  0.7510  0.4000
 7059SOL    HW132810   0.414   0.716   9.307 -0.4292 -0.6139  0.9607
 7059SOL    HW232811   0.450   0.663   9.437  1.3129  1.5357  1.0438
 7060SOL     OW32812   3.259   1.271  12.253  0.1988 -0.1867  0.7232
 7060SOL    HW132813   3.169   1.264  12.285 -0.3961  0.7571 -0.7361
 7060SOL    HW232814   3.281   1.346  12.308 -2.3860 -0.0925  1.6435
 7061SOL     OW32815   2.501   1.839   5.030  0.0520 -0.3995  0.6106
 7061SOL    HW132816   2.420   1.791   5.043  0.0812 -0.7346 -0.4498
 7061SOL    HW232817   2.467   1.885   4.953  1.5970  0.0399  0.1892
 7062SOL     OW32818   3.810   2.785   8.174  0.0010  0.7422 -0.2331
 7062SOL    HW132819   3.795   2.876   8.199  1.2644  0.8724  0.0387
 7062SOL    HW232820   3.745   2.736   8.224  1.5625 -0.2077  0.8659
 7063SOL     OW32821   3.493   0.149   4.459  0.2021 -0.6299 -0.2789
 7063SOL    HW132822   3.471   0.068   4.413  0.8324 -0.8688 -0.1548
 7063SOL    HW232823   3.588   0.140   4.455  0.2537  0.0223 -0.4094
 7064SOL     OW32824   4.536   1.529   6.095 -0.0201 -0.1758 -0.1538
 7064SOL    HW132825   4.536   1.614   6.139 -0.7188 -0.0459 -0.3980
 7064SOL    HW232826   4.624   1.498   6.115 -0.0498 -1.1060 -1.4314
 7065SOL     OW32827   2.564   2.629  11.398 -0.0409 -0.3609  0.6975
 7065SOL    HW132828   2.472   2.657  11.396  0.2687  0.7005  1.2244
 7065SOL    HW232829   2.570   2.567  11.470  2.1264 -0.6936  0.2277
 7066SOL     OW32830   1.289   1.547  11.342  0.2260  0.2857 -0.1057
 7066SOL    HW132831   1.308   1.607  11.269 -3.0892  1.5101  0.0402
 7066SOL    HW232832   1.318   1.465  11.301  2.0669  0.3348  1.0589
 7067SOL     OW32833   0.026   2.292   0.748 -0.3119 -0.0845 -0.3234
 7067SOL    HW132834   0.081   2.240   0.807 -0.8557  0.4893  0.6831
 7067SOL    HW232835   4.685   2.240   0.762 -0.4279  0.2499  0.2397
 7068SOL     OW32836   3.403   3.269  10.488  0.1833  0.0358 -0.4142
 7068SOL    HW132837   3.404   3.344  10.546  0.0446  0.6407 -1.1959
 7068SOL    HW232838   3.472   3.291  10.425 -0.1152 -0.2725 -0.8520
 7069SOL     OW32839   1.310   3.906   1.778  0.7282 -0.2121 -0.0921
 7069SOL    HW132840   1.367   3.830   1.793 -1.5660 -1.7221  0.8917
 7069SOL    HW232841   1.230   3.885   1.826 -0.0386  3.8621  0.4169
 7070SOL     OW32842   4.142   4.215   2.651  0.2093  0.0138 -0.3915
 7070SOL    HW132843   4.231   4.250   2.646  1.2431 -2.4564  0.3716
 7070SOL    HW232844   4.102   4.300   2.668  0.4755  0.2198 -0.7894
 7071SOL     OW32845   3.854   2.920   0.986  0.0554 -0.0766 -0.9478
 7071SOL    HW132846   3.805   2.867   1.048 -1.3849  2.3991  0.0361
 7071SOL    HW232847   3.887   2.991   1.041  0.0608  0.5149 -1.7054
 7072SOL     OW32848   2.693   0.582   4.650 -0.4583 -0.6957 -0.1813
 7072SOL    HW132849   2.713   0.539   4.733  1.0208 -2.2933 -1.3768
 7072SOL    HW232850   2.773   0.559   4.603 -2.9471 -2.4632 -3.5727
 7073SOL     OW32851   2.655   0.499   5.935  0.1800  0.5741 -0.5521
 7073SOL    HW132852   2.566   0.520   5.963 -0.4547 -1.7037 -0.8604
 7073SOL    HW232853   2.638   0.405   5.934  2.5537  0.1851 -3.4400
 7074SOL     OW32854   1.002   3.653   2.803  0.0565 -0.0804 -0.2220
 7074SOL    HW132855   1.084   3.604   2.799  1.4874  2.3131  0.0985
 7074SOL    HW232856   0.968   3.616   2.885  0.6348 -2.3434 -0.9869
 7075SOL     OW32857   1.077   3.390   5.116 -0.3072 -0.6133 -0.3296
 7075SOL    HW132858   0.984   3.380   5.135 -0.7596  0.4631 -2.0197
 7075SOL    HW232859   1.100   3.482   5.129 -0.2233 -0.6961  0.1161
 7076SOL     OW32860   0.879   4.615   4.132  0.5162  0.0271 -0.1150
 7076SOL    HW132861   0.877   4.630   4.226  0.3714  1.9215 -0.4325
 7076SOL    HW232862   0.800   4.661   4.104 -0.1276  1.1284  3.5218
 7077SOL     OW32863   3.325   2.574   6.080 -0.3469  0.8320 -0.0780
 7077SOL    HW132864   3.299   2.482   6.070  2.5378  0.1749 -1.5540
 7077SOL    HW232865   3.247   2.616   6.118 -2.2970 -0.6508 -2.4190
 7078SOL     OW32866   0.379   1.412   4.791 -0.0146 -0.2789  0.1934
 7078SOL    HW132867   0.324   1.460   4.729 -1.1920 -2.3795 -0.4145
 7078SOL    HW232868   0.373   1.458   4.874  1.5466 -0.1304  0.2212
 7079SOL     OW32869   4.256   3.032  12.187  0.4766  0.1652  0.5492
 7079SOL    HW132870   4.302   2.949  12.200 -0.7387 -0.4169  1.1309
 7079SOL    HW232871   4.168   3.019  12.222 -0.1838 -0.0414 -1.1940
 7080SOL     OW32872   2.318   3.185   0.199 -0.2026  0.6314 -0.1668
 7080SOL    HW132873   2.269   3.109   0.230 -0.1143  0.1755 -1.1691
 7080SOL    HW232874   2.398   3.185   0.253 -1.5187  1.4663  1.7772
 7081SOL     OW32875   4.452   1.574   8.031  0.2614  0.2057 -0.0047
 7081SOL    HW132876   4.449   1.491   8.077 -4.0145 -0.3707 -1.3568
 7081SOL    HW232877   4.439   1.631   8.106 -0.4901 -0.8883  0.6854
 7082SOL     OW32878   4.547   1.587   5.061 -0.3864  0.1794  0.3154
 7082SOL    HW132879   4.608   1.522   5.027 -0.5036 -0.8477  2.0649
 7082SOL    HW232880   4.476   1.559   5.003  1.7593 -4.4311 -0.0811
 7083SOL     OW32881   1.496   3.501   4.426  0.5975 -0.0350  0.2350
 7083SOL    HW132882   1.412   3.520   4.468  0.1846 -2.1592  0.3529
 7083SOL    HW232883   1.506   3.576   4.367 -1.1069  2.2381  2.8150
 7084SOL     OW32884   3.688   3.323   6.984  0.0113 -0.8691 -0.2303
 7084SOL    HW132885   3.725   3.327   7.072 -0.7652  1.3514 -0.0079
 7084SOL    HW232886   3.728   3.242   6.953 -0.7696 -1.5313  0.4935
 7085SOL     OW32887   2.841   4.450   8.910 -0.2891  0.0331 -0.1514
 7085SOL    HW132888   2.780   4.521   8.931 -1.5294 -1.1918  0.4349
 7085SOL    HW232889   2.783   4.374   8.921  1.1786 -0.8254  1.6563
 7086SOL     OW32890   0.043   2.321   8.835 -0.9861  0.1573 -0.0931
 7086SOL    HW132891   0.029   2.337   8.928 -5.0056 -0.2423 -0.6324
 7086SOL    HW232892   0.074   2.403   8.797  0.8415  0.0673  1.2045
 7087SOL     OW32893   3.317   0.068   2.360 -0.7274 -0.0572 -0.1701
 7087SOL    HW132894   3.397   0.069   2.308  0.3497 -1.3481  1.4583
 7087SOL    HW232895   3.314   0.159   2.389 -0.0655  0.6212 -2.2002
 7088SOL     OW32896   0.134   4.416   4.414 -0.0953  0.2293 -0.0780
 7088SOL    HW132897   0.084   4.497   4.428  1.2022  0.6901  1.7946
 7088SOL    HW232898   0.056   4.363   4.396  0.2130  0.8665 -3.3046
 7089SOL     OW32899   4.622   2.715   6.082  0.1936  0.0722 -0.5475
 7089SOL    HW132900   4.573   2.792   6.112 -0.1349 -0.3996  0.1320
 7089SOL    HW232901   4.702   2.758   6.053  0.3881  1.3928  1.9185
 7090SOL     OW32902   2.217   4.366   5.561  0.0555 -0.3358  0.9371
 7090SOL    HW132903   2.212   4.280   5.604 -1.0053 -1.0406 -0.5980
 7090SOL    HW232904   2.296   4.399   5.603  0.3845 -0.2267  0.2329
 7091SOL     OW32905   4.484   4.016   1.655  0.9080 -0.3156  0.2664
 7091SOL    HW132906   4.444   3.992   1.572  0.7127  0.6667  0.0795
 7091SOL    HW232907   4.549   3.948   1.675  0.9334 -0.2662  0.3524
 7092SOL     OW32908   1.635   0.030  16.717 -0.1524  0.2399  0.0578
 7092SOL    HW132909   1.569   0.099  16.730 -1.4756 -0.8558 -0.8723
 7092SOL    HW232910   1.589   4.717  16.651 -0.3793  0.0021  0.4004
 7093SOL     OW32911   3.862   1.581   5.609  0.3559  0.0117 -0.2044
 7093SOL    HW132912   3.912   1.500   5.608 -0.7146 -0.6459 -0.0807
 7093SOL    HW232913   3.932   1.645   5.623 -0.8051  1.0774  0.7307
 7094SOL     OW32914   0.646   0.624  15.493 -0.1632 -0.5597 -0.0169
 7094SOL    HW132915   0.643   0.621  15.397 -2.6505  1.4247 -0.0077
 7094SOL    HW232916   0.627   0.532  15.513 -0.3915 -0.7688 -1.1710
 7095SOL     OW32917   4.210   4.387   3.719 -0.2522 -0.0725  0.1894
 7095SOL    HW132918   4.283   4.406   3.778  0.1927 -0.9385 -0.0863
 7095SOL    HW232919   4.134   4.407   3.773 -0.7526  2.0813 -1.2920
 7096SOL     OW32920   1.076   3.314  10.861  0.2203  0.0193 -0.1814
 7096SOL    HW132921   1.137   3.252  10.902 -0.7740  0.1482  1.5005
 7096SOL    HW232922   1.073   3.390  10.920 -0.5974 -2.4954  2.9912
 7097SOL     OW32923   4.089   0.707  11.996  0.2153 -0.5944  0.0609
 7097SOL    HW132924   4.068   0.640  11.931  1.5874 -0.5018 -0.4641
 7097SOL    HW232925   4.076   0.652  12.073  3.8239 -1.8085 -0.2209
 7098SOL     OW32926   1.857   2.847   6.170  0.0135  0.0496  0.7849
 7098SOL    HW132927   1.881   2.758   6.145  0.3122  0.8170 -1.6494
 7098SOL    HW232928   1.907   2.894   6.103 -1.6232  1.1244  0.3276
 7099SOL     OW32929   3.972   0.630  11.551  0.3057  0.0674 -0.1083
 7099SOL    HW132930   3.952   0.537  11.563  2.5411 -0.2201  1.4550
 7099SOL    HW232931   3.886   0.665  11.528  0.2869  0.3819  0.4299
 7100SOL     OW32932   3.060   2.102   4.144 -0.6279  0.0363 -0.1981
 7100SOL    HW132933   2.988   2.151   4.105  0.5675  3.2856  1.6210
 7100SOL    HW232934   3.110   2.167   4.194  0.2019 -1.8903  1.5153
 7101SOL     OW32935   2.706   3.641   4.129  0.0880  0.0206 -0.6059
 7101SOL    HW132936   2.773   3.673   4.190 -0.3744  0.9993 -0.6103
 7101SOL    HW232937   2.699   3.547   4.145 -0.8810 -0.0476 -1.4667
 7102SOL     OW32938   0.084   2.765   3.859 -0.4664  0.3325  0.2422
 7102SOL    HW132939   0.091   2.790   3.767  0.2385 -2.0032 -0.3323
 7102SOL    HW232940   0.171   2.782   3.896  0.9023 -2.6444 -1.6657
 7103SOL     OW32941   4.640   2.237   8.263  0.0906 -0.0099  0.6288
 7103SOL    HW132942   4.626   2.206   8.353  0.1279 -2.0987 -0.0922
 7103SOL    HW232943   4.590   2.319   8.260 -0.6391 -0.5122 -1.0869
 7104SOL     OW32944   2.065   2.503  12.488  0.1539  0.2939 -0.8398
 7104SOL    HW132945   2.152   2.469  12.512  0.4798  2.2009  0.7014
 7104SOL    HW232946   2.077   2.586  12.442  0.3287  0.0788 -1.1821
 7105SOL     OW32947   1.850   2.746   2.362  0.2711 -0.4489 -0.3743
 7105SOL    HW132948   1.926   2.775   2.413 -1.6855  1.6142  1.4128
 7105SOL    HW232949   1.879   2.683   2.297 -1.5642 -0.5480 -1.0973
 7106SOL     OW32950   0.493   2.417   3.992 -0.4543  0.2779 -0.1510
 7106SOL    HW132951   0.482   2.457   3.906 -0.4027 -2.5159 -1.4460
 7106SOL    HW232952   0.561   2.479   4.021 -1.0329  0.9732 -0.2741
 7107SOL     OW32953   3.017   4.344   2.152 -0.3933  0.2383  0.1081
 7107SOL    HW132954   2.936   4.304   2.121 -0.6494  0.3334  0.6638
 7107SOL    HW232955   2.991   4.435   2.164  0.5217  0.4161  0.7323
 7108SOL     OW32956   4.211   3.910   9.914 -0.3080  0.1256  0.1042
 7108SOL    HW132957   4.247   3.963   9.843 -0.4072 -0.8969 -0.7129
 7108SOL    HW232958   4.191   3.973   9.984 -0.6987  2.3392 -1.9766
 7109SOL     OW32959   3.068   1.683   8.669 -0.2866 -0.2338  0.0364
 7109SOL    HW132960   3.060   1.734   8.589 -0.0748 -0.1988  0.0371
 7109SOL    HW232961   2.974   1.672   8.678 -0.3111 -0.5165 -0.6439
 7110SOL     OW32962   3.768   1.408   3.529 -0.0849  0.3270  0.1364
 7110SOL    HW132963   3.750   1.442   3.442  0.8939 -0.8104 -0.5192
 7110SOL    HW232964   3.710   1.332   3.515  1.0541 -0.5060 -0.0689
 7111SOL     OW32965   3.287   3.606  15.923 -0.3797  0.3951 -0.0073
 7111SOL    HW132966   3.304   3.594  15.829 -0.7555  0.7975 -0.1228
 7111SOL    HW232967   3.193   3.607  15.936 -0.2113 -0.8130  1.3316
 7112SOL     OW32968   2.365   3.910   5.094 -0.1389 -0.3521  0.3591
 7112SOL    HW132969   2.361   3.903   4.999 -0.0155 -1.7655  0.4664
 7112SOL    HW232970   2.445   3.861   5.112 -1.5097 -2.9908 -0.7826
 7113SOL     OW32971   1.836   2.371   8.295  0.1334 -0.0098 -0.1823
 7113SOL    HW132972   1.823   2.284   8.333 -0.6219  0.4937  0.7287
 7113SOL    HW232973   1.928   2.381   8.319  0.0626 -1.2435  0.5987
 7114SOL     OW32974   2.679   4.595  16.673  0.0201 -0.0698 -0.0921
 7114SOL    HW132975   2.743   4.564  16.738  0.3835  1.1669  0.1310
 7114SOL    HW232976   2.597   4.586  16.721  0.2764 -1.4168  0.1235
 7115SOL     OW32977   2.584   4.308   2.328  0.1260  0.1341  0.2494
 7115SOL    HW132978   2.519   4.361   2.282 -0.2073  1.2398  1.9923
 7115SOL    HW232979   2.587   4.343   2.417  0.4391  0.8710 -0.0499
 7116SOL     OW32980   4.211   1.743   3.876  0.3643 -0.2917  0.5281
 7116SOL    HW132981   4.255   1.815   3.829 -0.2722  0.1066  0.5457
 7116SOL    HW232982   4.235   1.777   3.962 -0.7330  0.5112  0.5259
 7117SOL     OW32983   1.150   2.258   3.960 -0.1163 -0.5216 -0.6402
 7117SOL    HW132984   1.245   2.253   3.949  0.0823 -0.1886  0.8579
 7117SOL    HW232985   1.129   2.319   4.031 -0.7964  1.1481 -2.2666
 7118SOL     OW32986   2.501   2.143   8.990 -0.0360  0.2669 -0.0263
 7118SOL    HW132987   2.555   2.065   8.976  1.3874  1.0281  1.1826
 7118SOL    HW232988   2.416   2.106   8.966 -0.4701  0.6519  0.9108
 7119SOL     OW32989   4.306   0.907   7.292 -0.4519 -0.3404  0.5037
 7119SOL    HW132990   4.292   0.950   7.208  0.8708  0.0186  0.4833
 7119SOL    HW232991   4.229   0.850   7.296 -1.1215  0.7053  2.5595
 7120SOL     OW32992   0.658   2.589  12.251  0.0824  0.1494 -0.7069
 7120SOL    HW132993   0.609   2.612  12.172 -0.5428 -0.2362 -0.4293
 7120SOL    HW232994   0.703   2.512  12.215  1.0444 -0.3390  1.5913
 7121SOL     OW32995   2.089   0.258   5.754  0.2019 -0.2958  0.3861
 7121SOL    HW132996   2.045   0.317   5.692  1.1257  0.4475  0.4338
 7121SOL    HW232997   2.183   0.277   5.753  0.2364 -0.4896 -0.2290
 7122SOL     OW32998   0.493   3.412   3.843 -0.0270 -0.1338 -0.3012
 7122SOL    HW132999   0.559   3.432   3.776 -2.3334 -0.4551 -2.7002
 7122SOL    HW233000   0.439   3.345   3.801 -1.7035  0.8963  0.1871
 7123SOL     OW33001   0.980   4.692   5.373 -0.3312  0.2217 -0.3727
 7123SOL    HW133002   1.005   4.650   5.290  2.8757  0.9569  0.2189
 7123SOL    HW233003   0.993   4.621   5.436 -0.4320  1.0691  0.6013
 7124SOL     OW33004   2.341   1.197   1.800 -0.9443 -0.4892  0.2981
 7124SOL    HW133005   2.333   1.101   1.798 -1.3231 -0.4216 -1.1030
 7124SOL    HW233006   2.334   1.209   1.895 -0.1204  1.5792  0.0919
 7125SOL     OW33007   1.164   1.161   9.812  0.5202 -0.1952  0.9412
 7125SOL    HW133008   1.103   1.101   9.856  1.7007 -2.1665 -0.0838
 7125SOL    HW233009   1.170   1.227   9.881  1.7663  1.2252 -0.5511
 7126SOL     OW33010   1.134   3.741   9.208 -0.2756 -0.0302  0.7882
 7126SOL    HW133011   1.060   3.791   9.175 -0.2123 -0.2136  0.3690
 7126SOL    HW233012   1.157   3.786   9.289 -0.7500  1.2991  0.1901
 7127SOL     OW33013   3.098   1.837  17.418  0.0424 -0.1033 -0.1753
 7127SOL    HW133014   3.008   1.823  17.448  0.3095  0.4543  0.8720
 7127SOL    HW233015   3.106   1.929  17.443  1.4081 -0.2944  0.0836
 7128SOL     OW33016   0.087   2.659   9.207  0.2922 -0.3485 -0.3393
 7128SOL    HW133017   0.086   2.754   9.220 -0.3094  0.0900 -3.4364
 7128SOL    HW233018   0.098   2.653   9.112 -0.2020  1.2981 -0.5001
 7129SOL     OW33019   4.288   0.137   6.730 -0.1254  0.0942 -0.4588
 7129SOL    HW133020   4.206   0.089   6.741  0.8288 -0.9198  2.2466
 7129SOL    HW233021   4.259   0.201   6.665 -1.1858 -1.5904 -1.6346
 7130SOL     OW33022   2.963   4.569   5.038  0.2088 -0.1016 -0.0274
 7130SOL    HW133023   2.977   4.593   5.129 -3.1185  2.3603 -0.1857
 7130SOL    HW233024   2.887   4.514   5.055  0.3822  0.3038  1.9921
 7131SOL     OW33025   4.019   2.125   2.510 -0.4669 -0.7530 -0.4544
 7131SOL    HW133026   4.105   2.147   2.543 -0.9164 -0.3694  0.4456
 7131SOL    HW233027   3.966   2.164   2.580  1.2036  1.5091 -0.4639
 7132SOL     OW33028   1.730   1.213   8.521 -0.0323 -0.0384 -0.2099
 7132SOL    HW133029   1.719   1.308   8.517 -0.7186 -0.0912  0.4276
 7132SOL    HW233030   1.777   1.185   8.442  0.0271  0.8411 -0.4761
 7133SOL     OW33031   0.309   4.491   8.521  0.3514  0.1460 -0.1056
 7133SOL    HW133032   0.375   4.554   8.492  1.0339 -0.5220 -0.0131
 7133SOL    HW233033   0.255   4.495   8.442  0.0004  0.0762  0.1330
 7134SOL     OW33034   4.124   1.608   6.094 -0.3294  0.3585 -0.1528
 7134SOL    HW133035   4.044   1.631   6.047  0.8577  1.7562 -1.4802
 7134SOL    HW233036   4.140   1.690   6.141  0.0441  1.5406 -2.3597
 7135SOL     OW33037   2.759   0.827  17.458  0.0084  0.2904  0.3214
 7135SOL    HW133038   2.830   0.878  17.497  0.7435  0.4834 -1.2815
 7135SOL    HW233039   2.779   0.743  17.501  1.3458 -0.6933 -2.2356
 7136SOL     OW33040   1.527   1.072   3.817 -0.6580  0.5048  0.5812
 7136SOL    HW133041   1.461   1.044   3.754 -1.0751 -0.2203  1.3424
 7136SOL    HW233042   1.471   1.087   3.894 -0.2221  1.5767  0.6842
 7137SOL     OW33043   2.052   4.322   9.971  0.4699 -0.4914  0.2149
 7137SOL    HW133044   2.079   4.308  10.062 -0.6619 -2.0529  0.3001
 7137SOL    HW233045   2.043   4.416   9.956 -0.4774 -0.4559  1.0230
 7138SOL     OW33046   4.644   1.285   3.619 -0.3963  0.1971 -0.5080
 7138SOL    HW133047   4.695   1.204   3.613  1.0150  1.0443 -0.0249
 7138SOL    HW233048   4.687   1.324   3.694  0.6990  1.6471 -1.9002
 7139SOL     OW33049   4.735   1.845  13.216  0.3600  0.5943  0.8857
 7139SOL    HW133050   4.689   1.929  13.210 -0.2863  0.2995  1.8182
 7139SOL    HW233051   0.029   1.850  13.306  1.4286  0.5432  0.5036
 7140SOL     OW33052   2.786   3.432  17.483 -0.1741  0.1762  0.3780
 7140SOL    HW133053   2.847   3.449  17.411  0.9271  0.3423  1.3503
 7140SOL    HW233054   2.706   3.440  17.431  1.1341 -2.2063 -2.0041
 7141SOL     OW33055   3.831   2.246   5.726  0.0107 -0.6507 -0.4763
 7141SOL    HW133056   3.912   2.227   5.678 -0.2534 -1.5300 -0.5633
 7141SOL    HW233057   3.815   2.336   5.694  0.2282 -0.5256 -0.2279
 7142SOL     OW33058   0.665   2.123  15.789  0.5602  0.1554  0.2979
 7142SOL    HW133059   0.689   2.094  15.877 -0.6364 -1.7886 -0.0254
 7142SOL    HW233060   0.570   2.117  15.797  0.6229 -0.8461  0.3341
 7143SOL     OW33061   1.278   0.111   9.201 -0.0925 -0.1668 -0.6685
 7143SOL    HW133062   1.223   0.160   9.141  0.6376  0.6921 -0.6325
 7143SOL    HW233063   1.212   0.062   9.250  0.3304 -1.5200 -1.4268
 7144SOL     OW33064   1.139   4.615   9.938  0.5090  0.0722 -0.4461
 7144SOL    HW133065   1.206   4.628  10.005 -1.2508 -0.4616  1.4255
 7144SOL    HW233066   1.061   4.620   9.993  0.6941  0.9993 -0.2674
 7145SOL     OW33067   4.579   4.544   8.117  0.0562 -0.4657 -0.2914
 7145SOL    HW133068   4.575   4.640   8.123  0.1606 -0.4731 -0.1238
 7145SOL    HW233069   4.502   4.527   8.063  1.4106 -0.7045 -2.1750
 7146SOL     OW33070   0.727   2.491   3.547 -0.5558  0.3063 -0.8702
 7146SOL    HW133071   0.804   2.468   3.599 -2.3425 -2.5710  0.5045
 7146SOL    HW233072   0.688   2.404   3.538  2.4449 -1.2395  0.7351
 7147SOL     OW33073   3.739   0.961   6.969 -0.8396 -0.0492  0.0849
 7147SOL    HW133074   3.775   0.885   7.016 -2.3420 -1.3151 -0.7842
 7147SOL    HW233075   3.648   0.954   6.999 -0.9248  1.4536  0.1749
 7148SOL     OW33076   4.239   0.132  13.130  0.5419 -0.3103 -0.0795
 7148SOL    HW133077   4.267   0.134  13.221 -1.5589 -0.4105  0.5525
 7148SOL    HW233078   4.161   0.083  13.154  1.6372 -1.1332  1.8052
 7149SOL     OW33079   0.552   4.694   8.919 -0.1240  0.4480 -0.4305
 7149SOL    HW133080   0.522   4.626   8.859 -0.6120 -0.8389  1.2881
 7149SOL    HW233081   0.508   4.669   9.000  2.1502  0.8275  0.9069
 7150SOL     OW33082   4.606   0.900   6.397 -0.1542 -0.2462  0.3161
 7150SOL    HW133083   4.540   0.962   6.367  0.0309 -0.6627 -0.9560
 7150SOL    HW233084   4.653   0.957   6.458 -2.0768  0.0568  1.5204
 7151SOL     OW33085   2.400   4.376   7.311 -0.0611 -0.4279 -0.1892
 7151SOL    HW133086   2.382   4.369   7.218 -0.4816  2.1113 -0.2929
 7151SOL    HW233087   2.446   4.461   7.313 -0.0951 -0.3962 -0.7685
 7152SOL     OW33088   1.235   2.772  13.276  0.2244 -0.3654 -0.3551
 7152SOL    HW133089   1.178   2.767  13.199  1.4955 -0.4887 -1.2792
 7152SOL    HW233090   1.246   2.867  13.274  0.6762 -0.3765  1.8931
 7153SOL     OW33091   3.430   3.986   2.594 -0.0609  0.3026 -0.4424
 7153SOL    HW133092   3.384   3.942   2.522  0.5107 -1.3096  0.1895
 7153SOL    HW233093   3.514   3.994   2.549 -1.1615 -0.6193 -2.6747
 7154SOL     OW33094   2.896   3.810   4.859 -0.1614 -0.2608 -0.2557
 7154SOL    HW133095   2.966   3.745   4.866  0.9524  1.2756  2.6017
 7154SOL    HW233096   2.849   3.788   4.778 -0.2387 -4.1430  0.8223
 7155SOL     OW33097   3.100   2.969   6.558  0.1742  0.3215  0.6331
 7155SOL    HW133098   3.116   3.062   6.573  0.1581  0.2025  1.3998
 7155SOL    HW233099   3.072   2.927   6.639  2.7963  2.0567  2.4433
 7156SOL     OW33100   4.476   2.273   8.989 -0.1202 -0.2130  0.7199
 7156SOL    HW133101   4.501   2.306   8.903 -0.7882  3.7924  2.0419
 7156SOL    HW233102   4.404   2.335   9.003  0.7254  1.1600 -1.1231
 7157SOL     OW33103   1.443   1.720  10.056 -0.1349 -0.0506 -0.2117
 7157SOL    HW133104   1.410   1.662  10.126  2.0130  0.8098  1.5096
 7157SOL    HW233105   1.468   1.654   9.991 -1.9766  0.6606 -1.6296
 7158SOL     OW33106   3.613   1.872   7.246 -0.4677 -0.0128 -0.3043
 7158SOL    HW133107   3.557   1.821   7.305  0.6475 -2.7166 -1.5653
 7158SOL    HW233108   3.599   1.961   7.276  0.4646  0.5040 -1.3974
 7159SOL     OW33109   2.061   4.385   6.089  0.2369  0.4398 -0.4456
 7159SOL    HW133110   2.123   4.379   6.162 -0.9304  2.4886  0.6834
 7159SOL    HW233111   2.045   4.479   6.094 -0.0617  0.3126  1.1363
 7160SOL     OW33112   2.400   0.375   1.991  0.7126 -0.1740  0.1507
 7160SOL    HW133113   2.316   0.367   1.946  0.0405  3.0410  0.7699
 7160SOL    HW233114   2.447   0.293   1.975 -0.5474 -1.4149  2.8516
 7161SOL     OW33115   1.030   2.430  16.372 -0.3755 -0.8189  0.1698
 7161SOL    HW133116   1.070   2.352  16.334 -1.7662 -0.2426 -2.4751
 7161SOL    HW233117   1.107   2.485  16.384  0.3952 -2.7620  4.2135
 7162SOL     OW33118   3.195   1.279  15.490 -0.5266 -0.1611 -0.4776
 7162SOL    HW133119   3.137   1.230  15.547  0.7105  1.1943  1.9452
 7162SOL    HW233120   3.220   1.205  15.436  1.9276 -0.5941  1.2403
 7163SOL     OW33121   2.506   4.630   7.282  0.6266  0.0733  0.0571
 7163SOL    HW133122   2.503   4.724   7.299  1.9780 -0.1572  1.5151
 7163SOL    HW233123   2.530   4.625   7.189 -1.3412  1.4119 -0.5191
 7164SOL     OW33124   3.124   4.017   8.351  0.1539 -0.2159  0.4034
 7164SOL    HW133125   3.080   3.934   8.365 -2.0386  0.4707 -2.4991
 7164SOL    HW233126   3.217   3.993   8.358  0.0957 -0.5272  0.0945
 7165SOL     OW33127   3.158   1.065   7.684 -0.1129  0.0463 -0.7526
 7165SOL    HW133128   3.066   1.042   7.670 -0.0307 -1.0730  0.5867
 7165SOL    HW233129   3.195   1.000   7.744 -2.5551 -1.7026 -1.1265
 7166SOL     OW33130   2.730   4.529   3.955 -0.3236 -0.2351  0.0956
 7166SOL    HW133131   2.637   4.530   3.930 -0.4745 -1.3381  0.6524
 7166SOL    HW233132   2.734   4.454   4.014 -0.9036  0.3833  0.9116
 7167SOL     OW33133   3.267   3.776   8.415  0.4776  0.0325 -0.3011
 7167SOL    HW133134   3.184   3.744   8.380  1.8893 -0.9564 -2.7301
 7167SOL    HW233135   3.331   3.733   8.359  0.6667 -0.7100  0.4814
 7168SOL     OW33136   1.884   4.375   7.942 -0.2103  0.2323  0.0287
 7168SOL    HW133137   1.957   4.407   7.995 -1.1066  1.9306  0.2547
 7168SOL    HW233138   1.892   4.280   7.947  1.6146  0.4363  1.0164
 7169SOL     OW33139   1.466   2.967   9.033 -0.4369 -0.0344  0.3522
 7169SOL    HW133140   1.525   2.907   9.080 -1.0823  0.1163  1.3450
 7169SOL    HW233141   1.402   2.916   8.984 -1.7069  2.4166 -0.4970
 7170SOL     OW33142   0.342   0.205   4.072  0.4335 -0.1260 -0.0548
 7170SOL    HW133143   0.315   0.288   4.110 -0.1816  0.1698 -1.1261
 7170SOL    HW233144   0.365   0.158   4.152 -0.8029 -1.8845 -0.7234
 7171SOL     OW33145   0.107   2.180   5.907  0.0906 -0.1401 -0.3500
 7171SOL    HW133146   0.152   2.264   5.916  0.0319  0.1172 -2.6001
 7171SOL    HW233147   0.035   2.193   5.845  0.3527  0.3718 -0.5446
 7172SOL     OW33148   1.969   3.499   0.281  0.1838  0.0128 -0.0093
 7172SOL    HW133149   1.882   3.461   0.267 -0.0580  0.8604 -0.7963
 7172SOL    HW233150   2.019   3.436   0.228  0.6827  0.9909 -0.7073
 7173SOL     OW33151   0.579   3.833  17.306  0.4045  0.5134  0.2054
 7173SOL    HW133152   0.571   3.745  17.342 -0.7163  0.5179 -0.0519
 7173SOL    HW233153   0.644   3.809  17.240 -1.3018 -2.1931 -0.4730
 7174SOL     OW33154   1.902   3.784   3.211 -0.5382 -0.2971 -0.2321
 7174SOL    HW133155   1.904   3.788   3.115 -0.8444  0.9621 -0.1827
 7174SOL    HW233156   1.811   3.811   3.220 -0.8121 -1.2091 -0.2516
 7175SOL     OW33157   0.583   1.347   5.699 -0.4811 -0.0735 -0.3966
 7175SOL    HW133158   0.621   1.416   5.644  1.3129 -0.8088 -0.0766
 7175SOL    HW233159   0.604   1.394   5.780 -0.2528 -1.4391  0.3325
 7176SOL     OW33160   0.096   1.786  12.513 -0.2229 -0.2345  0.0934
 7176SOL    HW133161   0.126   1.840  12.586  0.4173  3.0055 -2.5280
 7176SOL    HW233162   0.174   1.734  12.497  0.0009  0.3746 -0.8017
 7177SOL     OW33163   4.008   2.871   6.052  0.3317  0.3515  0.7129
 7177SOL    HW133164   3.950   2.881   5.977  2.4270 -0.2930 -0.9884
 7177SOL    HW233165   4.078   2.839   5.996  1.8180  1.6118  1.8259
 7178SOL     OW33166   0.971   0.104   7.488 -0.4863  0.1864 -0.0489
 7178SOL    HW133167   1.014   0.176   7.441  1.5461 -0.2449  1.1086
 7178SOL    HW233168   1.041   0.038   7.481  0.8391  1.4316  1.4398
 7179SOL     OW33169   3.011   0.867   3.874 -0.1190 -0.2603  0.6377
 7179SOL    HW133170   2.949   0.910   3.815 -0.9525 -0.6351  1.2301
 7179SOL    HW233171   3.022   0.788   3.820  4.2970  0.3270  0.7350
 7180SOL     OW33172   1.317   3.625  16.963 -0.6431  0.5644  0.2816
 7180SOL    HW133173   1.233   3.655  16.929 -0.8700 -0.6186 -0.1989
 7180SOL    HW233174   1.330   3.541  16.919 -0.1367  2.1038 -2.5431
 7181SOL     OW33175   3.317   4.591   2.791  0.2479  0.1289 -0.9379
 7181SOL    HW133176   3.256   4.543   2.736  1.6843 -0.3959 -2.0874
 7181SOL    HW233177   3.391   4.615   2.735 -0.5821  0.0293 -2.0612
 7182SOL     OW33178   1.995   2.291   5.377  0.0295  0.2458 -0.8440
 7182SOL    HW133179   2.091   2.296   5.371 -0.0160  0.4648 -1.3883
 7182SOL    HW233180   1.976   2.341   5.456 -1.2953  1.2338 -1.7807
 7183SOL     OW33181   1.564   3.045   0.980 -0.1687  0.9149 -0.0609
 7183SOL    HW133182   1.605   3.070   1.063  0.9925 -0.8054 -0.0932
 7183SOL    HW233183   1.487   3.002   1.018  0.7349 -0.7375 -0.0785
 7184SOL     OW33184   0.483   2.178   5.896 -0.2833 -0.0976 -0.4662
 7184SOL    HW133185   0.447   2.090   5.887  0.3243 -0.5333  1.4300
 7184SOL    HW233186   0.539   2.165   5.972 -1.0076  0.1831  0.1188
 7185SOL     OW33187   0.250   0.123   5.285  0.8904  0.3190  0.3349
 7185SOL    HW133188   0.234   0.217   5.289  0.4879  0.2735 -0.2729
 7185SOL    HW233189   0.199   0.099   5.363 -0.3422 -1.4389 -1.0193
 7186SOL     OW33190   4.405   1.762   3.025 -0.7542  0.0054  0.3181
 7186SOL    HW133191   4.353   1.813   3.087 -0.3389  0.4091  0.3309
 7186SOL    HW233192   4.337   1.710   2.982  0.4508  0.6673 -2.3559
 7187SOL     OW33193   3.538   2.175  15.936  0.0935  0.3254 -0.0769
 7187SOL    HW133194   3.465   2.230  15.906  2.3355  4.0592  1.2142
 7187SOL    HW233195   3.588   2.183  15.854 -0.2561 -1.2490 -0.4297
 7188SOL     OW33196   3.604   3.482  13.015 -0.4838 -0.2502  0.4828
 7188SOL    HW133197   3.697   3.479  13.037 -0.3730  0.6574  0.1786
 7188SOL    HW233198   3.608   3.496  12.920  1.1217 -1.2917  0.3996
 7189SOL     OW33199   1.970   0.001   7.001 -0.2255 -0.1855 -0.3098
 7189SOL    HW133200   1.900   4.699   7.052  0.3609  1.4826  1.8183
 7189SOL    HW233201   1.958   0.095   7.015  0.0895 -0.0541 -0.9379
 7190SOL     OW33202   4.376   2.863   1.494  0.5097  0.1461  0.1268
 7190SOL    HW133203   4.431   2.800   1.540  0.6440 -0.3222 -0.6770
 7190SOL    HW233204   4.438   2.888   1.426  0.2417 -0.9059 -0.5104
 7191SOL     OW33205   3.894   2.375   5.125 -0.2301  0.4319  0.1080
 7191SOL    HW133206   3.897   2.300   5.067 -1.5544  2.7091 -2.8762
 7191SOL    HW233207   3.982   2.374   5.164  0.1951  1.1981 -0.8200
 7192SOL     OW33208   3.204   0.123  14.848  0.4535 -0.2189 -0.3229
 7192SOL    HW133209   3.232   0.048  14.796 -0.3303 -1.1483  0.5713
 7192SOL    HW233210   3.110   0.106  14.848  0.1130  1.6505 -3.9873
 7193SOL     OW33211   4.542   1.548  17.667  0.0268 -0.2253 -0.0078
 7193SOL    HW133212   4.555   1.460  17.632  0.0605 -0.2010 -0.0579
 7193SOL    HW233213   4.561   1.598  17.587  1.0102  2.3694  1.8612
 7194SOL     OW33214   3.532   4.419   2.110 -0.5981  0.2930  0.2832
 7194SOL    HW133215   3.604   4.481   2.115  0.1745 -0.5868  0.1075
 7194SOL    HW233216   3.574   4.345   2.153  0.6082  0.6565 -0.2805
 7195SOL     OW33217   1.124   2.822  11.753 -0.3155  0.3291  0.5207
 7195SOL    HW133218   1.047   2.853  11.705 -0.6421  0.8808  1.4006
 7195SOL    HW233219   1.076   2.790  11.829 -2.4412 -1.0143 -1.4076
 7196SOL     OW33220   0.269   3.217   8.691 -0.1251 -0.5317  0.2536
 7196SOL    HW133221   0.209   3.201   8.619  0.8260 -0.5467 -0.5321
 7196SOL    HW233222   0.342   3.236   8.632  0.3635  1.7916  1.5882
 7197SOL     OW33223   4.067   3.755   2.556  0.1571  0.2073 -0.4015
 7197SOL    HW133224   4.076   3.803   2.638  0.1078  0.5064 -0.5710
 7197SOL    HW233225   4.111   3.673   2.579 -0.5690 -0.0998 -0.1211
 7198SOL     OW33226   0.394   3.094  16.519 -0.1119 -0.2381 -0.4069
 7198SOL    HW133227   0.362   3.184  16.509 -0.3419 -0.2839 -0.0773
 7198SOL    HW233228   0.372   3.060  16.433  4.0076 -1.9428 -0.7531
 7199SOL     OW33229   3.455   2.637   1.112 -0.1635 -0.2605  0.1604
 7199SOL    HW133230   3.432   2.554   1.070  1.1501 -0.8071  0.5280
 7199SOL    HW233231   3.400   2.640   1.190 -0.1800 -1.4575  0.1859
 7200SOL     OW33232   0.813   3.702   9.601 -0.2165  0.4510  0.4381
 7200SOL    HW133233   0.867   3.669   9.673 -0.8177 -0.9286  0.2705
 7200SOL    HW233234   0.727   3.670   9.629  0.0181 -1.9717 -1.5758
 7201SOL     OW33235   1.432   4.205   9.873  0.1756 -0.4014  0.0454
 7201SOL    HW133236   1.407   4.243   9.788  2.6604  2.6242  0.6417
 7201SOL    HW233237   1.405   4.283   9.923 -0.6054 -1.0996  0.7065
 7202SOL     OW33238   3.241   0.488  15.119 -0.1850 -0.2653  0.6910
 7202SOL    HW133239   3.152   0.482  15.085  0.6330 -0.5131 -1.3857
 7202SOL    HW233240   3.231   0.572  15.165  3.0847  0.4028  0.1259
 7203SOL     OW33241   2.645   1.517  16.327 -0.2818  0.2365 -0.3800
 7203SOL    HW133242   2.668   1.458  16.399  1.1382  1.1363 -0.0946
 7203SOL    HW233243   2.615   1.460  16.257 -0.4550 -1.3156  0.9599
 7204SOL     OW33244   2.099   1.356   5.399  0.1964  0.0007  0.9034
 7204SOL    HW133245   2.122   1.291   5.465 -0.9298  0.1235  1.4145
 7204SOL    HW233246   2.015   1.325   5.365  0.2934  0.7301 -0.0119
 7205SOL     OW33247   3.230   4.614   8.084  0.0588  0.1632 -0.5895
 7205SOL    HW133248   3.289   4.564   8.142 -0.2883  1.6468  1.0371
 7205SOL    HW233249   3.275   4.618   7.999  0.4477  0.9313 -0.3490
 7206SOL     OW33250   3.759   1.450   0.142 -0.1986 -0.0648 -0.1419
 7206SOL    HW133251   3.806   1.369   0.163  1.6775  1.6484  2.2257
 7206SOL    HW233252   3.692   1.400   0.095  1.1088 -1.2355 -0.7487
 7207SOL     OW33253   2.435   2.230  17.059 -0.1337 -0.7096 -0.2913
 7207SOL    HW133254   2.478   2.202  16.978  0.5192  0.3218 -0.3093
 7207SOL    HW233255   2.349   2.190  17.051  0.1168 -1.1668 -0.6996
 7208SOL     OW33256   1.690   2.152  15.178 -0.5620 -0.4792  0.0035
 7208SOL    HW133257   1.761   2.197  15.224 -0.9568 -0.4320  0.5676
 7208SOL    HW233258   1.730   2.111  15.101  3.0693  0.0682  1.6039
 7209SOL     OW33259   0.911   3.866   3.939  0.7928 -0.1009  0.1919
 7209SOL    HW133260   0.955   3.884   3.856 -1.9725  0.7378 -1.0842
 7209SOL    HW233261   0.872   3.783   3.911 -0.1832  0.6367 -0.6197
 7210SOL     OW33262   0.669   3.019   6.971 -0.5351  0.0958  0.8264
 7210SOL    HW133263   0.624   3.036   7.053  1.5433  0.6706  1.8396
 7210SOL    HW233264   0.706   2.932   6.983  0.6217  0.4943  0.1611
 7211SOL     OW33265   0.129   1.490  16.300 -0.2037 -0.7711 -0.4924
 7211SOL    HW133266   0.113   1.465  16.391 -2.1859  2.1041 -0.0786
 7211SOL    HW233267   0.037   1.500  16.276 -0.2268  0.6575  0.1827
 7212SOL     OW33268   0.323   1.931   3.104 -0.1507  0.5128 -0.6813
 7212SOL    HW133269   0.344   1.875   3.179 -0.6788 -0.1544 -1.0378
 7212SOL    HW233270   0.259   1.983   3.152  1.5450 -1.7622  4.1063
 7213SOL     OW33271   4.063   2.439   1.476  0.1140 -0.0816  0.1821
 7213SOL    HW133272   4.046   2.353   1.437 -0.4815 -1.1470  2.7432
 7213SOL    HW233273   4.023   2.492   1.407  1.3723 -0.0095 -0.4988
 7214SOL     OW33274   0.904   3.518   8.872  0.3940 -0.3688  0.2253
 7214SOL    HW133275   0.944   3.505   8.786 -1.1418  0.4389 -0.6158
 7214SOL    HW233276   0.956   3.458   8.925  0.2080 -0.0180  0.8092
 7215SOL     OW33277   0.833   2.292   0.839 -0.1116  0.5008 -0.4224
 7215SOL    HW133278   0.871   2.246   0.914  0.4346 -2.8142 -2.7345
 7215SOL    HW233279   0.801   2.364   0.894 -1.2017 -0.2347 -0.1128
 7216SOL     OW33280   1.587   3.843   2.434  0.1400 -0.3962 -0.2024
 7216SOL    HW133281   1.661   3.878   2.483  0.2326 -0.4317 -0.3152
 7216SOL    HW233282   1.517   3.882   2.486 -0.7066  0.2551 -1.8190
 7217SOL     OW33283   2.320   0.925   4.849  0.4078  0.0116 -0.4569
 7217SOL    HW133284   2.282   0.946   4.934  1.4250 -1.3064  0.3194
 7217SOL    HW233285   2.288   1.001   4.800 -2.3566 -0.8970 -0.0433
 7218SOL     OW33286   3.432   1.733   7.410  0.4753  0.0582 -0.5243
 7218SOL    HW133287   3.363   1.720   7.475  0.4293 -0.3664 -0.6564
 7218SOL    HW233288   3.479   1.800   7.459  0.8596  0.1328 -0.9885
 7219SOL     OW33289   1.207   4.197   2.904 -0.4722  1.1077 -0.0990
 7219SOL    HW133290   1.188   4.253   2.828 -1.2184  1.9942  0.7303
 7219SOL    HW233291   1.129   4.219   2.955 -0.5363 -0.3136  0.3980
 7220SOL     OW33292   2.565   4.221  16.653 -0.0818  0.3321  0.3738
 7220SOL    HW133293   2.533   4.164  16.583  2.4805 -0.5289 -0.0892
 7220SOL    HW233294   2.493   4.284  16.661 -0.7338 -0.3538 -0.1481
 7221SOL     OW33295   1.452   3.417   4.939  0.3941  0.4930 -0.4226
 7221SOL    HW133296   1.521   3.351   4.940 -0.3401 -0.2655  1.5109
 7221SOL    HW233297   1.499   3.485   4.892  0.6906 -1.0095 -2.2690
 7222SOL     OW33298   0.166   2.754   6.757  0.3080 -0.0072  0.2175
 7222SOL    HW133299   0.185   2.755   6.851  0.1775  1.5553  0.2164
 7222SOL    HW233300   0.237   2.805   6.719 -0.2240 -1.1183 -2.2939
 7223SOL     OW33301   2.934   3.222   7.106  0.1926  0.2990  0.5038
 7223SOL    HW133302   2.903   3.290   7.046 -1.3458 -0.8952 -0.0784
 7223SOL    HW233303   3.016   3.262   7.135  0.6541 -0.8774  0.8234
 7224SOL     OW33304   4.130   0.342  15.331  0.3669  0.5594  0.6912
 7224SOL    HW133305   4.112   0.325  15.239 -1.1951 -3.5348  1.7191
 7224SOL    HW233306   4.047   0.382  15.355 -0.7045 -1.2354 -0.0371
 7225SOL     OW33307   2.206   1.309  12.948  0.8631 -0.1297  0.3235
 7225SOL    HW133308   2.181   1.229  12.994  0.6832  0.5231  1.3512
 7225SOL    HW233309   2.198   1.282  12.856 -0.4765  1.8590 -0.1318
 7226SOL     OW33310   3.492   1.528   2.938 -0.9744 -0.0862 -0.2470
 7226SOL    HW133311   3.565   1.539   2.877 -4.0596  0.7371 -3.7507
 7226SOL    HW233312   3.478   1.434   2.929  0.0433 -0.2309 -0.2905
 7227SOL     OW33313   1.778   0.980  15.597  0.1530 -0.0921  0.1645
 7227SOL    HW133314   1.842   0.920  15.556 -0.8946 -1.4629  0.5298
 7227SOL    HW233315   1.785   1.060  15.545 -2.3970 -0.2977 -0.4669
 7228SOL     OW33316   4.353   3.334   4.695 -0.5458  0.5385 -0.1029
 7228SOL    HW133317   4.379   3.395   4.763  0.1578 -0.7121  0.7553
 7228SOL    HW233318   4.437   3.329   4.648 -0.8658 -1.0648 -0.5179
 7229SOL     OW33319   0.036   4.238   5.949 -0.7956 -0.4998  0.3848
 7229SOL    HW133320   4.700   4.290   5.980  1.2450  1.0945  2.7037
 7229SOL    HW233321   0.081   4.193   6.021 -1.1011 -0.0179  0.8843
 7230SOL     OW33322   4.255   0.896  10.847 -0.8612 -0.0802  0.2839
 7230SOL    HW133323   4.225   0.958  10.914 -0.4218  0.0808  0.3320
 7230SOL    HW233324   4.338   0.866  10.883 -0.1826  1.2554 -0.1728
 7231SOL     OW33325   2.180   1.197   2.813  0.0352  0.4946 -0.5767
 7231SOL    HW133326   2.168   1.112   2.772 -3.0611  0.5214  0.2787
 7231SOL    HW233327   2.202   1.257   2.741  5.4192  0.1177  0.7525
 7232SOL     OW33328   2.012   3.559  17.529  0.0900 -0.8124  0.5638
 7232SOL    HW133329   1.952   3.528  17.598 -0.4849 -0.9868 -0.0138
 7232SOL    HW233330   1.973   3.640  17.495 -1.2365 -2.2045 -1.1933
 7233SOL     OW33331   1.090   4.578   5.814  0.2923  0.2329  0.3939
 7233SOL    HW133332   1.157   4.518   5.847 -0.4643 -1.2615 -0.8266
 7233SOL    HW233333   1.012   4.531   5.841 -0.4529  0.7266 -0.8784
 7234SOL     OW33334   4.153   3.468   2.590  0.2676 -0.1401  0.2503
 7234SOL    HW133335   4.244   3.473   2.561 -0.5882  1.4400 -2.1399
 7234SOL    HW233336   4.146   3.378   2.622  0.1003  0.2324  1.2639
 7235SOL     OW33337   2.695   2.705   4.082  0.1478  0.1448 -0.0718
 7235SOL    HW133338   2.727   2.786   4.121  0.6193 -0.2601  0.3759
 7235SOL    HW233339   2.672   2.660   4.163  0.8440  1.9895  1.1500
 7236SOL     OW33340   2.671   4.167   9.732  0.0399 -0.7083  0.5343
 7236SOL    HW133341   2.670   4.082   9.688  2.3698 -0.9583  0.9479
 7236SOL    HW233342   2.754   4.153   9.778 -0.4660  1.2769  2.0705
 7237SOL     OW33343   2.794   2.764   3.042  0.2457 -0.2985  0.1083
 7237SOL    HW133344   2.784   2.859   3.034  1.1827 -0.0843  1.4707
 7237SOL    HW233345   2.882   2.746   3.010 -1.6233 -3.4872 -3.1740
 7238SOL     OW33346   1.572   2.141   7.728 -0.2413  0.2940  0.0678
 7238SOL    HW133347   1.639   2.076   7.710 -0.4405  0.1987 -0.3391
 7238SOL    HW233348   1.552   2.120   7.819 -0.4704 -2.3854 -0.6008
 7239SOL     OW33349   4.006   0.893   5.834  0.1380 -0.4348 -0.7079
 7239SOL    HW133350   3.945   0.844   5.779 -1.5601  0.0990  0.6911
 7239SOL    HW233351   3.972   0.982   5.824  0.3669 -0.1075  1.5142
 7240SOL     OW33352   3.915   3.397   2.198  0.3171  0.0970 -0.1090
 7240SOL    HW133353   3.905   3.302   2.199 -4.7648  0.6276  1.7328
 7240SOL    HW233354   3.890   3.424   2.287 -0.9924 -0.3652 -0.3415
 7241SOL     OW33355   0.514   2.226  16.531 -0.3838 -0.1125 -0.2316
 7241SOL    HW133356   0.559   2.192  16.608 -0.6891 -0.4970 -0.2224
 7241SOL    HW233357   0.571   2.189  16.463  1.1527  0.4797  0.7335
 7242SOL     OW33358   1.477   4.191   0.231 -0.4627  0.2114  0.4607
 7242SOL    HW133359   1.433   4.106   0.239  0.8037 -0.3932  1.1112
 7242SOL    HW233360   1.556   4.178   0.283  0.0014  0.8070 -0.0958
 7243SOL     OW33361   2.021   3.799  13.724 -0.3479  0.4254 -0.1279
 7243SOL    HW133362   1.963   3.799  13.648  0.2792 -1.5669 -0.5861
 7243SOL    HW233363   1.950   3.794  13.788 -0.8990 -1.7495 -0.9074
 7244SOL     OW33364   4.394   4.637   7.294 -0.7456 -0.3638 -0.0001
 7244SOL    HW133365   4.379   4.566   7.356  1.1867 -1.6447 -1.0160
 7244SOL    HW233366   4.328   4.699   7.324  0.0077  0.2427  0.4030
 7245SOL     OW33367   4.577   1.707  12.592 -0.1888  0.3567 -0.0290
 7245SOL    HW133368   4.663   1.727  12.555  0.4549 -0.3007  1.1183
 7245SOL    HW233369   4.609   1.677  12.677 -0.9300 -0.5159 -0.0571
 7246SOL     OW33370   0.940   4.072   7.240  0.3627  0.5014 -0.0637
 7246SOL    HW133371   1.006   4.123   7.192  0.6922  0.3103  0.1922
 7246SOL    HW233372   0.976   4.086   7.327 -0.3202 -1.0912  0.4698
 7247SOL     OW33373   3.322   3.812  16.857 -0.5223  0.0310  0.1386
 7247SOL    HW133374   3.412   3.839  16.874  0.2544 -2.4512 -0.0092
 7247SOL    HW233375   3.312   3.774  16.945 -0.9011  0.8102  0.4313
 7248SOL     OW33376   0.832   3.462   8.254 -0.1180 -0.2247 -0.1569
 7248SOL    HW133377   0.900   3.513   8.209  0.3971  1.1771  2.2525
 7248SOL    HW233378   0.793   3.409   8.185  0.2580  0.5705 -0.9835
 7249SOL     OW33379   2.564   0.804   4.273  0.1999  0.6533 -0.1807
 7249SOL    HW133380   2.578   0.807   4.179  1.5069  0.1117 -0.0058
 7249SOL    HW233381   2.615   0.726   4.295 -0.0114  0.3004 -0.9436
 7250SOL     OW33382   1.697   3.169   8.312  0.2394  0.0599 -0.1419
 7250SOL    HW133383   1.763   3.237   8.298  1.3113 -0.9517  0.0478
 7250SOL    HW233384   1.684   3.140   8.222 -3.5712 -0.2516  0.4939
 7251SOL     OW33385   4.155   3.297   3.986  0.5200  0.6725  0.0765
 7251SOL    HW133386   4.214   3.322   4.057 -0.3157 -2.9849  2.0356
 7251SOL    HW233387   4.072   3.333   4.016  0.3309  1.8309 -1.7779
 7252SOL     OW33388   1.163   3.093  11.000  0.3543  0.4699 -0.4074
 7252SOL    HW133389   1.212   3.024  11.044 -2.0090 -0.5767  0.5739
 7252SOL    HW233390   1.090   3.109  11.059  1.5746 -1.5429  1.6325
 7253SOL     OW33391   3.320   3.248   2.620 -0.2433  0.3279 -0.4646
 7253SOL    HW133392   3.248   3.200   2.660  0.4300 -1.6457 -1.6368
 7253SOL    HW233393   3.309   3.330   2.669 -2.2628 -0.8753  1.1190
 7254SOL     OW33394   3.362   3.054  11.273  0.2713  0.0498 -0.4941
 7254SOL    HW133395   3.435   2.996  11.294  0.0457  0.4732  1.5336
 7254SOL    HW233396   3.305   2.988  11.235 -0.0044 -0.3834  0.6791
 7255SOL     OW33397   4.084   1.638  15.428 -0.3680 -0.4128  0.3886
 7255SOL    HW133398   4.007   1.694  15.427  0.3046  0.5156  0.4220
 7255SOL    HW233399   4.034   1.556  15.433  1.3129 -1.3891  1.4296
 7256SOL     OW33400   2.713   0.254   2.870  0.4511 -0.4856 -0.2827
 7256SOL    HW133401   2.796   0.290   2.838  0.6434  0.2182  0.9979
 7256SOL    HW233402   2.670   0.250   2.785  1.7335  1.6383 -1.0421
 7257SOL     OW33403   3.139   0.407  16.061  0.0068  0.3634 -0.3919
 7257SOL    HW133404   3.053   0.412  16.104  0.6962  1.1396  0.8973
 7257SOL    HW233405   3.124   0.441  15.973  0.8573 -3.2759 -1.9509
 7258SOL     OW33406   4.357   0.836   7.844  0.2767  0.0195  0.4767
 7258SOL    HW133407   4.281   0.876   7.801 -0.1824 -1.9542 -0.5778
 7258SOL    HW233408   4.394   0.912   7.889  0.5217  2.0697 -3.2014
 7259SOL     OW33409   2.297   1.096  13.301 -0.0721  0.3434  0.1798
 7259SOL    HW133410   2.351   1.151  13.245 -0.0212 -0.1535 -0.2636
 7259SOL    HW233411   2.352   1.018  13.312 -0.8461 -0.1159  0.8125
 7260SOL     OW33412   3.945   0.965  15.221  0.5992  0.0073  0.0006
 7260SOL    HW133413   4.011   0.896  15.221  1.3795  0.7564 -0.0558
 7260SOL    HW233414   3.865   0.914  15.206  0.9201 -0.9501  1.6057
 7261SOL     OW33415   1.319   0.084   1.628 -0.2928  0.2065  0.5567
 7261SOL    HW133416   1.269   0.003   1.619 -0.2067  0.3343 -1.0094
 7261SOL    HW233417   1.332   0.084   1.723 -1.0151 -3.1217  0.6465
 7262SOL     OW33418   1.135   1.363   7.351  0.6386  0.2227  0.1796
 7262SOL    HW133419   1.097   1.286   7.310 -0.5714  1.7857 -1.6447
 7262SOL    HW233420   1.167   1.321   7.431  0.1486  0.5958  0.5776
 7263SOL     OW33421   1.452   0.165  12.731  0.5969  0.1959 -0.9379
 7263SOL    HW133422   1.526   0.109  12.754  0.7417  1.7047  2.2843
 7263SOL    HW233423   1.504   0.241  12.706  0.7073 -0.2278 -1.9887
 7264SOL     OW33424   2.029   4.370   0.152 -0.3829 -0.0272  0.1986
 7264SOL    HW133425   1.975   4.350   0.228 -0.5672  2.9150  0.8129
 7264SOL    HW233426   2.104   4.314   0.169  1.1581  1.9126 -0.2359
 7265SOL     OW33427   1.693   4.115  17.679 -0.0015 -0.1072 -0.0505
 7265SOL    HW133428   1.767   4.176  17.673  0.3932 -0.7463 -1.7364
 7265SOL    HW233429   1.699   4.107   0.021  1.1163 -3.5220 -0.4225
 7266SOL     OW33430   3.807   0.753   3.723  0.0846 -0.1968  0.6879
 7266SOL    HW133431   3.749   0.695   3.773 -0.9513  1.8119  1.8221
 7266SOL    HW233432   3.754   0.795   3.656 -0.5417 -1.3792  0.4414
 7267SOL     OW33433   3.073   1.732   8.160 -0.6508 -0.0355  0.0855
 7267SOL    HW133434   3.038   1.654   8.202  0.4444 -0.6008 -0.0369
 7267SOL    HW233435   3.088   1.794   8.231  0.1062 -0.8769  0.6585
 7268SOL     OW33436   4.071   3.951   9.477 -0.2176 -0.7757  0.4018
 7268SOL    HW133437   3.995   3.893   9.467 -0.7724  0.1718 -0.8202
 7268SOL    HW233438   4.042   4.032   9.435  1.7017 -0.5428 -0.4448
 7269SOL     OW33439   3.702   0.274   2.395 -0.1157 -0.1765 -0.4108
 7269SOL    HW133440   3.689   0.305   2.484  2.0124 -2.2167  0.6094
 7269SOL    HW233441   3.772   0.209   2.398  1.3939  1.3385 -2.6173
 7270SOL     OW33442   3.756   1.524  15.669  0.1080  0.2564  0.3655
 7270SOL    HW133443   3.700   1.576  15.611  0.9862  0.1367 -0.5746
 7270SOL    HW233444   3.825   1.494  15.611 -0.7238  0.5212 -0.7561
 7271SOL     OW33445   1.584   3.096   4.639  0.6625 -0.1816 -0.3169
 7271SOL    HW133446   1.513   3.099   4.575  0.9216  2.7844 -0.4521
 7271SOL    HW233447   1.623   3.183   4.631  0.4103 -0.2019 -1.8806
 7272SOL     OW33448   1.525   4.187   6.180 -0.2840 -0.0992  0.8461
 7272SOL    HW133449   1.539   4.108   6.232  1.1970 -1.3314 -1.4315
 7272SOL    HW233450   1.611   4.188   6.139  0.0931 -1.6324  1.6382
 7273SOL     OW33451   2.068   0.338   7.976 -0.2783  0.3138 -0.0980
 7273SOL    HW133452   2.061   0.343   8.071 -0.8329  2.5098 -0.2692
 7273SOL    HW233453   2.153   0.297   7.960 -0.3901  0.6449 -1.5132
 7274SOL     OW33454   0.182   3.544   9.282 -0.1355  0.1334 -0.2211
 7274SOL    HW133455   0.126   3.468   9.296  0.0533 -0.1748 -1.1691
 7274SOL    HW233456   0.151   3.604   9.351  2.2493  0.6395  0.3874
 7275SOL     OW33457   2.087   0.169  15.768  0.2117 -0.4060 -0.6464
 7275SOL    HW133458   2.082   0.156  15.863 -1.5222  0.1274 -0.6770
 7275SOL    HW233459   2.120   0.258  15.756 -0.6616 -0.0824 -0.6326
 7276SOL     OW33460   2.540   0.434   8.118  0.1713 -0.7296  0.3199
 7276SOL    HW133461   2.479   0.498   8.153  0.3154 -0.1894 -0.4123
 7276SOL    HW233462   2.604   0.427   8.189 -1.4155 -0.6128  1.7582
 7277SOL     OW33463   3.303   1.482   5.301  0.0076  0.2002  0.0464
 7277SOL    HW133464   3.328   1.408   5.355  0.1361 -0.7191 -1.2756
 7277SOL    HW233465   3.288   1.445   5.214  1.9986  0.9853 -0.6441
 7278SOL     OW33466   1.402   0.248   7.586  0.0579 -0.0083 -0.1880
 7278SOL    HW133467   1.404   0.211   7.675  0.5267  3.2223  1.1603
 7278SOL    HW233468   1.474   0.202   7.544  0.8319  3.0823 -2.2372
 7279SOL     OW33469   1.739   3.323   0.268  0.1552  0.1855  0.8462
 7279SOL    HW133470   1.696   3.262   0.208  1.3200 -0.4249  0.6451
 7279SOL    HW233471   1.681   3.325   0.343 -1.0976 -2.2630 -0.0508
 7280SOL     OW33472   3.075   3.043   8.782  0.2612 -0.4112  0.5200
 7280SOL    HW133473   3.124   3.092   8.847 -0.7925  0.4057  0.7061
 7280SOL    HW233474   3.045   2.970   8.836 -4.0483  1.3160  0.5343
 7281SOL     OW33475   2.135   0.806   7.040  0.4014  0.0057 -0.1104
 7281SOL    HW133476   2.188   0.727   7.025  0.8199  0.1663  0.5403
 7281SOL    HW233477   2.174   0.856   6.968 -3.0859 -1.5015 -3.0260
 7282SOL     OW33478   3.777   3.265   7.753 -0.4630  0.0938  0.1035
 7282SOL    HW133479   3.733   3.332   7.806  1.2712 -0.4887  2.2753
 7282SOL    HW233480   3.869   3.283   7.774 -0.2010 -0.4704 -0.5763
 7283SOL     OW33481   2.593   3.896   4.085  0.0463  0.5659  0.4770
 7283SOL    HW133482   2.645   3.816   4.092 -2.1761 -0.7298  2.0732
 7283SOL    HW233483   2.598   3.905   3.989  1.8424  1.5119  0.6633
 7284SOL     OW33484   1.836   3.151   8.659 -0.1148 -0.3344 -0.2816
 7284SOL    HW133485   1.760   3.094   8.664  1.1284 -2.0465 -0.8067
 7284SOL    HW233486   1.806   3.242   8.649 -2.0545 -0.5880  3.1120
 7285SOL     OW33487   3.010   3.636   4.112 -0.2220 -0.2677  0.1870
 7285SOL    HW133488   3.023   3.596   4.026  0.4824  2.7926 -1.1293
 7285SOL    HW233489   2.947   3.708   4.100  0.8521  0.7267  0.5218
 7286SOL     OW33490   3.104   3.040   6.992 -0.4964 -0.0464 -0.3619
 7286SOL    HW133491   3.110   2.997   7.077  1.0032 -2.1903 -1.5420
 7286SOL    HW233492   3.043   3.108   7.021 -1.1397 -1.4042  1.4621
 7287SOL     OW33493   2.708   3.591   6.715 -0.4979  0.4951 -0.3857
 7287SOL    HW133494   2.770   3.629   6.652  0.6383 -0.6537  0.0495
 7287SOL    HW233495   2.622   3.605   6.676  0.2629 -0.2224 -2.3297
 7288SOL     OW33496   3.618   3.520  10.914 -0.6258 -0.1641  0.5079
 7288SOL    HW133497   3.615   3.436  10.959 -3.3843 -0.3860 -0.1164
 7288SOL    HW233498   3.704   3.547  10.947 -0.0508  0.6521 -1.6039
 7289SOL     OW33499   3.123   2.593  13.283  0.2521  0.3966  0.1836
 7289SOL    HW133500   3.107   2.557  13.371  0.9996  0.6417  0.4194
 7289SOL    HW233501   3.174   2.668  13.313  0.8373  0.2039 -0.3313
 7290SOL     OW33502   1.151   0.560  15.947 -0.2502 -0.6158 -0.3237
 7290SOL    HW133503   1.231   0.524  15.910  0.5972  2.7616 -1.7473
 7290SOL    HW233504   1.145   0.491  16.013  2.5642 -0.6659 -0.1367
 7291SOL     OW33505   2.478   4.588  14.557  0.6344  0.8677 -0.2134
 7291SOL    HW133506   2.444   4.558  14.473  0.1796 -1.9870  0.9835
 7291SOL    HW233507   2.394   4.608  14.600  2.4445  0.1723  3.6914
 7292SOL     OW33508   0.630   1.488   2.343 -0.2153 -0.1243  0.5580
 7292SOL    HW133509   0.551   1.465   2.391 -0.5442  0.1827  0.1605
 7292SOL    HW233510   0.646   1.407   2.294  0.3525  0.3587 -0.0502
 7293SOL     OW33511   1.280   1.813  11.223  0.1529  0.0338 -0.4913
 7293SOL    HW133512   1.335   1.835  11.148  1.4052  3.7492  1.5065
 7293SOL    HW233513   1.244   1.900  11.242  0.6023 -0.4561  2.6730
 7294SOL     OW33514   2.524   3.856   4.861  0.0386 -0.0714  0.3970
 7294SOL    HW133515   2.593   3.867   4.796 -1.7155 -2.0778 -1.7987
 7294SOL    HW233516   2.516   3.761   4.861 -2.6688  0.1547 -1.7903
 7295SOL     OW33517   4.511   2.829  12.218 -0.1504  0.1153  0.4173
 7295SOL    HW133518   4.600   2.835  12.255 -0.6563  0.0670  1.6377
 7295SOL    HW233519   4.533   2.868  12.133 -0.3838  0.6015  0.5774
 7296SOL     OW33520   0.057   2.303   6.432  0.0258 -0.3239  0.0767
 7296SOL    HW133521   0.124   2.287   6.499  1.0419  2.2259 -0.3113
 7296SOL    HW233522   0.115   2.337   6.364  0.1392 -0.5230  0.0751
 7297SOL     OW33523   0.449   2.631   8.249  0.2829  0.1428  0.6102
 7297SOL    HW133524   0.472   2.549   8.205 -3.0481  0.1998 -1.2048
 7297SOL    HW233525   0.516   2.642   8.316 -0.7889  2.5470  1.2710
 7298SOL     OW33526   4.017   4.100   4.578 -0.8336 -0.6788 -0.4997
 7298SOL    HW133527   4.108   4.105   4.549 -0.0896 -1.0695  1.7863
 7298SOL    HW233528   4.035   4.104   4.672 -0.0663 -0.1915 -0.6612
 7299SOL     OW33529   4.429   0.098   6.940 -0.5620 -0.0784  0.1484
 7299SOL    HW133530   4.385   0.108   6.855  1.3079  1.3725 -0.6507
 7299SOL    HW233531   4.348   0.083   6.989  0.4721 -2.1599  1.1920
 7300SOL     OW33532   2.128   1.881   0.168 -0.1877 -0.6659  0.8230
 7300SOL    HW133533   2.037   1.908   0.172 -1.0468 -3.6951  1.9441
 7300SOL    HW233534   2.112   1.787   0.178  0.4226 -1.1251 -2.3131
 7301SOL     OW33535   4.621   2.911   0.461  0.3983  0.1369  0.0233
 7301SOL    HW133536   4.666   2.989   0.493  0.1388  0.7967 -1.2390
 7301SOL    HW233537   4.530   2.929   0.486  0.1680  2.2702 -2.3291
 7302SOL     OW33538   3.211   1.785   5.769  0.1358  0.2542  0.0093
 7302SOL    HW133539   3.291   1.740   5.744 -0.3964 -0.8498  0.2772
 7302SOL    HW233540   3.198   1.838   5.690 -1.1362  0.7292  0.5403
 7303SOL     OW33541   1.612   1.386  17.503  0.1480 -0.0793  0.0515
 7303SOL    HW133542   1.530   1.402  17.457  0.0498  0.7820  0.5280
 7303SOL    HW233543   1.680   1.373  17.437 -0.4147  0.3809 -0.6111
 7304SOL     OW33544   2.438   2.010   6.079  0.1682 -0.2166 -0.2911
 7304SOL    HW133545   2.518   2.020   6.132 -0.1194  1.6283 -0.1864
 7304SOL    HW233546   2.470   1.970   5.999  1.7474 -2.0746  1.2637
 7305SOL     OW33547   0.200   4.324   3.762  0.5515  0.2944  0.2904
 7305SOL    HW133548   0.157   4.331   3.847  1.0881 -0.8629  0.6546
 7305SOL    HW233549   0.138   4.277   3.707  1.8214 -0.5071 -0.4587
 7306SOL     OW33550   0.396   2.898   5.282  0.0222  0.1739 -0.3615
 7306SOL    HW133551   0.336   2.960   5.325 -0.7869 -0.8769  0.0350
 7306SOL    HW233552   0.478   2.910   5.329  0.6383  0.0792 -1.4378
 7307SOL     OW33553   2.175   1.132   4.735  0.2693 -0.2811  0.5918
 7307SOL    HW133554   2.114   1.092   4.673  1.2531  0.7259 -1.0188
 7307SOL    HW233555   2.171   1.225   4.712  3.1182 -0.2712  0.1091
 7308SOL     OW33556   1.985   0.185   3.095 -0.3648  0.2109 -0.3797
 7308SOL    HW133557   2.052   0.139   3.046 -0.3502  1.1922 -1.2712
 7308SOL    HW233558   2.009   0.276   3.079  0.0860  0.2309  0.4155
 7309SOL     OW33559   3.500   2.654   6.449  0.0241  0.3774  0.4730
 7309SOL    HW133560   3.500   2.692   6.361  3.0051  1.8999  1.0987
 7309SOL    HW233561   3.419   2.688   6.485  1.3270  2.7799  1.1590
 7310SOL     OW33562   4.616   4.409   0.998 -0.3434  0.4592  0.4480
 7310SOL    HW133563   4.629   4.453   1.082 -0.3964  0.2308  0.5725
 7310SOL    HW233564   4.549   4.349   1.029  0.6823 -0.6237  0.5493
 7311SOL     OW33565   4.432   3.919   6.201  0.0085 -0.0963  0.1308
 7311SOL    HW133566   4.394   3.898   6.116 -0.0333  1.0808 -0.1483
 7311SOL    HW233567   4.409   4.012   6.204  0.0399 -0.0976  0.4115
 7312SOL     OW33568   3.174   3.563   4.638 -0.0122 -0.0571  0.3045
 7312SOL    HW133569   3.122   3.561   4.557  0.5145 -0.8387 -0.0178
 7312SOL    HW233570   3.264   3.568   4.606  0.3764 -0.5269  1.3265
 7313SOL     OW33571   3.821   4.225   2.275 -0.2931  0.0135 -0.0953
 7313SOL    HW133572   3.729   4.203   2.289 -0.1237 -1.8863 -1.9742
 7313SOL    HW233573   3.863   4.177   2.347 -0.9771 -0.7079 -0.1697
 7314SOL     OW33574   3.121   0.033  13.368 -0.1219 -0.2899  0.0356
 7314SOL    HW133575   3.122   0.099  13.299  0.8398  0.5886  0.8935
 7314SOL    HW233576   3.117   0.081  13.451  1.2328  1.4372 -0.9010
 7315SOL     OW33577   2.038   2.100   2.358  0.3576 -0.2941  0.2347
 7315SOL    HW133578   2.032   2.116   2.264  0.7312 -0.4787  0.1831
 7315SOL    HW233579   2.002   2.183   2.391 -2.2912 -2.3775  2.6323
 7316SOL     OW33580   1.484   1.018   4.761 -0.0859 -0.3042 -0.4408
 7316SOL    HW133581   1.499   1.095   4.707 -1.7587 -1.5005 -2.6480
 7316SOL    HW233582   1.523   1.045   4.844  0.6659  0.2616 -0.9763
 7317SOL     OW33583   0.897   0.766   7.690 -0.5542  0.3081  0.3143
 7317SOL    HW133584   0.981   0.725   7.671 -0.3956  2.0694 -2.6504
 7317SOL    HW233585   0.908   0.787   7.783  0.2048  0.5686  0.1602
 7318SOL     OW33586   2.089   3.621   2.860 -0.2692  1.2882  0.1177
 7318SOL    HW133587   2.038   3.541   2.846 -1.3517  1.9520  0.2996
 7318SOL    HW233588   2.095   3.613   2.955 -0.9651  0.1144  0.0663
 7319SOL     OW33589   4.325   2.302   9.273 -0.1968 -0.1957 -0.8465
 7319SOL    HW133590   4.386   2.370   9.304 -0.4841  0.8095 -2.4499
 7319SOL    HW233591   4.297   2.343   9.191  0.9290 -0.6300 -1.4506
 7320SOL     OW33592   2.649   1.393   7.693 -0.1392 -0.0280 -0.0031
 7320SOL    HW133593   2.677   1.314   7.647  0.2088  0.7039 -1.0503
 7320SOL    HW233594   2.595   1.354   7.762  1.0618 -2.7839 -0.6231
 7321SOL     OW33595   1.495   3.377  13.823 -0.2968 -0.1475 -0.5228
 7321SOL    HW133596   1.543   3.301  13.789  0.3593 -0.8980  2.0373
 7321SOL    HW233597   1.569   3.437  13.820 -1.2189  1.0048 -0.2258
 7322SOL     OW33598   0.943   1.889  13.936 -0.6126  0.0280  0.2637
 7322SOL    HW133599   0.859   1.849  13.956 -0.5176 -0.8856 -1.1457
 7322SOL    HW233600   0.934   1.980  13.964 -2.3001  0.5024 -1.7969
 7323SOL     OW33601   4.183   2.327   1.988  0.0496 -0.4520  0.3061
 7323SOL    HW133602   4.127   2.341   1.912 -0.4446 -0.6246  0.6405
 7323SOL    HW233603   4.247   2.398   1.981 -2.8078  1.9689 -1.1694
 7324SOL     OW33604   3.295   2.122   5.248 -0.3854 -1.1199  0.3124
 7324SOL    HW133605   3.262   2.044   5.293  0.0722 -1.4444  0.0814
 7324SOL    HW233606   3.321   2.178   5.322  0.0959 -1.0016  0.0545
 7325SOL     OW33607   2.128   4.064   6.433 -0.1345 -0.3346 -0.1994
 7325SOL    HW133608   2.077   4.078   6.513 -0.6474 -1.8413 -0.2557
 7325SOL    HW233609   2.134   4.152   6.397  1.6000  0.1217  1.1477
 7326SOL     OW33610   4.088   2.144   7.245  0.0280  0.0689 -0.1813
 7326SOL    HW133611   4.127   2.102   7.169  2.0805  0.0664  0.8837
 7326SOL    HW233612   4.001   2.107   7.228  0.0022 -0.6448  1.5245
 7327SOL     OW33613   1.438   2.144  11.530 -0.1734  0.2491 -0.5743
 7327SOL    HW133614   1.392   2.225  11.551  0.9466  0.9281 -0.7068
 7327SOL    HW233615   1.489   2.136  11.610 -1.3654  3.5452  0.5080
 7328SOL     OW33616   3.498   0.374  11.978  0.3146  0.2891  0.2299
 7328SOL    HW133617   3.590   0.352  11.992  0.4834  1.2023  0.5259
 7328SOL    HW233618   3.458   0.304  11.926  0.8458  0.7184 -0.7443
 7329SOL     OW33619   1.736   1.948   1.645 -0.5859 -0.0101  0.2014
 7329SOL    HW133620   1.715   1.867   1.691 -0.8092  0.0617  0.2255
 7329SOL    HW233621   1.662   1.953   1.585  0.4915  0.6476 -1.0720
 7330SOL     OW33622   1.885   2.595   6.074 -0.0494  0.1970  0.5964
 7330SOL    HW133623   1.850   2.508   6.056  2.1157 -0.5472  0.1077
 7330SOL    HW233624   1.979   2.582   6.062  0.2306  1.1336  1.7916
 7331SOL     OW33625   1.953   4.040   1.492 -0.3526 -0.2194 -0.0312
 7331SOL    HW133626   2.023   3.986   1.453  2.2882  2.3269  1.1720
 7331SOL    HW233627   2.004   4.089   1.556 -0.1745  2.7611 -2.4359
 7332SOL     OW33628   2.327   1.430   9.312 -0.0743  0.4887 -0.1953
 7332SOL    HW133629   2.291   1.518   9.308 -2.7930 -0.5080  1.5434
 7332SOL    HW233630   2.422   1.442   9.316  0.2376 -1.5927 -1.3174
 7333SOL     OW33631   0.057   2.550   0.660 -0.1061  0.1706 -0.0599
 7333SOL    HW133632   4.708   2.586   0.646  0.8633  0.9278 -4.3115
 7333SOL    HW233633   0.045   2.461   0.692 -0.9884  0.0996 -0.5865
 7334SOL     OW33634   2.646   1.959   5.720  0.1969 -0.5767 -0.1124
 7334SOL    HW133635   2.733   1.995   5.732  0.0197  0.3066 -1.5029
 7334SOL    HW233636   2.665   1.877   5.764  1.8195  0.3630  0.9163
 7335SOL     OW33637   2.410   1.854   2.576  0.3208 -0.7441  0.0159
 7335SOL    HW133638   2.315   1.865   2.578  0.3381 -0.4702 -0.6865
 7335SOL    HW233639   2.420   1.944   2.545  1.5008 -1.8558 -2.7773
 7336SOL     OW33640   2.492   2.948   3.842 -0.3140 -0.7794  0.2660
 7336SOL    HW133641   2.582   2.914   3.843  0.3944  1.0248 -1.1194
 7336SOL    HW233642   2.467   2.979   3.929  0.5236  2.3904 -0.5974
 7337SOL     OW33643   3.861   3.112   6.477  0.2876  0.5635 -0.0724
 7337SOL    HW133644   3.914   3.046   6.431 -0.6490  0.2100 -0.6310
 7337SOL    HW233645   3.922   3.180   6.506 -1.1223  1.3688  1.0153
 7338SOL     OW33646   1.875   0.636   5.501 -0.1375 -0.0170  0.2488
 7338SOL    HW133647   1.876   0.607   5.410  0.0808 -1.1333  0.6026
 7338SOL    HW233648   1.801   0.583   5.530 -1.0530 -0.2963 -2.5659
 7339SOL     OW33649   4.100   3.296   3.591 -0.6050 -0.1990 -1.0166
 7339SOL    HW133650   4.048   3.375   3.601 -0.5487  0.0239 -2.5501
 7339SOL    HW233651   4.080   3.258   3.506  0.9145 -0.3999 -1.2836
 7340SOL     OW33652   0.570   2.696  14.884 -0.6250  0.5741  0.1397
 7340SOL    HW133653   0.653   2.676  14.927  0.4350  5.3328  0.2944
 7340SOL    HW233654   0.599   2.701  14.793 -1.2006  0.0944 -0.0678
 7341SOL     OW33655   2.933   0.911   6.570  0.0552  0.5004  0.3051
 7341SOL    HW133656   2.953   0.989   6.519  2.3666 -1.6052 -2.0350
 7341SOL    HW233657   2.998   0.853   6.530 -0.8756 -0.3200 -0.0395
 7342SOL     OW33658   1.312   2.928   1.686  0.1385 -0.1243 -0.6467
 7342SOL    HW133659   1.233   2.948   1.736  1.7467  1.4380  1.2429
 7342SOL    HW233660   1.365   2.994   1.731 -0.5563  0.8494 -1.2645
 7343SOL     OW33661   2.081   1.322   8.292  0.2335 -0.2729  0.1184
 7343SOL    HW133662   2.069   1.373   8.372  1.1317 -0.1870  0.1958
 7343SOL    HW233663   1.988   1.309   8.274  0.2218  0.0096 -0.0240
 7344SOL     OW33664   0.007   3.768  15.270  0.1149  0.4069 -0.4674
 7344SOL    HW133665   0.019   3.787  15.177 -2.6803 -0.1944 -0.9646
 7344SOL    HW233666   0.026   3.674  15.268 -2.0402 -0.0393 -0.5603
 7345SOL     OW33667   1.365   2.071  11.050 -1.0266 -0.1097 -0.1680
 7345SOL    HW133668   1.271   2.090  11.042 -0.9307 -0.3054 -1.8413
 7345SOL    HW233669   1.388   2.129  11.122  1.9472 -1.5985  0.0729
 7346SOL     OW33670   3.603   0.998   5.523 -0.1360 -0.3643  0.2138
 7346SOL    HW133671   3.681   1.048   5.548 -0.4506  0.1237  0.2174
 7346SOL    HW233672   3.595   1.018   5.430  0.9410  0.8305  0.3749
 7347SOL     OW33673   0.968   1.418  15.305  0.1613 -0.2990  0.4559
 7347SOL    HW133674   1.023   1.477  15.253  1.2506 -1.5336  0.2221
 7347SOL    HW233675   1.043   1.387  15.356  0.9597  0.6389 -0.1495
 7348SOL     OW33676   2.402   0.400   7.419 -0.1680  0.0214  0.0317
 7348SOL    HW133677   2.398   0.432   7.509 -2.6254 -0.2087 -0.0032
 7348SOL    HW233678   2.346   0.465   7.377  0.5973 -1.2780 -3.0512
 7349SOL     OW33679   3.826   4.095  15.390  0.9410 -0.1933 -0.5685
 7349SOL    HW133680   3.871   4.109  15.306 -0.2668  3.4301 -0.6252
 7349SOL    HW233681   3.805   4.186  15.411  0.7241 -0.2110 -0.7004
 7350SOL     OW33682   0.205   2.147  12.939  0.3841  0.1623  0.4018
 7350SOL    HW133683   0.242   2.200  13.010  2.0836 -2.5012  1.4618
 7350SOL    HW233684   0.228   2.057  12.958  0.8677  0.1703 -0.1605
 7351SOL     OW33685   4.590   0.470   4.510  0.0284 -0.0303 -0.1595
 7351SOL    HW133686   4.502   0.455   4.546 -0.4676 -1.1094 -1.8558
 7351SOL    HW233687   4.618   0.384   4.481  3.2068  0.5250  1.2640
 7352SOL     OW33688   3.435   4.651  14.972  0.3336 -0.0486  0.4082
 7352SOL    HW133689   3.467   4.625  14.886  1.1756  0.4238  0.5751
 7352SOL    HW233690   3.443   4.566  15.016  3.4649  0.6954  1.3213
 7353SOL     OW33691   2.541   1.233  14.281 -0.3133  0.5345 -0.3583
 7353SOL    HW133692   2.589   1.304  14.324 -0.5162 -0.3938  1.3810
 7353SOL    HW233693   2.596   1.161  14.310 -1.7121 -0.4226 -0.0842
 7354SOL     OW33694   3.985   0.345   0.905 -0.3059  0.1984  0.8415
 7354SOL    HW133695   4.036   0.312   0.831 -0.4853  0.9142  0.4018
 7354SOL    HW233696   4.040   0.302   0.971 -0.6044 -0.3404  0.7322
 7355SOL     OW33697   1.840   4.208  15.401  0.6236  0.0180 -0.5575
 7355SOL    HW133698   1.760   4.258  15.386  0.7056  0.3043 -0.0635
 7355SOL    HW233699   1.829   4.191  15.495 -0.9471  2.0051 -0.3833
 7356SOL     OW33700   0.523   3.164   8.936  0.3242  0.0512 -0.3513
 7356SOL    HW133701   0.562   3.111   8.866  0.0307  0.0892 -0.5456
 7356SOL    HW233702   0.599   3.180   8.991 -0.7603 -1.2995  1.5712
 7357SOL     OW33703   4.324   2.011   9.298  0.8373  0.1432 -0.0596
 7357SOL    HW133704   4.362   2.005   9.210  0.8347 -0.3051 -0.0341
 7357SOL    HW233705   4.344   2.097   9.333  0.4821 -0.8160  2.5111
 7358SOL     OW33706   3.892   1.374   5.881 -0.8051 -0.1438 -0.3020
 7358SOL    HW133707   3.886   1.334   5.968  0.2695 -1.4438 -0.8400
 7358SOL    HW233708   3.832   1.448   5.896 -0.3906  0.5688 -2.1656
 7359SOL     OW33709   2.119   0.944   3.062  0.6109 -0.2068  0.2738
 7359SOL    HW133710   2.061   0.998   3.116 -0.2003  1.7537 -2.5003
 7359SOL    HW233711   2.084   0.942   2.972 -0.8232  0.0403  0.8216
 7360SOL     OW33712   3.761   3.208   3.526  0.2110 -0.6291  0.4066
 7360SOL    HW133713   3.770   3.161   3.443  0.8700 -1.9820  1.2409
 7360SOL    HW233714   3.766   3.300   3.501 -0.8484 -0.5272  0.5798
 7361SOL     OW33715   2.547   2.456  12.095  0.5714  0.2721 -0.5602
 7361SOL    HW133716   2.504   2.398  12.158  1.0957  0.8003  0.2887
 7361SOL    HW233717   2.604   2.510  12.150  1.0722 -1.9056  1.0682
 7362SOL     OW33718   0.529   2.075   0.176  0.0890 -0.5413  0.5588
 7362SOL    HW133719   0.622   2.094   0.171 -0.2531  1.4595  1.8286
 7362SOL    HW233720   0.506   2.135   0.105  1.1032 -1.8330 -0.8546
 7363SOL     OW33721   0.542   0.122   7.573  0.0756  0.7383  0.2918
 7363SOL    HW133722   0.536   0.160   7.661 -0.4348 -0.8903  0.9604
 7363SOL    HW233723   0.461   0.160   7.539 -0.5985 -2.2146 -1.3847
 7364SOL     OW33724   3.737   4.067   1.031 -0.2475 -0.0523  0.2028
 7364SOL    HW133725   3.763   4.120   1.107  1.7815  0.3952 -0.7964
 7364SOL    HW233726   3.664   4.021   1.072  0.4218 -0.5634  0.8214
 7365SOL     OW33727   1.308   1.565   4.149 -0.5993 -0.2747 -0.4383
 7365SOL    HW133728   1.244   1.495   4.136  0.7829 -1.7913  0.9916
 7365SOL    HW233729   1.249   1.636   4.124  1.6444  1.3998 -0.9824
 7366SOL     OW33730   4.098   0.768   9.620 -0.4079  0.3139  0.0989
 7366SOL    HW133731   4.172   0.786   9.678  1.5913 -0.6416 -2.1942
 7366SOL    HW233732   4.141   0.731   9.544 -1.4123  1.0248 -0.8118
 7367SOL     OW33733   2.306   0.666  10.272 -0.4420 -0.0516 -0.2401
 7367SOL    HW133734   2.325   0.755  10.240 -1.1924 -0.2890 -1.3343
 7367SOL    HW233735   2.354   0.658  10.355  1.3109  0.6010 -1.1695
 7368SOL     OW33736   1.424   1.492   9.911  0.4717 -0.3164 -0.8452
 7368SOL    HW133737   1.487   1.422   9.890 -0.8446 -1.2182 -1.7664
 7368SOL    HW233738   1.446   1.546   9.836  3.2202 -1.4423 -0.8527
 7369SOL     OW33739   3.370   2.732   6.700  0.5187 -0.1497 -0.4509
 7369SOL    HW133740   3.363   2.675   6.776  0.5656  1.9379  1.1429
 7369SOL    HW233741   3.303   2.692   6.645  0.0834 -0.4276  0.2910
 7370SOL     OW33742   1.510   2.248   1.745  0.4992 -0.0838  0.3847
 7370SOL    HW133743   1.587   2.303   1.732 -1.2802  2.3369  0.0193
 7370SOL    HW233744   1.448   2.271   1.675  2.1743  1.1681 -0.6870
 7371SOL     OW33745   2.645   0.672   8.847  0.2351 -0.0915 -0.2562
 7371SOL    HW133746   2.657   0.744   8.910 -1.1681  0.2796 -0.4001
 7371SOL    HW233747   2.625   0.599   8.905 -0.4495  0.3452  0.0647
 7372SOL     OW33748   2.568   1.317   8.413  0.0786 -0.2020  0.3026
 7372SOL    HW133749   2.497   1.380   8.421 -0.2990 -0.4677 -0.9339
 7372SOL    HW233750   2.589   1.323   8.320 -0.3735 -2.9205  0.0089
 7373SOL     OW33751   0.053   0.068   2.804 -0.0774  0.4110 -0.4954
 7373SOL    HW133752   0.063   0.076   2.709 -1.8878  1.9396 -0.5478
 7373SOL    HW233753   0.132   0.017   2.823 -0.9676 -1.1196 -0.9912
 7374SOL     OW33754   2.123   1.032  15.087  0.4658 -0.1883  0.4098
 7374SOL    HW133755   2.153   1.115  15.124  0.2558 -0.1819  0.5698
 7374SOL    HW233756   2.060   1.011  15.156 -0.9989  0.3660 -0.7618
 7375SOL     OW33757   4.166   2.910   1.101  0.6571  0.1028  0.4750
 7375SOL    HW133758   4.122   2.984   1.142  0.7635 -1.0594  2.6715
 7375SOL    HW233759   4.101   2.900   1.031 -0.1980 -0.4850  1.3536
 7376SOL     OW33760   3.890   0.991   6.338  0.1970 -0.4893 -0.6090
 7376SOL    HW133761   3.928   1.027   6.418  0.7692 -1.2830 -0.5177
 7376SOL    HW233762   3.939   1.013   6.259  0.4710  0.8310 -0.0712
 7377SOL     OW33763   0.766   2.755  12.438 -0.1176 -0.5359 -0.2563
 7377SOL    HW133764   0.726   2.818  12.377 -2.2348 -2.2188 -0.5900
 7377SOL    HW233765   0.739   2.679  12.387  0.1532 -0.2701 -0.7990
 7378SOL     OW33766   3.006   3.135  11.307 -0.8440 -0.0798 -0.6810
 7378SOL    HW133767   3.087   3.187  11.298 -0.1913 -0.6392  1.9356
 7378SOL    HW233768   2.966   3.133  11.221  1.4173 -0.3145 -1.7243
 7379SOL     OW33769   3.824   1.512   2.111  0.0985 -0.6189  0.2341
 7379SOL    HW133770   3.770   1.446   2.067  0.1124 -1.1862  1.0707
 7379SOL    HW233771   3.760   1.577   2.143  1.2244  0.1228  0.9639
 7380SOL     OW33772   4.676   2.731   2.492 -0.1502  0.4094  0.3183
 7380SOL    HW133773   4.714   2.818   2.475 -2.8491  1.8782  1.7257
 7380SOL    HW233774   0.012   2.689   2.536  0.1827 -0.6790 -1.2831
 7381SOL     OW33775   3.244   3.689   3.801 -0.3426 -0.7217 -0.5370
 7381SOL    HW133776   3.151   3.685   3.777 -0.8592  0.3405  1.3412
 7381SOL    HW233777   3.277   3.749   3.734  1.3794  0.9151  1.7842
 7382SOL     OW33778   0.800   2.868   2.705  0.1112  1.1205 -0.5793
 7382SOL    HW133779   0.831   2.785   2.669 -0.2292  0.6070  0.3339
 7382SOL    HW233780   0.727   2.838   2.759  1.1405 -3.4649 -1.7169
 7383SOL     OW33781   0.845   0.018  14.824 -0.8835 -0.3140  0.5864
 7383SOL    HW133782   0.929   4.718  14.799  0.1483  1.0553  1.9310
 7383SOL    HW233783   0.786   4.723  14.756 -0.7459 -1.4280  1.0125
 7384SOL     OW33784   2.257   2.486   0.833  0.6438  0.7153 -0.2305
 7384SOL    HW133785   2.279   2.552   0.898 -1.3265 -1.3545  2.5773
 7384SOL    HW233786   2.171   2.504   0.794  0.2655 -0.1616  0.1911
 7385SOL     OW33787   2.997   3.572  15.913 -0.7929  0.1935 -0.5559
 7385SOL    HW133788   2.904   3.575  15.893 -0.5424  0.2784 -1.7304
 7385SOL    HW233789   3.032   3.583  15.824 -0.8217  0.7527 -0.4977
 7386SOL     OW33790   1.869   1.579   8.309  0.0691 -0.2080  0.3892
 7386SOL    HW133791   1.903   1.528   8.383  1.7113 -1.8514 -1.5064
 7386SOL    HW233792   1.781   1.542   8.299 -0.3270  0.8442  0.0112
 7387SOL     OW33793   4.660   0.179   7.669  0.7575  0.0279  0.0129
 7387SOL    HW133794   4.603   0.113   7.708  3.2272 -1.2646  1.4070
 7387SOL    HW233795   4.639   0.262   7.711  1.3627  0.4203 -0.4507
 7388SOL     OW33796   2.919   1.879   6.605  0.4526  0.8621 -0.4761
 7388SOL    HW133797   2.884   1.794   6.579 -0.7172  1.0927  0.3616
 7388SOL    HW233798   2.967   1.851   6.683  0.8494  0.9474 -0.6895
 7389SOL     OW33799   1.165   3.712   2.375  0.0660 -0.3159 -0.1163
 7389SOL    HW133800   1.229   3.673   2.316 -0.0637  0.8272 -1.0028
 7389SOL    HW233801   1.225   3.762   2.431  0.1151 -2.2939  1.6030
 7390SOL     OW33802   3.692   1.884   2.786  0.0792  0.2876  0.2145
 7390SOL    HW133803   3.633   1.913   2.855 -0.0134  0.1672  0.1842
 7390SOL    HW233804   3.741   1.966   2.776 -0.1715  0.2232 -1.5886
 7391SOL     OW33805   0.176   1.805   3.566  0.4073  0.2117  0.1244
 7391SOL    HW133806   0.209   1.720   3.597 -0.4146  0.7942  2.5764
 7391SOL    HW233807   0.173   1.853   3.649  0.0510  0.1515  0.1424
 7392SOL     OW33808   2.415   1.449   7.399  0.0551 -0.8003  0.5612
 7392SOL    HW133809   2.395   1.431   7.491  1.8792  2.0451  1.4924
 7392SOL    HW233810   2.505   1.417   7.399  0.3313 -0.0183  0.2180
 7393SOL     OW33811   3.750   3.627   7.676  0.1930 -0.1985  0.1514
 7393SOL    HW133812   3.657   3.609   7.665  0.5432 -1.1504 -1.2434
 7393SOL    HW233813   3.753   3.656   7.767  0.8242 -1.4892  0.5407
 7394SOL     OW33814   1.522   3.972   9.353  0.0513  0.7450 -0.3586
 7394SOL    HW133815   1.593   3.908   9.355 -0.0096  0.6889 -0.0359
 7394SOL    HW233816   1.490   3.969   9.443  0.4570 -2.8710 -0.3279
 7395SOL     OW33817   0.466   0.403   9.217  0.7678 -0.7256 -0.2479
 7395SOL    HW133818   0.497   0.342   9.283  0.3385 -0.3216  0.3230
 7395SOL    HW233819   0.493   0.487   9.254  0.4362  0.2491 -2.2133
 7396SOL     OW33820   2.929   2.414   9.817  0.5782 -0.2592  0.0607
 7396SOL    HW133821   3.016   2.448   9.797 -0.6553  2.5899 -0.4037
 7396SOL    HW233822   2.940   2.319   9.814  0.7254 -0.1493 -2.8340
 7397SOL     OW33823   3.972   0.048   7.008 -0.2697 -0.4001  0.4322
 7397SOL    HW133824   3.957   0.064   6.915 -0.0925  0.2015  0.5109
 7397SOL    HW233825   3.961   4.691   7.006  0.7054 -0.5050  0.2197
 7398SOL     OW33826   3.187   1.533   4.648  0.2866  0.2275 -0.6217
 7398SOL    HW133827   3.161   1.446   4.617 -0.8168  0.7005 -1.0768
 7398SOL    HW233828   3.281   1.520   4.654 -0.1438 -2.7096 -0.0722
 7399SOL     OW33829   2.076   1.998   5.040 -0.0884  0.7565  0.3187
 7399SOL    HW133830   2.021   1.952   4.977  0.5151  1.6196 -0.8334
 7399SOL    HW233831   2.027   2.012   5.122 -2.1324 -2.5626 -0.3748
 7400SOL     OW33832   2.262   1.373   6.847  0.4019 -0.5346  0.3201
 7400SOL    HW133833   2.239   1.312   6.916 -0.1515 -0.6596  0.0294
 7400SOL    HW233834   2.321   1.318   6.797  0.4128  1.5558 -1.9917
 7401SOL     OW33835   0.045   3.312   8.928  0.1918 -0.3181  0.4755
 7401SOL    HW133836   0.088   3.397   8.924  2.6098 -1.5389  0.2294
 7401SOL    HW233837   0.112   3.268   8.981  1.1665 -0.5886 -0.9622
 7402SOL     OW33838   3.099   4.234   9.876  0.5560 -0.3617 -0.0639
 7402SOL    HW133839   3.024   4.178   9.856 -0.6277  0.4941  1.9667
 7402SOL    HW233840   3.064   4.291   9.943  1.0755 -1.5076  1.1799
 7403SOL     OW33841   4.606   1.423  16.338  0.2874  0.0067 -0.3313
 7403SOL    HW133842   4.619   1.477  16.260  1.4203 -1.8911 -1.4256
 7403SOL    HW233843   4.565   1.350  16.294 -0.1939  0.4739 -0.6577
 7404SOL     OW33844   0.100   0.532  17.053 -0.1796  0.0836  0.2058
 7404SOL    HW133845   0.121   0.522  17.146  0.4374 -0.9552 -0.0473
 7404SOL    HW233846   0.014   0.572  17.066 -1.1690 -2.8387  2.5756
 7405SOL     OW33847   4.009   0.520  12.177 -0.4276  0.2476 -0.8679
 7405SOL    HW133848   3.955   0.457  12.225  0.5550  0.1655  0.1298
 7405SOL    HW233849   4.098   0.486  12.184 -0.8262 -0.3949  1.0235
 7406SOL     OW33850   1.636   0.024   1.140 -0.5401  0.1119 -0.7048
 7406SOL    HW133851   1.668   4.687   1.091  1.4256  0.1681  0.4771
 7406SOL    HW233852   1.712   0.036   1.197 -2.2368 -0.4009  1.6798
 7407SOL     OW33853   3.201   1.065   8.383  0.2271 -0.5269  0.4380
 7407SOL    HW133854   3.235   1.085   8.470  0.0560 -1.6809  0.7805
 7407SOL    HW233855   3.232   0.977   8.361  1.9431  0.3547 -0.6343
 7408SOL     OW33856   2.637   4.166   5.844  0.4403 -0.3989 -0.7295
 7408SOL    HW133857   2.621   4.181   5.751 -2.0419  2.3804  0.1382
 7408SOL    HW233858   2.628   4.070   5.844 -0.7832 -0.2707 -3.4881
 7409SOL     OW33859   1.567   1.857   6.600 -0.4539  0.4176 -0.0201
 7409SOL    HW133860   1.548   1.842   6.508 -0.5017  0.7089 -0.0561
 7409SOL    HW233861   1.548   1.950   6.608  0.4570  0.4939  1.3944
 7410SOL     OW33862   3.225   3.329   3.802  0.4259  0.1809 -0.0193
 7410SOL    HW133863   3.242   3.357   3.712 -0.5552  1.5001  0.2033
 7410SOL    HW233864   3.311   3.289   3.812  1.2893  2.3514  1.3392
 7411SOL     OW33865   0.268   2.932   9.374 -0.1780 -0.0080  0.7451
 7411SOL    HW133866   0.349   2.890   9.401  0.0706 -1.4394 -2.2610
 7411SOL    HW233867   0.238   2.978   9.453 -0.6156 -1.2627  1.3186
 7412SOL     OW33868   4.259   4.036   9.659 -0.7925 -0.0189  0.8016
 7412SOL    HW133869   4.216   3.994   9.584 -0.8786  2.2215 -0.4151
 7412SOL    HW233870   4.335   4.075   9.615 -0.7231 -2.5045 -1.2543
 7413SOL     OW33871   2.937   2.788   9.794 -0.3482  0.2179 -0.2761
 7413SOL    HW133872   2.924   2.859   9.732 -0.6866 -0.6165 -1.1577
 7413SOL    HW233873   2.890   2.717   9.751 -0.9866  0.0124  0.7479
 7414SOL     OW33874   2.306   1.707  14.500  0.0632 -0.0162  0.5961
 7414SOL    HW133875   2.225   1.657  14.508  1.0833 -1.6271  0.8551
 7414SOL    HW233876   2.295   1.764  14.424 -2.0174  0.1652  1.0372
 7415SOL     OW33877   2.856   0.169   8.910  0.5549  0.4263 -0.0088
 7415SOL    HW133878   2.908   0.110   8.856 -0.0236 -0.4560  0.3993
 7415SOL    HW233879   2.814   0.223   8.843  3.0239 -0.5663 -2.3339
 7416SOL     OW33880   0.265   4.605  12.008  0.0415 -0.6119 -0.6003
 7416SOL    HW133881   0.267   4.642  12.097  2.5373  0.8712 -1.2767
 7416SOL    HW233882   0.170   4.597  12.001  0.0082 -0.0248 -0.8671
 7417SOL     OW33883   2.614   4.472   1.290  0.5095  0.2820  0.1421
 7417SOL    HW133884   2.670   4.518   1.352  1.2159 -0.3675 -0.0184
 7417SOL    HW233885   2.560   4.544   1.257  0.6468 -0.7133 -2.2371
 7418SOL     OW33886   2.057   3.481   8.841  0.2282  0.5436  0.1035
 7418SOL    HW133887   2.016   3.554   8.795  3.7341  1.6536 -1.2573
 7418SOL    HW233888   1.985   3.419   8.852  0.1267  0.7470  0.5757
 7419SOL     OW33889   4.492   1.828   4.754 -0.8395 -0.3339 -0.1083
 7419SOL    HW133890   4.500   1.915   4.713 -2.0009 -0.2411 -0.1392
 7419SOL    HW233891   4.485   1.777   4.673 -0.9607 -1.1606  0.4278
 7420SOL     OW33892   1.356   2.260   6.355 -0.2344 -0.6213  0.3229
 7420SOL    HW133893   1.419   2.210   6.406  1.2510  0.1401 -0.7516
 7420SOL    HW233894   1.403   2.256   6.271  1.5527 -0.8493  1.3322
 7421SOL     OW33895   0.141   3.410   2.356  0.5767  0.4159  0.7684
 7421SOL    HW133896   0.103   3.322   2.364 -0.2829  0.5085 -2.4237
 7421SOL    HW233897   0.140   3.424   2.261  0.1478  0.4300  0.7731
 7422SOL     OW33898   3.654   0.643   7.416 -0.3064 -0.3713 -0.5803
 7422SOL    HW133899   3.619   0.554   7.420  0.4690 -0.6441  0.1876
 7422SOL    HW233900   3.720   0.641   7.485 -2.0055 -1.1532  1.0284
 7423SOL     OW33901   1.328   3.494  14.635  0.3748 -0.3291 -0.5904
 7423SOL    HW133902   1.266   3.463  14.701  1.2250  0.6179  0.6363
 7423SOL    HW233903   1.412   3.461  14.668  0.2656  2.3732  2.4065
 7424SOL     OW33904   3.974   2.762  17.260 -0.0345  0.3525  0.1005
 7424SOL    HW133905   3.955   2.671  17.240 -0.8341  0.9214 -1.7451
 7424SOL    HW233906   4.069   2.761  17.252  0.0035  1.6457  0.3145
 7425SOL     OW33907   0.973   3.243   8.450  0.1142 -0.0932 -0.1996
 7425SOL    HW133908   1.048   3.290   8.414  0.5276 -0.4679  0.1610
 7425SOL    HW233909   0.903   3.308   8.442  0.0023 -0.2070 -0.1557
 7426SOL     OW33910   1.873   0.231   4.831 -0.1328 -0.1520  0.5122
 7426SOL    HW133911   1.964   0.200   4.827 -0.6790 -1.6547 -0.3366
 7426SOL    HW233912   1.847   0.253   4.741 -3.5776  1.5419  1.9245
 7427SOL     OW33913   1.310   3.291   5.699  0.0402  0.5950 -0.2821
 7427SOL    HW133914   1.234   3.315   5.751 -0.0942  1.4575 -0.8672
 7427SOL    HW233915   1.269   3.293   5.612 -0.3981  1.1163 -0.0582
 7428SOL     OW33916   0.984   4.124  12.232  0.1536  0.0026 -0.1010
 7428SOL    HW133917   1.025   4.203  12.268  1.1847  0.0605 -1.3941
 7428SOL    HW233918   1.058   4.094  12.179  0.7145  1.4711 -0.1718
 7429SOL     OW33919   0.943   1.010   9.587  0.1707 -0.6168 -0.0017
 7429SOL    HW133920   0.882   0.994   9.515  0.2457 -0.3945 -0.1185
 7429SOL    HW233921   0.919   1.102   9.601 -0.3241 -0.7156 -0.1958
 7430SOL     OW33922   4.103   0.808  12.797 -0.5283  0.0666 -0.3474
 7430SOL    HW133923   4.111   0.809  12.893  0.0800  1.8002 -0.4172
 7430SOL    HW233924   4.186   0.852  12.778  0.5974 -1.0947  1.8484
 7431SOL     OW33925   1.892   3.283   3.318  0.1041  0.0682 -0.0240
 7431SOL    HW133926   1.967   3.339   3.338  0.6865 -0.1095 -1.7589
 7431SOL    HW233927   1.906   3.215   3.383 -0.1739 -0.5647 -0.6311
 7432SOL     OW33928   2.914   3.507   3.506  0.1080 -0.0342  0.2228
 7432SOL    HW133929   2.860   3.459   3.567 -2.3606  0.4050 -1.6062
 7432SOL    HW233930   2.845   3.548   3.453 -1.1088 -0.0581  1.7956
 7433SOL     OW33931   3.273   1.941   2.345 -0.4611  0.1131 -0.3011
 7433SOL    HW133932   3.240   1.948   2.435 -0.9652  0.7276 -0.5345
 7433SOL    HW233933   3.313   1.854   2.341  0.3076  0.3690  1.5719
 7434SOL     OW33934   4.463   2.590   2.580  0.0409 -0.4941  0.0879
 7434SOL    HW133935   4.545   2.636   2.564  1.0000 -1.8004  1.1976
 7434SOL    HW233936   4.486   2.524   2.645 -0.8802 -0.0882  0.8176
 7435SOL     OW33937   2.451   2.228   2.178 -0.1076 -0.4922  0.0674
 7435SOL    HW133938   2.461   2.133   2.163 -1.5050 -0.5252 -0.6347
 7435SOL    HW233939   2.502   2.233   2.259 -0.3703 -0.7167  0.2441
 7436SOL     OW33940   1.306   1.746   3.164  0.3122 -0.6023 -0.0954
 7436SOL    HW133941   1.349   1.801   3.229  0.1665  0.3271 -0.7829
 7436SOL    HW233942   1.255   1.812   3.117 -1.0884  0.1022  2.4325
 7437SOL     OW33943   2.293   4.352  16.636  0.3215 -0.5641 -0.3902
 7437SOL    HW133944   2.340   4.385  16.712 -0.3163  0.8521 -0.6137
 7437SOL    HW233945   2.275   4.432  16.587 -2.8439 -1.3509 -0.5176
 7438SOL     OW33946   1.200   1.784   1.181  0.2319  0.7594  0.2716
 7438SOL    HW133947   1.171   1.758   1.094 -0.8438 -0.0129  0.8592
 7438SOL    HW233948   1.139   1.850   1.213 -0.4467  0.2914 -0.0491
 7439SOL     OW33949   2.530   0.553   2.755 -0.1747  0.7189  0.3102
 7439SOL    HW133950   2.511   0.586   2.667  0.6236  0.2366 -0.0397
 7439SOL    HW233951   2.523   0.633   2.808 -1.4539 -0.3239  1.7043
 7440SOL     OW33952   2.479   0.550   4.481  0.0336  0.5027  0.1420
 7440SOL    HW133953   2.535   0.537   4.558  2.4157 -1.1343 -1.8659
 7440SOL    HW233954   2.496   0.477   4.421  0.8772 -0.4039  1.4696
 7441SOL     OW33955   3.442   0.482   8.368  0.2671  0.9338  0.4719
 7441SOL    HW133956   3.358   0.436   8.376  0.4507  0.5192  0.0330
 7441SOL    HW233957   3.447   0.467   8.273 -0.5443  2.2916  0.2019
 7442SOL     OW33958   3.551   3.582  17.619 -0.2432 -0.1368  0.6179
 7442SOL    HW133959   3.594   3.575  17.704 -1.2730 -0.2576  1.1242
 7442SOL    HW233960   3.490   3.508  17.617 -0.5784  0.1292  1.1096
 7443SOL     OW33961   0.115   0.393   1.664 -0.0512  0.4662  0.4516
 7443SOL    HW133962   0.027   0.419   1.636 -1.2853 -3.3260  0.8721
 7443SOL    HW233963   0.090   0.323   1.724  1.0435 -2.6757 -2.7469
 7444SOL     OW33964   0.572   3.527   0.777 -0.1792 -0.6359 -0.5569
 7444SOL    HW133965   0.524   3.450   0.806 -0.6885 -0.4628 -0.9373
 7444SOL    HW233966   0.512   3.561   0.710 -0.3391 -1.4984 -0.8612
 7445SOL     OW33967   4.718   3.178  17.438  0.2185  0.0101 -0.0153
 7445SOL    HW133968   4.642   3.222  17.477  1.2771 -1.0707  3.2639
 7445SOL    HW233969   4.712   3.214  17.350  2.4781  0.8060  0.1700
 7446SOL     OW33970   0.280   0.507   4.058 -0.4940 -0.1048  0.5652
 7446SOL    HW133971   0.233   0.590   4.074  0.4831 -0.0690  3.2689
 7446SOL    HW233972   0.210   0.442   4.045 -1.1136  0.9366 -1.2522
 7447SOL     OW33973   0.329   3.943   8.716 -0.5084  0.0216 -0.4618
 7447SOL    HW133974   0.356   3.892   8.792 -0.0606 -0.7772 -1.1620
 7447SOL    HW233975   0.233   3.937   8.712 -0.3410 -1.3931 -2.0835
 7448SOL     OW33976   0.849   4.556   8.437  0.8661 -0.0005  0.5383
 7448SOL    HW133977   0.940   4.585   8.427  0.2142  1.5074 -1.0393
 7448SOL    HW233978   0.853   4.503   8.358  1.0825  2.7768 -1.3120
 7449SOL     OW33979   3.643   3.288  15.097 -1.0050 -0.6533  0.4873
 7449SOL    HW133980   3.623   3.206  15.052  0.4426 -0.3423 -0.7245
 7449SOL    HW233981   3.640   3.338  15.016  1.9840  1.3301  1.5987
 7450SOL     OW33982   2.241   3.171   6.469  0.0534  0.1237  0.0703
 7450SOL    HW133983   2.289   3.088   6.478 -0.0527  0.2902  2.2976
 7450SOL    HW233984   2.282   3.214   6.394 -0.1349 -0.5527 -0.4168
 7451SOL     OW33985   0.108   0.395   5.210  0.3127 -0.0074 -0.4206
 7451SOL    HW133986   0.040   0.450   5.171  0.2925 -0.0484 -0.4437
 7451SOL    HW233987   0.051   0.321   5.231 -1.3849  1.8952  1.7212
 7452SOL     OW33988   0.331   4.686  11.151  0.2451  0.2365 -0.2164
 7452SOL    HW133989   0.275   4.648  11.083 -2.2213  0.3340  1.7632
 7452SOL    HW233990   0.269   4.712  11.219  0.0354 -0.3239 -0.1933
 7453SOL     OW33991   0.427   1.727  10.537  0.8065 -0.1815 -0.2830
 7453SOL    HW133992   0.332   1.720  10.548  0.9441 -0.2538  0.8836
 7453SOL    HW233993   0.464   1.667  10.602  2.5493  0.4873 -0.6415
 7454SOL     OW33994   0.597   1.712   7.250  0.2936  0.1022  0.2156
 7454SOL    HW133995   0.572   1.707   7.157  0.1221  0.9450  0.2228
 7454SOL    HW233996   0.550   1.793   7.270 -1.2631 -1.1144  1.5032
 7455SOL     OW33997   3.611   3.613  17.065  0.0895 -0.2645  0.0411
 7455SOL    HW133998   3.600   3.678  17.134 -0.2465  0.4147 -0.6468
 7455SOL    HW233999   3.695   3.631  17.023 -0.1297 -0.5536 -0.5176
 7456SOL     OW34000   1.961   0.816  12.580  0.1489  0.2483  0.0707
 7456SOL    HW134001   1.897   0.799  12.511 -0.4319 -0.8202  0.8825
 7456SOL    HW234002   1.962   0.911  12.595 -0.1528  0.2165  0.2853
 7457SOL     OW34003   0.792   2.424   6.230 -0.0981  0.0620 -0.3410
 7457SOL    HW134004   0.737   2.503   6.232  1.3334  1.0933 -1.3488
 7457SOL    HW234005   0.850   2.453   6.300 -1.2073 -1.3458  1.1607
 7458SOL     OW34006   2.550   2.575   6.516 -0.0196 -0.1936  0.0095
 7458SOL    HW134007   2.518   2.665   6.505  1.8198  0.1557 -2.3337
 7458SOL    HW234008   2.582   2.567   6.426  0.1533  2.0677 -0.1151
 7459SOL     OW34009   0.130   2.676   8.397  0.3872 -0.0220 -0.0308
 7459SOL    HW134010   0.039   2.657   8.419  0.3810  0.0818  0.0293
 7459SOL    HW234011   0.135   2.701   8.304  0.5710 -1.0564 -0.2976
 7460SOL     OW34012   1.292   4.721   4.020 -0.3042  0.5107 -0.4479
 7460SOL    HW134013   1.219   0.033   4.056 -0.4417 -1.6983  2.4254
 7460SOL    HW234014   1.237   4.646   3.999  0.3628 -0.0624 -0.1237
 7461SOL     OW34015   3.018   0.580   2.150  0.1686 -0.2259 -0.2755
 7461SOL    HW134016   3.091   0.518   2.152  0.2272 -0.2007 -1.4199
 7461SOL    HW234017   2.958   0.527   2.096  1.5646 -1.1474 -0.9386
 7462SOL     OW34018   4.365   2.013   8.125  0.1234  0.1406  0.0384
 7462SOL    HW134019   4.447   1.997   8.078  1.2139 -0.6476  2.1908
 7462SOL    HW234020   4.310   2.055   8.059 -0.2134 -0.2865  0.0466
 7463SOL     OW34021   2.622   3.896   5.773  0.6734  0.8148 -0.1477
 7463SOL    HW134022   2.543   3.888   5.720 -0.1328  1.5710  0.9539
 7463SOL    HW234023   2.692   3.841   5.736 -1.5373 -1.2812 -1.1732
 7464SOL     OW34024   4.115   3.927   6.244  0.1351  0.2346  0.4084
 7464SOL    HW134025   4.117   4.020   6.224  0.9578 -0.4781 -2.8306
 7464SOL    HW234026   4.139   3.931   6.337  0.5204 -1.5598  0.3975
 7465SOL     OW34027   0.594   1.040   8.599 -0.7300 -0.1228 -0.1116
 7465SOL    HW134028   0.519   0.981   8.596 -2.6583  2.2153  1.9587
 7465SOL    HW234029   0.571   1.098   8.672  2.1330  0.7171  0.1102
 7466SOL     OW34030   1.144   0.175   5.470 -0.2410  0.0390 -0.4337
 7466SOL    HW134031   1.067   0.120   5.460 -2.0361  2.4646  0.0642
 7466SOL    HW234032   1.169   0.135   5.553  3.9613 -0.8500 -2.1083
 7467SOL     OW34033   3.094   0.113   2.157 -0.0967  0.1111  0.4273
 7467SOL    HW134034   3.011   0.074   2.128  0.4449 -0.2595 -0.6110
 7467SOL    HW234035   3.112   0.050   2.226 -0.2462 -2.3432 -1.7608
 7468SOL     OW34036   4.402   2.816   9.661 -0.0165  0.3993  0.5709
 7468SOL    HW134037   4.356   2.753   9.717  3.2028 -0.7588  1.8747
 7468SOL    HW234038   4.441   2.883   9.716  1.9722 -0.4522  0.1787
 7469SOL     OW34039   1.043   0.545   8.480  0.1528  0.3954  0.3818
 7469SOL    HW134040   1.077   0.631   8.456  0.5631  0.4730  1.2382
 7469SOL    HW234041   1.086   0.524   8.562  0.8371 -2.3273 -0.6852
 7470SOL     OW34042   3.183   1.921   5.470 -0.6413  0.1357 -0.2272
 7470SOL    HW134043   3.224   1.864   5.405 -1.0979  1.6646 -1.8336
 7470SOL    HW234044   3.098   1.918   5.426 -0.9987  0.9326  0.4032
 7471SOL     OW34045   1.390   3.669   9.265  0.4176 -0.2403 -0.0257
 7471SOL    HW134046   1.310   3.684   9.215  1.0840  2.4771 -0.2456
 7471SOL    HW234047   1.369   3.592   9.317  1.1256  0.0053  0.6238
 7472SOL     OW34048   1.592   0.961  17.054  0.4110 -1.0007 -0.2116
 7472SOL    HW134049   1.633   0.902  17.117  1.5922 -2.0350 -1.9414
 7472SOL    HW234050   1.668   1.009  17.020  0.4309 -1.3731 -0.6798
 7473SOL     OW34051   4.553   2.148  12.569 -0.1449 -0.2779 -0.0408
 7473SOL    HW134052   4.519   2.159  12.480 -1.8848 -0.6203  0.5819
 7473SOL    HW234053   4.625   2.085  12.565  1.0723  1.1593 -0.7382
 7474SOL     OW34054   4.166   3.080   6.978  0.0770  0.1416  0.1715
 7474SOL    HW134055   4.194   3.040   7.060 -3.1289 -2.2267  0.1031
 7474SOL    HW234056   4.190   3.006   6.922 -0.2348  0.3523 -0.2357
 7475SOL     OW34057   3.070   0.988   4.222 -1.2965 -0.2888 -0.1255
 7475SOL    HW134058   3.073   0.985   4.318  3.6394 -2.0480 -0.3245
 7475SOL    HW234059   3.105   0.905   4.189 -2.1212 -1.4757  2.0038
 7476SOL     OW34060   0.939   0.758   4.714 -0.1628  0.0101 -0.2742
 7476SOL    HW134061   0.900   0.717   4.637 -2.8747  0.2552  0.9531
 7476SOL    HW234062   1.022   0.710   4.713 -0.6553 -0.8616  0.4994
 7477SOL     OW34063   1.688   1.592   1.239 -0.3049  0.3705 -0.2930
 7477SOL    HW134064   1.728   1.609   1.324 -1.1789  0.7525  0.0498
 7477SOL    HW234065   1.634   1.671   1.232 -3.2709 -1.6163  0.4677
 7478SOL     OW34066   4.170   2.968   4.228 -0.1342  0.3557 -0.3559
 7478SOL    HW134067   4.094   3.017   4.195 -0.3490 -0.1266 -0.5843
 7478SOL    HW234068   4.190   2.914   4.151 -2.0892 -1.3548  0.3386
 7479SOL     OW34069   0.605   3.122  14.689  0.7995  0.6410  0.2670
 7479SOL    HW134070   0.686   3.148  14.645  2.1827 -2.2925  1.0732
 7479SOL    HW234071   0.610   3.179  14.765 -2.4309 -0.9109  1.6499
 7480SOL     OW34072   0.544   4.210   4.889  0.0491 -0.0522 -0.7149
 7480SOL    HW134073   0.586   4.130   4.922  0.9186 -0.2080 -2.2107
 7480SOL    HW234074   0.612   4.276   4.905 -0.5680  0.9366 -2.1999
 7481SOL     OW34075   2.544   2.230   4.574 -0.0063 -0.3661 -0.5910
 7481SOL    HW134076   2.525   2.180   4.495  0.3612 -0.2693 -0.7378
 7481SOL    HW234077   2.480   2.301   4.566  0.5243  0.0487 -1.1140
 7482SOL     OW34078   3.501   0.574   9.199  0.2713 -0.0642  0.1231
 7482SOL    HW134079   3.535   0.568   9.289  0.4652  0.5628  0.0882
 7482SOL    HW234080   3.439   0.501   9.198 -2.1956  2.0876 -1.2587
 7483SOL     OW34081   0.864   3.041   5.884 -0.0462  0.1887 -0.1123
 7483SOL    HW134082   0.896   3.091   5.959 -3.0821  0.7236  0.8421
 7483SOL    HW234083   0.840   3.106   5.819 -1.1524  0.4190  0.5144
 7484SOL     OW34084   1.052   1.798   5.387  0.4745 -0.3832 -0.6574
 7484SOL    HW134085   1.048   1.784   5.482  0.9382 -0.2728 -0.6208
 7484SOL    HW234086   1.074   1.711   5.354 -1.3777 -1.2195  0.3466
 7485SOL     OW34087   0.714   3.967   7.546 -0.3426  0.8399  0.1619
 7485SOL    HW134088   0.677   4.031   7.486 -2.8222  1.4947  2.3967
 7485SOL    HW234089   0.693   3.887   7.499 -2.2096  0.6701  1.2876
 7486SOL     OW34090   3.464   3.608  10.204 -0.3121 -0.0968 -0.0761
 7486SOL    HW134091   3.514   3.551  10.263  0.6517 -0.0805 -0.8864
 7486SOL    HW234092   3.382   3.629  10.248 -0.2982 -0.0757 -0.0596
 7487SOL     OW34093   1.544   2.958  11.962 -0.0745  0.1970  0.2169
 7487SOL    HW134094   1.560   2.953  11.868  0.4857 -0.8691  0.3670
 7487SOL    HW234095   1.514   3.049  11.960  1.6288  0.7481 -0.1489
 7488SOL     OW34096   3.888   2.189   4.924  0.1522  0.2455 -0.1364
 7488SOL    HW134097   3.965   2.155   4.879  1.4285  0.1112  2.1568
 7488SOL    HW234098   3.847   2.225   4.845 -1.4743 -0.7352  0.2634
 7489SOL     OW34099   1.278   0.134   5.216  0.0882 -0.0688 -0.8338
 7489SOL    HW134100   1.202   0.105   5.267  0.3972  0.2113 -0.2162
 7489SOL    HW234101   1.246   0.220   5.186  0.8937 -0.0824 -1.7458
 7490SOL     OW34102   4.130   0.350  14.789 -0.1647 -0.0538 -1.1136
 7490SOL    HW134103   4.034   0.347  14.780 -0.2565 -0.9214  0.2091
 7490SOL    HW234104   4.153   0.310  14.705  1.3786 -0.3807 -0.5166
 7491SOL     OW34105   4.570   4.468   3.637  0.3885 -0.2276  0.4643
 7491SOL    HW134106   4.609   4.554   3.646 -0.9945  0.3585  0.8051
 7491SOL    HW234107   4.540   4.452   3.726  0.7875 -0.2821  0.5886
 7492SOL     OW34108   0.457   4.729  16.089  0.0414 -0.5528 -0.5143
 7492SOL    HW134109   0.440   0.016  15.998 -2.6465  1.4546  0.5539
 7492SOL    HW234110   0.490   0.079  16.102  0.5860 -0.5989 -1.6074
 7493SOL     OW34111   3.511   2.645   0.089 -0.2124  0.1018 -0.0834
 7493SOL    HW134112   3.564   2.599   0.154  1.3794 -2.3062 -3.0496
 7493SOL    HW234113   3.469   2.715   0.138  0.7787  2.2795 -2.3152
 7494SOL     OW34114   1.708   3.232   4.132 -0.7891  0.0947 -0.0828
 7494SOL    HW134115   1.657   3.189   4.064 -1.5215 -0.9521  1.1403
 7494SOL    HW234116   1.686   3.323   4.111 -0.2346  0.1461 -0.4439
 7495SOL     OW34117   4.095   1.451   2.995  0.3151  0.1327 -0.1437
 7495SOL    HW134118   4.126   1.360   2.996 -2.3081 -0.7678  0.1002
 7495SOL    HW234119   4.005   1.427   2.971  0.5752 -0.4526 -0.5585
 7496SOL     OW34120   3.761   4.549   6.551  0.1439  0.0887 -0.3069
 7496SOL    HW134121   3.837   4.595   6.514 -0.3682  2.9173  2.1396
 7496SOL    HW234122   3.721   4.613   6.610  2.9927  1.7367 -0.1361
 7497SOL     OW34123   2.765   2.936   4.215 -0.0194 -0.4343  0.2385
 7497SOL    HW134124   2.842   2.963   4.265  0.3904  0.4558 -0.8747
 7497SOL    HW234125   2.702   2.911   4.283  0.1419  0.2450  0.6451
 7498SOL     OW34126   3.565   1.361   5.732 -0.0031  0.4825 -0.3486
 7498SOL    HW134127   3.509   1.285   5.720 -2.4606  2.0484  1.2192
 7498SOL    HW234128   3.605   1.345   5.646  1.0226  3.2049 -0.3811
 7499SOL     OW34129   0.554   4.062   6.664 -0.5333 -0.3915 -0.0960
 7499SOL    HW134130   0.570   4.156   6.660 -2.6849 -0.0908 -1.6673
 7499SOL    HW234131   0.639   4.029   6.638 -0.1456  1.1346 -0.7557
 7500SOL     OW34132   1.077   0.549   5.981  0.5600  0.0392 -0.5025
 7500SOL    HW134133   1.093   0.542   5.887 -2.1355  0.6105 -1.0141
 7500SOL    HW234134   1.009   0.616   5.986 -0.0901 -0.6259 -0.2627
 7501SOL     OW34135   3.119   3.381   5.408  0.2404  0.0521 -0.9160
 7501SOL    HW134136   3.182   3.454   5.402  0.5733 -0.1659  0.0080
 7501SOL    HW234137   3.156   3.303   5.448  0.4646 -0.3153 -1.8414
 7502SOL     OW34138   0.959   2.294  12.440  0.1547 -0.0116  0.4776
 7502SOL    HW134139   0.958   2.210  12.393 -0.1763  0.7089 -0.7996
 7502SOL    HW234140   1.029   2.340  12.393 -0.1799  0.9711  0.9527
 7503SOL     OW34141   4.567   4.507   2.627 -0.9649  0.5024  0.0870
 7503SOL    HW134142   4.593   4.477   2.714  2.1329  1.4076 -0.5085
 7503SOL    HW234143   4.643   4.557   2.596 -2.0184  1.6093 -0.7201
 7504SOL     OW34144   3.724   2.852  17.702 -0.5326  0.1355  0.1885
 7504SOL    HW134145   3.782   2.876  17.630 -2.8573  0.4398 -1.5740
 7504SOL    HW234146   3.678   2.773  17.674  0.9213 -0.1680 -1.3496
 7505SOL     OW34147   3.344   2.860   5.934 -0.1577  0.0412  0.0057
 7505SOL    HW134148   3.389   2.896   5.858  0.4796 -0.7927 -0.0041
 7505SOL    HW234149   3.320   2.771   5.908  1.4025 -0.0691 -1.0461
 7506SOL     OW34150   4.578   4.285   6.702  0.8767  0.6417 -0.4033
 7506SOL    HW134151   4.638   4.212   6.699 -2.0730 -1.6960 -3.1067
 7506SOL    HW234152   4.508   4.245   6.650 -0.1737  1.1590  0.5964
 7507SOL     OW34153   1.595   4.036  12.985 -0.4762 -0.1095  0.4145
 7507SOL    HW134154   1.652   4.062  13.058  0.9205 -1.2833 -0.2537
 7507SOL    HW234155   1.608   3.941  12.980  2.8473  0.3869 -0.3658
 7508SOL     OW34156   1.764   2.482   8.732  0.2419 -0.9171 -0.7931
 7508SOL    HW134157   1.844   2.513   8.775 -1.5390  0.0486  1.8163
 7508SOL    HW234158   1.728   2.554   8.679  1.2885 -0.6527 -1.1608
 7509SOL     OW34159   3.037   2.871  13.335  0.3958 -0.6426  0.3496
 7509SOL    HW134160   3.064   2.915  13.416 -2.0852  1.2411  0.1605
 7509SOL    HW234161   3.113   2.891  13.280 -0.8910  0.8969 -0.8399
 7510SOL     OW34162   0.188   3.981   2.309 -0.3555  0.0020  0.5942
 7510SOL    HW134163   0.195   3.889   2.334  0.2121 -0.5210 -1.4639
 7510SOL    HW234164   0.177   3.965   2.215 -0.6533  0.7718  0.4977
 7511SOL     OW34165   0.641   2.960  11.012 -0.3625  0.5900 -0.1600
 7511SOL    HW134166   0.718   2.972  10.956 -1.1376  0.9860 -1.1307
 7511SOL    HW234167   0.604   3.048  10.999  0.4526  0.9946  0.2375
 7512SOL     OW34168   3.502   2.148   3.298  0.2353  0.1927  0.1081
 7512SOL    HW134169   3.587   2.140   3.341 -0.3816 -1.0434  1.0946
 7512SOL    HW234170   3.446   2.189   3.364  1.8655  0.2412  1.4373
 7513SOL     OW34171   0.973   2.282   2.454 -0.3170 -0.4481  0.3164
 7513SOL    HW134172   0.986   2.234   2.372 -1.0196 -1.4457  0.7864
 7513SOL    HW234173   1.043   2.346   2.438 -0.9991 -0.5240 -2.8813
 7514SOL     OW34174   1.914   2.560  11.574 -0.6630 -0.3585 -0.0176
 7514SOL    HW134175   1.838   2.585  11.628  0.6701  1.2649  1.1403
 7514SOL    HW234176   1.969   2.553  11.652 -0.0937  0.0443 -0.3812
 7515SOL     OW34177   1.688   1.858   2.551  0.0094 -0.2635 -0.2324
 7515SOL    HW134178   1.621   1.883   2.616  0.6694  0.3961  0.1937
 7515SOL    HW234179   1.704   1.772   2.589  2.2946 -0.1307 -0.9035
 7516SOL     OW34180   2.325   2.038  11.386 -0.2095 -0.2975  0.1675
 7516SOL    HW134181   2.375   1.962  11.355 -1.7425 -0.9613 -0.6971
 7516SOL    HW234182   2.361   2.053  11.473 -1.8026 -0.9539  0.9383
 7517SOL     OW34183   1.128   1.207   6.979 -0.1787 -0.1436  0.2572
 7517SOL    HW134184   1.190   1.177   7.046 -0.3726  1.1615  1.0365
 7517SOL    HW234185   1.184   1.206   6.902  0.1470  0.5564  0.4802
 7518SOL     OW34186   4.456   1.757   2.521  0.1313  0.7011 -0.7915
 7518SOL    HW134187   4.491   1.744   2.609 -0.2306 -0.0196 -0.7595
 7518SOL    HW234188   4.363   1.778   2.528  0.7197  2.5886  1.2451
 7519SOL     OW34189   4.076   3.872  10.849 -0.4754 -0.5497  0.1669
 7519SOL    HW134190   4.093   3.829  10.933  0.4171  0.3973  0.4684
 7519SOL    HW234191   3.985   3.848  10.830 -0.6538  0.1980  0.0965
 7520SOL     OW34192   3.642   2.710  16.387  0.3211 -0.0087  0.1499
 7520SOL    HW134193   3.589   2.735  16.311 -0.1889  1.0346  0.8427
 7520SOL    HW234194   3.575   2.674  16.445  1.5608 -0.9363  1.0045
 7521SOL     OW34195   0.869   1.848   6.074 -0.2204  0.2268  0.3038
 7521SOL    HW134196   0.892   1.866   6.165  0.3501  0.9672  0.0147
 7521SOL    HW234197   0.926   1.774   6.053  0.1447  0.6218 -0.1144
 7522SOL     OW34198   3.908   3.049   3.037  0.6064 -0.6223  0.5194
 7522SOL    HW134199   3.937   2.965   3.002  0.5183 -0.7259  0.7013
 7522SOL    HW234200   3.890   3.091   2.952 -2.0112 -2.0678  0.3862
 7523SOL     OW34201   1.855   2.178  10.013  0.2419  0.4617 -0.2174
 7523SOL    HW134202   1.829   2.141  10.098 -0.8432  0.2984 -0.6216
 7523SOL    HW234203   1.824   2.109   9.955  0.1847 -0.4917  0.9427
 7524SOL     OW34204   4.441   0.139   3.061  0.1240  0.4003  0.2689
 7524SOL    HW134205   4.522   0.093   3.081 -0.7062 -0.9970  0.4079
 7524SOL    HW234206   4.452   0.207   3.128 -2.2430  0.1101  0.9543
 7525SOL     OW34207   0.846   1.962   3.195  0.4337 -0.8039  0.2203
 7525SOL    HW134208   0.869   1.878   3.154  1.5757 -1.5936  2.4897
 7525SOL    HW234209   0.751   1.959   3.188  0.4467  0.5088 -0.5316
 7526SOL     OW34210   3.262   1.319  13.299  0.4405 -0.2927 -0.1772
 7526SOL    HW134211   3.243   1.397  13.351 -0.4195  0.1413 -1.1294
 7526SOL    HW234212   3.299   1.258  13.363 -1.7280 -1.2521  0.1789
 7527SOL     OW34213   1.463   3.861   9.080 -0.2624 -0.6944 -0.5907
 7527SOL    HW134214   1.518   3.913   9.137 -0.3001  1.2192 -2.3010
 7527SOL    HW234215   1.429   3.801   9.146  0.7514 -1.4192 -0.7149
 7528SOL     OW34216   2.641   0.531   8.610 -0.2044 -0.4353  0.0177
 7528SOL    HW134217   2.588   0.583   8.549 -0.1621  0.2152  0.5371
 7528SOL    HW234218   2.642   0.588   8.687  2.0491  1.8660 -1.6993
 7529SOL     OW34219   3.609   2.864   6.643 -0.1068 -0.2362 -0.2379
 7529SOL    HW134220   3.517   2.869   6.670 -0.4765 -0.0867 -1.5145
 7529SOL    HW234221   3.600   2.772   6.618  1.6847 -0.4962  0.0913
 7530SOL     OW34222   3.737   1.061  17.718  0.4880  0.0248  0.6110
 7530SOL    HW134223   3.771   1.147  17.742 -1.7425  0.3863  2.4076
 7530SOL    HW234224   3.781   1.012   0.036  2.8548  1.2570 -0.0316
 7531SOL     OW34225   0.998   3.329   4.445  0.4526  0.1676  0.1068
 7531SOL    HW134226   1.018   3.273   4.370  1.2121  0.5590  0.0158
 7531SOL    HW234227   1.049   3.288   4.515 -1.8262 -0.4516  1.4052
 7532SOL     OW34228   4.278   3.195   7.715 -0.2519 -0.3946 -0.0260
 7532SOL    HW134229   4.368   3.225   7.727 -0.1671 -1.6001  2.3908
 7532SOL    HW234230   4.278   3.100   7.726  1.1575 -0.1436  2.0940
 7533SOL     OW34231   0.046   3.842   8.195  0.3167 -0.0567  0.1225
 7533SOL    HW134232   0.014   3.755   8.219  2.1935 -0.3938  1.4243
 7533SOL    HW234233   4.703   3.885   8.169  0.7636  1.8544  1.8759
 7534SOL     OW34234   0.181   2.044   4.645  0.2880  0.3511 -0.3288
 7534SOL    HW134235   0.168   1.957   4.683 -1.8768  1.4058  1.3581
 7534SOL    HW234236   0.233   2.078   4.718 -0.3893 -1.3398  0.9563
 7535SOL     OW34237   1.267   4.344  12.501  0.3655  0.8234 -0.1073
 7535SOL    HW134238   1.240   4.309  12.586 -1.3705  1.8832 -0.2363
 7535SOL    HW234239   1.322   4.279  12.458  1.3550 -0.0533  2.4538
 7536SOL     OW34240   4.100   3.134   7.506  0.4727  0.1997  0.0831
 7536SOL    HW134241   4.165   3.158   7.571 -0.7589  2.9884  0.2598
 7536SOL    HW234242   4.021   3.142   7.559  0.4740  0.5099  0.0375
 7537SOL     OW34243   2.183   2.162   1.645 -0.0032  0.3419  0.5728
 7537SOL    HW134244   2.187   2.120   1.559 -0.9814  1.7947 -0.1678
 7537SOL    HW234245   2.173   2.252   1.616  0.4322  0.4826  0.8580
 7538SOL     OW34246   2.078   2.929   5.324  0.1636  0.1351 -0.3028
 7538SOL    HW134247   2.083   2.843   5.281  2.0871  0.5202 -0.8332
 7538SOL    HW234248   2.045   2.897   5.408  0.8416 -0.9146 -0.4280
 7539SOL     OW34249   2.881   0.034  11.382  0.0676  0.7656 -0.1439
 7539SOL    HW134250   2.793   0.038  11.346 -0.4509  1.1599  1.1580
 7539SOL    HW234251   2.863   4.721  11.461 -1.6032  2.0282  0.3020
 7540SOL     OW34252   1.830   1.394   1.062  0.0414  0.2778  0.0347
 7540SOL    HW134253   1.805   1.466   1.120  0.7259  0.8746 -0.4160
 7540SOL    HW234254   1.865   1.337   1.131 -2.6762 -0.8940  0.4530
 7541SOL     OW34255   3.154   3.900  16.049  0.6201 -0.4467 -0.3048
 7541SOL    HW134256   3.207   3.844  15.992  1.5247 -0.1353  0.2328
 7541SOL    HW234257   3.132   3.844  16.122  2.2899 -0.0352  0.5286
 7542SOL     OW34258   2.839   3.814   9.414  0.6641 -0.1078 -0.6206
 7542SOL    HW134259   2.914   3.862   9.380 -0.5911  2.0520 -0.3064
 7542SOL    HW234260   2.868   3.723   9.406  0.4259 -0.0648 -1.8425
 7543SOL     OW34261   3.995   4.319  16.303 -0.2215  0.4334  0.1450
 7543SOL    HW134262   3.900   4.325  16.289 -0.2634 -0.0887  0.2038
 7543SOL    HW234263   4.014   4.232  16.269  2.8491  0.5903  1.5035
 7544SOL     OW34264   0.979   4.537   4.894  0.0143  0.4262  0.2885
 7544SOL    HW134265   1.054   4.564   4.840 -0.3007  2.1454  0.7043
 7544SOL    HW234266   1.002   4.446   4.876  2.3362  0.8499  1.0278
 7545SOL     OW34267   0.550   1.577  10.744  0.7848  0.7191 -0.1445
 7545SOL    HW134268   0.613   1.628  10.797 -1.7921  1.7158  1.9595
 7545SOL    HW234269   0.492   1.547  10.813  1.2588 -3.5359 -1.6388
 7546SOL     OW34270   3.035   3.449   4.884 -0.2971 -0.0617  0.3721
 7546SOL    HW134271   3.002   3.361   4.869 -0.5788 -0.3371  2.5707
 7546SOL    HW234272   3.083   3.465   4.803  0.0613 -1.2294  0.3613
 7547SOL     OW34273   4.620   4.222   8.756 -0.0967 -0.5256  0.5218
 7547SOL    HW134274   4.665   4.178   8.829  0.9696  0.7065  0.6217
 7547SOL    HW234275   4.684   4.291   8.736  0.0820 -0.8913 -0.1583
 7548SOL     OW34276   4.504   2.893   4.735 -0.0734 -0.0829  0.3540
 7548SOL    HW134277   4.467   2.807   4.713  1.0278 -0.2858 -0.6525
 7548SOL    HW234278   4.426   2.947   4.745 -0.9341 -1.2162 -0.1032
 7549SOL     OW34279   2.023   4.609  13.668 -0.1760 -0.5295 -0.1807
 7549SOL    HW134280   1.968   4.585  13.594  1.9531  0.9464 -2.2179
 7549SOL    HW234281   2.075   4.681  13.632 -1.4133  0.5673  0.2134
 7550SOL     OW34282   4.587   4.481   5.829 -0.0457  0.1923  0.0933
 7550SOL    HW134283   4.554   4.466   5.918 -0.2520 -1.2511 -0.2216
 7550SOL    HW234284   4.681   4.489   5.843 -0.1128 -0.8282  1.2060
 7551SOL     OW34285   2.963   3.775   8.356 -0.3239 -0.2830 -0.1504
 7551SOL    HW134286   2.925   3.687   8.345  3.3305 -1.9323  0.5553
 7551SOL    HW234287   2.884   3.825   8.376  0.4699  1.3899 -1.2293
 7552SOL     OW34288   1.245   0.658   1.312 -0.2369 -0.7283 -0.3193
 7552SOL    HW134289   1.183   0.676   1.241  0.3762 -0.2406 -0.7355
 7552SOL    HW234290   1.265   0.566   1.295  0.4209 -0.4351 -1.1385
 7553SOL     OW34291   0.534   4.631   2.889  0.8984  0.4748 -0.2408
 7553SOL    HW134292   0.605   4.647   2.827  1.5689  1.8342  0.8910
 7553SOL    HW234293   0.552   4.687   2.964 -0.8521  1.9544 -0.9117
 7554SOL     OW34294   1.509   1.196  17.225 -0.1168 -0.4036  0.5425
 7554SOL    HW134295   1.533   1.119  17.173  0.9279 -0.5470  1.2243
 7554SOL    HW234296   1.488   1.161  17.311  3.5310 -2.6200  0.5494
 7555SOL     OW34297   0.438   1.441  10.450 -0.1127  0.8352  0.1756
 7555SOL    HW134298   0.464   1.533  10.455  2.2017  0.1442  0.3983
 7555SOL    HW234299   0.523   1.403  10.432  0.8296  1.9561  2.3392
 7556SOL     OW34300   4.327   1.482   5.936  0.3850 -0.0761 -0.3183
 7556SOL    HW134301   4.398   1.503   5.996 -0.0139  2.0888 -0.6135
 7556SOL    HW234302   4.253   1.516   5.987 -0.0877 -0.7166 -0.5658
 7557SOL     OW34303   4.202   1.280   7.460  0.4439 -0.0529 -0.4259
 7557SOL    HW134304   4.175   1.227   7.384 -3.3690  0.2505  0.6963
 7557SOL    HW234305   4.138   1.262   7.529  2.0723 -1.0146  0.8231
 7558SOL     OW34306   1.962   0.855  13.226 -0.5161  0.1664  0.1319
 7558SOL    HW134307   2.026   0.817  13.165  0.6898  1.3522  0.6798
 7558SOL    HW234308   1.876   0.824  13.197 -0.9924  1.4317  0.2085
 7559SOL     OW34309   2.455   1.791   2.991 -0.0738  0.4819  0.1555
 7559SOL    HW134310   2.395   1.739   2.939  1.9126 -0.4213 -1.2452
 7559SOL    HW234311   2.519   1.822   2.926  0.6693 -0.0429  0.6288
 7560SOL     OW34312   0.284   2.230   6.935  0.4397 -0.1259  0.5838
 7560SOL    HW134313   0.286   2.179   7.016 -1.6680 -0.3062  0.5227
 7560SOL    HW234314   0.274   2.317   6.975 -1.7954  0.2813 -0.8598
 7561SOL     OW34315   1.254   3.855   9.656 -0.2526 -0.1975 -0.2854
 7561SOL    HW134316   1.348   3.852   9.672 -0.2548  0.6413 -0.1002
 7561SOL    HW234317   1.226   3.856   9.748 -2.2421  0.6818 -0.9093
 7562SOL     OW34318   4.721   2.602   4.995  0.1966  0.0399 -0.0452
 7562SOL    HW134319   4.636   2.607   4.951 -0.4448  1.3722  1.3618
 7562SOL    HW234320   4.734   2.694   5.016  1.4522  0.0380 -0.8169
 7563SOL     OW34321   3.221   2.869  13.605  0.3485  0.2906  0.3390
 7563SOL    HW134322   3.226   2.959  13.574  0.0999 -0.2656 -1.3303
 7563SOL    HW234323   3.257   2.880  13.693  1.3019  2.8515 -0.3927
 7564SOL     OW34324   0.362   2.566   2.752  0.4909 -0.5634  0.7730
 7564SOL    HW134325   0.391   2.483   2.790  1.5175 -0.5451  0.0322
 7564SOL    HW234326   0.435   2.617   2.788  1.5210  0.4817 -2.7430
 7565SOL     OW34327   1.838   4.241  13.260  0.3817  0.2127  0.3861
 7565SOL    HW134328   1.920   4.275  13.297  0.4623  0.8602 -0.4011
 7565SOL    HW234329   1.774   4.310  13.275  1.0487  0.3909  2.5329
 7566SOL     OW34330   3.366   2.559  15.575 -0.0168 -0.5900 -0.4006
 7566SOL    HW134331   3.347   2.618  15.649 -0.1951 -2.0616  0.7352
 7566SOL    HW234332   3.303   2.489  15.593 -0.1531 -0.5115 -0.5704
 7567SOL     OW34333   0.067   2.562   4.498  0.5042  0.3432 -0.1149
 7567SOL    HW134334   0.055   2.560   4.593 -0.7622 -1.7114 -0.3195
 7567SOL    HW234335   0.152   2.605   4.500 -0.1316  1.6291 -0.2428
 7568SOL     OW34336   0.289   1.864   8.867 -0.9524  0.1133 -0.1418
 7568SOL    HW134337   0.353   1.934   8.881 -1.5850  1.2975 -3.2612
 7568SOL    HW234338   0.258   1.850   8.956  2.1178  1.7549  1.1945
 7569SOL     OW34339   0.767   1.601  11.803 -0.1669  0.1000 -0.0907
 7569SOL    HW134340   0.763   1.637  11.891 -0.6440 -0.5845  0.1608
 7569SOL    HW234341   0.814   1.670  11.755  0.0820  0.9227  1.3529
 7570SOL     OW34342   1.723   1.458   9.537  0.2637 -0.3290  0.1636
 7570SOL    HW134343   1.791   1.420   9.593  0.1978 -0.8603 -0.1093
 7570SOL    HW234344   1.778   1.495   9.468 -1.8910  1.5519 -0.5701
 7571SOL     OW34345   2.361   4.291   1.566 -0.5948 -0.3342 -0.1180
 7571SOL    HW134346   2.400   4.303   1.479 -1.5276  0.2704 -0.4574
 7571SOL    HW234347   2.433   4.243   1.605 -0.3264  0.3861  0.2794
 7572SOL     OW34348   4.734   3.459   5.884  0.6067  0.5910 -0.3462
 7572SOL    HW134349   4.673   3.533   5.877  0.1897  0.2856  0.1044
 7572SOL    HW234350   0.038   3.484   5.966  0.7028  1.7941 -0.7478
 7573SOL     OW34351   0.630   1.488  16.168 -0.0694  0.7251 -0.1137
 7573SOL    HW134352   0.551   1.523  16.209 -0.5905 -1.0177  0.3395
 7573SOL    HW234353   0.664   1.427  16.234 -0.6748  1.7930  1.1922
 7574SOL     OW34354   0.035   0.268   0.605  0.7851  0.1283 -0.1774
 7574SOL    HW134355   0.009   0.203   0.539 -1.0728  1.0055 -0.3086
 7574SOL    HW234356   4.738   0.348   0.565 -0.8878 -0.2501  0.5713
 7575SOL     OW34357   1.473   0.793   6.479  0.1871 -0.2032  0.1752
 7575SOL    HW134358   1.513   0.880   6.483  2.8473 -1.2681 -2.9635
 7575SOL    HW234359   1.380   0.808   6.460  0.4978  2.0680  0.5373
 7576SOL     OW34360   0.536   2.189   7.859 -0.1592  0.3589  0.1417
 7576SOL    HW134361   0.490   2.216   7.779  0.0293 -2.9476 -1.0937
 7576SOL    HW234362   0.466   2.159   7.918 -0.1273  0.7089  0.3576
 7577SOL     OW34363   4.248   4.490  13.530  0.0904  0.4586 -0.0488
 7577SOL    HW134364   4.181   4.536  13.580 -0.3176  0.3018 -0.4407
 7577SOL    HW234365   4.227   4.527  13.444  0.2570  1.1707  0.2169
 7578SOL     OW34366   3.291   1.826   8.353 -0.0324  0.7612  0.4681
 7578SOL    HW134367   3.345   1.787   8.284 -0.3728  1.1683 -0.0279
 7578SOL    HW234368   3.332   1.782   8.427 -0.1239 -0.2253 -0.0646
 7579SOL     OW34369   3.685   2.035   1.610  0.9123  0.4113  0.2797
 7579SOL    HW134370   3.603   1.994   1.638  1.3186  0.6842  1.8852
 7579SOL    HW234371   3.649   2.091   1.541 -1.6249 -0.8570  0.5519
 7580SOL     OW34372   3.617   3.089  14.883 -0.3279 -0.0971  0.2911
 7580SOL    HW134373   3.645   3.004  14.847  1.7092  0.8405 -0.3253
 7580SOL    HW234374   3.523   3.093  14.864  0.0201  1.2058 -1.1625
 7581SOL     OW34375   1.454   2.967  12.971  0.1672 -0.9593  1.0261
 7581SOL    HW134376   1.462   2.982  13.066 -0.3369  0.1524  0.8868
 7581SOL    HW234377   1.519   3.030  12.940 -3.0006  1.3411 -0.9190
 7582SOL     OW34378   1.884   0.844   0.025 -0.0421  0.4968  0.0785
 7582SOL    HW134379   1.939   0.769   0.047 -1.2994 -0.5842 -0.4076
 7582SOL    HW234380   1.798   0.807   0.045  0.3821 -1.8139 -2.4357
 7583SOL     OW34381   1.995   1.748   8.142  0.6739 -0.2320 -0.0100
 7583SOL    HW134382   1.944   1.677   8.181 -0.3702 -0.5565 -1.9727
 7583SOL    HW234383   2.052   1.689   8.093 -1.0239 -1.5233 -0.4339
 7584SOL     OW34384   0.361   2.161   8.067 -0.4186 -0.0786  0.1948
 7584SOL    HW134385   0.364   2.100   8.141  0.4218  0.0667  0.2801
 7584SOL    HW234386   0.336   2.236   8.121  1.7148  1.8364 -1.4997
 7585SOL     OW34387   4.637   4.174   5.726  0.4268 -0.7018  0.1896
 7585SOL    HW134388   4.644   4.079   5.720  1.7146 -0.6950  1.6046
 7585SOL    HW234389   4.665   4.194   5.815 -1.7131  2.3192  0.2214
 7586SOL     OW34390   1.415   3.959   8.760 -0.5823  0.0772  0.0024
 7586SOL    HW134391   1.446   4.023   8.696  0.1219  1.3541  1.6315
 7586SOL    HW234392   1.362   3.908   8.698 -0.3306 -1.0494  0.7122
 7587SOL     OW34393   4.044   1.758   5.684  0.5027 -0.0506  0.2128
 7587SOL    HW134394   4.120   1.798   5.640  0.4535  0.2060  0.3630
 7587SOL    HW234395   4.060   1.804   5.767 -2.8688 -2.1513  2.0146
 7588SOL     OW34396   2.687   1.621  11.254  0.0403 -1.0266  0.4235
 7588SOL    HW134397   2.775   1.652  11.233 -0.8590  0.6970 -0.7827
 7588SOL    HW234398   2.704   1.527  11.251  3.2132 -0.4017 -1.7706
 7589SOL     OW34399   0.971   3.870   4.708 -0.1387  0.9590 -0.3747
 7589SOL    HW134400   1.002   3.856   4.618  0.3952  1.2710 -0.2331
 7589SOL    HW234401   0.949   3.963   4.703 -1.2001  0.7760  0.7902
 7590SOL     OW34402   1.825   1.503  15.420  0.3363  0.5698  0.2084
 7590SOL    HW134403   1.895   1.541  15.368  0.9726  1.3381  1.6200
 7590SOL    HW234404   1.838   1.564  15.492 -1.2833  0.1589  0.8635
 7591SOL     OW34405   1.041   2.608   2.140 -0.2924 -0.5780  0.0889
 7591SOL    HW134406   1.111   2.579   2.198 -0.7751  1.1677  1.5189
 7591SOL    HW234407   0.987   2.659   2.200 -0.8606  1.0803 -1.8258
 7592SOL     OW34408   0.471   4.355   2.950  0.0949  0.3728 -0.2761
 7592SOL    HW134409   0.497   4.445   2.929  0.2673  0.5895  0.8875
 7592SOL    HW234410   0.392   4.369   3.002  0.8153 -3.0061  1.7216
 7593SOL     OW34411   4.099   2.348   1.727  0.5574 -0.3568  0.2138
 7593SOL    HW134412   4.011   2.312   1.735  1.1902 -1.5707  1.9038
 7593SOL    HW234413   4.097   2.407   1.652  0.5209  1.2117  1.4409
 7594SOL     OW34414   3.718   1.309   4.935  0.2678  0.6197 -0.2087
 7594SOL    HW134415   3.685   1.399   4.935 -0.4045  0.3605 -2.0190
 7594SOL    HW234416   3.652   1.257   4.889 -0.4340  0.0481  1.4434
 7595SOL     OW34417   2.635   4.316  12.222  0.0246  0.1602 -0.2940
 7595SOL    HW134418   2.584   4.255  12.275  1.2992  0.5420  1.3681
 7595SOL    HW234419   2.603   4.403  12.248  0.2663  0.6702 -1.7251
 7596SOL     OW34420   4.364   2.340   7.223 -0.6003 -0.3796  0.3063
 7596SOL    HW134421   4.433   2.308   7.281 -0.2011 -0.9038 -0.4588
 7596SOL    HW234422   4.295   2.361   7.286 -0.2443  1.2874  0.1353
 7597SOL     OW34423   1.203   4.490  12.123 -0.3959 -0.2182 -0.0369
 7597SOL    HW134424   1.139   4.419  12.128 -0.7328  0.1530  0.9166
 7597SOL    HW234425   1.224   4.503  12.216  1.7748  1.2426 -0.7273
 7598SOL     OW34426   4.244   0.611   5.475  0.2732  0.4210 -0.3289
 7598SOL    HW134427   4.302   0.591   5.549 -0.8141 -1.0631  0.1364
 7598SOL    HW234428   4.187   0.679   5.510 -1.3543 -0.4544 -1.2863
 7599SOL     OW34429   0.988   2.438   3.396  0.1915 -0.2800 -0.9915
 7599SOL    HW134430   0.957   2.529   3.395  1.2889  0.1129 -0.0051
 7599SOL    HW234431   1.019   2.433   3.306  0.0851 -0.3184 -1.0256
 7600SOL     OW34432   0.466   3.387  14.633 -0.0817 -0.5268 -0.0701
 7600SOL    HW134433   0.511   3.394  14.549  0.0149 -0.7787 -0.0376
 7600SOL    HW234434   0.501   3.303  14.663  1.1238 -0.5501 -1.5327
 7601SOL     OW34435   3.495   0.970   7.348  0.5665  0.4009 -0.1391
 7601SOL    HW134436   3.436   0.899   7.323  2.7335 -1.3353 -0.3336
 7601SOL    HW234437   3.494   0.961   7.443  2.1094 -1.7884 -0.3424
 7602SOL     OW34438   4.490   1.660   0.289  0.7940 -0.2694 -0.0863
 7602SOL    HW134439   4.420   1.714   0.253  1.2761  0.6475  0.3562
 7602SOL    HW234440   4.531   1.723   0.349 -1.1440  1.3142 -0.4227
 7603SOL     OW34441   0.812   4.487   3.064 -0.3738 -0.7140  0.6691
 7603SOL    HW134442   0.773   4.416   3.013  1.0265 -0.9394 -0.0970
 7603SOL    HW234443   0.748   4.482   3.135 -0.7051  2.9887  0.6232
 7604SOL     OW34444   2.961   4.469   8.612  0.7402 -0.2537 -0.1742
 7604SOL    HW134445   2.883   4.518   8.586  1.4415  0.9501 -0.0411
 7604SOL    HW234446   2.972   4.498   8.703 -2.7521 -2.5878  0.9540
 7605SOL     OW34447   1.366   3.567  10.002 -0.2077  0.0442 -0.5090
 7605SOL    HW134448   1.450   3.523  10.017  0.2850  0.9118 -0.7042
 7605SOL    HW234449   1.388   3.656  10.029  3.3732 -0.8621 -0.4073
 7606SOL     OW34450   4.371   3.236   5.750  0.0470 -0.0565 -0.2548
 7606SOL    HW134451   4.338   3.188   5.673  0.4223  1.1487 -1.1572
 7606SOL    HW234452   4.299   3.299   5.754 -1.5080 -1.9581  1.8705
 7607SOL     OW34453   3.435   4.556   9.511  0.1981  0.4456  0.3565
 7607SOL    HW134454   3.416   4.584   9.601 -0.2658 -1.9760  1.0164
 7607SOL    HW234455   3.512   4.607   9.484 -0.5181  0.0567 -2.3826
 7608SOL     OW34456   0.952   0.099   0.882 -0.4456 -0.0542 -0.4051
 7608SOL    HW134457   0.963   0.113   0.976 -0.5383 -4.4687  0.2713
 7608SOL    HW234458   1.027   0.152   0.854  0.2959 -1.7442 -1.6246
 7609SOL     OW34459   3.770   1.174   7.478  0.1090  0.3368 -0.5188
 7609SOL    HW134460   3.730   1.205   7.397  0.7917  2.6317  0.0082
 7609SOL    HW234461   3.799   1.258   7.515  1.6584 -0.5493  0.2677
 7610SOL     OW34462   3.916   3.858  17.261  0.6746 -0.4109  0.4172
 7610SOL    HW134463   3.826   3.884  17.281  1.1960  0.9960  0.8991
 7610SOL    HW234464   3.920   3.768  17.293 -0.2880 -0.5767  0.0851
 7611SOL     OW34465   4.120   2.269   4.501  0.4138  1.0712  0.1916
 7611SOL    HW134466   4.093   2.201   4.562  0.7195 -0.6832 -1.6481
 7611SOL    HW234467   4.151   2.337   4.562 -1.5668  2.6351 -0.5612
 7612SOL     OW34468   4.106   3.527  11.531  0.0753  0.2986  0.0078
 7612SOL    HW134469   4.096   3.555  11.622 -0.5798  3.0255 -0.9184
 7612SOL    HW234470   4.179   3.578  11.497  2.3746 -2.5927  0.6550
 7613SOL     OW34471   1.373   4.129   1.916  0.2614  0.6538  0.6440
 7613SOL    HW134472   1.389   4.066   1.846 -0.0337  0.9609  0.3034
 7613SOL    HW234473   1.444   4.192   1.922 -0.2695  1.3050  0.1231
 7614SOL     OW34474   4.236   0.826  13.274 -0.2331 -1.0332 -0.0304
 7614SOL    HW134475   4.308   0.863  13.325 -0.7872 -1.3876  1.0118
 7614SOL    HW234476   4.249   0.732  13.286 -1.1187 -1.4320 -2.1999
 7615SOL     OW34477   3.927   3.640   5.463 -0.7851  0.1030  0.1681
 7615SOL    HW134478   3.958   3.620   5.375  0.9427 -0.6327  0.9575
 7615SOL    HW234479   3.979   3.585   5.522 -2.9796 -1.9406  0.2227
 7616SOL     OW34480   1.295   2.424   3.206 -0.2789  0.3658  0.5978
 7616SOL    HW134481   1.211   2.413   3.162  0.8413  0.0910 -1.5004
 7616SOL    HW234482   1.328   2.336   3.187  2.1953  1.3944 -0.0082
 7617SOL     OW34483   1.625   1.506   6.609 -0.2751 -0.0270  0.3164
 7617SOL    HW134484   1.700   1.546   6.653 -2.3851  2.7685  1.3447
 7617SOL    HW234485   1.670   1.464   6.536  0.1837 -0.3028  0.7535
 7618SOL     OW34486   3.446   0.749   4.003 -0.1685 -0.2144  0.2250
 7618SOL    HW134487   3.529   0.710   3.976  0.7609  1.4752  0.6354
 7618SOL    HW234488   3.413   0.786   3.922 -0.8569 -2.9453 -0.7272
 7619SOL     OW34489   2.795   2.908  14.309 -0.0263 -0.0113 -0.1462
 7619SOL    HW134490   2.801   2.844  14.380 -2.2749  0.0486  0.1050
 7619SOL    HW234491   2.783   2.985  14.364 -0.5070  1.2917 -2.0891
 7620SOL     OW34492   3.672   1.173  14.390 -0.5467  0.4805 -0.5934
 7620SOL    HW134493   3.747   1.141  14.339  0.1596  1.2119 -0.0078
 7620SOL    HW234494   3.596   1.129  14.351  0.1325 -0.6149 -0.6946
 7621SOL     OW34495   1.108   3.301  17.577 -0.2326  0.1716 -0.2220
 7621SOL    HW134496   1.191   3.254  17.570 -1.1077 -1.4805  0.2259
 7621SOL    HW234497   1.093   3.268  17.666 -1.0400  1.6894  0.2047
 7622SOL     OW34498   1.107   3.883   5.823 -0.1469 -0.3693 -0.2771
 7622SOL    HW134499   1.020   3.862   5.858  0.6930 -1.5649  1.0920
 7622SOL    HW234500   1.169   3.856   5.890 -1.4734 -0.7724  0.7953
 7623SOL     OW34501   3.787   3.836   9.104 -0.2491  0.2484 -0.1855
 7623SOL    HW134502   3.811   3.875   9.020  0.4559  1.1248  0.4297
 7623SOL    HW234503   3.872   3.806   9.136  0.0262 -0.6125 -1.7313
 7624SOL     OW34504   4.558   3.723   1.701 -0.1771  0.4844  0.1034
 7624SOL    HW134505   4.466   3.748   1.696 -1.2997 -3.6654 -0.0455
 7624SOL    HW234506   4.569   3.642   1.651  0.1024  0.0506  0.8645
 7625SOL     OW34507   2.513   0.586   6.328 -0.4716 -0.1133 -0.7293
 7625SOL    HW134508   2.508   0.668   6.279  0.2822  0.9685  0.9952
 7625SOL    HW234509   2.505   0.521   6.258 -0.1710 -0.2743 -0.6164
 7626SOL     OW34510   4.068   0.303  15.059  0.1956  0.2477  0.6102
 7626SOL    HW134511   3.991   0.358  15.069 -1.1269 -1.6875  1.1890
 7626SOL    HW234512   4.099   0.332  14.974 -0.0200 -0.2604  0.3559
 7627SOL     OW34513   4.474   3.094   8.262 -0.1050  0.2898  0.3312
 7627SOL    HW134514   4.447   3.110   8.352  2.1503  3.6704  0.3724
 7627SOL    HW234515   4.427   3.011   8.247  1.8680 -0.3100 -2.4023
 7628SOL     OW34516   3.688   4.690   7.107  0.0715  0.9585 -0.2874
 7628SOL    HW134517   3.627   4.616   7.100 -0.0883  1.0161  0.5329
 7628SOL    HW234518   3.630   0.026   7.097 -0.9973  0.2140  0.3127
 7629SOL     OW34519   4.317   0.679  14.179  0.2755  0.4114 -0.3314
 7629SOL    HW134520   4.254   0.660  14.248  0.9688  1.2749  0.5336
 7629SOL    HW234521   4.259   0.661  14.105 -1.3669  0.8215  0.8590
 7630SOL     OW34522   3.147   0.664   0.970 -0.1812 -0.4133  0.5469
 7630SOL    HW134523   3.069   0.656   1.025 -0.1743 -1.3625  0.4276
 7630SOL    HW234524   3.197   0.728   1.021 -1.8214  0.3388  1.1932
 7631SOL     OW34525   2.297   0.490   9.119  0.1551  0.6782 -0.0947
 7631SOL    HW134526   2.223   0.534   9.162  1.0346  0.3676  1.7253
 7631SOL    HW234527   2.290   0.409   9.170 -2.3878  1.3454  0.6429
 7632SOL     OW34528   0.379   3.095   2.741  0.7094  0.5796  0.5676
 7632SOL    HW134529   0.439   3.142   2.798 -0.9352  3.8882 -0.4185
 7632SOL    HW234530   0.435   3.071   2.666 -0.8807  2.2326 -1.1644
 7633SOL     OW34531   2.134   3.484   9.369  0.2249  0.0513  0.3362
 7633SOL    HW134532   2.148   3.496   9.275 -0.0321 -1.4382  0.1204
 7633SOL    HW234533   2.202   3.542   9.404  0.3262  0.8190 -1.1206
 7634SOL     OW34534   1.290   2.874   3.925 -0.0042  0.6237 -0.1361
 7634SOL    HW134535   1.243   2.848   3.846  0.2643  0.5889 -0.2863
 7634SOL    HW234536   1.380   2.852   3.899  0.4953  1.3871  0.9474
 7635SOL     OW34537   4.200   3.175  13.186 -0.3620  0.2159  0.1133
 7635SOL    HW134538   4.187   3.122  13.107 -2.2469  0.0115  0.5451
 7635SOL    HW234539   4.147   3.120  13.244  0.2156  1.1566  1.5192
 7636SOL     OW34540   1.534   1.772   8.284  0.3733  0.2396 -0.2827
 7636SOL    HW134541   1.537   1.686   8.242  1.2742  1.3288 -2.4508
 7636SOL    HW234542   1.440   1.789   8.273  0.2092  1.6659  3.3237
 7637SOL     OW34543   3.780   3.987   8.725  0.3185 -0.1675 -0.8885
 7637SOL    HW134544   3.797   3.951   8.638 -4.3451  1.6243 -2.5081
 7637SOL    HW234545   3.709   4.050   8.712  0.0592 -0.5512 -1.3650
 7638SOL     OW34546   1.019   3.041   6.676 -0.0380  0.8016  0.2560
 7638SOL    HW134547   0.987   3.091   6.750  0.1503  1.3237 -0.0140
 7638SOL    HW234548   0.943   2.996   6.639  1.0123 -2.8324  2.4710
 7639SOL     OW34549   1.538   3.257  11.335 -0.5174 -0.1843 -0.4444
 7639SOL    HW134550   1.492   3.339  11.320  0.0093  0.1561 -0.2106
 7639SOL    HW234551   1.523   3.235  11.427 -2.9447 -1.3226 -1.1225
 7640SOL     OW34552   4.225   1.037  10.131  0.3474 -0.1949  0.4714
 7640SOL    HW134553   4.237   1.072  10.219  2.1684 -1.7106  0.8393
 7640SOL    HW234554   4.167   0.962  10.144  0.0398 -0.2529 -1.1953
 7641SOL     OW34555   0.583   1.900  12.558  0.5348  0.0155 -0.3858
 7641SOL    HW134556   0.643   1.825  12.557 -1.7001 -1.8009  0.4173
 7641SOL    HW234557   0.648   1.963  12.588  1.2812 -2.1702  2.6318
 7642SOL     OW34558   1.260   4.478  16.521  0.0864  0.2156 -0.1941
 7642SOL    HW134559   1.258   4.482  16.617  2.0833 -0.6244 -0.1192
 7642SOL    HW234560   1.224   4.562  16.495 -0.2129 -0.2977 -1.4511
 7643SOL     OW34561   2.328   2.368   2.788  0.5205  0.5359 -0.2262
 7643SOL    HW134562   2.339   2.343   2.696 -1.4927 -0.8846 -0.0756
 7643SOL    HW234563   2.316   2.284   2.833  3.0620  1.3677  1.9911
 7644SOL     OW34564   0.991   3.154  11.851  0.5075 -0.9347  0.2460
 7644SOL    HW134565   1.024   3.116  11.933 -0.1972 -0.8352  0.5785
 7644SOL    HW234566   0.951   3.075  11.814  0.1119 -1.3099  1.4675
 7645SOL     OW34567   4.174   2.020   6.989 -0.3073  0.7920 -0.4828
 7645SOL    HW134568   4.236   2.079   6.946  0.3954 -1.3985 -2.4947
 7645SOL    HW234569   4.195   1.942   6.937  0.2911 -2.1615  4.1811
 7646SOL     OW34570   4.183   3.499  17.278 -0.4242  0.5698  0.0517
 7646SOL    HW134571   4.236   3.562  17.229 -1.5192 -0.9265 -3.1004
 7646SOL    HW234572   4.216   3.421  17.232  1.8022  1.9515 -0.6796
 7647SOL     OW34573   0.080   3.348  11.082  0.2660  0.0519 -0.0916
 7647SOL    HW134574   0.120   3.270  11.120 -1.4011 -1.4635 -1.4929
 7647SOL    HW234575   0.152   3.385  11.031 -0.0430  0.1958 -0.4212
 7648SOL     OW34576   4.316   2.031   8.978  0.5741  0.1247 -0.7117
 7648SOL    HW134577   4.312   1.972   8.903  0.5348 -0.2117 -0.4437
 7648SOL    HW234578   4.396   2.081   8.964  2.7132 -3.5768 -1.4852
 7649SOL     OW34579   0.374   1.676  12.820 -0.0740 -0.0940  0.2406
 7649SOL    HW134580   0.309   1.607  12.813 -0.7092  0.4106  1.2120
 7649SOL    HW234581   0.379   1.697  12.726  0.7300 -0.4649  0.1991
 7650SOL     OW34582   2.343   1.360  15.418  0.2244 -0.1770 -0.4545
 7650SOL    HW134583   2.327   1.332  15.509 -0.0784 -0.3074 -0.5491
 7650SOL    HW234584   2.347   1.456  15.422  0.3664 -0.2266  0.6389
 7651SOL     OW34585   4.064   4.378   0.889 -0.3786 -0.0633  0.4097
 7651SOL    HW134586   4.121   4.441   0.845 -1.1306  0.6897  0.5065
 7651SOL    HW234587   4.005   4.346   0.820  1.3311 -1.1872 -0.5411
 7652SOL     OW34588   2.100   1.835   4.754  0.1958 -0.4409 -0.1773
 7652SOL    HW134589   2.162   1.908   4.763  3.0907 -2.6003 -2.6909
 7652SOL    HW234590   2.051   1.884   4.688  0.5982  0.1250 -0.0573
 7653SOL     OW34591   2.302   2.799   9.464 -0.0558 -1.1371 -0.3045
 7653SOL    HW134592   2.334   2.756   9.543  0.7031 -0.5823 -0.3035
 7653SOL    HW234593   2.227   2.844   9.503  0.8740 -2.2355  2.7442
 7654SOL     OW34594   0.652   3.957   8.129  0.0414  0.4723 -0.0407
 7654SOL    HW134595   0.560   3.981   8.142 -0.2439 -0.6339 -0.0829
 7654SOL    HW234596   0.658   3.863   8.145 -0.3709  0.4775  0.1429
 7655SOL     OW34597   1.453   2.613  15.673  0.4094 -0.5097 -0.0831
 7655SOL    HW134598   1.367   2.617  15.714  0.3196  1.5500 -0.4945
 7655SOL    HW234599   1.438   2.677  15.604 -0.1610 -0.2363  0.2955
 7656SOL     OW34600   3.343   3.086   0.452 -0.4619  0.7764 -0.7051
 7656SOL    HW134601   3.401   3.110   0.524  0.5792 -1.3665 -0.8324
 7656SOL    HW234602   3.261   3.122   0.487 -1.2156 -0.6706 -0.9769
 7657SOL     OW34603   1.608   1.302   9.216  0.1310 -0.2622 -0.3834
 7657SOL    HW134604   1.617   1.252   9.135  1.2355 -1.4610  0.4638
 7657SOL    HW234605   1.672   1.261   9.274  1.2593 -1.2736 -2.3251
 7658SOL     OW34606   3.864   0.303   6.751  0.1642  0.3095  0.4535
 7658SOL    HW134607   3.849   0.346   6.667  0.5939  1.8330  1.1752
 7658SOL    HW234608   3.913   0.229   6.715 -0.0119 -1.0479  3.0174
 7659SOL     OW34609   2.376   3.252   6.983 -0.7154  0.2518 -0.0871
 7659SOL    HW134610   2.289   3.278   7.013 -1.6334 -1.2008 -1.5223
 7659SOL    HW234611   2.434   3.306   7.038 -0.5303 -0.0408  0.0075
 7660SOL     OW34612   1.681   3.136  12.882 -0.5067 -0.5681  0.2313
 7660SOL    HW134613   1.758   3.192  12.896 -1.3939  1.0809 -1.4631
 7660SOL    HW234614   1.716   3.091  12.805 -0.7426 -4.7903  2.5970
 7661SOL     OW34615   2.159   0.500   7.634  0.2221  0.3604 -0.2363
 7661SOL    HW134616   2.068   0.493   7.606 -0.9132  1.1637  3.2812
 7661SOL    HW234617   2.163   0.407   7.655 -1.5159  0.3197 -0.0960
 7662SOL     OW34618   2.573   0.830  17.692  0.1769 -0.3436  0.2880
 7662SOL    HW134619   2.478   0.820  17.683 -0.1291  2.0695  0.9831
 7662SOL    HW234620   2.609   0.829  17.604 -1.0803 -0.6010 -0.2192
 7663SOL     OW34621   0.601   2.613   3.079 -0.2376  0.1605 -0.1398
 7663SOL    HW134622   0.612   2.684   3.143  2.1271 -2.0580  1.9496
 7663SOL    HW234623   0.644   2.544   3.129 -1.8359 -0.3124  0.5828
 7664SOL     OW34624   3.705   1.066  11.211  0.0451 -0.0677  0.4770
 7664SOL    HW134625   3.787   1.107  11.240  1.2345 -2.5589  0.6787
 7664SOL    HW234626   3.737   0.977  11.197  2.0955  1.0774 -2.0328
 7665SOL     OW34627   3.700   2.208   6.786  0.3485  0.4982 -0.0419
 7665SOL    HW134628   3.791   2.221   6.812 -0.6964  1.6563  3.0418
 7665SOL    HW234629   3.688   2.252   6.701  1.3040  0.6075 -0.1130
 7666SOL     OW34630   1.444   0.895   4.287  0.3614  0.4193  0.0563
 7666SOL    HW134631   1.437   0.800   4.292 -0.8248  0.6412  2.3746
 7666SOL    HW234632   1.362   0.933   4.317  0.5781  0.8785  0.0691
 7667SOL     OW34633   1.368   2.589   2.685 -0.2276  0.0339 -0.4305
 7667SOL    HW134634   1.320   2.510   2.708  2.9621 -1.4212  1.0857
 7667SOL    HW234635   1.393   2.581   2.593  0.2434 -0.7387 -0.2356
 7668SOL     OW34636   2.034   2.971   8.422 -0.3004 -0.4553  0.4401
 7668SOL    HW134637   2.101   3.038   8.433  0.2688 -0.8497 -0.6540
 7668SOL    HW234638   2.096   2.903   8.392  1.6074  1.4320  0.1173
 7669SOL     OW34639   3.538   0.652   1.190  0.2456 -0.1313 -0.1365
 7669SOL    HW134640   3.531   0.597   1.268  2.2955  0.6908  0.6314
 7669SOL    HW234641   3.604   0.597   1.149  2.1287  0.3008  2.2848
 7670SOL     OW34642   3.550   0.894  11.915  0.3182 -0.4615  0.0662
 7670SOL    HW134643   3.554   0.799  11.925 -0.3042 -0.2294  2.4742
 7670SOL    HW234644   3.558   0.906  11.820  1.1076  0.6366  0.2709
 7671SOL     OW34645   0.552   4.336   9.838  0.2774  0.1479  0.3620
 7671SOL    HW134646   0.630   4.321   9.784 -0.4021  0.4370 -0.6826
 7671SOL    HW234647   0.522   4.416   9.796 -2.3461 -0.2737  1.4282
 7672SOL     OW34648   0.781   1.923   2.205 -0.1316  0.4111 -0.6282
 7672SOL    HW134649   0.750   1.967   2.284 -1.9768  0.4243 -1.3624
 7672SOL    HW234650   0.860   1.973   2.183  1.2840 -0.8187  1.6190
 7673SOL     OW34651   3.360   0.323  11.469 -0.2990 -0.0850  0.3317
 7673SOL    HW134652   3.280   0.368  11.441 -0.9705 -2.4768 -1.5781
 7673SOL    HW234653   3.359   0.341  11.563  0.7107  2.7724 -0.2081
 7674SOL     OW34654   4.334   2.288  16.667  0.5023 -1.0959  0.2997
 7674SOL    HW134655   4.249   2.327  16.687  0.8272 -0.7739  1.0382
 7674SOL    HW234656   4.329   2.316  16.576 -1.2922 -0.3210  0.6146
 7675SOL     OW34657   1.633   0.703  15.185 -0.2002  0.0875 -0.1364
 7675SOL    HW134658   1.721   0.695  15.222 -0.1272  2.6116  0.2422
 7675SOL    HW234659   1.582   0.631  15.223  0.0603  0.0995  0.2307
 7676SOL     OW34660   0.503   2.065   0.499 -0.2038 -0.5199  0.3906
 7676SOL    HW134661   0.561   1.989   0.505 -0.8310 -1.0412 -0.1103
 7676SOL    HW234662   0.505   2.079   0.404  0.9762 -0.5448  0.4032
 7677SOL     OW34663   0.453   1.503   3.126  0.5384  0.1034 -0.1863
 7677SOL    HW134664   0.404   1.565   3.072  1.7909  1.1838 -0.0661
 7677SOL    HW234665   0.508   1.463   3.060  0.6474 -0.9910  0.5730
 7678SOL     OW34666   1.033   2.959   2.878  0.3195  0.1789 -0.4054
 7678SOL    HW134667   1.085   2.883   2.852  1.6632  1.6833 -2.0818
 7678SOL    HW234668   0.959   2.941   2.820 -0.5207  1.7443  0.1664
 7679SOL     OW34669   0.385   0.205  14.280 -0.0095 -0.7216 -0.3144
 7679SOL    HW134670   0.469   0.249  14.263  0.1629 -0.6635  0.6668
 7679SOL    HW234671   0.341   0.262  14.342  0.7689 -2.1071  1.5275
 7680SOL     OW34672   4.570   3.426   7.060 -0.0201 -0.3008 -1.1189
 7680SOL    HW134673   4.538   3.424   7.150 -0.1178 -0.4800 -1.1555
 7680SOL    HW234674   4.517   3.362   7.012  0.8090 -2.8622  1.3979
 7681SOL     OW34675   3.654   3.285  14.552  0.4996  1.0688  0.0445
 7681SOL    HW134676   3.594   3.297  14.478 -0.5401  1.1283  0.9146
 7681SOL    HW234677   3.695   3.369  14.570  1.3458  0.4082  1.1908
 7682SOL     OW34678   4.600   1.234   4.557 -0.3500  0.4271  0.2967
 7682SOL    HW134679   4.506   1.219   4.555  0.0579 -2.2185  0.6636
 7682SOL    HW234680   4.634   1.169   4.619  1.2893  1.8676  0.9312
 7683SOL     OW34681   2.233   2.501  15.181  0.7872 -0.3008 -0.3565
 7683SOL    HW134682   2.235   2.431  15.117  0.4706  0.8872 -1.6738
 7683SOL    HW234683   2.198   2.457  15.259  1.3339  0.2782  0.2132
 7684SOL     OW34684   3.146   0.240  13.191  0.2158 -0.2339  0.3624
 7684SOL    HW134685   3.204   0.308  13.225 -2.3610  2.5020 -0.6996
 7684SOL    HW234686   3.176   0.218  13.102  1.4841 -1.0372  1.0011
 7685SOL     OW34687   2.814   2.486   3.614 -0.3157  0.3086  0.6043
 7685SOL    HW134688   2.771   2.559   3.659  1.2217  2.0171 -0.6566
 7685SOL    HW234689   2.786   2.496   3.523  0.2604  2.4488  0.6698
 7686SOL     OW34690   3.772   2.464  13.767  0.0029  0.4846  0.1221
 7686SOL    HW134691   3.685   2.503  13.759 -0.1390 -0.1334 -1.2232
 7686SOL    HW234692   3.803   2.473  13.677  2.6105  0.4171  0.9960
 7687SOL     OW34693   4.118   1.585   2.324 -0.1403 -1.0123 -0.1141
 7687SOL    HW134694   4.128   1.493   2.352  0.6766 -0.5153  1.2388
 7687SOL    HW234695   4.090   1.586   2.233  0.5419 -0.7479 -0.3223
 7688SOL     OW34696   1.686   4.091   1.500  0.1506 -0.3062 -0.3004
 7688SOL    HW134697   1.780   4.089   1.519  0.0299  1.7983  0.4176
 7688SOL    HW234698   1.687   4.092   1.404 -0.5872  0.8416 -0.2872
 7689SOL     OW34699   0.255   1.746   7.445 -0.0820  0.1642  0.4184
 7689SOL    HW134700   0.287   1.677   7.503  0.5195  0.2140  0.1495
 7689SOL    HW234701   0.248   1.692   7.367  1.2944  2.5753 -1.4068
 7690SOL     OW34702   3.005   1.406   3.767 -0.8278 -0.5036 -0.6263
 7690SOL    HW134703   2.924   1.436   3.727  0.6071  0.7985 -2.5804
 7690SOL    HW234704   3.071   1.431   3.702 -1.9977  0.1750 -1.5490
 7691SOL     OW34705   3.772   3.695   6.012 -0.5607 -0.2580 -0.2391
 7691SOL    HW134706   3.793   3.777   6.057 -2.6416  0.7464 -1.0715
 7691SOL    HW234707   3.767   3.636   6.087  2.9686  2.1819  1.9159
 7692SOL     OW34708   1.174   2.950   2.607 -0.1638  0.4208  0.4232
 7692SOL    HW134709   1.241   3.002   2.652 -0.4022 -0.8525  2.2423
 7692SOL    HW234710   1.166   2.874   2.665 -0.0560 -1.8301 -2.4917
 7693SOL     OW34711   2.255   3.433   9.076  0.0643  0.0823 -0.5341
 7693SOL    HW134712   2.275   3.376   9.150 -0.6904  1.3380  0.6391
 7693SOL    HW234713   2.247   3.370   9.005  2.1649  0.5014 -1.1408
 7694SOL     OW34714   3.145   0.302   5.612  0.6345 -0.2642  0.2543
 7694SOL    HW134715   3.215   0.354   5.652  1.1683 -0.6121 -0.2271
 7694SOL    HW234716   3.093   0.285   5.691  2.2883 -2.6749  0.8348
 7695SOL     OW34717   1.769   3.809   1.346  0.4880  0.4699 -0.1041
 7695SOL    HW134718   1.703   3.851   1.290 -1.3655 -1.9649  0.2484
 7695SOL    HW234719   1.812   3.882   1.391  1.9064 -0.9962  0.8937
 7696SOL     OW34720   2.307   3.592   8.841  0.2475  0.6533 -0.0021
 7696SOL    HW134721   2.223   3.550   8.825 -0.0397  0.4340  2.0732
 7696SOL    HW234722   2.307   3.568   8.934  3.6824 -0.4695 -0.2822
 7697SOL     OW34723   2.290   2.370  13.689  0.1455  0.1531 -0.2020
 7697SOL    HW134724   2.225   2.344  13.754  0.1263 -0.6526 -0.5490
 7697SOL    HW234725   2.327   2.450  13.728  0.8743  1.1500 -2.9313
 7698SOL     OW34726   4.007   0.805   7.943 -0.0178 -0.0915  0.3131
 7698SOL    HW134727   4.031   0.803   8.036 -0.1121  1.3356  0.3694
 7698SOL    HW234728   4.068   0.866   7.901  0.2103  0.4017  1.3502
 7699SOL     OW34729   3.623   1.974   6.933 -0.1469  0.3574 -0.0404
 7699SOL    HW134730   3.580   1.914   6.872  0.4061  1.0009 -1.0737
 7699SOL    HW234731   3.667   2.026   6.865 -1.0256 -0.3791 -1.1697
 7700SOL     OW34732   1.767   4.130   5.558 -0.0499 -0.3486 -0.3119
 7700SOL    HW134733   1.831   4.199   5.540  1.8356 -1.7842  1.0135
 7700SOL    HW234734   1.701   4.179   5.608  0.4294 -0.0862  0.0699
 7701SOL     OW34735   2.206   4.093  16.129  0.4222 -0.0661  0.8103
 7701SOL    HW134736   2.200   4.148  16.207 -0.9717  1.5384 -0.4429
 7701SOL    HW234737   2.295   4.058  16.137 -0.1321 -1.9339 -1.0618
 7702SOL     OW34738   1.577   3.752   7.926 -0.4244 -0.4489  0.1226
 7702SOL    HW134739   1.642   3.734   7.858  1.3343  0.7595  1.4914
 7702SOL    HW234740   1.530   3.829   7.895 -0.5569 -0.1841  0.9824
 7703SOL     OW34741   4.290   4.333   4.882 -0.0021  0.1142 -0.7769
 7703SOL    HW134742   4.229   4.324   4.954 -1.5295 -1.1684 -2.2332
 7703SOL    HW234743   4.270   4.420   4.848  1.8698  0.6299 -0.5987
 7704SOL     OW34744   3.350   4.059   9.547  0.4822  0.0065  0.1472
 7704SOL    HW134745   3.348   4.033   9.639 -2.7965 -1.0774 -0.2314
 7704SOL    HW234746   3.344   4.154   9.552  0.7316  0.0156  0.2690
 7705SOL     OW34747   1.012   3.887  10.806 -1.0975  0.3388  0.3057
 7705SOL    HW134748   1.075   3.815  10.799 -1.8699 -0.4384  1.4846
 7705SOL    HW234749   1.068   3.954  10.767 -0.5166 -0.2622  0.1087
 7706SOL     OW34750   4.525   2.766   8.051 -0.0544 -0.0241 -0.4252
 7706SOL    HW134751   4.585   2.692   8.040  0.8777  0.5866  0.5555
 7706SOL    HW234752   4.594   2.833   8.045 -0.1015  0.1068  0.6025
 7707SOL     OW34753   3.408   1.006   4.828 -0.9309  0.2026 -0.3776
 7707SOL    HW134754   3.351   1.030   4.901 -0.7617 -1.3375  0.2816
 7707SOL    HW234755   3.469   0.951   4.878 -0.7278  1.2176  0.5030
 7708SOL     OW34756   0.360   2.798   5.824 -0.4180  0.0109  0.6748
 7708SOL    HW134757   0.418   2.874   5.828 -1.2265  0.5631  2.3341
 7708SOL    HW234758   0.366   2.757   5.738  2.7703  2.9171 -0.4654
 7709SOL     OW34759   3.222   4.046   5.252  0.9579  0.4151  0.4185
 7709SOL    HW134760   3.192   4.092   5.173  1.3442 -1.7822 -1.0099
 7709SOL    HW234761   3.316   4.036   5.237  0.1113 -3.4597 -2.4020
 7710SOL     OW34762   1.217   3.268   9.171  0.0646 -0.9211  0.0944
 7710SOL    HW134763   1.133   3.302   9.202  1.4681  2.0830  0.5771
 7710SOL    HW234764   1.189   3.194   9.117 -2.0139  0.3400 -0.5713
 7711SOL     OW34765   0.339   4.439  13.588 -0.7991 -0.4830 -0.1945
 7711SOL    HW134766   0.284   4.476  13.519  0.1526  0.8838 -0.2145
 7711SOL    HW234767   0.295   4.455  13.672  0.6677  1.6820  0.1560
 7712SOL     OW34768   1.693   2.104   8.435  0.0490 -0.1007 -0.0480
 7712SOL    HW134769   1.744   2.074   8.361 -0.9922 -1.3337 -0.2696
 7712SOL    HW234770   1.681   2.018   8.476  0.2354  0.2767  0.7981
 7713SOL     OW34771   1.481   2.924  13.530  0.1124  0.2648  0.3501
 7713SOL    HW134772   1.406   2.912  13.588 -0.8829  0.0732 -0.9724
 7713SOL    HW234773   1.535   2.958  13.601 -0.0444  0.2240  0.4885
 7714SOL     OW34774   0.301   3.500  11.002 -0.1542  0.2107  0.4764
 7714SOL    HW134775   0.373   3.560  11.020  0.5795 -0.8218  1.0074
 7714SOL    HW234776   0.270   3.530  10.917  0.7750 -0.0306  0.0450
 7715SOL     OW34777   0.445   1.682   1.340 -0.1390  0.0389 -0.0261
 7715SOL    HW134778   0.487   1.664   1.424 -2.1003 -2.0661  0.5183
 7715SOL    HW234779   0.524   1.696   1.288 -0.9198  2.3307 -0.5996
 7716SOL     OW34780   0.874   2.773  17.279 -0.4534  0.0599  0.1542
 7716SOL    HW134781   0.944   2.780  17.344 -1.2107  1.4425  0.8374
 7716SOL    HW234782   0.881   2.851  17.224  0.2779  0.8709  1.3804
 7717SOL     OW34783   1.067   4.355  12.343 -0.5417  0.5147 -0.3030
 7717SOL    HW134784   1.138   4.358  12.407 -0.7546  1.7557 -0.1348
 7717SOL    HW234785   1.017   4.432  12.369 -1.8192 -1.5584  3.3742
 7718SOL     OW34786   1.957   3.837   2.154 -1.1362 -0.8110  0.4336
 7718SOL    HW134787   1.927   3.774   2.219 -2.1698 -0.8719 -0.1113
 7718SOL    HW234788   1.952   3.786   2.073  0.1700  2.5197 -1.7272
 7719SOL     OW34789   1.051   4.619   3.753 -0.0557 -0.2596 -0.2426
 7719SOL    HW134790   1.064   4.663   3.838 -2.2104  0.9678 -0.5548
 7719SOL    HW234791   1.080   4.687   3.692 -1.3794 -0.6170 -1.2424
 7720SOL     OW34792   0.083   1.257  11.517  0.4959 -0.6838  0.2086
 7720SOL    HW134793   0.054   1.314  11.588 -1.1649  1.3473 -2.1194
 7720SOL    HW234794   0.008   1.273  11.459 -0.6391 -1.9900  1.3267
 7721SOL     OW34795   2.337   3.735  14.920 -0.3111 -0.4664 -0.7186
 7721SOL    HW134796   2.259   3.681  14.909 -0.8208  0.1939 -0.3724
 7721SOL    HW234797   2.300   3.810  14.967  1.5648  0.5816 -0.8833
 7722SOL     OW34798   0.375   3.638   2.798  0.2471  0.0609 -0.4133
 7722SOL    HW134799   0.281   3.656   2.804  0.4027  0.3617  1.0161
 7722SOL    HW234800   0.380   3.559   2.744  2.3921  1.6594 -2.5774
 7723SOL     OW34801   4.711   3.858   4.272  0.4688  0.7583 -0.4723
 7723SOL    HW134802   4.649   3.825   4.206 -1.1061 -0.8584  1.8322
 7723SOL    HW234803   0.040   3.790   4.277 -0.5196 -0.0645  1.5697
 7724SOL     OW34804   1.296   4.454  13.978 -0.5645 -0.0214 -0.5721
 7724SOL    HW134805   1.203   4.461  13.999  0.0299  2.9112  0.9511
 7724SOL    HW234806   1.308   4.529  13.920 -0.9276  0.6977  0.2987
 7725SOL     OW34807   3.687   3.945   7.129 -0.0016 -0.1304 -0.0571
 7725SOL    HW134808   3.614   4.006   7.121  0.6438  0.5735 -0.6414
 7725SOL    HW234809   3.687   3.923   7.222  1.7231  1.1117  0.2555
 7726SOL     OW34810   1.790   4.083   0.220 -0.4962  0.1999  0.5546
 7726SOL    HW134811   1.844   4.144   0.270  0.5762 -0.9139  0.7605
 7726SOL    HW234812   1.861   4.024   0.193 -0.5853  1.0084 -1.4801
 7727SOL     OW34813   3.894   2.327   8.079  0.1792  0.3921 -0.5732
 7727SOL    HW134814   3.848   2.278   8.011 -0.5153  0.1463  0.0796
 7727SOL    HW234815   3.831   2.396   8.098 -0.0643 -0.0203  0.1238
 7728SOL     OW34816   0.457   1.717   0.686 -0.9488 -0.1052  0.1159
 7728SOL    HW134817   0.374   1.672   0.701 -0.1893 -2.4399 -2.6851
 7728SOL    HW234818   0.454   1.736   0.592  0.8780 -0.0026  0.0720
 7729SOL     OW34819   1.777   3.643   7.732  0.0073  0.2380  0.5875
 7729SOL    HW134820   1.842   3.589   7.688 -2.2105 -0.5779 -1.6947
 7729SOL    HW234821   1.827   3.724   7.746 -2.1452  1.8292 -0.7943
 7730SOL     OW34822   3.505   3.742   7.631 -0.5156 -0.1886  0.3700
 7730SOL    HW134823   3.516   3.836   7.641  0.7936 -0.3316  0.2323
 7730SOL    HW234824   3.466   3.738   7.543 -2.1530  0.6499  1.0561
 7731SOL     OW34825   3.434   0.398   4.360  0.6228  0.1453 -0.1697
 7731SOL    HW134826   3.420   0.464   4.427  0.5890 -0.8887  0.8483
 7731SOL    HW234827   3.458   0.317   4.405  0.7531 -0.5215 -1.4189
 7732SOL     OW34828   1.305   3.883   6.258  0.0245 -0.7975 -0.0920
 7732SOL    HW134829   1.292   3.846   6.345  0.8244  0.8604  0.7266
 7732SOL    HW234830   1.368   3.827   6.213  1.6216  0.2648  0.8590
 7733SOL     OW34831   2.648   0.416   2.470 -0.1612 -0.7680  0.0943
 7733SOL    HW134832   2.688   0.402   2.384  0.5300  2.2279 -0.0924
 7733SOL    HW234833   2.560   0.382   2.459 -0.3061 -0.0316 -0.9694
 7734SOL     OW34834   2.048   3.989   0.185 -0.2704  0.0024 -0.0775
 7734SOL    HW134835   2.064   3.993   0.091 -0.2335 -0.2649 -0.0805
 7734SOL    HW234836   2.115   4.051   0.215  0.3614 -0.6623 -0.1305
 7735SOL     OW34837   2.611   0.292   3.719  0.1875 -0.1070  0.4831
 7735SOL    HW134838   2.604   0.284   3.814 -2.3831 -1.6352  0.1545
 7735SOL    HW234839   2.529   0.256   3.686  1.5449 -1.1210 -1.8412
 7736SOL     OW34840   1.366   0.609   4.625 -0.2552 -0.0554 -0.9324
 7736SOL    HW134841   1.341   0.700   4.639  0.0862  0.3217 -2.8652
 7736SOL    HW234842   1.353   0.599   4.531 -0.7245 -0.1522 -0.8591
 7737SOL     OW34843   3.954   4.226  11.066  0.6349 -0.5606  0.1104
 7737SOL    HW134844   3.939   4.220  11.161 -1.1520  0.7065 -0.0915
 7737SOL    HW234845   3.977   4.319  11.060  0.7457 -0.3845  3.0243
 7738SOL     OW34846   3.345   4.553   3.248  0.0553 -0.1106 -0.7770
 7738SOL    HW134847   3.352   4.627   3.307 -0.3751  0.8628 -1.9338
 7738SOL    HW234848   3.418   4.573   3.190 -1.7028  0.7306 -2.7373
 7739SOL     OW34849   3.985   2.976  12.268 -0.0839  0.2769 -0.1265
 7739SOL    HW134850   3.995   2.881  12.261  1.7440  0.4580  0.0599
 7739SOL    HW234851   3.935   2.992  12.188  1.4580 -0.1172 -1.1407
 7740SOL     OW34852   1.405   4.130   8.104  0.4786  0.1638  0.2003
 7740SOL    HW134853   1.479   4.070   8.121  1.7289  1.1536 -1.8180
 7740SOL    HW234854   1.346   4.100   8.173  0.7889  0.2306  0.4975
 7741SOL     OW34855   0.070   0.492   8.767  0.4300  0.0945  0.2368
 7741SOL    HW134856   0.160   0.498   8.735 -0.2549  2.7240 -1.1628
 7741SOL    HW234857   0.036   0.560   8.710  0.3419 -0.7795 -0.7569
 7742SOL     OW34858   2.263   3.276   4.952 -0.3734 -0.2288 -0.2581
 7742SOL    HW134859   2.210   3.196   4.958  0.0610 -0.5460 -0.6523
 7742SOL    HW234860   2.194   3.342   4.954 -0.0825  0.0709  0.0078
 7743SOL     OW34861   4.332   4.623   5.818  0.0400  0.2607 -0.3569
 7743SOL    HW134862   4.418   4.583   5.825  0.3019  1.1452  1.3149
 7743SOL    HW234863   4.308   4.624   5.910  0.3339 -2.7325 -0.2667
 7744SOL     OW34864   2.908   1.749  16.672 -0.4762  0.0755  0.3667
 7744SOL    HW134865   2.928   1.842  16.686 -0.5644  0.0240  0.8128
 7744SOL    HW234866   2.966   1.734  16.597  0.7805  0.4612  1.2614
 7745SOL     OW34867   2.358   0.253   3.615 -0.0219  0.4717  0.5144
 7745SOL    HW134868   2.330   0.162   3.604 -2.0679  1.1193  0.4437
 7745SOL    HW234869   2.300   0.306   3.561  0.3417 -1.8554 -2.1434
 7746SOL     OW34870   1.074   3.216   6.021  0.0733 -0.5822  0.3885
 7746SOL    HW134871   1.096   3.281   6.087 -1.5370 -1.5163  1.8336
 7746SOL    HW234872   1.065   3.266   5.939  1.1228  1.7023  1.6594
 7747SOL     OW34873   2.104   3.218   8.552 -0.3224  0.2097 -0.3758
 7747SOL    HW134874   2.013   3.190   8.561 -0.3937  0.7206  0.4861
 7747SOL    HW234875   2.129   3.175   8.634  1.2013  3.8295  1.0688
 7748SOL     OW34876   1.252   3.588   9.020  0.3892 -0.0986  0.5298
 7748SOL    HW134877   1.305   3.639   8.959  0.0311 -1.1522 -0.6472
 7748SOL    HW234878   1.207   3.650   9.079 -1.2859 -0.7101 -0.1009
 7749SOL     OW34879   2.575   3.845  14.813  0.3190  0.3440 -0.2980
 7749SOL    HW134880   2.501   3.810  14.864 -0.8436  0.9422 -1.5999
 7749SOL    HW234881   2.583   3.767  14.758  0.5085  0.4129 -0.3670
 7750SOL     OW34882   3.606   1.997  14.200  0.3987  0.3453 -0.4344
 7750SOL    HW134883   3.557   2.073  14.229  0.3408 -0.3872  1.3780
 7750SOL    HW234884   3.681   2.006  14.258 -0.2330  2.1570  0.0794
 7751SOL     OW34885   1.826   4.084  15.664 -0.0175 -0.3908 -0.0076
 7751SOL    HW134886   1.857   4.157  15.718  0.2689 -0.9117  0.5324
 7751SOL    HW234887   1.732   4.097  15.655  0.2341  3.1539  2.3507
 7752SOL     OW34888   2.485   0.540   4.076  0.2563  0.2442  0.5364
 7752SOL    HW134889   2.554   0.590   4.034  1.0597 -0.8445  0.5367
 7752SOL    HW234890   2.495   0.455   4.032  0.0270  1.2578 -1.4507
 7753SOL     OW34891   2.908   1.154   9.362  0.3433 -0.1806  0.3414
 7753SOL    HW134892   2.971   1.083   9.367  1.1893  0.5312 -0.2757
 7753SOL    HW234893   2.832   1.115   9.406  0.2665 -0.6590 -0.2261
 7754SOL     OW34894   1.915   1.667   7.572 -0.2190  0.9949  0.3774
 7754SOL    HW134895   1.974   1.725   7.621 -0.2858  1.8449 -0.5504
 7754SOL    HW234896   1.974   1.591   7.565  1.5066  2.5775 -2.2077
 7755SOL     OW34897   3.263   1.269   5.918  0.0519 -0.1903 -0.3032
 7755SOL    HW134898   3.259   1.339   5.853  0.3806 -2.6003 -2.9366
 7755SOL    HW234899   3.176   1.233   5.899  0.3144 -1.8261  1.6363
 7756SOL     OW34900   4.155   0.291   9.052 -0.6899 -0.1149  0.4289
 7756SOL    HW134901   4.209   0.283   9.130 -0.1557 -0.1987  0.0505
 7756SOL    HW234902   4.160   0.385   9.034  1.7738 -0.1375  0.9810
 7757SOL     OW34903   2.502   0.737   2.993  0.5171 -0.1592  0.0036
 7757SOL    HW134904   2.525   0.752   3.084  1.9998  0.5743 -0.5097
 7757SOL    HW234905   2.408   0.726   3.008  0.3461  2.1766  0.6463
 7758SOL     OW34906   0.086   0.249  17.219  0.5620 -0.0481  0.6847
 7758SOL    HW134907   0.065   0.175  17.162  0.3193  0.2763  0.3557
 7758SOL    HW234908   0.005   0.270  17.266 -0.9768  2.1285 -2.9310
 7759SOL     OW34909   0.901   2.640   3.987  0.1871  0.0979 -0.0506
 7759SOL    HW134910   0.811   2.667   4.007  0.2751 -0.0874  0.5813
 7759SOL    HW234911   0.959   2.700   4.034 -0.5177  0.6948  0.0634
 7760SOL     OW34912   3.849   0.986  11.835  0.1095 -0.5233 -0.2101
 7760SOL    HW134913   3.836   0.893  11.851 -1.1691 -0.3757 -0.3895
 7760SOL    HW234914   3.874   1.025  11.919 -0.7695  1.3951 -0.8278
 7761SOL     OW34915   1.653   1.938  16.629 -0.0925 -0.4221 -0.4373
 7761SOL    HW134916   1.701   1.901  16.555  2.3607  1.5560  0.1825
 7761SOL    HW234917   1.729   1.942  16.688 -0.7527 -1.7540  0.5285
 7762SOL     OW34918   2.089   4.071   8.784 -0.1194 -0.6141 -0.2245
 7762SOL    HW134919   2.182   4.048   8.776  0.1052 -0.6594  2.6237
 7762SOL    HW234920   2.090   4.119   8.866 -3.0127 -0.4377 -0.3005
 7763SOL     OW34921   2.370   3.954   6.523 -0.4967  0.5042 -0.0820
 7763SOL    HW134922   2.325   4.017   6.467 -0.9974 -1.2361 -1.6339
 7763SOL    HW234923   2.330   3.971   6.608  2.1145  2.3743  0.7913
 7764SOL     OW34924   3.507   1.052   1.758  0.0170 -1.1378  0.3602
 7764SOL    HW134925   3.477   1.008   1.837  2.4716 -1.0804  1.2935
 7764SOL    HW234926   3.595   1.068   1.789  0.2935  0.5009 -1.2609
 7765SOL     OW34927   2.287   1.305   4.004 -0.3897  0.3230 -0.3888
 7765SOL    HW134928   2.270   1.396   4.029 -3.3866 -0.4235  0.3414
 7765SOL    HW234929   2.266   1.259   4.085 -1.7928 -0.4856 -1.1990
 7766SOL     OW34930   4.568   3.965  16.950  0.1221 -0.1738 -0.1543
 7766SOL    HW134931   4.478   3.991  16.929 -0.2347  0.9475  2.7480
 7766SOL    HW234932   4.570   3.914  17.031 -1.2721 -0.4464 -0.2908
 7767SOL     OW34933   0.929   0.067  17.561  0.3059  0.7941 -0.4924
 7767SOL    HW134934   0.965   0.141  17.610  1.0279 -0.7793  1.3269
 7767SOL    HW234935   0.986   4.738  17.596 -0.8482  1.0582  1.8688
 7768SOL     OW34936   3.869   2.244   8.520  1.5941 -0.1724  0.5966
 7768SOL    HW134937   3.805   2.183   8.555 -1.7749  1.3758 -2.8750
 7768SOL    HW234938   3.917   2.281   8.594  0.7051 -1.4703  1.8190
 7769SOL     OW34939   0.459   1.338  11.117  0.2917 -0.0811 -0.1289
 7769SOL    HW134940   0.393   1.287  11.164  2.5495 -1.6381  1.3948
 7769SOL    HW234941   0.407   1.412  11.085  2.2553  1.0219 -0.7674
 7770SOL     OW34942   2.070   3.882  15.969  0.2115  0.5915 -0.2901
 7770SOL    HW134943   2.120   3.953  16.010  1.7480  0.0383 -1.1796
 7770SOL    HW234944   2.146   3.835  15.935  0.6294  0.4364  0.8578
 7771SOL     OW34945   2.385   1.388   3.485  0.7441  0.2154  0.5719
 7771SOL    HW134946   2.433   1.411   3.406 -1.4587  0.4366 -0.6961
 7771SOL    HW234947   2.346   1.305   3.456 -0.0047  0.5847  0.5232
 7772SOL     OW34948   2.364   2.976  16.526  0.1131  0.5160 -0.0105
 7772SOL    HW134949   2.402   2.889  16.520 -1.5570 -0.2453  0.3705
 7772SOL    HW234950   2.298   2.969  16.596 -1.6380  1.3328 -1.5578
 7773SOL     OW34951   2.078   3.598  10.386 -0.2919  0.0581  0.4962
 7773SOL    HW134952   1.998   3.547  10.378 -0.1598  0.3200 -2.7084
 7773SOL    HW234953   2.041   3.675  10.343  0.0281 -0.3452 -0.5149
 7774SOL     OW34954   1.982   4.135   6.001  0.5682 -0.0365  0.0430
 7774SOL    HW134955   2.021   4.160   5.917 -0.1701 -1.7315 -0.7963
 7774SOL    HW234956   2.003   4.210   6.057 -2.1789 -0.4184  1.5556
 7775SOL     OW34957   0.396   1.709  12.546 -0.3465  0.6121  0.0499
 7775SOL    HW134958   0.434   1.654  12.477 -0.7265 -0.4724  0.6973
 7775SOL    HW234959   0.456   1.783  12.543  0.6720 -0.3022 -1.7097
 7776SOL     OW34960   2.635   0.469   3.048 -0.3544  0.7270  0.0499
 7776SOL    HW134961   2.676   0.394   3.004  0.2604  0.9481  0.2348
 7776SOL    HW234962   2.619   0.529   2.975  1.5261  1.5386  0.2933
 7777SOL     OW34963   3.361   2.422   8.704  0.3344  0.2830 -0.1482
 7777SOL    HW134964   3.374   2.328   8.693 -1.3815  0.0152  0.1691
 7777SOL    HW234965   3.446   2.446   8.740  1.5412 -3.0692 -0.8180
 7778SOL     OW34966   4.684   1.210  12.842 -0.9535  0.0595 -0.7124
 7778SOL    HW134967   0.038   1.186  12.852 -1.3430 -1.3389 -0.5718
 7778SOL    HW234968   4.650   1.170  12.921 -0.6459  1.2192  0.0022
 7779SOL     OW34969   1.342   4.362   7.967 -0.1034  0.0079 -0.1258
 7779SOL    HW134970   1.415   4.419   7.991 -0.3526  1.0188 -1.7848
 7779SOL    HW234971   1.381   4.278   7.992 -0.3903 -0.2651 -0.6132
 7780SOL     OW34972   2.023   3.922  16.373  0.0804 -0.7441 -0.2599
 7780SOL    HW134973   2.091   3.989  16.366  0.3028 -0.9453 -0.0411
 7780SOL    HW234974   2.041   3.877  16.455  2.1318 -0.6581 -0.6664
 7781SOL     OW34975   0.720   1.540   1.839  0.1618 -0.2254  0.3049
 7781SOL    HW134976   0.694   1.598   1.911  0.5782 -1.0845  1.1598
 7781SOL    HW234977   0.787   1.596   1.801 -0.9720  0.4099 -0.7546
 7782SOL     OW34978   2.326   2.476   8.397 -0.3173 -0.1671 -0.5097
 7782SOL    HW134979   2.375   2.554   8.423  0.9028 -0.4309 -2.0560
 7782SOL    HW234980   2.245   2.493   8.447  0.2264 -0.5672  0.5147
 7783SOL     OW34981   3.789   4.337  15.513 -0.1197 -0.1537  0.1628
 7783SOL    HW134982   3.835   4.412  15.552  2.4187 -0.9787 -1.2460
 7783SOL    HW234983   3.723   4.330  15.582 -0.3530 -2.0391 -0.2526
 7784SOL     OW34984   1.449   0.836   5.659  0.2163 -0.3180  0.3732
 7784SOL    HW134985   1.367   0.850   5.708 -0.1029 -1.4215  0.1690
 7784SOL    HW234986   1.415   0.824   5.570 -0.8949  0.0295  0.7463
 7785SOL     OW34987   2.116   1.479   7.535  0.0007 -0.5590  0.5371
 7785SOL    HW134988   2.118   1.406   7.472  1.4132 -0.1181  0.0691
 7785SOL    HW234989   2.187   1.460   7.596  0.4860 -1.3662 -0.2852
 7786SOL     OW34990   2.032   4.382   7.675 -0.1423 -0.5188 -0.1122
 7786SOL    HW134991   2.031   4.293   7.642 -0.7072 -1.2051  1.7293
 7786SOL    HW234992   1.948   4.385   7.722  0.9920 -3.9469  2.1233
 7787SOL     OW34993   2.374   1.152   9.470  0.0553  0.1972 -0.0370
 7787SOL    HW134994   2.313   1.119   9.535 -0.3299  0.1349 -0.4341
 7787SOL    HW234995   2.331   1.234   9.446  0.5121 -0.1761 -2.1266
 7788SOL     OW34996   0.030   1.789   2.623 -0.0381 -0.3001 -0.1745
 7788SOL    HW134997   4.710   1.724   2.663 -0.0477 -1.8081 -2.6385
 7788SOL    HW234998   0.002   1.866   2.672  0.8281  0.8250 -1.4622
 7789SOL     OW34999   4.465   1.973  16.634  0.0617  0.0309  0.0237
 7789SOL    HW135000   4.444   1.962  16.541 -0.4875  2.0057 -0.0823
 7789SOL    HW235001   4.556   2.002  16.631  0.4058 -1.1302 -0.9236
 7790SOL     OW35002   3.541   3.315   3.016 -0.4159  0.6099 -0.5739
 7790SOL    HW135003   3.620   3.273   2.983 -0.3805  1.6812 -1.8579
 7790SOL    HW235004   3.503   3.376   2.952  0.6238 -0.0414 -1.8223
 7791SOL     OW35005   3.567   0.050   9.408  0.6652  0.2027 -0.6165
 7791SOL    HW135006   3.654   0.051   9.448  0.5638  2.1778 -0.4793
 7791SOL    HW235007   3.602   0.040   9.319 -0.0551 -2.6262 -0.6016
 7792SOL     OW35008   4.498   2.117   6.840  0.0258 -0.7172  0.0047
 7792SOL    HW135009   4.469   2.061   6.768 -0.6484  0.7056 -0.8173
 7792SOL    HW235010   4.427   2.181   6.846  1.7737  1.1462  0.7156
 7793SOL     OW35011   1.812   2.231  11.549 -0.2341 -0.5318 -0.0013
 7793SOL    HW135012   1.891   2.284  11.547 -1.2137  0.8598 -2.8211
 7793SOL    HW235013   1.847   2.144  11.530  0.1225 -0.1466 -1.1488
 7794SOL     OW35014   2.805   4.183   3.495 -0.1649 -0.8747  0.2290
 7794SOL    HW135015   2.712   4.197   3.480  0.0024  0.1961  0.1516
 7794SOL    HW235016   2.840   4.272   3.498  1.3767 -1.4522 -0.2451
 7795SOL     OW35017   2.841   2.863   8.033 -0.3091  0.3562  0.5042
 7795SOL    HW135018   2.873   2.797   8.095 -0.3974 -1.4113 -1.3524
 7795SOL    HW235019   2.853   2.944   8.083  3.6324  0.7863 -1.1857
 7796SOL     OW35020   1.907   0.940  16.475 -0.6149  0.3062  0.3372
 7796SOL    HW135021   1.958   0.880  16.422 -0.3983 -0.1877  1.1003
 7796SOL    HW235022   1.936   1.024  16.440  2.0751 -1.0929 -0.7795
 7797SOL     OW35023   2.110   4.211  11.111 -0.5989 -0.2141  0.0830
 7797SOL    HW135024   2.086   4.229  11.202  1.6182  0.4625  0.5312
 7797SOL    HW235025   2.095   4.117  11.105  1.8055 -0.6157  0.3575
 7798SOL     OW35026   3.118   0.096  17.056 -0.2453 -0.3054  0.4776
 7798SOL    HW135027   3.075   0.180  17.075 -0.7867 -0.3812 -0.4264
 7798SOL    HW235028   3.208   0.117  17.030 -0.8851  0.9339 -0.7366
 7799SOL     OW35029   1.011   2.728   5.936  0.5023  0.3303  0.1792
 7799SOL    HW135030   1.001   2.708   6.029 -2.1323 -0.7238 -0.3132
 7799SOL    HW235031   1.051   2.814   5.929  1.3330 -0.1341 -0.6947
 7800SOL     OW35032   3.819   3.043   3.296  0.0327 -0.0249  0.0474
 7800SOL    HW135033   3.901   3.088   3.315  1.8005 -2.1278 -2.7320
 7800SOL    HW235034   3.841   3.031   3.204  0.1751  1.0602 -0.0620
 7801SOL     OW35035   4.054   3.959   2.378 -0.0978 -0.1715 -0.4085
 7801SOL    HW135036   4.033   4.034   2.433  0.8206 -0.3229  0.1575
 7801SOL    HW235037   4.076   3.896   2.447 -3.9035  1.1957  2.0074
 7802SOL     OW35038   0.369   2.297  13.714 -0.2432 -0.0239 -0.2101
 7802SOL    HW135039   0.306   2.322  13.646 -0.6958  0.4538  0.3756
 7802SOL    HW235040   0.304   2.291  13.784 -1.3918  2.4575 -1.0479
 7803SOL     OW35041   3.923   2.538  15.059 -0.6641 -0.0467  0.2459
 7803SOL    HW135042   3.911   2.565  14.968  0.0986 -1.7684 -0.3582
 7803SOL    HW235043   3.989   2.468  15.055 -2.8703 -2.0646 -0.5264
 7804SOL     OW35044   0.360   0.365   8.975 -0.2756  0.4132 -0.2405
 7804SOL    HW135045   0.407   0.371   9.058 -0.6468  0.1444 -0.0106
 7804SOL    HW235046   0.305   0.442   8.990 -1.0295  0.0975 -1.4340
 7805SOL     OW35047   4.027   0.839   0.032 -0.1678  0.1968 -0.4564
 7805SOL    HW135048   4.056   0.764  17.733 -1.7196 -1.1966  0.6794
 7805SOL    HW235049   3.942   0.814   0.069  0.5152  0.0990  1.0215
 7806SOL     OW35050   1.905   4.512   0.943 -0.1835 -0.6647  0.6333
 7806SOL    HW135051   1.852   4.482   1.017 -0.1749 -1.6084  0.2617
 7806SOL    HW235052   1.834   4.551   0.893  0.8762  1.7366  1.0203
 7807SOL     OW35053   3.482   2.640  15.295 -0.1684  0.1447  0.4715
 7807SOL    HW135054   3.409   2.639  15.356 -0.3892 -2.1080  0.1920
 7807SOL    HW235055   3.499   2.733  15.280 -0.2413 -0.0604 -0.9250
 7808SOL     OW35056   2.335   2.536   1.636 -0.4264  0.0772  0.6909
 7808SOL    HW135057   2.381   2.501   1.560 -0.8295 -0.4196  0.6713
 7808SOL    HW235058   2.407   2.588   1.672 -0.2674  0.1192  0.3141
 7809SOL     OW35059   1.131   1.533   5.288 -0.3049  0.1378 -0.3108
 7809SOL    HW135060   1.185   1.494   5.357 -0.3494  0.6989  0.0392
 7809SOL    HW235061   1.160   1.497   5.204 -0.5014  2.2581 -1.3050
 7810SOL     OW35062   0.338   0.258  17.364 -0.3787  0.4898 -0.3020
 7810SOL    HW135063   0.270   0.259  17.297 -0.7124 -2.1830  0.0288
 7810SOL    HW235064   0.354   0.165  17.376 -0.7367  0.4594 -0.0649
 7811SOL     OW35065   2.587   2.237  15.968  0.2301  0.4443 -0.4228
 7811SOL    HW135066   2.661   2.180  15.989 -0.9862 -0.5698  1.1133
 7811SOL    HW235067   2.540   2.174  15.913  2.5564 -1.2880 -0.4013
 7812SOL     OW35068   3.670   0.372   7.980 -0.0132  0.2209  0.3544
 7812SOL    HW135069   3.730   0.387   7.906  0.3737  1.9233  1.0273
 7812SOL    HW235070   3.688   0.281   8.005  1.0872 -0.2427 -2.0699
 7813SOL     OW35071   4.183   0.171   5.528  0.2260 -0.5127  0.2697
 7813SOL    HW135072   4.207   0.103   5.465 -2.6571  0.4933 -1.9059
 7813SOL    HW235073   4.233   0.140   5.603 -0.7878  1.8660  1.9340
 7814SOL     OW35074   3.549   2.743   0.873  0.3222 -0.0349 -0.2936
 7814SOL    HW135075   3.630   2.693   0.867  1.7447  2.0806  1.5610
 7814SOL    HW235076   3.542   2.715   0.964 -1.6407  0.9172 -0.1515
 7815SOL     OW35077   2.217   2.296  15.037 -0.0955  0.2838  0.2861
 7815SOL    HW135078   2.231   2.292  14.942  1.6344  0.4275  0.5420
 7815SOL    HW235079   2.126   2.267  15.046  1.0692 -3.2712  0.1864
 7816SOL     OW35080   1.345   0.286  15.380 -0.0940  0.6565 -0.4207
 7816SOL    HW135081   1.268   0.243  15.343 -1.1583  2.0102  0.2482
 7816SOL    HW235082   1.330   0.283  15.474  1.1152  0.0799 -0.2436
 7817SOL     OW35083   3.904   4.378   7.509  0.1617  0.2979  0.1815
 7817SOL    HW135084   3.855   4.338   7.437 -0.5741  1.8624 -0.2066
 7817SOL    HW235085   3.947   4.300   7.542  1.7334  1.8902  1.8748
 7818SOL     OW35086   0.898   2.218   6.601 -1.0638 -0.3910  0.0949
 7818SOL    HW135087   0.902   2.230   6.506 -0.7238  1.3230  0.3250
 7818SOL    HW235088   0.970   2.273   6.632  0.5153 -2.2675 -0.2751
 7819SOL     OW35089   3.027   1.396   1.855  0.0753 -0.0910  0.4379
 7819SOL    HW135090   3.109   1.427   1.892  1.0160  1.6105 -3.0412
 7819SOL    HW235091   2.956   1.439   1.904  1.5282  3.1018 -0.2496
 7820SOL     OW35092   3.187   1.780   1.021 -0.0279  0.6593 -0.9870
 7820SOL    HW135093   3.153   1.708   1.075  0.6705 -0.4480 -2.0068
 7820SOL    HW235094   3.200   1.854   1.079 -2.0676  0.7599 -0.6730
 7821SOL     OW35095   3.112   1.535   7.548  0.2898 -0.1320 -0.2723
 7821SOL    HW135096   3.188   1.586   7.574 -0.9107  1.2732  0.4724
 7821SOL    HW235097   3.144   1.449   7.521  0.4214  0.1932 -1.1509
 7822SOL     OW35098   2.399   0.556   6.016  0.3857 -0.3134 -0.2377
 7822SOL    HW135099   2.375   0.639   6.057 -4.7480 -1.9566  0.1673
 7822SOL    HW235100   2.321   0.508   6.046 -0.3309  1.0210  0.0619
 7823SOL     OW35101   0.401   0.117  12.262  0.4139 -0.0309 -0.6602
 7823SOL    HW135102   0.339   0.158  12.323  0.6053  1.1548 -1.2576
 7823SOL    HW235103   0.341   0.069  12.206  1.2258 -0.3366 -1.2642
 7824SOL     OW35104   4.170   4.051   9.155  0.4425 -0.2571 -0.2637
 7824SOL    HW135105   4.079   4.063   9.181  0.1727  1.2046 -1.8814
 7824SOL    HW235106   4.180   4.113   9.082 -0.1074  1.0325  0.7606
 7825SOL     OW35107   2.290   1.080  15.891  0.6455 -0.5735  0.1937
 7825SOL    HW135108   2.381   1.109  15.902 -0.1007  2.2227 -1.0087
 7825SOL    HW235109   2.252   1.148  15.946 -0.8524 -0.2115 -1.2666
 7826SOL     OW35110   1.630   3.897   1.774  0.1313  0.3929  0.0981
 7826SOL    HW135111   1.621   3.905   1.680 -1.8603  0.7978  0.3248
 7826SOL    HW235112   1.686   3.971   1.797 -0.8001  0.7998  1.1133
 7827SOL     OW35113   3.310   1.318  11.119  0.2157 -0.2529  0.2051
 7827SOL    HW135114   3.400   1.324  11.148  0.4241 -1.2375 -0.2098
 7827SOL    HW235115   3.331   1.277  11.035 -1.3477  3.0980 -1.8063
 7828SOL     OW35116   2.953   2.142   7.958  0.3147 -0.4330  0.1485
 7828SOL    HW135117   2.981   2.050   7.955 -1.0606 -0.8813  1.1661
 7828SOL    HW235118   2.876   2.144   8.014 -0.1489 -0.7337 -0.4656
 7829SOL     OW35119   2.032   4.492   2.019  0.0939  0.1300 -0.5772
 7829SOL    HW135120   2.031   4.458   2.108  0.2028  0.0027 -0.6246
 7829SOL    HW235121   1.940   4.490   1.993 -0.0193  2.8558 -0.4076
 7830SOL     OW35122   0.922   0.571   1.359  0.4679 -0.3658  0.0990
 7830SOL    HW135123   0.966   0.619   1.289 -0.4125 -0.0932 -0.2741
 7830SOL    HW235124   0.885   0.630   1.425 -1.5600 -1.8319  0.2749
 7831SOL     OW35125   1.908   4.368   5.218  0.2735  0.1664 -0.1667
 7831SOL    HW135126   1.860   4.419   5.283  1.7985 -1.6900  2.3911
 7831SOL    HW235127   1.854   4.289   5.227 -0.8916  0.9038 -0.6377
 7832SOL     OW35128   2.456   3.734   6.288 -0.6409  0.1012  0.0878
 7832SOL    HW135129   2.421   3.821   6.272 -0.2860 -0.0074 -1.3068
 7832SOL    HW235130   2.514   3.724   6.212  1.2434 -0.2792  1.5944
 7833SOL     OW35131   1.797   1.073  16.926  0.6564  0.4732  0.2735
 7833SOL    HW135132   1.830   1.162  16.936  3.0622 -0.3599 -0.2905
 7833SOL    HW235133   1.860   1.023  16.874  1.2885 -1.6825  3.1534
 7834SOL     OW35134   3.131   0.904  14.994  0.5747  0.2293 -0.3808
 7834SOL    HW135135   3.063   0.924  14.930  0.2310 -0.4528 -0.2287
 7834SOL    HW235136   3.182   0.840  14.945 -0.1566 -0.6179 -0.0240
 7835SOL     OW35137   4.718   2.753   1.138  0.2159 -0.3894  0.2155
 7835SOL    HW135138   4.708   2.666   1.098  2.7803  0.1612 -1.6417
 7835SOL    HW235139   4.626   2.779   1.134 -0.2661 -2.0769  0.2418
 7836SOL     OW35140   3.759   3.448   5.879 -0.3103 -0.3403 -0.0371
 7836SOL    HW135141   3.674   3.448   5.834 -0.4757  1.0996  0.2566
 7836SOL    HW235142   3.783   3.541   5.885  0.0586 -0.1740 -3.7220
 7837SOL     OW35143   2.670   0.027   7.837  0.2022  0.1806 -0.1493
 7837SOL    HW135144   2.582   0.058   7.856  0.1388 -1.2833  1.9500
 7837SOL    HW235145   2.668   0.036   7.741 -1.0272 -2.7367 -0.4024
 7838SOL     OW35146   0.766   1.239   7.050  0.7746 -0.2892 -0.2739
 7838SOL    HW135147   0.774   1.298   6.974  1.0332 -0.4357 -0.3600
 7838SOL    HW235148   0.783   1.305   7.118  0.2779  1.5966 -1.9522
 7839SOL     OW35149   1.120   4.259   6.787  0.6434 -0.0077 -0.0361
 7839SOL    HW135150   1.079   4.252   6.701  0.9732 -3.6554  0.0774
 7839SOL    HW235151   1.178   4.183   6.782  2.0262  1.1976 -2.2154
 7840SOL     OW35152   2.838   2.184   5.589 -0.6286 -0.1685  0.2048
 7840SOL    HW135153   2.906   2.249   5.573 -0.8491 -0.0486 -0.2373
 7840SOL    HW235154   2.884   2.100   5.598 -1.9654 -0.6117  3.0461
 7841SOL     OW35155   2.914   1.031   2.683 -0.2506 -0.1643 -0.5626
 7841SOL    HW135156   2.855   0.966   2.644 -1.5780  1.5460 -1.3991
 7841SOL    HW235157   2.993   0.980   2.661 -0.2069 -0.1446 -0.4532
 7842SOL     OW35158   4.400   4.498   7.512 -0.7106  0.5330 -0.1015
 7842SOL    HW135159   4.488   4.497   7.549 -0.7948 -0.6550  0.0645
 7842SOL    HW235160   4.362   4.563   7.571 -1.2424 -0.7937  1.0159
 7843SOL     OW35161   1.008   1.852   2.023  0.4327  0.8114  0.5858
 7843SOL    HW135162   1.001   1.886   1.934 -0.7374  2.8998  1.4680
 7843SOL    HW235163   0.940   1.786   2.012  1.4654 -0.3141  0.9663
 7844SOL     OW35164   3.780   2.936  16.447 -0.0260  0.3631 -0.2569
 7844SOL    HW135165   3.754   2.846  16.428  0.1200 -0.1159  1.8969
 7844SOL    HW235166   3.694   2.959  16.482  0.4583  1.0392  0.4892
 7845SOL     OW35167   4.108   2.447  10.620 -0.3287  0.3905 -0.5387
 7845SOL    HW135168   4.181   2.392  10.590 -1.1430 -0.3101 -1.2412
 7845SOL    HW235169   4.061   2.453  10.537  1.1765 -1.4112 -1.5181
 7846SOL     OW35170   2.865   0.357   1.263  0.1219  0.1019 -0.0140
 7846SOL    HW135171   2.925   0.283   1.275 -1.1093 -0.6410  1.5684
 7846SOL    HW235172   2.845   0.392   1.349  0.3157  1.9682 -0.7173
 7847SOL     OW35173   0.572   3.191   2.924 -0.1093  0.5002 -0.0781
 7847SOL    HW135174   0.649   3.245   2.910  0.4477 -1.2000 -3.6075
 7847SOL    HW235175   0.527   3.244   2.989 -0.6733  1.1891 -1.0206
 7848SOL     OW35176   0.944   1.478   3.474 -0.1836 -0.3840  0.6709
 7848SOL    HW135177   0.973   1.403   3.422 -0.8349 -0.1067 -0.0893
 7848SOL    HW235178   1.032   1.505   3.498  0.7766 -3.4716  0.6416
 7849SOL     OW35179   2.779   2.321   7.201 -0.2161  0.2657  0.0543
 7849SOL    HW135180   2.859   2.370   7.180  0.3867 -1.1673 -1.0536
 7849SOL    HW235181   2.732   2.312   7.118 -0.8643  1.4012  0.3101
 7850SOL     OW35182   1.086   2.898   4.316  0.7293  0.7495 -0.0495
 7850SOL    HW135183   1.169   2.861   4.348  0.9925  0.5432 -0.9633
 7850SOL    HW235184   1.086   2.890   4.221 -2.9288 -1.2330  0.1361
 7851SOL     OW35185   4.483   4.593   6.095 -0.4054  0.2765 -0.0433
 7851SOL    HW135186   4.572   4.606   6.064  0.3441  0.3531  2.1650
 7851SOL    HW235187   4.467   4.655   6.166 -1.5745 -0.0794  0.0082
 7852SOL     OW35188   2.536   0.177  10.588  0.0550 -0.3561 -0.3841
 7852SOL    HW135189   2.594   0.252  10.606  1.0343 -0.9028 -1.2928
 7852SOL    HW235190   2.598   0.139  10.526 -0.5297 -0.6097 -0.8104
 7853SOL     OW35191   1.248   1.264  17.124 -0.5828  0.5050 -0.6000
 7853SOL    HW135192   1.328   1.213  17.118 -1.7973 -1.4399 -0.5572
 7853SOL    HW235193   1.278   1.349  17.094  1.0935 -0.6853 -2.3378
 7854SOL     OW35194   1.651   0.047   6.658  0.3003  0.0432 -0.0828
 7854SOL    HW135195   1.629   4.705   6.703 -0.2175  0.5801  0.6267
 7854SOL    HW235196   1.570   0.095   6.675  1.2527  2.1292 -1.3465
 7855SOL     OW35197   3.470   3.301   5.847 -0.2365  0.2882 -0.8821
 7855SOL    HW135198   3.461   3.366   5.917  0.5871 -0.8652  0.2835
 7855SOL    HW235199   3.498   3.221   5.891  0.3063  0.2197 -1.3543
 7856SOL     OW35200   4.039   3.466   6.311  0.1915 -0.2504  0.1062
 7856SOL    HW135201   4.015   3.414   6.389  1.0581 -0.4076  0.2662
 7856SOL    HW235202   4.122   3.503   6.342  0.0271  1.5080 -1.5863
 7857SOL     OW35203   4.609   2.333   5.785 -0.5509 -0.5761 -0.4574
 7857SOL    HW135204   4.617   2.343   5.880  0.9953 -1.1220 -0.5391
 7857SOL    HW235205   4.515   2.312   5.781 -0.5977 -0.8676  1.7436
 7858SOL     OW35206   1.217   3.469   2.776  0.0914 -0.1333  0.8798
 7858SOL    HW135207   1.220   3.395   2.836  0.1899  0.3775  1.5067
 7858SOL    HW235208   1.270   3.437   2.702 -0.0752  0.4552  0.5066
 7859SOL     OW35209   2.208   1.281  17.445 -0.5538 -0.1214  0.3386
 7859SOL    HW135210   2.168   1.267  17.530 -0.5743  1.7755  0.6490
 7859SOL    HW235211   2.287   1.329  17.469 -1.1409  0.8005  0.4298
 7860SOL     OW35212   2.709   2.494   8.569 -0.1997 -0.5888 -0.3254
 7860SOL    HW135213   2.748   2.420   8.615 -0.4143 -0.6767 -0.2835
 7860SOL    HW235214   2.649   2.439   8.519 -0.6691 -0.1969 -0.2070
 7861SOL     OW35215   2.466   1.248  13.142  0.3444 -0.5318  0.2380
 7861SOL    HW135216   2.519   1.313  13.095  0.6712 -2.0007 -1.4409
 7861SOL    HW235217   2.458   1.179  13.076  3.1466  0.1989 -0.8603
 7862SOL     OW35218   2.710   1.146   1.970 -0.2883 -0.7175  0.0135
 7862SOL    HW135219   2.675   1.065   2.008  1.7521 -1.5903  0.0687
 7862SOL    HW235220   2.800   1.130   1.998  0.0299  2.6757  0.9162
 7863SOL     OW35221   3.940   3.364   3.127 -0.0736  0.0549  0.2402
 7863SOL    HW135222   3.857   3.365   3.078 -1.4617 -1.4893  2.5478
 7863SOL    HW235223   3.970   3.275   3.108  1.6117  0.8603 -0.7944
 7864SOL     OW35224   1.862   1.481  16.169  0.5413  0.1130 -0.0683
 7864SOL    HW135225   1.850   1.503  16.261  3.7213 -2.8686  1.0516
 7864SOL    HW235226   1.869   1.387  16.156  0.2514 -0.2501  2.5577
 7865SOL     OW35227   0.794   2.566  14.989 -0.2278  0.0101  0.1139
 7865SOL    HW135228   0.840   2.601  15.065  0.6245 -1.5597  0.3216
 7865SOL    HW235229   0.852   2.501  14.948 -0.7201 -0.0719 -0.4544
 7866SOL     OW35230   2.161   4.552  16.491  0.0634  1.6002 -0.4264
 7866SOL    HW135231   2.163   4.599  16.407  0.2832 -2.5668 -2.7343
 7866SOL    HW235232   2.074   4.578  16.522 -0.3106 -1.0304  0.7201
 7867SOL     OW35233   3.601   1.259   9.273 -0.1892 -0.2835  0.5130
 7867SOL    HW135234   3.661   1.331   9.258 -0.8101 -0.3273 -2.0931
 7867SOL    HW235235   3.519   1.294   9.237  0.2359  0.1346 -0.0393
 7868SOL     OW35236   3.552   1.934  17.655 -0.9086  0.2414  0.0833
 7868SOL    HW135237   3.552   2.018  17.608 -2.0647 -0.2293 -0.7548
 7868SOL    HW235238   3.471   1.894  17.623 -0.7253 -1.4582  1.7441
 7869SOL     OW35239   0.601   4.203   2.217  1.3111  0.1286 -0.0447
 7869SOL    HW135240   0.660   4.183   2.145  1.9550  0.2001  0.4596
 7869SOL    HW235241   0.593   4.115   2.253 -2.2341  1.6676  3.0794
 7870SOL     OW35242   1.466   2.521   8.200 -0.2620 -0.5126  0.7046
 7870SOL    HW135243   1.433   2.608   8.223 -1.7016 -0.3552 -1.9396
 7870SOL    HW235244   1.546   2.531   8.252 -0.0702  0.7617  0.1712
 7871SOL     OW35245   1.439   2.323   3.681  0.2867  0.2084 -0.1822
 7871SOL    HW135246   1.475   2.389   3.740  0.6005  0.4789 -0.6711
 7871SOL    HW235247   1.447   2.244   3.735  1.3390  0.6265  0.2833
 7872SOL     OW35248   3.320   4.020   5.989  0.7707  0.2342  0.3482
 7872SOL    HW135249   3.269   4.098   6.010  0.1912 -0.6466  2.1703
 7872SOL    HW235250   3.387   4.034   6.056  1.6459 -1.0430 -0.2541
 7873SOL     OW35251   2.280   4.588  15.989  0.8235  0.5508 -0.0487
 7873SOL    HW135252   2.297   4.682  15.988 -0.6177  0.8231  0.4395
 7873SOL    HW235253   2.249   4.570  15.900 -0.7686  1.3630  0.3487
 7874SOL     OW35254   0.245   1.187   7.598  0.0405  0.0922 -0.0281
 7874SOL    HW135255   0.238   1.131   7.675  0.1277  0.2707  0.1089
 7874SOL    HW235256   0.182   1.254   7.625 -0.1845  0.2276 -0.8939
 7875SOL     OW35257   2.678   4.295   9.256 -0.1888 -0.6459  0.1401
 7875SOL    HW135258   2.600   4.278   9.309 -0.3752  3.1076  1.0467
 7875SOL    HW235259   2.711   4.366   9.311  0.3688 -1.4312  0.8090
 7876SOL     OW35260   4.328   4.352   4.525 -0.6560  0.9927  0.5793
 7876SOL    HW135261   4.326   4.350   4.430  1.0398 -0.6859  0.5675
 7876SOL    HW235262   4.333   4.258   4.542 -0.1806  0.6691 -1.4137
 7877SOL     OW35263   3.678   3.360   1.328 -0.2527  0.1815  0.2951
 7877SOL    HW135264   3.689   3.370   1.234  1.0297  0.0300  0.4267
 7877SOL    HW235265   3.617   3.286   1.333 -0.6356  0.2770 -3.6531
 7878SOL     OW35266   3.117   0.482   6.850 -0.4862 -0.7272  0.2796
 7878SOL    HW135267   3.143   0.465   6.759  1.1244 -1.1572  0.8123
 7878SOL    HW235268   3.147   0.572   6.865  0.4206 -0.8588 -0.7805
 7879SOL     OW35269   3.882   3.849   5.702 -0.1258 -0.2960 -0.6274
 7879SOL    HW135270   3.881   3.758   5.673  0.2186 -0.3390 -0.5002
 7879SOL    HW235271   3.814   3.885   5.644  0.9607  1.2230 -0.9756
 7880SOL     OW35272   2.231   0.767  12.574  0.7102 -0.3525  0.4149
 7880SOL    HW135273   2.216   0.714  12.652  0.9973  0.1849  0.8388
 7880SOL    HW235274   2.141   0.797  12.558  1.4530  1.6964  0.0164
 7881SOL     OW35275   3.712   1.858   8.310  0.3763 -0.0194 -0.2684
 7881SOL    HW135276   3.807   1.850   8.300  0.2033 -2.0491 -0.2656
 7881SOL    HW235277   3.687   1.914   8.236  0.3814  1.5183  0.8872
 7882SOL     OW35278   2.746   1.948   0.525 -1.0799 -0.0749  0.6394
 7882SOL    HW135279   2.741   1.927   0.618 -0.9732 -0.9169  0.4535
 7882SOL    HW235280   2.841   1.960   0.514 -1.0053 -2.3110 -1.2261
 7883SOL     OW35281   0.949   3.634   0.670  0.1861  0.3684  0.2977
 7883SOL    HW135282   0.991   3.596   0.746 -2.4750  0.6035  1.8905
 7883SOL    HW235283   0.977   3.726   0.671  1.5481 -0.0717  1.2611
 7884SOL     OW35284   0.253   0.990   8.401 -0.1919 -0.0034  0.6056
 7884SOL    HW135285   0.165   0.992   8.364  0.7897  0.4351 -1.6876
 7884SOL    HW235286   0.308   1.035   8.337 -1.2825 -1.5672 -1.4183
 7885SOL     OW35287   3.454   1.488   9.118  0.2057  0.7785 -0.0053
 7885SOL    HW135288   3.545   1.517   9.128 -0.3086  1.7479  1.8347
 7885SOL    HW235289   3.449   1.476   9.023  4.4554  1.4268 -0.3002
 7886SOL     OW35290   2.378   2.332   9.988 -0.9290 -0.0995 -0.1229
 7886SOL    HW135291   2.305   2.270   9.988 -1.2278  0.2410  1.0766
 7886SOL    HW235292   2.372   2.378  10.072 -0.9637  0.2002 -0.2890
 7887SOL     OW35293   0.010   2.763  14.442 -0.4554 -0.1576 -0.1042
 7887SOL    HW135294   4.689   2.831  14.412  0.2113  0.3532 -0.2540
 7887SOL    HW235295   0.050   2.798  14.522 -0.8429  1.4592 -0.6239
 7888SOL     OW35296   2.665   2.699   7.434 -0.1560  0.2092  0.1240
 7888SOL    HW135297   2.637   2.609   7.415 -0.4322  0.1643  0.7213
 7888SOL    HW235298   2.753   2.708   7.398  0.5588  0.4436  1.9671
 7889SOL     OW35299   4.078   1.998   4.003 -0.7399  0.4620  0.1701
 7889SOL    HW135300   4.157   1.947   4.021 -1.1470 -0.4996 -0.7508
 7889SOL    HW235301   4.120   2.084   3.997 -0.5811  0.4573  1.3928
 7890SOL     OW35302   3.308   4.354   3.916 -0.0484 -0.0262 -0.3719
 7890SOL    HW135303   3.276   4.278   3.965 -0.6061  0.1386 -0.4729
 7890SOL    HW235304   3.261   4.422   3.964 -0.5421 -1.3010  0.9647
 7891SOL     OW35305   0.164   2.955   4.210  1.0072  0.1027 -0.3804
 7891SOL    HW135306   0.150   2.988   4.121  1.5190 -2.1041 -1.2840
 7891SOL    HW235307   0.137   3.025   4.269 -0.1532 -1.6239  1.1377
 7892SOL     OW35308   3.911   0.643   6.043 -0.5232 -0.1770  0.7183
 7892SOL    HW135309   4.006   0.641   6.027 -0.6844  0.1870 -0.2872
 7892SOL    HW235310   3.919   0.664   6.136 -0.4424  0.3878  0.5796
 7893SOL     OW35311   4.530   2.012   5.591 -0.2691 -0.8087  0.4910
 7893SOL    HW135312   4.608   2.056   5.556 -0.4955  0.0197  1.0104
 7893SOL    HW235313   4.569   1.957   5.659  2.1143  1.9321  1.3905
 7894SOL     OW35314   2.664   4.660   2.958 -0.2701  0.1786 -0.9159
 7894SOL    HW135315   2.659   4.599   3.032  1.8067  0.7767 -0.2772
 7894SOL    HW235316   2.751   4.647   2.919 -0.1628 -1.1290 -0.2591
 7895SOL     OW35317   0.557   1.341   3.719 -0.0953  0.2692  0.0142
 7895SOL    HW135318   0.625   1.405   3.701 -0.0033 -0.0801 -0.8646
 7895SOL    HW235319   0.506   1.378   3.791 -1.1893 -0.4371 -0.3960
 7896SOL     OW35320   2.506   2.218  17.326 -0.1951  0.1789  0.0280
 7896SOL    HW135321   2.469   2.223  17.238  2.6763 -1.5688 -1.2806
 7896SOL    HW235322   2.421   2.216  17.370  0.4968  0.0642  1.3925
 7897SOL     OW35323   2.640   1.414   0.007  0.1650 -0.0271 -0.1935
 7897SOL    HW135324   2.621   1.464   0.087 -0.6043  0.2385 -0.5443
 7897SOL    HW235325   2.677   1.485  17.708 -1.1017  1.4345  0.8869
 7898SOL     OW35326   2.159   3.209   2.818 -0.3535 -0.6631 -0.1907
 7898SOL    HW135327   2.089   3.271   2.841  0.7047 -0.3379  2.1456
 7898SOL    HW235328   2.127   3.129   2.859  1.0279 -0.8077  0.5772
 7899SOL     OW35329   3.767   2.155   3.846  0.6632 -0.0430 -0.5300
 7899SOL    HW135330   3.719   2.200   3.916  1.1992 -1.8011  0.9783
 7899SOL    HW235331   3.708   2.184   3.777 -0.7872  0.2220  0.8157
 7900SOL     OW35332   1.443   1.364   4.834 -0.2579 -0.0637  0.0459
 7900SOL    HW135333   1.400   1.370   4.749  0.5449  2.3519 -0.2089
 7900SOL    HW235334   1.529   1.397   4.808 -1.1153 -0.6795 -3.5114
 7901SOL     OW35335   3.734   1.701   1.487  0.3346 -0.2305  0.2645
 7901SOL    HW135336   3.644   1.667   1.488 -0.3128  1.3965 -3.0648
 7901SOL    HW235337   3.718   1.789   1.522  0.4260  0.1046 -0.5314
 7902SOL     OW35338   4.279   1.812   6.891 -0.8734 -0.1691 -0.7349
 7902SOL    HW135339   4.332   1.734   6.875  1.7752  1.8197 -1.5086
 7902SOL    HW235340   4.302   1.865   6.815  1.9269 -0.3831 -0.0369
 7903SOL     OW35341   4.478   3.412   7.719  0.2337  0.4485  0.4393
 7903SOL    HW135342   4.394   3.447   7.688  0.6878  0.2578 -1.0208
 7903SOL    HW235343   4.456   3.440   7.808 -1.3586  0.6809 -0.0311
 7904SOL     OW35344   3.599   3.818   4.149 -0.2699  0.3991 -0.7518
 7904SOL    HW135345   3.676   3.850   4.103  0.9881  0.0861  1.1371
 7904SOL    HW235346   3.553   3.770   4.079 -0.0253 -0.0576 -0.6041
 7905SOL     OW35347   3.550   1.806   3.782 -0.6793  0.2520  0.3880
 7905SOL    HW135348   3.632   1.853   3.802 -0.2266 -0.7935  0.9837
 7905SOL    HW235349   3.544   1.742   3.853 -0.1336  1.1106  1.2278
 7906SOL     OW35350   4.690   0.173  12.587  0.5273 -0.6247  0.6083
 7906SOL    HW135351   4.652   0.107  12.528 -1.2629 -0.7561  1.9105
 7906SOL    HW235352   4.612   0.190  12.639  0.0033 -2.0147  0.2762
 7907SOL     OW35353   4.528   0.685   0.575 -0.0666  0.1749  0.3114
 7907SOL    HW135354   4.524   0.713   0.483 -1.3329  1.0582  0.6356
 7907SOL    HW235355   4.529   0.591   0.561 -0.8439  0.0529  1.0694
 7908SOL     OW35356   4.187   4.141   7.279 -0.6452 -0.3266 -0.1818
 7908SOL    HW135357   4.111   4.082   7.276  1.5539 -2.9780 -3.0575
 7908SOL    HW235358   4.197   4.172   7.369 -0.5769 -0.3123 -0.1944
 7909SOL     OW35359   4.231   2.836   2.620  0.6934  0.2375  0.1787
 7909SOL    HW135360   4.220   2.909   2.558 -0.7555 -0.2881 -0.1976
 7909SOL    HW235361   4.288   2.781   2.566 -1.1001 -0.1381 -1.3522
 7910SOL     OW35362   1.936   1.579  15.656  0.4005  0.4152 -0.4383
 7910SOL    HW135363   2.005   1.645  15.664  0.8348  0.0020 -0.7775
 7910SOL    HW235364   1.916   1.569  15.749  2.4461  0.1506 -0.0342
 7911SOL     OW35365   1.494   0.414   3.837 -0.2587  0.2438 -0.4541
 7911SOL    HW135366   1.499   0.475   3.763  0.1669 -0.0005 -0.6251
 7911SOL    HW235367   1.444   0.337   3.810  0.7645 -0.3364 -0.6648
 7912SOL     OW35368   1.759   4.451   1.171 -0.0170  0.1188  0.2521
 7912SOL    HW135369   1.706   4.469   1.248 -1.2799  1.6706 -0.9765
 7912SOL    HW235370   1.775   4.358   1.183  1.0146  0.1392 -0.8347
 7913SOL     OW35371   2.533   1.255   1.380  0.0749  0.3042  0.4655
 7913SOL    HW135372   2.461   1.278   1.438 -2.1507  2.6850 -3.2983
 7913SOL    HW235373   2.610   1.295   1.421 -1.4389  2.0746  1.5378
 7914SOL     OW35374   3.307   4.459  12.004  0.2737  0.3222  0.5591
 7914SOL    HW135375   3.350   4.377  11.981 -2.5236 -0.9676 -0.0177
 7914SOL    HW235376   3.214   4.451  11.983 -0.3653 -0.0969  3.6165
 7915SOL     OW35377   4.306   1.044   2.905 -0.0848 -0.1212 -0.3377
 7915SOL    HW135378   4.237   1.103   2.873 -0.0465  0.4434  0.6130
 7915SOL    HW235379   4.292   1.043   2.999 -1.2825  0.8129 -0.4951
 7916SOL     OW35380   1.511   3.925   2.185  0.1802 -0.1820 -0.4657
 7916SOL    HW135381   1.560   3.882   2.254  0.0004 -0.3072 -0.4167
 7916SOL    HW235382   1.494   4.015   2.215 -0.1568 -0.9073  1.4939
 7917SOL     OW35383   3.073   3.565   5.702 -0.8382 -0.6558 -0.0617
 7917SOL    HW135384   3.168   3.568   5.715 -0.7667  1.4315 -1.1165
 7917SOL    HW235385   3.042   3.487   5.747  0.3042 -1.4692 -0.6946
 7918SOL     OW35386   1.233   1.731   4.636 -0.2157 -0.1425 -0.1974
 7918SOL    HW135387   1.145   1.703   4.615  0.2404  0.2765 -2.6010
 7918SOL    HW235388   1.223   1.826   4.643 -0.8007 -0.2349  0.1526
 7919SOL     OW35389   2.771   2.160   4.325  0.9652  0.7080  0.4561
 7919SOL    HW135390   2.822   2.188   4.249  0.4552  1.0391  0.2339
 7919SOL    HW235391   2.836   2.166   4.395 -0.9484 -0.4157  2.3655
 7920SOL     OW35392   0.610   3.046   8.697  0.0838 -0.2221  0.4968
 7920SOL    HW135393   0.615   3.107   8.624  0.1780  0.9016  1.4355
 7920SOL    HW235394   0.632   2.961   8.659  0.9093 -1.1958  3.1046
 7921SOL     OW35395   3.313   0.565  15.774  0.3817 -0.1902  0.4091
 7921SOL    HW135396   3.289   0.493  15.716 -0.6961 -0.1536  0.8259
 7921SOL    HW235397   3.250   0.633  15.750  1.0234  0.2112 -0.1302
 7922SOL     OW35398   2.989   0.723  16.064 -0.3292 -0.0445 -0.4102
 7922SOL    HW135399   2.941   0.731  15.981 -2.4112  1.5963  0.9246
 7922SOL    HW235400   2.947   0.643  16.095  0.3677  0.2482  1.2704
 7923SOL     OW35401   4.370   4.363   4.234 -0.3969 -0.2716  0.4566
 7923SOL    HW135402   4.331   4.441   4.275  0.3286  0.5700 -0.4368
 7923SOL    HW235403   4.310   4.369   4.159  0.4203 -2.7737 -0.3871
 7924SOL     OW35404   1.308   0.559  12.232 -0.3895  0.4197 -0.0443
 7924SOL    HW135405   1.373   0.629  12.237  1.2551 -1.0649 -0.5227
 7924SOL    HW235406   1.228   0.607  12.251 -1.9850 -0.9178 -3.3483
 7925SOL     OW35407   4.360   0.599  15.248  0.4883 -0.3303 -0.4281
 7925SOL    HW135408   4.279   0.572  15.206 -0.3722  1.8690 -0.1582
 7925SOL    HW235409   4.423   0.562  15.186 -0.4072  0.0479 -1.5635
 7926SOL     OW35410   1.336   1.097   6.132 -0.3047 -0.4255  0.3063
 7926SOL    HW135411   1.361   1.006   6.150 -1.6237 -0.5458  1.5575
 7926SOL    HW235412   1.402   1.148   6.179 -1.8252  0.3344  1.5879
 7927SOL     OW35413   1.566   2.128   2.930 -0.1897 -0.2702 -0.2076
 7927SOL    HW135414   1.576   2.035   2.913 -5.7343 -0.8079 -0.3276
 7927SOL    HW235415   1.473   2.130   2.909  0.0788  0.1196 -1.3642
 7928SOL     OW35416   3.685   0.397   5.162  0.0125 -0.2932  0.0097
 7928SOL    HW135417   3.722   0.452   5.232 -0.6406  1.6134 -1.1468
 7928SOL    HW235418   3.658   0.322   5.214  1.3786 -2.6540 -2.6734
 7929SOL     OW35419   0.819   0.129   7.726 -0.4678 -0.3184 -0.4025
 7929SOL    HW135420   0.842   0.101   7.814 -1.9682 -0.9454 -0.2151
 7929SOL    HW235421   0.894   0.094   7.679 -0.9552 -1.9383  0.0579
 7930SOL     OW35422   1.362   0.316   8.031 -0.3435  0.2831  0.0866
 7930SOL    HW135423   1.352   0.336   8.124  0.4383  1.0459  0.0194
 7930SOL    HW235424   1.410   0.398   8.014 -0.1120  0.5938  2.1422
 7931SOL     OW35425   0.507   3.069   5.902 -0.3958 -0.2778 -0.2396
 7931SOL    HW135426   0.579   3.049   5.962  0.5399 -0.7214 -1.5252
 7931SOL    HW235427   0.458   3.137   5.949  2.1630  0.6565  1.0921
 7932SOL     OW35428   3.712   4.078   3.760 -0.2388 -0.2458 -0.3595
 7932SOL    HW135429   3.785   4.086   3.699  0.4941 -2.3964  0.2376
 7932SOL    HW235430   3.643   4.131   3.719 -1.1334 -0.2282  1.1711
 7933SOL     OW35431   3.701   0.331   2.672  0.3129  0.0415 -0.0627
 7933SOL    HW135432   3.762   0.296   2.737 -1.6615 -1.1866  1.1289
 7933SOL    HW235433   3.619   0.300   2.711  0.2598 -1.0512 -1.0403
 7934SOL     OW35434   0.573   3.057   0.770  0.1850  0.3564 -0.3438
 7934SOL    HW135435   0.506   2.992   0.791  2.6027 -2.4928 -1.6018
 7934SOL    HW235436   0.650   3.037   0.822  0.5240 -0.2894 -1.0968
 7935SOL     OW35437   1.980   4.184  14.362 -0.1809  0.5563 -0.0608
 7935SOL    HW135438   1.944   4.101  14.331 -0.0066  0.4154  0.1173
 7935SOL    HW235439   2.069   4.150  14.373 -0.9681 -1.3968  0.2976
 7936SOL     OW35440   3.217   2.697   6.475 -0.1931  0.0977  0.0445
 7936SOL    HW135441   3.132   2.653   6.476 -0.4090  0.5009 -0.2662
 7936SOL    HW235442   3.183   2.786   6.463 -0.8613 -0.3434 -1.4031
 7937SOL     OW35443   2.061   1.516   4.310  0.2402  0.3068  0.4573
 7937SOL    HW135444   2.114   1.445   4.274  0.6561  0.1664  1.3480
 7937SOL    HW235445   1.986   1.517   4.250  0.2864  0.0043  0.3910
 7938SOL     OW35446   2.371   4.548  12.535 -0.0125 -0.4400 -0.5385
 7938SOL    HW135447   2.444   4.510  12.584 -1.8539 -1.9545  1.0371
 7938SOL    HW235448   2.417   4.620  12.492 -0.8337  1.0855  1.1101
 7939SOL     OW35449   1.468   1.541   5.570 -0.0361 -0.0036  0.7193
 7939SOL    HW135450   1.445   1.502   5.486  2.5698  1.7544 -0.8304
 7939SOL    HW235451   1.556   1.574   5.549  0.5966 -2.8137 -1.0830
 7940SOL     OW35452   0.001   3.411   6.843  0.2545  0.4065 -0.7042
 7940SOL    HW135453   0.029   3.497   6.811 -1.3683  0.7079 -1.2838
 7940SOL    HW235454   4.714   3.440   6.931  1.5442 -0.1745 -0.1259
 7941SOL     OW35455   1.299   4.432   5.564 -0.4568 -0.1087 -0.5501
 7941SOL    HW135456   1.316   4.441   5.658 -2.3906 -0.0218 -0.2070
 7941SOL    HW235457   1.208   4.461   5.553  0.1592  3.3092  3.3584
 7942SOL     OW35458   2.032   1.052   8.887 -0.5434  0.7233  0.5246
 7942SOL    HW135459   2.018   0.958   8.899  1.9846  0.2635 -0.2142
 7942SOL    HW235460   1.946   1.065   8.848 -0.2814  1.1080  0.0926
 7943SOL     OW35461   2.192   1.599  12.915 -0.0297  0.2688  0.4195
 7943SOL    HW135462   2.189   1.505  12.897  3.5033  0.6994 -2.4809
 7943SOL    HW235463   2.258   1.610  12.984 -0.1964  0.2813  0.5757
 7944SOL     OW35464   4.093   1.350   4.531  0.6534  0.0620  0.2321
 7944SOL    HW135465   4.020   1.380   4.586  0.4361  1.2452 -0.6953
 7944SOL    HW235466   4.038   1.288   4.482 -0.9308  1.4598  0.2369
 7945SOL     OW35467   0.087   1.836   8.274 -0.6379 -0.5181  0.2447
 7945SOL    HW135468   0.043   1.872   8.351 -1.4386 -1.1050  0.0551
 7945SOL    HW235469   0.054   1.896   8.207 -0.9698 -0.8650  0.0981
 7946SOL     OW35470   1.336   2.566   5.630  0.3770 -0.0544  0.2968
 7946SOL    HW135471   1.344   2.659   5.651  1.0516  0.0316 -0.3411
 7946SOL    HW235472   1.381   2.568   5.546 -2.1816  1.7098 -1.0361
 7947SOL     OW35473   0.293   1.330   6.772 -0.0583 -0.0155  0.3329
 7947SOL    HW135474   0.262   1.334   6.681 -1.6906  0.8490  0.9182
 7947SOL    HW235475   0.251   1.251   6.806 -3.8949  1.4850 -0.9191
 7948SOL     OW35476   0.079   3.267   4.263  0.4438 -0.0390 -0.7158
 7948SOL    HW135477   0.058   3.343   4.210 -5.3744 -0.3079  1.1781
 7948SOL    HW235478   0.163   3.287   4.304  0.1303  1.0469 -0.6158
 7949SOL     OW35479   3.738   2.286  16.415 -0.6590 -0.2154 -0.1210
 7949SOL    HW135480   3.788   2.212  16.380 -0.1184  0.6305 -1.1331
 7949SOL    HW235481   3.791   2.309  16.491  0.2924 -1.9944 -0.2575
 7950SOL     OW35482   4.528   4.535   8.530 -0.3110  0.2253  0.2131
 7950SOL    HW135483   4.475   4.591   8.587  2.3874  2.1242  0.8671
 7950SOL    HW235484   4.592   4.596   8.493  0.7719  0.3221  2.2305
 7951SOL     OW35485   1.494   0.687   0.402  0.5455  0.3110  0.0030
 7951SOL    HW135486   1.449   0.739   0.468  1.3524  1.0867 -0.0644
 7951SOL    HW235487   1.435   0.611   0.401 -0.3165  0.9822  0.0936
 7952SOL     OW35488   0.831   2.983  11.731 -0.7217  0.1624  0.0350
 7952SOL    HW135489   0.783   2.950  11.655  0.1768  0.1870 -0.5407
 7952SOL    HW235490   0.756   2.993  11.790  0.1964 -1.5107  1.4840
 7953SOL     OW35491   3.874   4.055   5.925 -0.5653 -0.1322 -0.5280
 7953SOL    HW135492   3.851   3.989   5.991 -0.5390 -0.7231 -1.1110
 7953SOL    HW235493   3.860   4.000   5.848 -1.4555 -0.9942  0.2367
 7954SOL     OW35494   1.579   3.158   5.414  0.0947  0.5738 -0.3998
 7954SOL    HW135495   1.605   3.129   5.327 -0.7642 -1.2375 -0.0520
 7954SOL    HW235496   1.550   3.244   5.384  1.2112  1.2657  0.4935
 7955SOL     OW35497   2.602   4.408   4.867  0.4803  0.0378  0.1019
 7955SOL    HW135498   2.679   4.413   4.924  0.3732 -0.1563  0.2605
 7955SOL    HW235499   2.558   4.335   4.910  1.6020  0.3612  1.7976
 7956SOL     OW35500   1.100   1.438   2.809  0.0836  0.6839 -0.0905
 7956SOL    HW135501   1.168   1.456   2.744 -2.7666  0.4096 -3.1226
 7956SOL    HW235502   1.067   1.527   2.817 -0.7273  0.2464  1.4817
 7957SOL     OW35503   3.799   3.359   9.026 -0.4144  0.2170 -0.4435
 7957SOL    HW135504   3.772   3.278   9.070 -0.3449  0.1185 -0.5827
 7957SOL    HW235505   3.858   3.314   8.967  0.1723  1.8587 -1.1149
 7958SOL     OW35506   2.010   1.162  16.400  0.2725 -0.4653  0.0718
 7958SOL    HW135507   2.079   1.205  16.349 -0.1168  0.0187 -0.0491
 7958SOL    HW235508   2.014   1.198  16.489 -2.3052 -2.9662  1.1924
 7959SOL     OW35509   3.398   1.585   6.988  0.4528  0.4570  0.0831
 7959SOL    HW135510   3.377   1.619   7.075 -0.4858 -0.3769  0.1788
 7959SOL    HW235511   3.436   1.500   7.010  1.0119  1.0442  1.3584
 7960SOL     OW35512   1.565   4.651   1.420 -0.3986  0.0851 -0.1732
 7960SOL    HW135513   1.653   4.655   1.383 -0.0132 -0.5019  0.6875
 7960SOL    HW235514   1.554   4.556   1.417  0.5383 -0.0403  0.3125
 7961SOL     OW35515   3.240   0.851   4.678  0.2961 -0.0773  0.3693
 7961SOL    HW135516   3.234   0.778   4.740 -0.4310 -0.9236 -0.6815
 7961SOL    HW235517   3.314   0.905   4.705 -0.3352  1.6059 -1.2189
 7962SOL     OW35518   1.472   0.892  17.607  0.4853  0.4182  0.0137
 7962SOL    HW135519   1.441   0.935  17.686 -0.5255  3.1899 -1.9013
 7962SOL    HW235520   1.470   0.973  17.556 -1.0287 -0.3569 -1.1686
 7963SOL     OW35521   2.987   3.342   2.602  0.2839  0.2549 -0.1327
 7963SOL    HW135522   2.911   3.303   2.560 -0.3647  0.5735  0.7268
 7963SOL    HW235523   3.048   3.269   2.613 -1.2449 -0.8748  0.7084
 7964SOL     OW35524   2.022   1.680   1.649 -0.6195 -0.0958  0.4858
 7964SOL    HW135525   2.012   1.738   1.724  1.4832 -1.4532  1.8334
 7964SOL    HW235526   2.097   1.626   1.675 -1.3679 -0.5182  1.7347
 7965SOL     OW35527   0.644   0.893   5.395 -0.6045 -0.0998 -0.1667
 7965SOL    HW135528   0.582   0.862   5.329  2.1367 -5.2105 -0.3220
 7965SOL    HW235529   0.595   0.967   5.431 -0.4824 -0.9822  1.8437
 7966SOL     OW35530   1.324   3.815   6.667 -0.5668 -0.1148 -0.0409
 7966SOL    HW135531   1.290   3.751   6.604 -1.0013 -1.7779  1.9140
 7966SOL    HW235532   1.383   3.754   6.711 -1.3462 -0.4661  0.4994
 7967SOL     OW35533   4.654   3.867   2.493 -0.2528  0.2103  0.1998
 7967SOL    HW135534   0.009   3.848   2.486 -0.2539  0.4648 -0.5429
 7967SOL    HW235535   4.664   3.908   2.579  2.5603  0.5697 -0.2730
 7968SOL     OW35536   4.282   0.653   3.924  0.2061  0.1185  0.5105
 7968SOL    HW135537   4.302   0.656   3.830  1.6880 -1.4465  0.7774
 7968SOL    HW235538   4.247   0.742   3.930  1.1746  0.5313  0.1202
 7969SOL     OW35539   1.957   0.582  15.740 -0.2515 -0.8086 -0.0011
 7969SOL    HW135540   1.882   0.567  15.682  0.1771  1.3534 -1.1042
 7969SOL    HW235541   1.906   0.636  15.801  2.3694  2.2578 -0.5567
 7970SOL     OW35542   3.929   4.199   6.618  0.4987 -0.5541  0.6321
 7970SOL    HW135543   4.010   4.229   6.659  0.4302  0.0250  0.3460
 7970SOL    HW235544   3.862   4.257   6.654  2.4648  1.1235  1.5914
 7971SOL     OW35545   3.168   2.563   2.361 -0.5679 -0.7330 -0.6104
 7971SOL    HW135546   3.198   2.638   2.310  1.2019 -0.1027  1.3542
 7971SOL    HW235547   3.241   2.541   2.419 -0.1961 -3.2050 -2.0466
 7972SOL     OW35548   4.272   2.610   3.702  0.1624 -0.5382  0.0624
 7972SOL    HW135549   4.339   2.660   3.750  0.0106 -0.2430 -0.0310
 7972SOL    HW235550   4.195   2.619   3.758 -0.9724  0.7794 -1.6830
 7973SOL     OW35551   4.730   1.719   0.048  0.2906  0.3490  0.1681
 7973SOL    HW135552   4.724   1.811   0.071  3.8523  0.4903  0.5731
 7973SOL    HW235553   4.639   1.690   0.054 -0.3346  2.0173 -1.2355
 7974SOL     OW35554   3.645   3.825  17.282 -0.1788 -0.0616  0.2445
 7974SOL    HW135555   3.579   3.771  17.324  0.8973 -2.0392 -0.5995
 7974SOL    HW235556   3.592   3.904  17.268 -1.0459 -0.8854 -1.1338
 7975SOL     OW35557   1.716   1.465  10.673 -0.5427  0.5417 -0.3920
 7975SOL    HW135558   1.805   1.438  10.693 -1.0068 -0.7725 -0.1229
 7975SOL    HW235559   1.729   1.543  10.620 -1.7450  2.3787  1.9827
 7976SOL     OW35560   0.984   0.136   3.349  0.2315 -0.1028  0.2986
 7976SOL    HW135561   0.900   0.091   3.343  1.4577 -2.4080  0.8361
 7976SOL    HW235562   1.044   0.100   3.283 -0.6507 -3.5087  1.3814
 7977SOL     OW35563   3.776   0.873   8.451 -0.6430 -0.4565 -0.0721
 7977SOL    HW135564   3.794   0.787   8.488 -2.0618 -1.2803 -1.3067
 7977SOL    HW235565   3.759   0.860   8.358 -2.7221  1.4110  0.0286
 7978SOL     OW35566   1.210   4.517   4.765 -0.2717 -0.3296  0.2335
 7978SOL    HW135567   1.267   4.539   4.691 -0.4162 -0.9856 -0.0796
 7978SOL    HW235568   1.262   4.449   4.806 -0.7528  0.2986  1.8635
 7979SOL     OW35569   2.937   3.282   4.264 -0.4968  0.5810 -0.4544
 7979SOL    HW135570   2.889   3.319   4.338 -2.4734  2.3539 -2.6664
 7979SOL    HW235571   2.935   3.191   4.294  2.9323  0.9681  0.9942
 7980SOL     OW35572   0.601   3.130   4.289 -0.1890 -0.0708  0.2126
 7980SOL    HW135573   0.638   3.214   4.316 -1.6483  0.7174 -0.2240
 7980SOL    HW235574   0.535   3.120   4.357  1.5262  0.4629  1.9546
 7981SOL     OW35575   0.198   1.384   3.826  0.6284  0.2565  0.3583
 7981SOL    HW135576   0.121   1.438   3.844  0.6745  0.7187 -0.8661
 7981SOL    HW235577   0.189   1.312   3.889 -0.8830  0.3255  0.2229
 7982SOL     OW35578   1.524   4.575   8.529  0.1274  0.1984 -0.7359
 7982SOL    HW135579   1.569   4.515   8.588 -0.3669  1.2847  0.7659
 7982SOL    HW235580   1.501   4.512   8.461  2.4484 -1.7719  0.3102
 7983SOL     OW35581   3.086   1.792  14.649 -0.1301  0.0976  0.2908
 7983SOL    HW135582   3.118   1.810  14.738 -0.8090  1.4624  0.2580
 7983SOL    HW235583   2.991   1.792  14.660  0.1597  1.7038  2.8103
 7984SOL     OW35584   3.551   2.693  11.208  0.0850  0.4458  0.7059
 7984SOL    HW135585   3.502   2.691  11.126  2.2062  0.2714 -0.5515
 7984SOL    HW235586   3.583   2.782  11.218 -1.8606  1.2455 -0.2450
 7985SOL     OW35587   1.861   3.719   4.422 -0.0166  0.1033 -0.2324
 7985SOL    HW135588   1.928   3.786   4.437 -2.0590  2.0430  0.3500
 7985SOL    HW235589   1.910   3.637   4.415  2.4434  1.6454 -1.1079
 7986SOL     OW35590   2.697   3.019  10.545 -0.1308  0.0039 -0.1432
 7986SOL    HW135591   2.633   2.982  10.484 -0.4371  1.9133 -0.9533
 7986SOL    HW235592   2.712   3.107  10.510 -0.8883  0.1182 -0.1723
 7987SOL     OW35593   1.977   4.627   9.260  0.1836 -0.0274 -0.1401
 7987SOL    HW135594   1.897   4.584   9.229 -0.7299  1.7427 -0.1859
 7987SOL    HW235595   1.934   4.706   9.291  2.3736  1.3017 -0.4874
 7988SOL     OW35596   0.864   0.264  10.424  0.4057 -0.5816  0.8644
 7988SOL    HW135597   0.805   0.195  10.456 -0.1386 -0.7224 -0.4523
 7988SOL    HW235598   0.923   0.207  10.375  0.3156  0.9596 -1.0099
 7989SOL     OW35599   2.822   3.066  13.270 -0.2675  0.3674  0.4891
 7989SOL    HW135600   2.895   3.003  13.273 -1.0073 -0.5180  0.0176
 7989SOL    HW235601   2.744   3.014  13.291  0.8420 -1.3146  0.4653
 7990SOL     OW35602   0.154   3.817   7.356 -0.4220  0.4569  0.0589
 7990SOL    HW135603   0.095   3.765   7.302 -0.1744 -0.7847  1.0039
 7990SOL    HW235604   0.206   3.841   7.278 -1.3449 -0.0156 -0.6980
 7991SOL     OW35605   3.563   2.137   2.415 -0.2598  0.0725  0.2437
 7991SOL    HW135606   3.598   2.211   2.464 -1.3247 -0.3422  1.6044
 7991SOL    HW235607   3.645   2.107   2.375  1.0573  2.6459  1.0194
 7992SOL     OW35608   1.979   4.650   8.674 -0.2139  0.8422 -0.2761
 7992SOL    HW135609   1.952   4.558   8.670 -0.7693  0.9543  1.0532
 7992SOL    HW235610   2.060   4.642   8.623  0.2882 -0.6151  0.7473
 7993SOL     OW35611   2.363   2.814  13.187  0.3233 -0.2052  0.0901
 7993SOL    HW135612   2.296   2.869  13.147  0.6229 -0.1529 -0.3422
 7993SOL    HW235613   2.301   2.745  13.206 -0.3728  0.2404 -0.6021
 7994SOL     OW35614   3.265   2.455   8.013 -0.3632  0.0815 -0.1223
 7994SOL    HW135615   3.254   2.529   8.074  1.0836 -0.6155  0.9809
 7994SOL    HW235616   3.179   2.457   7.971 -2.4148  0.9593  4.0817
 7995SOL     OW35617   2.311   2.634  11.688  0.6804 -0.0723 -0.5831
 7995SOL    HW135618   2.334   2.703  11.751  1.7495  1.3793 -2.5760
 7995SOL    HW235619   2.293   2.562  11.748  1.5725 -0.2411 -0.5216
 7996SOL     OW35620   1.270   3.503  13.318 -0.1768  0.2318 -0.0773
 7996SOL    HW135621   1.347   3.539  13.364 -0.5632  0.4415  0.4029
 7996SOL    HW235622   1.204   3.499  13.387  1.4825 -1.2901  1.4380
 7997SOL     OW35623   3.208   1.292   7.491 -0.1215 -0.3514  0.4875
 7997SOL    HW135624   3.222   1.218   7.550  0.6892 -1.8135 -1.5598
 7997SOL    HW235625   3.300   1.313   7.476 -0.0067 -0.3375  1.2437
 7998SOL     OW35626   4.307   4.667   4.260  0.0018  0.1135  0.0512
 7998SOL    HW135627   4.347   4.678   4.347 -0.8372 -0.4224  0.5093
 7998SOL    HW235628   4.223   4.632   4.289  0.1348  0.4384  0.8374
 7999SOL     OW35629   3.016   1.886   7.936  0.0140 -0.7575  0.4437
 7999SOL    HW135630   3.111   1.890   7.946  0.0102 -0.6710  0.4424
 7999SOL    HW235631   2.997   1.843   8.019 -1.4298  0.1292  0.5767
 8000SOL     OW35632   0.061   2.036   4.970  0.0687  0.2537  0.1152
 8000SOL    HW135633   0.010   1.958   4.993 -0.6527  0.7402  0.1468
 8000SOL    HW235634   4.726   2.089   4.941 -1.2388 -2.2069 -1.0835
 8001SOL     OW35635   1.833   0.874   2.977 -0.4817 -0.0148 -0.1835
 8001SOL    HW135636   1.750   0.870   3.024 -0.5521  1.2920 -0.1952
 8001SOL    HW235637   1.833   0.788   2.934 -2.8686  0.7240 -1.6506
 8002SOL     OW35638   3.768   4.063   9.714  0.0358 -0.0791  0.4714
 8002SOL    HW135639   3.745   4.139   9.661  4.3048  1.3866  0.6708
 8002SOL    HW235640   3.729   3.990   9.665  0.0788 -0.5646  1.1533
 8003SOL     OW35641   2.348   1.400   7.696  0.6313  0.1965 -0.3390
 8003SOL    HW135642   2.377   1.318   7.736 -2.2950  0.0506  1.5426
 8003SOL    HW235643   2.376   1.463   7.762  1.0580 -0.0449 -0.2928
 8004SOL     OW35644   1.506   0.509   2.876  0.2786  0.5194  0.4649
 8004SOL    HW135645   1.455   0.466   2.945  0.4653  1.4771  1.2015
 8004SOL    HW235646   1.451   0.582   2.848 -1.4587 -1.0870 -0.3484
 8005SOL     OW35647   0.985   0.942   6.285 -0.0390  0.1107  0.2300
 8005SOL    HW135648   1.062   0.894   6.314  0.3189 -1.4497 -3.3884
 8005SOL    HW235649   0.963   0.927   6.193 -0.2956 -0.3683  0.3697
 8006SOL     OW35650   1.099   4.634   9.369 -0.3094 -0.3075  0.1699
 8006SOL    HW135651   1.048   4.607   9.293  0.4118 -0.4985 -0.2523
 8006SOL    HW235652   1.176   4.579   9.354 -0.0646  0.4862 -1.4758
 8007SOL     OW35653   0.577   3.363   4.727  0.1119  0.0594 -0.4760
 8007SOL    HW135654   0.486   3.334   4.726 -0.3510  1.4357  2.5910
 8007SOL    HW235655   0.628   3.325   4.655  0.8678  1.2991 -0.5990
 8008SOL     OW35656   2.849   0.523   2.776 -0.1441  0.0717  0.4289
 8008SOL    HW135657   2.763   0.550   2.743  0.0391 -0.8712 -0.8210
 8008SOL    HW235658   2.857   0.588   2.845  0.9402  1.4579 -1.0031
 8009SOL     OW35659   4.661   0.854   6.729  0.2160  0.0202  0.1323
 8009SOL    HW135660   4.612   0.826   6.806 -0.9428 -1.0163 -0.9814
 8009SOL    HW235661   0.007   0.858   6.774 -1.3136  0.8658  2.9486
 8010SOL     OW35662   2.342   1.099  10.056  0.6033  0.0310 -0.2514
 8010SOL    HW135663   2.321   1.191  10.076  2.2269  0.3789 -0.2145
 8010SOL    HW235664   2.322   1.051  10.137  1.2056  0.6971  0.2857
 8011SOL     OW35665   2.046   2.899  16.380  0.0551  0.0893  0.3167
 8011SOL    HW135666   2.083   2.811  16.390  1.3597  0.8491  2.0520
 8011SOL    HW235667   1.982   2.910  16.450 -1.7971 -1.4062 -1.1232
 8012SOL     OW35668   3.043   2.762   0.011  0.2179 -0.0839 -0.1680
 8012SOL    HW135669   3.033   2.831  17.698  0.5177  0.9939  0.9221
 8012SOL    HW235670   2.949   2.755   0.028  0.1684  0.0178 -0.3926
 8013SOL     OW35671   3.868   1.808  15.440  0.2649  0.0980 -0.6690
 8013SOL    HW135672   3.814   1.886  15.429 -1.2226 -0.9445 -0.8684
 8013SOL    HW235673   3.796   1.747  15.457 -0.2175  0.1862 -2.3922
 8014SOL     OW35674   2.027   0.734   8.653 -0.1936  0.1848 -0.4666
 8014SOL    HW135675   1.988   0.765   8.735 -0.9787 -1.1982 -0.3127
 8014SOL    HW235676   2.119   0.758   8.661  0.9329 -4.7929  1.5125
 8015SOL     OW35677   4.730   0.605   1.246  0.1152  0.6056 -0.4172
 8015SOL    HW135678   4.646   0.602   1.292  0.8243 -0.0247  0.8452
 8015SOL    HW235679   4.715   0.527   1.194  1.7259  0.1154 -0.1575
 8016SOL     OW35680   4.123   1.565   7.067 -0.1877  0.1411 -0.2182
 8016SOL    HW135681   4.083   1.510   7.000  1.6176 -0.7129 -0.5937
 8016SOL    HW235682   4.059   1.634   7.087  0.1674  0.7622 -1.2113
 8017SOL     OW35683   3.845   4.638   1.852 -0.3557 -0.5776  0.7252
 8017SOL    HW135684   3.759   4.604   1.828  0.1892 -0.0953 -1.9589
 8017SOL    HW235685   3.852   4.714   1.794  1.1192 -1.0173  0.3332
 8018SOL     OW35686   2.628   1.090   9.452 -0.4403 -0.1444 -0.3056
 8018SOL    HW135687   2.651   1.165   9.506 -1.2333  0.1609 -0.3958
 8018SOL    HW235688   2.538   1.115   9.429 -0.0591  1.8529  0.4226
 8019SOL     OW35689   3.697   1.760  11.319 -0.3453 -0.1117  0.0533
 8019SOL    HW135690   3.650   1.784  11.239 -1.4856  1.1676  1.0944
 8019SOL    HW235691   3.626   1.710  11.358 -1.4300 -1.3426 -3.4557
 8020SOL     OW35692   0.218   4.445   9.854 -0.0743  0.3546  0.0406
 8020SOL    HW135693   0.164   4.399   9.790  2.2165 -2.1346 -0.1071
 8020SOL    HW235694   0.287   4.469   9.792  0.9633  1.5478  1.6693
 8021SOL     OW35695   0.619   0.890   2.097  0.3674 -0.2378  0.4232
 8021SOL    HW135696   0.554   0.840   2.146 -0.8501  1.0218  0.0988
 8021SOL    HW235697   0.616   0.862   2.006 -2.4792 -0.2807  0.5330
 8022SOL     OW35698   1.302   0.870   4.620  0.2246  0.2885 -1.1710
 8022SOL    HW135699   1.338   0.949   4.662 -1.8235  0.8928 -0.5753
 8022SOL    HW235700   1.257   0.899   4.540 -2.3820  1.2771  0.6619
 8023SOL     OW35701   2.149   1.291   7.980 -0.1101  0.5010  0.0162
 8023SOL    HW135702   2.157   1.384   7.959  0.8251 -0.4887 -4.1371
 8023SOL    HW235703   2.077   1.300   8.042 -0.5122 -0.1662 -0.3587
 8024SOL     OW35704   4.261   4.729   3.178 -0.1565  0.7501  0.2813
 8024SOL    HW135705   4.335   0.037   3.138 -0.2030 -0.6512 -1.4401
 8024SOL    HW235706   4.196   4.725   3.108  0.3496 -1.5861 -0.0656
 8025SOL     OW35707   4.468   3.047   7.228 -0.2042  0.0632 -0.1926
 8025SOL    HW135708   4.534   3.109   7.258  1.9623 -2.4868  0.2557
 8025SOL    HW235709   4.472   2.989   7.304  0.3753  1.3789  0.7835
 8026SOL     OW35710   4.323   2.188   4.362  0.0728 -0.1288  0.2420
 8026SOL    HW135711   4.264   2.241   4.415  3.6671  2.7909  1.3496
 8026SOL    HW235712   4.299   2.102   4.396  0.7715 -0.1400  0.7134
 8027SOL     OW35713   4.115   2.686   2.871  0.0148  0.7308 -0.1394
 8027SOL    HW135714   4.037   2.742   2.878 -1.3223 -1.2636  0.7030
 8027SOL    HW235715   4.174   2.745   2.824  1.9215 -1.5073 -0.5472
 8028SOL     OW35716   1.487   1.293   5.714  0.4797 -0.3857 -0.4440
 8028SOL    HW135717   1.574   1.255   5.700  0.3720 -0.2430 -1.4945
 8028SOL    HW235718   1.490   1.370   5.657  1.9892  0.5020  0.8503
 8029SOL     OW35719   4.702   3.069   3.730 -0.9619  0.1842 -0.3320
 8029SOL    HW135720   4.619   3.065   3.777 -1.3982  2.7193 -0.8973
 8029SOL    HW235721   4.672   3.083   3.641  1.7433 -2.3579 -1.6731
 8030SOL     OW35722   1.747   1.438  13.369  0.0258  0.7649  0.1886
 8030SOL    HW135723   1.780   1.352  13.395 -0.5946  0.4476 -0.0848
 8030SOL    HW235724   1.659   1.432  13.405 -0.9104  2.1082 -1.8608
 8031SOL     OW35725   3.633   2.604   3.605  0.9525 -0.1684 -0.5631
 8031SOL    HW135726   3.646   2.583   3.698 -0.7807 -0.4573 -0.3783
 8031SOL    HW235727   3.724   2.633   3.595  0.7656  0.6816  0.2046
 8032SOL     OW35728   3.362   0.828  14.408 -0.4778  0.1069 -0.0072
 8032SOL    HW135729   3.399   0.901  14.457  0.0752 -1.0629  1.3321
 8032SOL    HW235730   3.440   0.787  14.371 -0.8771 -1.8920  1.3197
 8033SOL     OW35731   1.129   3.662   5.160 -0.4182 -0.0383  0.1650
 8033SOL    HW135732   1.083   3.679   5.242 -0.4878  0.4130  0.0338
 8033SOL    HW235733   1.085   3.731   5.110 -1.2073 -0.6103  0.0700
 8034SOL     OW35734   2.268   2.351   4.761 -0.1866  0.5038 -0.4256
 8034SOL    HW135735   2.192   2.387   4.715 -0.5573  1.7827  1.1895
 8034SOL    HW235736   2.306   2.419   4.817 -0.7383  0.9578 -0.5987
 8035SOL     OW35737   2.166   0.335  17.698 -0.2447  0.4479  0.0192
 8035SOL    HW135738   2.254   0.355  17.731  0.4646 -0.1675 -1.5022
 8035SOL    HW235739   2.129   0.301   0.027 -0.8179  1.0525  0.0097
 8036SOL     OW35740   4.214   0.257   6.251 -0.6974  0.1438  0.5666
 8036SOL    HW135741   4.147   0.324   6.263  0.2794  1.5582 -1.9503
 8036SOL    HW235742   4.196   0.193   6.320 -1.4471  0.8713  1.0387
 8037SOL     OW35743   3.613   4.289   9.597 -0.0808  0.0079 -0.7887
 8037SOL    HW135744   3.557   4.367   9.603  0.8066  0.4265  1.8156
 8037SOL    HW235745   3.590   4.233   9.671 -2.2068  2.1501  0.1573
 8038SOL     OW35746   1.417   3.873   7.055  0.7317 -0.2009  0.1216
 8038SOL    HW135747   1.373   3.804   7.004 -2.4251  1.6005  0.4041
 8038SOL    HW235748   1.453   3.825   7.130  2.0270  0.3272 -0.1560
 8039SOL     OW35749   4.331   0.945   8.330  0.0399  0.1247 -0.3668
 8039SOL    HW135750   4.393   1.013   8.358  0.9764 -0.4194 -1.1436
 8039SOL    HW235751   4.398   0.878   8.323  0.3990  0.2425  1.7554
 8040SOL     OW35752   0.272   3.023   8.863 -0.3302 -0.5714 -0.2055
 8040SOL    HW135753   0.364   3.038   8.883 -0.0304 -0.0386 -2.0094
 8040SOL    HW235754   0.234   3.101   8.822 -0.1072  0.4004  1.4139
 8041SOL     OW35755   0.877   2.353   8.583  0.5642 -0.2345 -0.2942
 8041SOL    HW135756   0.807   2.318   8.528  0.3073 -2.0449  1.1754
 8041SOL    HW235757   0.830   2.426   8.623 -1.6080 -1.7135 -0.1447
 8042SOL     OW35758   1.722   2.989   1.872  0.5849  0.2048 -0.6484
 8042SOL    HW135759   1.627   2.978   1.874  0.8614 -1.8974  0.7771
 8042SOL    HW235760   1.746   2.904   1.836 -0.2189 -0.0710 -0.5143
 8043SOL     OW35761   4.540   3.491   2.800  0.1973 -0.2063 -0.2793
 8043SOL    HW135762   4.550   3.583   2.774  1.1637 -0.2057  0.1007
 8043SOL    HW235763   4.552   3.491   2.895 -0.2300 -1.2023 -0.2247
 8044SOL     OW35764   2.886   3.702   6.529 -0.4223  0.3949 -0.0968
 8044SOL    HW135765   2.940   3.737   6.458  0.1592 -0.2736  0.0113
 8044SOL    HW235766   2.795   3.719   6.505 -0.7008 -0.1216  0.6006
 8045SOL     OW35767   1.506   1.449  14.226  0.5023 -0.5666  0.0370
 8045SOL    HW135768   1.527   1.357  14.239  0.1222 -0.9280 -1.8565
 8045SOL    HW235769   1.546   1.462  14.140 -2.2591 -0.4577 -1.2080
 8046SOL     OW35770   2.999   3.332   7.957 -0.1060  0.3293 -0.2505
 8046SOL    HW135771   2.916   3.379   7.957  0.3840  1.2269  1.1311
 8046SOL    HW235772   3.060   3.395   7.997 -0.5044 -0.6015  1.7878
 8047SOL     OW35773   0.055   1.522   5.911  1.0587 -0.2974 -0.0062
 8047SOL    HW135774   0.030   1.614   5.909  2.9521  0.2383  0.8632
 8047SOL    HW235775   4.707   1.487   5.889  1.0501 -0.4517  0.2738
 8048SOL     OW35776   3.310   4.316   3.449  0.3930  0.3245  0.0236
 8048SOL    HW135777   3.249   4.252   3.485 -1.8447  2.4787  0.0333
 8048SOL    HW235778   3.299   4.383   3.516  0.5540  1.4099 -1.0285
 8049SOL     OW35779   3.935   2.612  14.555  0.4756 -0.4680  0.4345
 8049SOL    HW135780   3.965   2.526  14.525 -1.7645 -0.3164 -2.2660
 8049SOL    HW235781   3.986   2.669  14.498  0.7241  1.4131  2.5366
 8050SOL     OW35782   2.420   3.218  14.419 -0.1476 -0.2122  1.1737
 8050SOL    HW135783   2.480   3.233  14.493  1.9019  0.2270 -0.5664
 8050SOL    HW235784   2.357   3.157  14.457  0.4760 -1.5258  0.1083
 8051SOL     OW35785   4.614   1.953   0.127  0.1658 -0.1355  0.0253
 8051SOL    HW135786   4.672   2.028   0.140  1.1042 -1.0542  1.0559
 8051SOL    HW235787   4.526   1.975   0.159  0.5693 -0.5158  1.3983
 8052SOL     OW35788   1.317   0.953   3.684  0.1737 -0.1746  0.2130
 8052SOL    HW135789   1.252   1.019   3.661  1.8905  1.2792 -0.4865
 8052SOL    HW235790   1.273   0.893   3.744  1.8101 -1.7632 -0.1475
 8053SOL     OW35791   3.151   2.183   5.609  0.2461 -0.1556  0.4188
 8053SOL    HW135792   3.123   2.222   5.526 -1.8139  0.8354  1.5718
 8053SOL    HW235793   3.197   2.103   5.586 -1.2825 -1.1313  0.7014
 8054SOL     OW35794   1.447   4.295   3.383 -0.7209  0.1720  0.1134
 8054SOL    HW135795   1.386   4.320   3.314 -0.4041 -2.7181 -1.2221
 8054SOL    HW235796   1.530   4.300   3.337 -0.1217  2.7197  1.4859
 8055SOL     OW35797   4.124   0.272   1.856  0.3070  0.2964 -0.1065
 8055SOL    HW135798   4.137   0.321   1.937  0.9171  0.8436 -0.5424
 8055SOL    HW235799   4.031   0.247   1.859  1.3824 -3.7676  0.0906
 8056SOL     OW35800   0.942   1.567  16.437  0.3879 -0.3109  0.0464
 8056SOL    HW135801   1.028   1.526  16.442  0.1439 -0.9612 -0.9075
 8056SOL    HW235802   0.900   1.506  16.375  1.2579  0.1866 -1.0319
 8057SOL     OW35803   3.745   1.697   0.028  1.1123 -0.0068  0.3761
 8057SOL    HW135804   3.779   1.620   0.074 -1.7334 -2.0767 -0.9713
 8057SOL    HW235805   3.681   1.652  17.726  0.5309  1.5481 -0.2275
 8058SOL     OW35806   3.114   2.085   7.737 -0.1778 -0.2306 -0.1015
 8058SOL    HW135807   3.069   2.106   7.819 -0.7054  1.2189 -0.7611
 8058SOL    HW235808   3.178   2.026   7.777  0.8938  0.3739 -0.9086
 8059SOL     OW35809   1.258   2.968  15.192  0.3434  0.0656  0.1041
 8059SOL    HW135810   1.210   2.895  15.152 -1.2463  0.5906  1.0684
 8059SOL    HW235811   1.284   3.023  15.117  0.0415  0.1020  0.0265
 8060SOL     OW35812   2.880   2.529   2.738 -0.6323  0.0106 -0.2287
 8060SOL    HW135813   2.796   2.482   2.745  0.5881 -2.4336 -1.6677
 8060SOL    HW235814   2.915   2.466   2.674  1.9651 -0.8528  2.0746
 8061SOL     OW35815   1.483   4.467   9.991  0.1769  0.1859  0.3009
 8061SOL    HW135816   1.482   4.535   9.924  0.2417  0.0019  0.1134
 8061SOL    HW235817   1.578   4.457   9.997  0.0664 -1.4065 -0.6864
 8062SOL     OW35818   4.595   0.989   3.634  0.6696 -0.4490 -0.1367
 8062SOL    HW135819   4.539   1.026   3.567 -4.6017 -1.0015  3.9445
 8062SOL    HW235820   4.656   0.940   3.579  0.0827 -1.6927  0.3117
 8063SOL     OW35821   0.955   2.503   6.416  0.2735  0.0278  0.2405
 8063SOL    HW135822   0.937   2.545   6.500  0.2201 -1.1438  0.8174
 8063SOL    HW235823   1.049   2.508   6.404  0.1746  1.0502 -0.0958
 8064SOL     OW35824   1.367   2.856   2.132 -0.2156 -0.3364  0.1495
 8064SOL    HW135825   1.301   2.879   2.197  0.2950 -0.3343  0.6636
 8064SOL    HW235826   1.417   2.789   2.177  0.4121  0.4854  0.6590
 8065SOL     OW35827   2.468   1.356   7.070  0.0958 -0.1270  0.2189
 8065SOL    HW135828   2.410   1.420   7.029  0.9102  1.4082  1.4588
 8065SOL    HW235829   2.473   1.388   7.160  2.4133 -1.6671  0.6449
 8066SOL     OW35830   4.387   3.686   7.319 -0.5883 -0.4889  0.0010
 8066SOL    HW135831   4.456   3.753   7.317 -0.2857 -0.7439  1.5959
 8066SOL    HW235832   4.431   3.603   7.299  0.3090 -0.3174  1.2495
 8067SOL     OW35833   2.891   2.255   7.609 -0.5708  0.2843  0.3179
 8067SOL    HW135834   2.823   2.205   7.655  0.1588 -0.4988  0.5391
 8067SOL    HW235835   2.958   2.191   7.630 -0.9086  0.4558  1.8899
 8068SOL     OW35836   0.565   0.433   6.974  0.0717 -0.1352 -0.0133
 8068SOL    HW135837   0.586   0.375   7.048 -1.2927  0.4943  0.8617
 8068SOL    HW235838   0.643   0.482   6.947  0.1722 -0.7149 -0.7728
 8069SOL     OW35839   1.507   3.284   2.906  0.0565 -0.2551 -0.3581
 8069SOL    HW135840   1.528   3.229   2.982 -0.1830  0.1913  0.0345
 8069SOL    HW235841   1.593   3.285   2.866  1.1102  0.8447  1.9095
 8070SOL     OW35842   2.674   0.883  11.339 -0.6198 -0.6266  0.0061
 8070SOL    HW135843   2.677   0.956  11.400  1.3645  0.4411 -1.3256
 8070SOL    HW235844   2.709   0.920  11.257 -1.4895  1.1149  0.4363
 8071SOL     OW35845   3.976   0.255   2.111 -0.1173  0.2715 -0.5294
 8071SOL    HW135846   3.898   0.310   2.107  0.3843  0.9356 -1.2403
 8071SOL    HW235847   4.049   0.317   2.119 -0.4818  0.6300  0.0462
 8072SOL     OW35848   0.062   4.415   9.045  0.1838  0.1040 -0.3882
 8072SOL    HW135849   4.732   4.348   9.042 -0.3837  0.6526  0.3303
 8072SOL    HW235850   0.081   4.431   8.952  1.8709 -0.8937 -0.2099
 8073SOL     OW35851   1.498   2.259   5.542 -0.1006  0.3122  0.3573
 8073SOL    HW135852   1.443   2.279   5.466 -0.7973 -1.3800  0.4179
 8073SOL    HW235853   1.489   2.163   5.544  0.7399  0.2041 -0.8220
 8074SOL     OW35854   2.794   2.621   3.288  0.8780  0.2894  0.2698
 8074SOL    HW135855   2.783   2.672   3.207 -1.3534 -0.8075 -0.1328
 8074SOL    HW235856   2.819   2.679   3.360  2.0172 -0.8327  0.7743
 8075SOL     OW35857   0.228   3.900   5.378  0.4820  0.1201  0.2910
 8075SOL    HW135858   0.234   3.993   5.402 -0.0289  0.7393 -1.9717
 8075SOL    HW235859   0.310   3.904   5.330  0.2833  0.8776  0.0188
 8076SOL     OW35860   0.783   1.014  11.037 -0.8868  0.1004  0.7096
 8076SOL    HW135861   0.848   1.070  11.080 -0.1828 -0.1787  0.0208
 8076SOL    HW235862   0.835   0.934  11.037 -0.1417  0.5584 -1.7012
 8077SOL     OW35863   2.256   0.925  16.755 -0.2414 -0.0525  0.0871
 8077SOL    HW135864   2.169   0.964  16.762 -0.2606 -0.0714 -0.0539
 8077SOL    HW235865   2.241   0.861  16.686 -3.7443  1.0026 -0.1123
 8078SOL     OW35866   3.670   3.912  10.592 -0.9145  0.1020  0.0258
 8078SOL    HW135867   3.664   3.999  10.630 -0.3758 -0.2199  0.8439
 8078SOL    HW235868   3.646   3.932  10.501 -2.8540 -1.4852  0.2083
 8079SOL     OW35869   1.247   1.848   8.306 -0.1580 -0.1216  0.3129
 8079SOL    HW135870   1.277   1.902   8.378  0.7499  1.8695 -1.5556
 8079SOL    HW235871   1.188   1.909   8.261  2.0485  1.3588 -0.5770
 8080SOL     OW35872   0.238   4.698   9.552 -0.0349  0.5612 -0.2185
 8080SOL    HW135873   0.247   4.653   9.468  0.6450  0.0932  0.1118
 8080SOL    HW235874   0.249   0.053   9.536 -0.1232  0.9319  1.8985
 8081SOL     OW35875   1.105   1.980   6.987  0.2947 -0.1101 -0.0846
 8081SOL    HW135876   1.066   1.990   6.901 -1.8510  1.2944  1.0452
 8081SOL    HW235877   1.022   1.959   7.031  0.0648  0.1647 -0.3915
 8082SOL     OW35878   1.785   2.512   3.130 -0.0598  0.3458 -0.2296
 8082SOL    HW135879   1.865   2.462   3.115  0.0327  0.3644  0.2075
 8082SOL    HW235880   1.725   2.440   3.149 -1.5561  0.9101 -2.8858
 8083SOL     OW35881   3.114   2.323  11.815  0.6173  1.1414 -0.8489
 8083SOL    HW135882   3.122   2.419  11.810 -0.1708  1.3145  0.9729
 8083SOL    HW235883   3.194   2.289  11.775 -1.3926 -1.2124 -2.8476
 8084SOL     OW35884   4.084   0.800   4.901  0.2905 -0.1546  0.2380
 8084SOL    HW135885   4.105   0.854   4.825  1.1199  0.4935  0.9227
 8084SOL    HW235886   4.107   0.718   4.857 -0.2469 -1.9888  3.3562
 8085SOL     OW35887   4.514   4.327  16.590  0.6180 -0.3252  0.4313
 8085SOL    HW135888   4.593   4.274  16.601  0.9896  0.1001 -0.1554
 8085SOL    HW235889   4.496   4.317  16.497 -0.5154 -2.0026  0.8377
 8086SOL     OW35890   1.870   1.249   6.640 -0.4810 -0.0157  0.0465
 8086SOL    HW135891   1.879   1.311   6.568 -0.0477 -0.2639 -0.1174
 8086SOL    HW235892   1.882   1.316   6.708  2.3822  1.1432 -1.5884
 8087SOL     OW35893   0.343   1.076  13.333 -0.6813 -0.0605 -0.2776
 8087SOL    HW135894   0.412   1.136  13.305  0.6929 -0.0097  3.2209
 8087SOL    HW235895   0.288   1.062  13.256  1.2347 -0.5845 -1.5242
 8088SOL     OW35896   0.373   4.660   2.440 -0.2147  0.1434  0.2325
 8088SOL    HW135897   0.402   4.644   2.351 -1.2138 -2.0312  0.2954
 8088SOL    HW235898   0.278   4.667   2.425 -0.1275 -0.7110 -0.6476
 8089SOL     OW35899   2.527   0.724   9.157 -0.5168 -0.5559  0.4838
 8089SOL    HW135900   2.439   0.692   9.134  0.7138 -3.0085 -0.7724
 8089SOL    HW235901   2.512   0.770   9.240  1.8332 -1.3735  1.3611
 8090SOL     OW35902   3.272   1.340   3.187 -0.5392  0.4983 -0.3158
 8090SOL    HW135903   3.220   1.292   3.251  1.1333  0.8513  1.3102
 8090SOL    HW235904   3.346   1.279   3.182 -0.1167  0.8230  2.1055
 8091SOL     OW35905   3.407   0.872  15.240  0.4567 -0.2407 -0.0466
 8091SOL    HW135906   3.425   0.856  15.147 -1.4722  0.8236 -0.6029
 8091SOL    HW235907   3.328   0.818  15.250  2.0910 -2.8704 -1.2421
 8092SOL     OW35908   3.079   1.921   5.947  0.2098  0.2245  0.3044
 8092SOL    HW135909   3.080   1.899   6.040  0.6799  1.5296  0.6001
 8092SOL    HW235910   3.147   1.861   5.915 -1.3031  0.1369 -2.7594
 8093SOL     OW35911   2.660   2.562   6.767 -0.6272  0.3007 -0.2675
 8093SOL    HW135912   2.660   2.638   6.825  0.8571 -0.7903  1.1617
 8093SOL    HW235913   2.608   2.584   6.690 -1.1016  0.1097 -0.0065
 8094SOL     OW35914   2.871   0.918   8.002  0.2033  0.2992  0.5671
 8094SOL    HW135915   2.888   1.008   8.031  0.1827  0.8339 -1.0685
 8094SOL    HW235916   2.853   0.927   7.909  1.1775 -0.3871  0.3199
 8095SOL     OW35917   0.514   4.084  14.774 -0.5053 -0.6448  0.5581
 8095SOL    HW135918   0.574   4.020  14.734 -1.2954 -1.2605  0.3525
 8095SOL    HW235919   0.576   4.122  14.837  1.2715 -0.5469 -1.2307
 8096SOL     OW35920   0.974   2.709  12.676  0.2997 -0.2192  0.0200
 8096SOL    HW135921   1.024   2.628  12.688  2.2137  1.1901  1.7839
 8096SOL    HW235922   0.930   2.695  12.592  1.6297  1.7671 -1.0137
 8097SOL     OW35923   2.528   1.185  14.718 -0.0190 -0.1455 -0.4116
 8097SOL    HW135924   2.534   1.101  14.673  0.3139 -0.1850 -0.2910
 8097SOL    HW235925   2.470   1.163  14.791 -2.1254  0.1568 -1.9814
 8098SOL     OW35926   1.476   0.059  13.086  0.3531  0.0710  0.7932
 8098SOL    HW135927   1.419   4.721  13.096 -0.7444  0.9969  1.7548
 8098SOL    HW235928   1.417   0.133  13.103 -1.5249 -1.2693  0.1935
 8099SOL     OW35929   0.481   1.923   4.878  0.5193  0.3568 -0.0929
 8099SOL    HW135930   0.515   1.896   4.964  1.1092 -0.3370 -0.5423
 8099SOL    HW235931   0.410   1.859   4.875  0.4721  0.3361  1.5058
 8100SOL     OW35932   1.275   4.632  10.169 -0.5935 -0.5449 -0.6198
 8100SOL    HW135933   1.236   4.611  10.253 -0.8711 -1.5675 -1.0030
 8100SOL    HW235934   1.366   4.620  10.193 -1.2780 -0.7715  1.7979
 8101SOL     OW35935   0.058   3.778  13.687 -1.1447 -0.0666  0.4047
 8101SOL    HW135936   4.713   3.761  13.730 -0.8749 -1.9346  0.2118
 8101SOL    HW235937   0.038   3.753  13.596  0.9538  1.6917 -0.5437
 8102SOL     OW35938   0.943   1.129  15.758  0.0393  0.3239  0.7842
 8102SOL    HW135939   0.949   1.175  15.842 -3.0242 -0.8580  1.6504
 8102SOL    HW235940   0.856   1.145  15.723  0.8257  3.5658  0.2984
 8103SOL     OW35941   3.956   3.545   3.620  0.9075 -0.1946  0.4909
 8103SOL    HW135942   3.940   3.625   3.670 -0.3099 -0.4006  0.4390
 8103SOL    HW235943   3.874   3.498   3.604  1.5995 -1.5937  1.1002
 8104SOL     OW35944   0.709   1.703   5.341 -0.1555  0.1071 -0.5502
 8104SOL    HW135945   0.740   1.769   5.403 -0.5930 -0.7233  0.5564
 8104SOL    HW235946   0.721   1.634   5.407  0.4502  2.5731  1.8842
 8105SOL     OW35947   1.198   4.142  12.702  0.3372 -0.2618 -0.4248
 8105SOL    HW135948   1.188   4.079  12.630  2.1766 -1.1543  0.0885
 8105SOL    HW235949   1.108   4.165  12.722  0.0815 -1.2838 -0.4032
 8106SOL     OW35950   3.643   1.958   5.929  0.1898  0.0691  0.3299
 8106SOL    HW135951   3.729   2.000   5.925  0.5738 -0.8701 -1.3887
 8106SOL    HW235952   3.615   1.968   6.021 -1.0645  1.5251 -0.2022
 8107SOL     OW35953   0.234   0.510   3.304  0.0847 -0.5205 -0.1035
 8107SOL    HW135954   0.204   0.590   3.346  0.9091  0.1398 -0.7813
 8107SOL    HW235955   0.325   0.527   3.325 -0.5278  1.8398  0.6084
 8108SOL     OW35956   2.073   0.357   2.802  0.2006  0.4318  0.1870
 8108SOL    HW135957   2.030   0.424   2.749 -1.2935  0.4162  1.3688
 8108SOL    HW235958   2.031   0.375   2.886  0.0998  1.4490 -0.0782
 8109SOL     OW35959   1.386   3.399   3.857 -0.0556  0.8474 -0.5041
 8109SOL    HW135960   1.422   3.335   3.918  0.4346  1.2853 -0.3325
 8109SOL    HW235961   1.354   3.475   3.905 -0.3552  0.9370 -0.8396
 8110SOL     OW35962   0.908   1.711   3.070  0.4958  0.2763 -0.3903
 8110SOL    HW135963   1.001   1.707   3.093  0.5325  0.8778 -0.4295
 8110SOL    HW235964   0.913   1.710   2.975 -2.4174  0.5225 -0.5354
 8111SOL     OW35965   4.456   0.782   6.898 -0.2914 -0.0334  0.1283
 8111SOL    HW135966   4.490   0.821   6.979 -1.5754  1.2855  0.0395
 8111SOL    HW235967   4.484   0.694   6.921 -0.8099  0.0552  1.1153
 8112SOL     OW35968   4.731   2.712   9.697 -0.5005 -0.9093 -0.4371
 8112SOL    HW135969   0.012   2.805   9.689  2.6446 -1.3310  2.5013
 8112SOL    HW235970   4.681   2.702   9.616  0.4617  1.2558 -1.2976
 8113SOL     OW35971   1.899   3.332  16.880 -0.1027  0.0354 -0.0418
 8113SOL    HW135972   1.860   3.406  16.833 -0.1005 -0.7840 -1.3452
 8113SOL    HW235973   1.856   3.344  16.965 -1.3240  1.7644 -0.9059
 8114SOL     OW35974   1.044   3.660  13.266  0.5895 -0.0388  0.1518
 8114SOL    HW135975   1.048   3.662  13.362  0.4719 -2.5172  0.2071
 8114SOL    HW235976   1.126   3.615  13.243  1.9746  2.1760  0.6879
 8115SOL     OW35977   3.930   4.595   8.675 -0.0931 -0.0400 -0.4232
 8115SOL    HW135978   3.942   4.668   8.615 -1.0035  1.7848  1.5953
 8115SOL    HW235979   3.919   4.636   8.761 -0.7167 -3.8230  1.2913
 8116SOL     OW35980   0.917   0.839   6.042  0.3002  0.1365 -0.1648
 8116SOL    HW135981   0.874   0.775   6.099  1.0072 -0.7835 -0.6486
 8116SOL    HW235982   0.859   0.915   6.045  1.4445  1.0435 -1.0553
 8117SOL     OW35983   1.967   2.354   4.961 -0.2729  0.4688 -0.2046
 8117SOL    HW135984   1.984   2.417   4.891  1.1275  1.5722  1.1147
 8117SOL    HW235985   1.938   2.278   4.910  1.7435 -0.2994 -0.1984
 8118SOL     OW35986   4.166   0.664  12.559 -0.1415  0.3756  0.5037
 8118SOL    HW135987   4.077   0.629  12.553 -0.5841  1.3249  1.5216
 8118SOL    HW235988   4.151   0.724  12.632  1.0564  0.2000  0.8857
 8119SOL     OW35989   2.540   3.364   3.327 -0.2391  0.4644  0.4800
 8119SOL    HW135990   2.536   3.372   3.423  2.4857  0.9052  0.5675
 8119SOL    HW235991   2.606   3.432   3.314  0.0246  0.3316  1.0927
 8120SOL     OW35992   0.034   4.460   7.103 -0.4100  0.4563 -0.2647
 8120SOL    HW135993   4.712   4.534   7.100 -1.3406 -0.3646 -1.3148
 8120SOL    HW235994   4.728   4.392   7.052 -0.2492  0.0416  0.1511
 8121SOL     OW35995   0.994   0.539   7.184 -0.0829  0.1607 -0.3693
 8121SOL    HW135996   0.929   0.558   7.116  0.8204  2.0678 -0.7119
 8121SOL    HW235997   0.950   0.531   7.268  1.6171 -1.7116  0.3399
 8122SOL     OW35998   0.878   2.847   3.102  0.6775  0.1271 -0.0867
 8122SOL    HW135999   0.910   2.932   3.072 -0.0353  0.2456 -0.5314
 8122SOL    HW236000   0.789   2.874   3.126  0.4278 -2.5326  1.8984
 8123SOL     OW36001   1.038   2.735   6.209 -1.1344 -0.6211 -0.3348
 8123SOL    HW136002   1.087   2.654   6.223 -1.6230 -0.6247  1.3049
 8123SOL    HW236003   1.028   2.763   6.300 -2.9439 -2.3183 -0.0218
 8124SOL     OW36004   4.718   1.846   5.762  0.5317 -0.5709  0.3780
 8124SOL    HW136005   0.074   1.862   5.761  0.2491  1.0669 -0.4389
 8124SOL    HW236006   4.707   1.813   5.851 -1.5225 -1.4767 -0.2119
 8125SOL     OW36007   2.563   1.071   4.071 -0.4137 -0.1894  0.1789
 8125SOL    HW136008   2.593   1.132   4.003 -2.4449 -2.1045 -2.4681
 8125SOL    HW236009   2.650   1.048   4.103  0.8329  2.0902 -1.5454
 8126SOL     OW36010   0.186   4.552   7.628 -0.2204  0.1994 -0.0348
 8126SOL    HW136011   0.242   4.609   7.681  0.6689 -1.4497  0.8130
 8126SOL    HW236012   0.159   4.615   7.561  1.0556 -0.4150 -1.1386
 8127SOL     OW36013   2.951   3.368   1.460  0.4339 -0.0010 -0.0680
 8127SOL    HW136014   2.869   3.395   1.503  1.1748  1.1650  0.6232
 8127SOL    HW236015   3.009   3.384   1.534 -0.2144 -1.1700  0.7004
 8128SOL     OW36016   3.584   1.603   4.955 -0.2272 -0.7149  0.0367
 8128SOL    HW136017   3.623   1.678   4.910  1.1631 -0.0315  2.3209
 8128SOL    HW236018   3.570   1.644   5.041 -0.9359 -0.2736 -0.2903
 8129SOL     OW36019   0.729   2.764  12.036 -0.0052 -0.0436  0.0744
 8129SOL    HW136020   0.694   2.791  12.121  2.1574  2.7194  0.0837
 8129SOL    HW236021   0.824   2.765  12.043  0.0791 -3.7104 -0.4946
 8130SOL     OW36022   2.997   3.500  11.082 -0.0437 -0.2071 -0.2401
 8130SOL    HW136023   3.050   3.542  11.015 -0.4843 -1.6168 -1.4613
 8130SOL    HW236024   3.068   3.463  11.135 -2.0659 -1.7565  1.3804
 8131SOL     OW36025   0.672   0.013   8.467  0.0088  0.3285 -0.2476
 8131SOL    HW136026   0.747   4.693   8.465 -1.5201 -1.6262 -0.7864
 8131SOL    HW236027   0.642   0.006   8.376 -1.3152  2.4431  0.0423
 8132SOL     OW36028   2.360   1.981   6.751 -0.1331  0.0809  0.0447
 8132SOL    HW136029   2.315   1.998   6.668 -1.1881  1.8047  0.9608
 8132SOL    HW236030   2.286   1.984   6.811  0.4217 -0.2722  0.7460
 8133SOL     OW36031   0.505   1.159   6.929  0.0035 -0.0184  0.3022
 8133SOL    HW136032   0.496   1.228   6.995  0.0557 -0.9376  1.2690
 8133SOL    HW236033   0.579   1.112   6.967 -0.1496  1.1787  2.0695
 8134SOL     OW36034   2.782   4.375   5.081  0.1650 -0.1525 -0.3662
 8134SOL    HW136035   2.824   4.291   5.099  1.2357 -0.0097 -2.1210
 8134SOL    HW236036   2.702   4.372   5.134  0.3934  0.4866  0.0215
 8135SOL     OW36037   2.135   1.264   7.385 -0.2317  0.0564 -0.0317
 8135SOL    HW136038   2.180   1.183   7.362 -1.0704 -0.1928 -0.7912
 8135SOL    HW236039   2.208   1.312   7.347 -0.6013 -1.3821 -2.5826
 8136SOL     OW36040   2.211   0.515  16.733 -0.5915  0.5349 -0.0934
 8136SOL    HW136041   2.282   0.495  16.794 -1.2839  2.9872  1.5081
 8136SOL    HW236042   2.148   0.552  16.795 -0.1796  0.6198  0.2741
 8137SOL     OW36043   0.227   2.950   6.345  0.2432  0.2906  0.1282
 8137SOL    HW136044   0.143   2.956   6.300 -0.6763 -0.6908  1.7499
 8137SOL    HW236045   0.257   3.040   6.354 -2.8156  1.2527  0.6180
 8138SOL     OW36046   3.487   4.135   7.159  0.3006 -0.4455 -0.5647
 8138SOL    HW136047   3.478   4.169   7.248 -0.5075  0.4990 -1.0065
 8138SOL    HW236048   3.406   4.085   7.146 -0.8580  1.9047 -2.3328
 8139SOL     OW36049   3.564   4.180   5.833 -0.4898  0.0119  0.3965
 8139SOL    HW136050   3.584   4.174   5.926  3.5708  0.1519 -0.4902
 8139SOL    HW236051   3.497   4.112   5.825 -0.6849  0.1692  0.6660
 8140SOL     OW36052   4.430   1.565   6.823  0.2313 -0.0490 -0.5077
 8140SOL    HW136053   4.515   1.528   6.800  1.0651  1.4537  0.1463
 8140SOL    HW236054   4.405   1.524   6.905  1.1239 -2.3434 -1.3661
 8141SOL     OW36055   2.019   4.027   5.008  0.1813 -0.5487  0.6047
 8141SOL    HW136056   2.047   4.050   4.919  2.2373 -3.1889  0.5333
 8141SOL    HW236057   2.046   4.105   5.055  2.2155 -1.3909  0.8632
 8142SOL     OW36058   3.087   4.479   3.994 -0.2697  0.0585  0.3694
 8142SOL    HW136059   3.099   4.456   4.086 -1.1276  0.0808  0.4854
 8142SOL    HW236060   3.024   4.551   3.999 -0.1170  0.2563 -0.6403
 8143SOL     OW36061   1.719   2.738   5.883  0.4413 -0.3152 -0.1456
 8143SOL    HW136062   1.641   2.682   5.888  0.4581 -0.2322  1.1059
 8143SOL    HW236063   1.777   2.677   5.928  1.2279 -0.0270 -0.7794
 8144SOL     OW36064   2.206   4.193  16.390 -0.1007  0.4757 -0.2491
 8144SOL    HW136065   2.201   4.252  16.465 -0.0323 -1.1090  1.0184
 8144SOL    HW236066   2.300   4.177  16.405 -0.4027 -1.6534 -0.5568
 8145SOL     OW36067   2.420   3.895   2.230  0.3182 -0.9024  0.7223
 8145SOL    HW136068   2.391   3.898   2.321  1.3090 -1.5576  1.0577
 8145SOL    HW236069   2.459   3.808   2.228  0.0094 -0.9819 -1.5704
 8146SOL     OW36070   2.976   3.293  13.385 -0.0390 -0.2966  0.0821
 8146SOL    HW136071   3.012   3.370  13.340 -1.1828  1.6079  2.4067
 8146SOL    HW236072   2.931   3.240  13.320 -0.3412  0.8446 -0.6244
 8147SOL     OW36073   4.170   1.491   0.496 -0.7460 -0.1537 -0.0705
 8147SOL    HW136074   4.094   1.441   0.468 -0.2189  0.0240 -1.8645
 8147SOL    HW236075   4.239   1.478   0.430 -1.7536 -2.0528 -0.7425
 8148SOL     OW36076   1.965   2.792   7.764  0.3020 -0.4379 -0.1237
 8148SOL    HW136077   2.048   2.816   7.805  1.5612 -3.2972 -0.9983
 8148SOL    HW236078   1.908   2.771   7.838 -1.5049 -1.1850 -1.7062
 8149SOL     OW36079   3.610   1.117  12.035  0.4421 -0.1889  0.0054
 8149SOL    HW136080   3.705   1.117  12.041  0.5357  1.7026 -1.3509
 8149SOL    HW236081   3.591   1.029  12.002  1.4206  0.7515 -3.1381
 8150SOL     OW36082   2.609   2.636   6.245  0.4612  0.4242  0.2171
 8150SOL    HW136083   2.688   2.690   6.242 -0.4856  1.9591  2.3022
 8150SOL    HW236084   2.555   2.714   6.232 -1.6203 -1.4246 -2.0232
 8151SOL     OW36085   2.530   0.609   5.232  0.2505  0.1670  0.6052
 8151SOL    HW136086   2.567   0.521   5.225 -1.2306 -0.3216 -1.1911
 8151SOL    HW236087   2.445   0.596   5.274  0.5539  0.0231  1.1643
 8152SOL     OW36088   0.045   2.144   0.210 -0.0741 -0.1993  0.0816
 8152SOL    HW136089   0.138   2.130   0.226 -0.0637  1.1139  1.1549
 8152SOL    HW236090   0.031   2.165   0.302  3.6390  1.1166  0.3443
 8153SOL     OW36091   4.127   2.563   7.885  0.4575 -0.3251  0.2477
 8153SOL    HW136092   4.050   2.571   7.830 -0.0423  1.5680  1.2247
 8153SOL    HW236093   4.094   2.606   7.964 -0.8154 -1.4015  0.2953
 8154SOL     OW36094   4.119   2.711   1.810  0.1448  0.6690 -0.0596
 8154SOL    HW136095   4.114   2.716   1.905 -0.8367  4.3358 -0.3042
 8154SOL    HW236096   4.166   2.628   1.804 -0.0224  0.5296  0.5982
 8155SOL     OW36097   1.113   3.678   6.122  0.8165 -0.1787  0.0135
 8155SOL    HW136098   1.078   3.698   6.208  0.9942  1.3989 -0.2933
 8155SOL    HW236099   1.187   3.618   6.135  0.0638 -0.8687  1.0715
 8156SOL     OW36100   1.474   3.757   1.957  0.1602  0.5263 -0.5732
 8156SOL    HW136101   1.546   3.785   1.899 -0.4185 -1.6830 -2.3945
 8156SOL    HW236102   1.487   3.821   2.027 -0.6971 -1.3756  1.3271
 8157SOL     OW36103   2.819   1.659  12.556 -0.0768  0.1801 -0.0271
 8157SOL    HW136104   2.850   1.739  12.598  0.7608 -1.5759  2.7155
 8157SOL    HW236105   2.729   1.680  12.531 -0.5556 -0.2766  1.2959
 8158SOL     OW36106   2.620   2.414   5.506 -0.2001 -0.3694  0.2121
 8158SOL    HW136107   2.652   2.398   5.595  0.1023  0.1273  0.1939
 8158SOL    HW236108   2.700   2.451   5.469  0.2268 -1.4741  0.0550
 8159SOL     OW36109   1.966   2.382   2.372 -0.0306  0.7679 -0.3227
 8159SOL    HW136110   1.930   2.443   2.307 -0.8002  0.8593  0.1924
 8159SOL    HW236111   1.884   2.385   2.423  0.1044  2.0016 -0.1822
 8160SOL     OW36112   2.482   2.579  15.229  0.0108 -0.0821 -0.8145
 8160SOL    HW136113   2.389   2.556  15.228 -0.3878  1.4870  1.0465
 8160SOL    HW236114   2.527   2.499  15.199  2.2632  0.9729 -0.2102
 8161SOL     OW36115   1.465   4.514  12.021 -0.8982 -0.0113 -0.4945
 8161SOL    HW136116   1.373   4.498  12.045 -0.1556 -2.9983  0.2884
 8161SOL    HW236117   1.458   4.603  11.986  0.1189  0.3099  0.1394
 8162SOL     OW36118   2.468   2.739   2.136  0.6893 -0.6468 -0.5311
 8162SOL    HW136119   2.517   2.758   2.217 -0.1682  0.6872 -0.3270
 8162SOL    HW236120   2.448   2.648   2.158 -2.6230  0.4350  1.0383
 8163SOL     OW36121   1.479   0.512   6.913  0.2064  0.2977 -0.1076
 8163SOL    HW136122   1.384   0.508   6.926  0.2144 -0.5087 -0.2907
 8163SOL    HW236123   1.486   0.594   6.863  1.4861 -1.3869 -2.7010
 8164SOL     OW36124   2.739   3.371   4.416  0.1274  0.3006  0.2235
 8164SOL    HW136125   2.645   3.361   4.408  0.4903 -3.6055  0.7715
 8164SOL    HW236126   2.744   3.371   4.512 -1.1582 -0.4318  0.2852
 8165SOL     OW36127   0.001   2.014   9.665 -0.2782  0.6957  0.8103
 8165SOL    HW136128   0.057   2.047   9.595 -0.5513 -2.3341 -0.8876
 8165SOL    HW236129   0.067   1.993   9.730  1.0551  1.8258 -0.1799
 8166SOL     OW36130   2.166   2.907  14.481  0.0074 -0.3399 -0.2061
 8166SOL    HW136131   2.230   2.949  14.539 -1.6578  2.9332 -0.7510
 8166SOL    HW236132   2.093   2.968  14.480 -0.3456 -0.7673 -0.5494
 8167SOL     OW36133   3.616   1.875   8.819 -0.1239  0.3013 -0.4763
 8167SOL    HW136134   3.631   1.867   8.913 -1.5144  1.4564 -0.1490
 8167SOL    HW236135   3.528   1.836   8.816 -0.2281  0.6016 -1.4683
 8168SOL     OW36136   2.795   3.497   7.913 -0.0970 -0.2261  0.2687
 8168SOL    HW136137   2.724   3.433   7.920  0.4628 -0.5172  3.1472
 8168SOL    HW236138   2.772   3.546   7.992  3.4640 -0.2726  1.3452
 8169SOL     OW36139   1.856   4.491  13.483  0.1477 -0.4344  0.4610
 8169SOL    HW136140   1.828   4.407  13.520  1.7630 -1.2864 -0.2903
 8169SOL    HW236141   1.797   4.554  13.525 -1.2191 -1.7435  0.5056
 8170SOL     OW36142   2.759   3.949   2.644 -0.8448  0.0433 -0.0088
 8170SOL    HW136143   2.702   3.903   2.706  0.8067 -1.1026  0.6353
 8170SOL    HW236144   2.708   3.952   2.563  0.1001 -1.1489 -0.6376
 8171SOL     OW36145   1.969   0.138   6.216  0.3645 -0.0618  0.1936
 8171SOL    HW136146   1.924   0.222   6.209 -1.3496 -0.9770  0.4321
 8171SOL    HW236147   1.928   0.104   6.295  2.5825 -0.8831  0.9917
 8172SOL     OW36148   3.017   1.035  12.196 -0.2043  0.0403 -0.4432
 8172SOL    HW136149   3.097   0.988  12.175  2.2684  3.1819  2.1540
 8172SOL    HW236150   3.020   1.100  12.125  0.4868  2.0667  1.4701
 8173SOL     OW36151   0.225   0.543  15.845 -0.7161  0.4717  0.2536
 8173SOL    HW136152   0.243   0.542  15.751  1.7028  0.2515  0.7054
 8173SOL    HW236153   0.182   0.459  15.862  0.9026 -0.6727 -1.1857
 8174SOL     OW36154   0.830   0.355   2.821  0.0457 -0.3426 -0.3604
 8174SOL    HW136155   0.845   0.269   2.859  0.4833  0.3893  1.1500
 8174SOL    HW236156   0.854   0.312   2.739  2.6648  0.6497 -0.1383
 8175SOL     OW36157   2.257   2.056  15.309 -0.7087 -0.2595  0.4904
 8175SOL    HW136158   2.323   2.101  15.255 -1.0752 -0.9430 -0.5356
 8175SOL    HW236159   2.228   1.980  15.258 -0.6813 -1.0681  1.6860
 8176SOL     OW36160   1.205   1.816   2.693  0.0981 -0.2335 -0.3652
 8176SOL    HW136161   1.238   1.757   2.761 -0.7690 -1.2090 -0.7864
 8176SOL    HW236162   1.151   1.747   2.654 -0.5957 -0.0100  0.1972
 8177SOL     OW36163   1.111   0.235  14.056  0.4974 -0.0812  0.6813
 8177SOL    HW136164   1.165   0.301  14.012  1.5298 -0.9396  0.6618
 8177SOL    HW236165   1.127   0.252  14.148 -1.2998 -0.1741  1.0070
 8178SOL     OW36166   0.354   3.071  11.468 -0.4465 -0.2195 -0.0290
 8178SOL    HW136167   0.376   3.061  11.561  0.3189  0.0360 -0.1780
 8178SOL    HW236168   0.442   3.090  11.435  0.0167  0.9580  1.8962
 8179SOL     OW36169   2.058   0.759  16.296 -0.0749  0.5251 -0.2014
 8179SOL    HW136170   1.975   0.720  16.267  0.3934 -1.0298  0.5596
 8179SOL    HW236171   2.068   0.823  16.225 -2.3728  0.1510 -0.8858
 8180SOL     OW36172   1.555   1.096   8.203 -0.1697 -0.5977 -0.4002
 8180SOL    HW136173   1.509   1.013   8.192 -2.3943  0.4399  1.1531
 8180SOL    HW236174   1.553   1.113   8.109 -1.5481 -1.3692 -0.4981
 8181SOL     OW36175   0.273   4.568   2.176 -0.7306  0.2191  0.8571
 8181SOL    HW136176   0.319   4.485   2.168 -1.4280 -0.0013 -1.0241
 8181SOL    HW236177   0.195   4.552   2.230 -1.2343 -0.0012  0.0664
 8182SOL     OW36178   1.500   2.154  15.432 -0.1450 -0.3913  0.2271
 8182SOL    HW136179   1.541   2.175  15.348 -1.6957  0.3561 -0.3524
 8182SOL    HW236180   1.549   2.208  15.493  0.8378 -0.5140 -0.4528
 8183SOL     OW36181   0.771   1.950   1.653 -0.3456  0.5484  0.2495
 8183SOL    HW136182   0.729   2.000   1.583 -0.2651  0.3409  0.0529
 8183SOL    HW236183   0.757   2.006   1.728  2.1356  2.5712 -0.8043
 8184SOL     OW36184   0.476   2.030   1.647  0.7226 -0.0771  0.6084
 8184SOL    HW136185   0.530   2.081   1.708  0.8780 -0.7208  1.0103
 8184SOL    HW236186   0.396   2.023   1.699 -2.2297  1.4609 -3.7560
 8185SOL     OW36187   1.527   2.038   9.473  0.0190  0.3106  0.4805
 8185SOL    HW136188   1.498   1.977   9.542  0.3310 -0.6811 -0.2606
 8185SOL    HW236189   1.610   1.997   9.447  0.1302  0.4381  0.6391
 8186SOL     OW36190   1.616   2.937  15.672  0.0030 -0.0872 -0.1688
 8186SOL    HW136191   1.678   2.906  15.606  0.7083 -4.1601  2.4179
 8186SOL    HW236192   1.539   2.901  15.628  0.0799  0.5274 -0.8199
 8187SOL     OW36193   4.661   3.261   6.397  0.1279 -0.2347 -0.0139
 8187SOL    HW136194   4.685   3.353   6.383 -0.2247 -0.5703 -2.9465
 8187SOL    HW236195   4.568   3.250   6.378 -0.6960  3.7656  1.5682
 8188SOL     OW36196   2.230   0.948   9.817 -0.2663  0.0274 -0.0505
 8188SOL    HW136197   2.300   0.883   9.818 -0.3727 -0.0851  0.1575
 8188SOL    HW236198   2.249   0.979   9.905  1.1736  0.3083 -0.4670
 8189SOL     OW36199   4.543   3.999  15.699  0.2174 -0.5174  0.1912
 8189SOL    HW136200   4.492   4.068  15.657  2.3964  1.8394  1.4125
 8189SOL    HW236201   4.560   3.949  15.620 -2.5807  1.0505 -1.3971
 8190SOL     OW36202   0.892   3.396   2.058 -0.0719 -0.1873  0.2925
 8190SOL    HW136203   0.954   3.468   2.046 -2.0519  1.5664  0.5940
 8190SOL    HW236204   0.806   3.427   2.029  0.7416  0.7212 -1.1326
 8191SOL     OW36205   2.769   2.328  10.701  0.0283  0.3289 -0.3343
 8191SOL    HW136206   2.689   2.372  10.671 -1.2372 -2.2093 -0.7105
 8191SOL    HW236207   2.776   2.378  10.782 -2.6209  0.1886 -0.0399
 8192SOL     OW36208   2.578   4.565   5.434 -0.1319  0.2169  0.6037
 8192SOL    HW136209   2.593   4.659   5.438 -0.6050  0.3800 -1.3528
 8192SOL    HW236210   2.637   4.534   5.502 -0.8549 -0.2859  1.0035
 8193SOL     OW36211   1.792   2.852   8.707  0.1203  0.2710 -0.3224
 8193SOL    HW136212   1.711   2.814   8.740  0.4233 -0.4337 -0.3897
 8193SOL    HW236213   1.763   2.861   8.617 -1.2005 -0.5471  0.0276
 8194SOL     OW36214   2.019   0.848   7.593 -0.2437  0.1259  0.1035
 8194SOL    HW136215   2.003   0.942   7.592 -4.2637 -0.5501  2.2889
 8194SOL    HW236216   2.020   0.820   7.501  0.6733 -0.5517  0.3158
 8195SOL     OW36217   3.259   3.646   1.606 -0.8087 -0.1276 -0.5138
 8195SOL    HW136218   3.211   3.611   1.531 -3.2421  1.3938  0.3407
 8195SOL    HW236219   3.313   3.714   1.566 -0.5485  1.2568  2.1801
 8196SOL     OW36220   0.012   2.039   8.078 -0.0789 -0.2596 -0.1829
 8196SOL    HW136221   4.735   2.097   8.152  2.1445  1.2024 -0.8628
 8196SOL    HW236222   4.669   2.044   8.029 -0.6998  0.2373  0.9112
 8197SOL     OW36223   1.546   0.008   3.969 -0.3092  0.4817 -0.2523
 8197SOL    HW136224   1.570   0.012   3.876 -0.0406  1.9021 -0.1261
 8197SOL    HW236225   1.451   0.018   3.960  0.1752  4.5274 -0.8767
 8198SOL     OW36226   4.556   1.650  11.856 -0.0198 -0.2960  0.6950
 8198SOL    HW136227   4.549   1.648  11.952 -2.2000 -0.0142  0.5427
 8198SOL    HW236228   4.614   1.726  11.851  1.4103 -1.5935 -2.0574
 8199SOL     OW36229   1.527   4.570   5.489  0.2357  0.1509 -0.2611
 8199SOL    HW136230   1.527   4.598   5.397 -1.0930  1.5867  0.1792
 8199SOL    HW236231   1.454   4.509   5.482 -2.4760  3.2442  1.1724
 8200SOL     OW36232   2.301   0.990  17.088 -0.1133  0.4289  0.5042
 8200SOL    HW136233   2.270   0.899  17.089  0.1757  0.3331  1.3482
 8200SOL    HW236234   2.325   0.988  17.181  0.8472 -0.0255  0.2445
 8201SOL     OW36235   3.473   3.093   1.928 -0.6253  0.9369  0.0770
 8201SOL    HW136236   3.497   3.175   1.886  0.5801  1.2095  1.3172
 8201SOL    HW236237   3.512   3.025   1.873  2.1722  0.8596  2.2189
 8202SOL     OW36238   0.488   2.059  13.995 -0.0624 -0.4005 -0.1832
 8202SOL    HW136239   0.579   2.044  14.019 -0.1887 -0.4969  0.2482
 8202SOL    HW236240   0.479   2.149  14.026  1.2962 -0.2956 -0.0895
 8203SOL     OW36241   2.279   1.470  13.666 -0.0289  0.1096  0.2470
 8203SOL    HW136242   2.358   1.473  13.719 -0.8191  1.5900  1.3356
 8203SOL    HW236243   2.299   1.392  13.614 -0.8372  1.2208 -1.7290
 8204SOL     OW36244   2.330   1.956  12.255  0.4419  0.0423  0.1245
 8204SOL    HW136245   2.325   2.044  12.292  0.5234  0.4754 -0.8950
 8204SOL    HW236246   2.426   1.952  12.256  0.5312  2.6791  1.7141
 8205SOL     OW36247   2.404   3.790   7.467 -0.4021  0.1554 -0.2187
 8205SOL    HW136248   2.352   3.747   7.535  0.6385 -0.9389 -0.1353
 8205SOL    HW236249   2.338   3.858   7.448  0.4378  1.2717  0.8646
 8206SOL     OW36250   2.179   2.138   2.859 -0.2249 -0.1851  0.0387
 8206SOL    HW136251   2.109   2.168   2.801  0.6830  0.5225 -0.7028
 8206SOL    HW236252   2.142   2.055   2.889  0.4888 -0.2791  0.6549
 8207SOL     OW36253   3.161   3.388   1.675 -0.0028 -0.1057 -0.0623
 8207SOL    HW136254   3.123   3.363   1.759 -0.7337 -0.2325 -0.4276
 8207SOL    HW236255   3.233   3.437   1.715 -0.5377  0.9891 -0.4319
 8208SOL     OW36256   0.298   2.335   8.274 -0.4908  0.0154 -0.4114
 8208SOL    HW136257   0.228   2.310   8.334  0.4780  2.5057  1.7691
 8208SOL    HW236258   0.273   2.424   8.248 -1.5506  0.1338  1.0237
 8209SOL     OW36259   3.755   2.874  14.717  0.2910 -0.0960 -0.2557
 8209SOL    HW136260   3.795   2.911  14.639  2.2974 -1.3453  0.1738
 8209SOL    HW236261   3.672   2.850  14.676 -0.2547  2.2771 -0.5288
 8210SOL     OW36262   4.154   2.916   3.319  0.0206 -0.0925  0.1027
 8210SOL    HW136263   4.198   2.929   3.235  0.6215 -0.3647  0.3740
 8210SOL    HW236264   4.216   2.934   3.390 -3.4453  0.4799  2.9990
 8211SOL     OW36265   2.800   3.372  13.113 -0.2248  0.0965  0.1604
 8211SOL    HW136266   2.826   3.458  13.081  1.0007 -0.6556 -0.8622
 8211SOL    HW236267   2.856   3.325  13.051 -1.2586  1.3234 -1.7155
 8212SOL     OW36268   1.552   0.085  15.255  0.2559  0.1254  0.2426
 8212SOL    HW136269   1.510   0.130  15.329  0.0143  1.7625 -0.8900
 8212SOL    HW236270   1.601   0.156  15.214 -0.8689  0.7651  0.0072
 8213SOL     OW36271   4.484   3.783  10.030 -0.2167  0.6837  0.3073
 8213SOL    HW136272   4.463   3.704  10.080 -0.8695  0.4666 -0.3074
 8213SOL    HW236273   4.460   3.765   9.939 -2.0153  1.1954  0.6848
 8214SOL     OW36274   0.295   0.571   9.838 -0.2344 -1.2202  0.2290
 8214SOL    HW136275   0.354   0.610   9.903 -1.6885  1.6838 -0.1634
 8214SOL    HW236276   0.260   0.652   9.799  3.7960 -0.0301 -0.9843
 8215SOL     OW36277   4.546   1.452   9.510 -1.0599 -0.3610  0.1673
 8215SOL    HW136278   4.603   1.469   9.435 -2.2237 -0.8276 -0.8238
 8215SOL    HW236279   4.602   1.422   9.581 -0.8140  0.4562  0.3196
 8216SOL     OW36280   0.977   4.572   7.797  0.3211  0.3483  0.4650
 8216SOL    HW136281   0.909   4.513   7.830 -2.4289  2.5527 -1.1839
 8216SOL    HW236282   1.009   4.607   7.880  0.1489  0.3386  0.5369
 8217SOL     OW36283   0.853   3.042   8.348  0.0947  0.1646 -0.5257
 8217SOL    HW136284   0.794   3.093   8.403  0.1468 -1.6329  1.1672
 8217SOL    HW236285   0.932   3.082   8.384 -0.1697  0.6319 -0.4617
 8218SOL     OW36286   0.851   3.799  17.408 -0.1772 -0.5268 -0.8458
 8218SOL    HW136287   0.913   3.871  17.418 -0.7358 -0.6553  3.9263
 8218SOL    HW236288   0.848   3.794  17.313 -1.8811 -0.6007 -0.8020
 8219SOL     OW36289   4.604   3.778   3.823  0.2054  1.2491 -0.1865
 8219SOL    HW136290   4.657   3.815   3.753  3.9915  0.8052  2.4354
 8219SOL    HW236291   4.550   3.706   3.789  0.7339  0.9491 -0.3893
 8220SOL     OW36292   0.224   0.530   3.626  0.1156  0.2038 -0.1120
 8220SOL    HW136293   0.184   0.591   3.564  0.8118  1.5288  0.7528
 8220SOL    HW236294   0.178   0.560   3.704  1.9141  1.9672  0.2757
 8221SOL     OW36295   1.517   1.515   1.903 -0.5192  0.0615 -0.2710
 8221SOL    HW136296   1.480   1.484   1.986 -0.2747  0.0763 -0.1558
 8221SOL    HW236297   1.443   1.500   1.844 -1.9495  1.8356  1.0516
 8222SOL     OW36298   3.159   1.556   8.922  0.0878 -0.0094  0.1955
 8222SOL    HW136299   3.126   1.596   8.842  1.7272  0.4134 -0.2742
 8222SOL    HW236300   3.236   1.507   8.893  0.3159  0.4080  0.1018
 8223SOL     OW36301   2.039   3.570   7.665  0.0674 -0.2316 -0.0020
 8223SOL    HW136302   2.054   3.544   7.756 -0.3805 -1.9669 -0.4230
 8223SOL    HW236303   2.087   3.653   7.667  0.7283 -0.5961 -0.7747
 8224SOL     OW36304   2.457   1.581   2.507  0.3025  0.2043 -0.8422
 8224SOL    HW136305   2.532   1.563   2.451  1.1632  0.1862  0.3065
 8224SOL    HW236306   2.474   1.672   2.530  2.2529 -0.1488 -0.8336
 8225SOL     OW36307   4.676   3.942  11.642 -0.2981  0.0570  0.5098
 8225SOL    HW136308   4.634   3.957  11.727 -2.5760 -2.2691 -0.1818
 8225SOL    HW236309   4.608   3.963  11.577 -0.8448 -0.3423  0.9488
 8226SOL     OW36310   2.229   4.112   1.040  0.3601 -0.5965  0.0600
 8226SOL    HW136311   2.190   4.191   1.004 -0.9714 -1.0841  0.4457
 8226SOL    HW236312   2.147   4.062   1.041  0.1500 -0.2089  1.9484
 8227SOL     OW36313   4.038   2.576   3.462  0.8143  0.3285  0.2073
 8227SOL    HW136314   4.044   2.669   3.483  0.7078  0.9078 -2.2418
 8227SOL    HW236315   3.987   2.538   3.533  0.5596 -2.4849 -1.4769
 8228SOL     OW36316   3.821   1.719   7.391  0.4965 -0.4559 -0.9224
 8228SOL    HW136317   3.770   1.744   7.314 -1.0458  0.9435  0.5489
 8228SOL    HW236318   3.891   1.669   7.348  0.9149 -1.2959  0.7647
 8229SOL     OW36319   4.538   3.226   9.263  0.3451 -0.2550  0.4837
 8229SOL    HW136320   4.485   3.240   9.341  2.5651  1.4204  1.6829
 8229SOL    HW236321   4.579   3.144   9.292  2.6509  0.8047  0.2547
 8230SOL     OW36322   3.397   0.127  12.443 -0.0677 -0.6377 -0.5050
 8230SOL    HW136323   3.462   0.174  12.391  0.9551 -0.9192  0.5170
 8230SOL    HW236324   3.452   0.121  12.521 -2.3660  1.2048  1.2568
 8231SOL     OW36325   0.181   4.549   3.539 -0.3534 -0.2671 -0.4156
 8231SOL    HW136326   0.197   4.463   3.577 -1.5579 -0.3280 -0.0424
 8231SOL    HW236327   0.134   4.608   3.598 -1.5087 -0.1043 -1.5151
 8232SOL     OW36328   4.102   2.510  17.170 -0.5181 -0.1227 -0.0186
 8232SOL    HW136329   4.087   2.544  17.082 -1.7424  1.7953  0.9323
 8232SOL    HW236330   4.197   2.503  17.172 -0.5877 -1.0971  0.2715
 8233SOL     OW36331   3.884   3.588   3.926 -0.7178  0.3515  0.3389
 8233SOL    HW136332   3.961   3.639   3.947 -1.0984  0.2964  1.9195
 8233SOL    HW236333   3.919   3.501   3.905  0.3323  0.5741  1.1542
 8234SOL     OW36334   4.718   0.615   6.008 -0.2388  0.1704 -0.0790
 8234SOL    HW136335   4.722   0.689   6.069  1.8988 -0.7317  0.8731
 8234SOL    HW236336   4.727   0.673   5.933 -1.9738  0.0721 -0.3741
 8235SOL     OW36337   3.658   2.494   2.301 -0.2418  0.4581  0.1009
 8235SOL    HW136338   3.715   2.441   2.246  0.1406  1.6915 -0.6784
 8235SOL    HW236339   3.631   2.447   2.380  0.9160  1.4175  1.0604
 8236SOL     OW36340   0.505   2.896   7.809 -0.6903  0.3358  0.1682
 8236SOL    HW136341   0.507   2.929   7.898 -3.0705 -0.3461  0.4611
 8236SOL    HW236342   0.597   2.883   7.784 -0.2019  0.4858  1.9020
 8237SOL     OW36343   4.567   1.756   1.043 -0.3137  0.3940  0.7359
 8237SOL    HW136344   4.539   1.832   0.992 -0.4968 -0.5569 -0.5476
 8237SOL    HW236345   4.661   1.776   1.048 -0.3588 -0.5060  5.1284
 8238SOL     OW36346   4.233   1.116   5.321  0.1303 -0.0542 -0.5932
 8238SOL    HW136347   4.190   1.123   5.406 -3.5262 -1.2568 -2.3390
 8238SOL    HW236348   4.157   1.105   5.263 -0.3562 -1.3019  0.2715
 8239SOL     OW36349   4.639   0.268   6.914  0.0700  0.2237 -0.0576
 8239SOL    HW136350   4.553   0.225   6.914 -0.2106  0.7854 -0.1037
 8239SOL    HW236351   4.671   0.244   7.001  3.5523  2.5697 -0.6890
 8240SOL     OW36352   2.315   2.228  12.332 -0.2482  0.0271 -0.4480
 8240SOL    HW136353   2.222   2.248  12.323 -0.7431 -2.1705 -0.1956
 8240SOL    HW236354   2.346   2.237  12.242 -4.4605  0.4417 -1.8541
 8241SOL     OW36355   2.090   0.400   8.234  0.0890  0.3848 -0.0792
 8241SOL    HW136356   2.098   0.330   8.299 -0.6399  1.4212  1.1252
 8241SOL    HW236357   2.045   0.463   8.291 -0.7939  0.1980 -0.5674
 8242SOL     OW36358   2.037   3.443   0.576  0.3643 -0.1756 -0.6315
 8242SOL    HW136359   2.004   3.453   0.487 -0.6196 -3.0627 -0.5851
 8242SOL    HW236360   1.964   3.479   0.627  0.4992  0.8782 -1.1855
 8243SOL     OW36361   1.685   2.716   2.582  0.2411 -0.6566 -0.4918
 8243SOL    HW136362   1.744   2.725   2.507  0.2413  2.1200 -0.1553
 8243SOL    HW236363   1.711   2.636   2.628  0.7000 -0.2035  0.0361
 8244SOL     OW36364   1.163   4.325   7.522  0.4490 -0.4193  0.1935
 8244SOL    HW136365   1.161   4.316   7.617 -0.7384  0.8272  0.2859
 8244SOL    HW236366   1.229   4.266   7.485  0.5031 -0.3147  0.1235
 8245SOL     OW36367   0.189   2.701  17.641 -0.4475  0.4244  0.2467
 8245SOL    HW136368   0.224   2.731  17.557 -0.2132 -0.4266  0.0464
 8245SOL    HW236369   0.116   2.762  17.653  1.5086  2.3264  2.5233
 8246SOL     OW36370   0.829   3.330   6.333 -0.2982  0.2836 -0.2631
 8246SOL    HW136371   0.890   3.258   6.349 -0.7865 -0.4358 -1.5676
 8246SOL    HW236372   0.747   3.281   6.338  0.5113 -1.0572 -0.2904
 8247SOL     OW36373   4.167   1.123   4.873 -0.6262 -0.3839 -0.3527
 8247SOL    HW136374   4.247   1.174   4.884 -0.9020 -0.1262  0.4913
 8247SOL    HW236375   4.180   1.074   4.792 -0.9735  0.4260 -0.8892
 8248SOL     OW36376   3.482   2.199   5.055 -0.0910  0.2550  0.5419
 8248SOL    HW136377   3.437   2.144   5.119 -0.1630  0.7930  0.9559
 8248SOL    HW236378   3.559   2.144   5.040 -1.6966 -2.0326  0.6281
 8249SOL     OW36379   3.624   2.952  14.265 -0.1497 -0.1174  0.9157
 8249SOL    HW136380   3.640   2.963  14.172  2.4853 -0.5574  1.3250
 8249SOL    HW236381   3.556   2.885  14.255 -0.4857  0.0391  2.1201
 8250SOL     OW36382   1.290   4.406   5.835 -0.4107  0.4328 -0.2710
 8250SOL    HW136383   1.246   4.321   5.844 -0.4888  0.2062 -2.7937
 8250SOL    HW236384   1.349   4.402   5.910 -0.4207 -0.4529 -0.3041
 8251SOL     OW36385   3.901   4.279   4.910  0.0175 -0.2234  0.5646
 8251SOL    HW136386   3.812   4.305   4.933  0.2536 -0.8542  2.1801
 8251SOL    HW236387   3.923   4.352   4.852  0.3556 -1.5613 -0.9960
 8252SOL     OW36388   3.075   0.277   4.904  0.1646 -0.1544 -0.3385
 8252SOL    HW136389   3.010   0.208   4.921  0.4756 -0.6073 -1.0023
 8252SOL    HW236390   3.120   0.264   4.987 -1.0549  1.1805  0.5342
 8253SOL     OW36391   3.836   2.962  14.479  0.1537 -0.1879  0.2818
 8253SOL    HW136392   3.764   2.958  14.416  0.4533 -0.5546 -0.0359
 8253SOL    HW236393   3.895   2.892  14.454  0.3689 -0.0635  0.4365
 8254SOL     OW36394   3.390   3.231  11.843 -0.6525  0.1192 -0.3783
 8254SOL    HW136395   3.411   3.300  11.906  0.2010 -0.4467 -0.0476
 8254SOL    HW236396   3.345   3.168  11.899  0.3238 -0.5496 -0.3370
 8255SOL     OW36397   0.253   0.941   2.746  0.3605 -0.7599 -0.4205
 8255SOL    HW136398   0.228   0.857   2.783  1.0247 -0.5778  0.4566
 8255SOL    HW236399   0.291   0.993   2.818  1.4065  0.5053 -1.8694
 8256SOL     OW36400   1.364   1.692  14.714  0.0583  0.6759 -0.0830
 8256SOL    HW136401   1.306   1.748  14.766  0.8725  1.4045  0.0486
 8256SOL    HW236402   1.359   1.606  14.754  0.2717  1.2479  1.1663
 8257SOL     OW36403   0.445   0.257   4.403 -0.3105  0.1653  0.1071
 8257SOL    HW136404   0.498   0.310   4.344  0.4829  1.1479  1.7136
 8257SOL    HW236405   0.515   0.236   4.464 -0.7067 -2.8685 -0.4580
 8258SOL     OW36406   2.615   0.116  11.272 -0.4676  0.2009  0.2084
 8258SOL    HW136407   2.525   0.146  11.277 -0.5823  0.3704 -2.9191
 8258SOL    HW236408   2.656   0.203  11.273 -0.4678  0.2236 -1.2606
 8259SOL     OW36409   3.985   0.495   4.581 -0.6072  0.0897 -0.2226
 8259SOL    HW136410   3.950   0.487   4.669  0.6208  0.1888  0.2718
 8259SOL    HW236411   3.932   0.570   4.554  0.8983  0.9134 -0.8667
 8260SOL     OW36412   0.549   3.323  15.383  0.3770 -0.4971  0.0045
 8260SOL    HW136413   0.456   3.327  15.402  0.9052 -2.4606  3.0229
 8260SOL    HW236414   0.588   3.241  15.413 -0.6353 -1.4258 -1.2391
 8261SOL     OW36415   2.673   0.253   4.190  0.2200 -0.5183 -0.1927
 8261SOL    HW136416   2.698   0.342   4.214  1.0043 -1.1694  1.4223
 8261SOL    HW236417   2.726   0.235   4.112  1.2022 -0.1732  0.3974
 8262SOL     OW36418   2.095   0.551   5.619  0.4867  0.5159  0.0494
 8262SOL    HW136419   2.023   0.590   5.569  0.8936  0.3739 -0.6544
 8262SOL    HW236420   2.068   0.568   5.709 -2.0372  0.4798 -0.6784
 8263SOL     OW36421   1.253   4.179   2.173 -0.1552 -0.1044  0.0188
 8263SOL    HW136422   1.281   4.136   2.092 -0.6680  0.9592 -0.7158
 8263SOL    HW236423   1.300   4.262   2.169  2.3811 -1.4772  1.2250
 8264SOL     OW36424   3.402   2.676   2.874  0.1853 -0.5248 -0.3945
 8264SOL    HW136425   3.418   2.731   2.797 -0.5557  2.9714  1.9273
 8264SOL    HW236426   3.475   2.678   2.935  1.3766 -2.3575 -1.7402
 8265SOL     OW36427   4.137   0.800   3.705 -0.1236 -0.0640  0.1108
 8265SOL    HW136428   4.155   0.709   3.682  1.8155  0.6256 -1.1059
 8265SOL    HW236429   4.042   0.800   3.699 -0.0759 -2.1952 -0.5934
 8266SOL     OW36430   2.934   3.469  16.446 -0.4179  0.2523  0.4153
 8266SOL    HW136431   2.871   3.512  16.504 -1.6848 -1.7252  0.5038
 8266SOL    HW236432   2.880   3.449  16.369  0.0930 -4.4860  1.2778
 8267SOL     OW36433   2.361   1.576   3.970 -0.6341  0.6804 -0.1156
 8267SOL    HW136434   2.384   1.546   3.882  0.8418 -1.3112  0.9659
 8267SOL    HW236435   2.325   1.662   3.945  1.6780  2.3535  2.3391
 8268SOL     OW36436   1.188   2.213   4.316  0.3467  0.4138 -0.0224
 8268SOL    HW136437   1.106   2.198   4.268 -0.1406  1.0011  0.6185
 8268SOL    HW236438   1.254   2.195   4.250  1.3418  1.5006  0.6690
 8269SOL     OW36439   3.329   0.198   4.666 -0.0278 -0.8844  0.7478
 8269SOL    HW136440   3.383   0.183   4.589  0.3936 -0.8498  1.0315
 8269SOL    HW236441   3.259   0.133   4.655 -1.2371  0.3976  0.8670
 8270SOL     OW36442   3.183   0.646  14.533 -0.5261 -0.3685  0.1764
 8270SOL    HW136443   3.241   0.689  14.470  1.0454 -0.6734  1.4078
 8270SOL    HW236444   3.098   0.639  14.490 -1.7128 -0.1437  2.5021
 8271SOL     OW36445   4.387   1.257   3.943  0.2608  0.3565  0.0812
 8271SOL    HW136446   4.452   1.208   3.893  0.2687 -1.2809  1.7063
 8271SOL    HW236447   4.375   1.331   3.883 -0.6927  0.8854  0.9347
 8272SOL     OW36448   3.447   0.988  14.857  0.0276  0.3515 -0.1207
 8272SOL    HW136449   3.381   1.023  14.797  1.9214  0.9188 -1.8460
 8272SOL    HW236450   3.522   1.046  14.845 -0.3423  0.8572 -0.0136
 8273SOL     OW36451   4.412   4.050   7.037  0.6162  0.2921 -0.0750
 8273SOL    HW136452   4.493   4.039   6.987  0.6360 -0.0515  0.0340
 8273SOL    HW236453   4.373   4.127   6.995 -1.1331 -1.5698 -1.8852
 8274SOL     OW36454   3.080   3.395   8.333 -0.3381  0.3776  0.4849
 8274SOL    HW136455   3.046   3.306   8.327 -1.5679  0.8746  0.2257
 8274SOL    HW236456   3.123   3.388   8.419 -3.2105 -0.4195  1.8523
 8275SOL     OW36457   3.529   3.111  17.192 -0.0324 -1.2592 -0.0902
 8275SOL    HW136458   3.476   3.093  17.115 -3.4178  1.4307  1.6275
 8275SOL    HW236459   3.529   3.207  17.190  0.8790 -1.2040  2.8880
 8276SOL     OW36460   3.019   3.830   6.751 -0.0658  0.3796  0.0911
 8276SOL    HW136461   3.090   3.863   6.696  1.1751  1.3824  2.2808
 8276SOL    HW236462   2.976   3.787   6.677 -0.2372 -0.5473  0.7263
 8277SOL     OW36463   4.186   3.643   3.499  0.1975 -0.4119 -0.2425
 8277SOL    HW136464   4.200   3.738   3.490  1.8075 -0.5106  1.2422
 8277SOL    HW236465   4.101   3.639   3.456 -0.2080  0.1427  0.5034
 8278SOL     OW36466   4.616   4.233   4.567  0.4326  0.1913 -0.4167
 8278SOL    HW136467   4.537   4.268   4.609  0.2171 -1.0806  0.2459
 8278SOL    HW236468   4.585   4.230   4.476 -1.6524  0.8845  0.2705
 8279SOL     OW36469   3.136   1.787   3.305 -0.2603 -0.1368 -0.6395
 8279SOL    HW136470   3.184   1.840   3.242 -0.2916 -0.8210 -1.2407
 8279SOL    HW236471   3.135   1.857   3.369 -2.9227 -0.6887 -0.0670
 8280SOL     OW36472   2.575   3.559   1.151 -0.1643 -0.0672  0.8272
 8280SOL    HW136473   2.621   3.598   1.225 -1.7273 -1.0172  2.2931
 8280SOL    HW236474   2.611   3.470   1.150  1.6651  0.6733 -0.0177
 8281SOL     OW36475   3.412   2.986   1.580  0.4923  0.0617 -0.0782
 8281SOL    HW136476   3.385   2.938   1.658 -0.6479 -0.6544 -0.9112
 8281SOL    HW236477   3.349   3.057   1.570 -1.5709 -1.7050  0.3544
 8282SOL     OW36478   2.533   0.765   7.595 -0.2269  0.2435 -0.1041
 8282SOL    HW136479   2.588   0.723   7.661  1.0960 -1.0111 -2.0003
 8282SOL    HW236480   2.442   0.741   7.611 -0.5761  1.6239  0.0147
 8283SOL     OW36481   1.730   1.719   9.220 -0.0753  0.6866  0.2677
 8283SOL    HW136482   1.642   1.758   9.226 -1.4582 -2.4304  0.3667
 8283SOL    HW236483   1.789   1.768   9.277  1.5311 -0.0276 -0.8095
 8284SOL     OW36484   3.422   2.935  11.899 -0.1467  0.1702 -0.2359
 8284SOL    HW136485   3.366   2.881  11.955 -0.0736 -0.4708 -0.7816
 8284SOL    HW236486   3.482   2.974  11.963 -0.9218  0.8561  0.0811
 8285SOL     OW36487   1.574   2.685   2.192 -0.2968  0.1633  0.1366
 8285SOL    HW136488   1.565   2.666   2.099 -0.0765  1.1086 -0.0802
 8285SOL    HW236489   1.648   2.629   2.217 -1.6092 -1.7211 -0.2324
 8286SOL     OW36490   1.969   2.793   4.597  0.0613  0.0724  0.2449
 8286SOL    HW136491   1.898   2.827   4.544  0.9227  1.1235 -0.2273
 8286SOL    HW236492   2.011   2.874   4.627 -3.4803  1.8130  0.4295
 8287SOL     OW36493   2.045   3.405  10.638  0.3296 -0.3322 -0.0615
 8287SOL    HW136494   2.085   3.452  10.711 -1.0811  0.7359  0.0083
 8287SOL    HW236495   1.988   3.474  10.606  0.9806  0.0203 -0.4621
 8288SOL     OW36496   4.686   0.199   4.433  0.2218  0.4104 -0.6064
 8288SOL    HW136497   4.706   0.158   4.350  1.6720 -0.6584  0.2734
 8288SOL    HW236498   0.021   0.259   4.442  1.4803 -1.3639  1.0062
 8289SOL     OW36499   1.743   1.435   2.186  0.1119  0.0385  0.4400
 8289SOL    HW136500   1.650   1.459   2.182  0.0762 -0.2331 -0.2125
 8289SOL    HW236501   1.750   1.353   2.138  2.0022  0.2881  0.2916
 8290SOL     OW36502   2.403   0.783  15.658  0.3675  0.1039  0.3708
 8290SOL    HW136503   2.452   0.866  15.667 -0.2334  0.2501  2.3428
 8290SOL    HW236504   2.338   0.798  15.727  3.1222  3.3545  2.2789
 8291SOL     OW36505   2.923   2.435   8.331 -0.6264 -0.2837  0.4750
 8291SOL    HW136506   2.844   2.443   8.384 -1.1189  0.2828 -0.3570
 8291SOL    HW236507   2.930   2.340   8.324  3.1539  0.0197 -0.0414
 8292SOL     OW36508   4.512   3.615   2.018 -0.4019  0.1888  0.2155
 8292SOL    HW136509   4.481   3.531   1.987  1.0654 -0.3152  0.1027
 8292SOL    HW236510   4.431   3.666   2.011  0.4691  1.3534 -1.3826
 8293SOL     OW36511   2.676   3.760   3.106  0.3494  0.3560  0.1189
 8293SOL    HW136512   2.748   3.821   3.091  2.5318 -2.4598 -0.9177
 8293SOL    HW236513   2.600   3.801   3.066 -2.0432 -0.9948  3.3355
 8294SOL     OW36514   0.745   2.088  17.295  0.1024 -0.5563  0.4885
 8294SOL    HW136515   0.659   2.048  17.287 -0.2800  0.5085 -0.8086
 8294SOL    HW236516   0.768   2.080  17.202  0.9996  3.4091  0.3611
 8295SOL     OW36517   2.206   4.311  12.636  0.7437  0.2233  0.2575
 8295SOL    HW136518   2.215   4.405  12.654  3.1514  0.2199 -0.8858
 8295SOL    HW236519   2.149   4.277  12.705 -0.6680  1.8611 -0.0929
 8296SOL     OW36520   0.870   1.985   0.825  0.4682 -0.0880  0.4947
 8296SOL    HW136521   0.853   2.046   0.754 -1.2046 -0.1485  0.8411
 8296SOL    HW236522   0.817   1.906   0.813 -0.7541  0.3822  2.8443
 8297SOL     OW36523   1.004   3.311   2.627  0.2652 -0.0615  0.4749
 8297SOL    HW136524   1.044   3.292   2.712 -0.3636 -1.1781  0.5161
 8297SOL    HW236525   1.026   3.403   2.613  1.3626 -0.4895 -0.5838
 8298SOL     OW36526   4.610   2.272  14.781  0.8346 -0.1214 -0.2243
 8298SOL    HW136527   4.634   2.244  14.869  0.1499  0.2535  0.0866
 8298SOL    HW236528   4.690   2.257  14.731  1.0687 -0.5991  0.3089
 8299SOL     OW36529   1.357   3.862   2.588  0.0129 -0.2296  0.0086
 8299SOL    HW136530   1.413   3.818   2.652 -0.3430 -0.5709  0.0837
 8299SOL    HW236531   1.280   3.876   2.642  0.1809  0.6292  0.0173
 8300SOL     OW36532   0.422   0.658   9.015  0.4411  0.0188  0.4101
 8300SOL    HW136533   0.370   0.715   8.958  0.6513 -1.2950 -1.0807
 8300SOL    HW236534   0.372   0.664   9.096  4.0943  1.8564  2.5615
 8301SOL     OW36535   0.980   1.611   1.798  0.2736 -1.0644  0.0780
 8301SOL    HW136536   1.007   1.550   1.730  0.4947 -2.0353  1.0362
 8301SOL    HW236537   1.007   1.557   1.872  0.4545 -0.4042  0.4999
 8302SOL     OW36538   2.573   2.749   9.780  0.2124  0.1328  0.0087
 8302SOL    HW136539   2.565   2.746   9.876 -2.0427 -4.4054 -0.2952
 8302SOL    HW236540   2.647   2.691   9.762 -0.5955 -1.2016  0.8952
 8303SOL     OW36541   2.760   2.879   5.036 -0.2854  0.3525 -0.4522
 8303SOL    HW136542   2.689   2.934   5.069 -0.4515 -0.5844  0.7513
 8303SOL    HW236543   2.828   2.942   5.013 -1.4086  1.8131  0.2082
 8304SOL     OW36544   0.537   2.578   4.390 -0.0224 -0.2426  0.3606
 8304SOL    HW136545   0.482   2.511   4.351 -0.8685  1.0612 -0.6796
 8304SOL    HW236546   0.581   2.518   4.450 -0.0480  0.0297  0.6559
 8305SOL     OW36547   3.971   2.396  17.686 -0.6678 -0.7492  0.2112
 8305SOL    HW136548   3.971   2.324  17.622  2.8507  1.3498 -2.0978
 8305SOL    HW236549   3.912   2.359  17.751 -0.7586  2.6989  2.0711
 8306SOL     OW36550   0.827   3.467   3.382 -0.3927 -0.4546  0.0991
 8306SOL    HW136551   0.898   3.460   3.446 -0.4774 -0.2611  0.2133
 8306SOL    HW236552   0.850   3.401   3.316  0.1754 -0.9948  0.8306
 8307SOL     OW36553   3.437   2.676  16.611 -0.2175  0.3312 -0.0433
 8307SOL    HW136554   3.347   2.689  16.582 -0.4327 -1.3077 -0.1190
 8307SOL    HW236555   3.426   2.595  16.662  0.8772 -0.3812 -0.9364
 8308SOL     OW36556   0.798   4.554   6.760 -0.5787 -0.1135 -0.2794
 8308SOL    HW136557   0.886   4.585   6.781 -0.7066 -1.7410  2.6105
 8308SOL    HW236558   0.813   4.460   6.762 -2.3618 -0.3537  1.3412
 8309SOL     OW36559   1.762   3.738   5.153 -0.4408  0.1544 -0.4722
 8309SOL    HW136560   1.697   3.725   5.221 -1.8126 -1.0142 -2.0059
 8309SOL    HW236561   1.702   3.766   5.084 -0.3090  1.0476 -0.2231
 8310SOL     OW36562   3.398   4.436   2.437 -0.2734  0.0111 -0.0518
 8310SOL    HW136563   3.438   4.503   2.491  2.3678 -2.2400  0.7809
 8310SOL    HW236564   3.371   4.372   2.502 -2.4332  0.5464 -0.4279
 8311SOL     OW36565   2.216   1.079   3.456 -0.1015 -0.0770 -0.2530
 8311SOL    HW136566   2.222   1.024   3.535  0.7011  0.1286 -0.1650
 8311SOL    HW236567   2.254   1.017   3.395 -0.5757 -1.0473  0.4268
 8312SOL     OW36568   4.424   3.111   8.532  0.0603 -0.1909  0.4132
 8312SOL    HW136569   4.340   3.151   8.555 -0.3963 -0.7637 -0.2694
 8312SOL    HW236570   4.438   3.062   8.613 -1.7031 -0.1398  0.7338
 8313SOL     OW36571   4.258   2.235   2.612 -0.2046 -0.4375 -0.4103
 8313SOL    HW136572   4.301   2.274   2.536  0.3837  0.1167  0.2135
 8313SOL    HW236573   4.265   2.297   2.685 -0.5900  0.4465 -1.1266
 8314SOL     OW36574   0.668   1.543  14.556  0.0545 -0.7217  0.0645
 8314SOL    HW136575   0.692   1.453  14.576  1.5674 -0.6087 -1.2212
 8314SOL    HW236576   0.746   1.599  14.555 -1.1818  1.0015 -0.6072
 8315SOL     OW36577   3.671   2.655   4.611 -0.1496 -0.2854 -0.8081
 8315SOL    HW136578   3.587   2.692   4.583 -0.0291 -0.8942 -1.9653
 8315SOL    HW236579   3.656   2.651   4.705  1.2219  0.7984 -0.5371
 8316SOL     OW36580   4.043   3.063   5.781  0.0146  0.0799  0.3245
 8316SOL    HW136581   4.047   3.146   5.733  1.9403 -0.4541 -0.4645
 8316SOL    HW236582   3.957   3.064   5.822  1.8092  2.7382  4.0048
 8317SOL     OW36583   3.947   0.927   2.996  0.2178  0.1955 -0.1758
 8317SOL    HW136584   3.959   0.936   2.902  0.7917  0.9080 -0.0410
 8317SOL    HW236585   3.852   0.924   3.000  0.1171 -0.2977 -3.3429
 8318SOL     OW36586   1.077   3.659  10.635 -0.0995 -0.2840  0.3261
 8318SOL    HW136587   1.150   3.700  10.588 -0.1132  0.2386  0.7749
 8318SOL    HW236588   1.005   3.701  10.588  1.1387 -1.5414 -2.7256
 8319SOL     OW36589   3.120   3.732   7.748  0.0267 -0.4341 -0.5615
 8319SOL    HW136590   3.035   3.689   7.734  0.2958 -0.1531 -3.2126
 8319SOL    HW236591   3.142   3.743   7.655 -1.1899  0.4739 -0.7373
 8320SOL     OW36592   2.998   2.818   4.537  0.7112  0.0394  0.3101
 8320SOL    HW136593   3.006   2.731   4.499  1.7061  1.9587 -3.8155
 8320SOL    HW236594   2.906   2.816   4.563  1.1958 -1.6885  1.9301
 8321SOL     OW36595   3.248   1.106   7.043  0.6137  0.5470  0.0006
 8321SOL    HW136596   3.170   1.116   7.099  0.8682  1.1361  0.2540
 8321SOL    HW236597   3.215   1.078   6.958  0.9785  0.8624 -0.2430
 8322SOL     OW36598   4.533   2.488   8.267  0.1246 -0.0835  0.4021
 8322SOL    HW136599   4.495   2.467   8.182  1.5898 -0.7582 -0.0722
 8322SOL    HW236600   4.493   2.575   8.279  1.6559  0.4447  1.7655
 8323SOL     OW36601   3.550   1.962   7.513  0.0713  0.3324  0.1617
 8323SOL    HW136602   3.537   2.038   7.455 -0.2319  1.2782  1.4685
 8323SOL    HW236603   3.646   1.962   7.511  0.1039 -1.9572  1.9767
 8324SOL     OW36604   1.681   4.018  15.301  0.1863  0.0500 -0.5643
 8324SOL    HW136605   1.614   4.028  15.233 -0.6958  0.0752  0.3080
 8324SOL    HW236606   1.738   4.095  15.302  0.3330 -0.0809  0.6361
 8325SOL     OW36607   1.416   2.718  11.970 -0.4626 -0.1266  0.3395
 8325SOL    HW136608   1.467   2.799  11.980 -2.7786  1.3866 -0.0524
 8325SOL    HW236609   1.496   2.671  11.947 -1.8258 -1.3294 -1.9317
 8326SOL     OW36610   1.937   1.476   0.812  0.1302 -0.0796 -0.1308
 8326SOL    HW136611   1.890   1.437   0.885 -1.0714 -0.7570 -1.2508
 8326SOL    HW236612   2.022   1.433   0.826  0.0514  0.2786  1.4104
 8327SOL     OW36613   1.768   1.171   4.531  0.5610 -0.6065  0.4401
 8327SOL    HW136614   1.815   1.254   4.532 -1.8232  0.7515 -0.8605
 8327SOL    HW236615   1.738   1.175   4.440  3.6405  3.4892 -0.4213
 8328SOL     OW36616   3.133   1.873   1.281 -0.0810 -0.5794 -0.3497
 8328SOL    HW136617   3.212   1.906   1.324 -0.0812 -2.3091  0.9658
 8328SOL    HW236618   3.065   1.877   1.348 -1.8739 -0.1679 -2.1835
 8329SOL     OW36619   4.350   4.039  14.063 -0.1303 -0.1887 -0.0234
 8329SOL    HW136620   4.326   4.056  13.972 -0.5584 -1.5486 -0.1641
 8329SOL    HW236621   4.392   3.953  14.055 -0.0109 -0.2098  0.8973
 8330SOL     OW36622   2.821   2.747  12.984 -0.4206 -0.1308 -0.0646
 8330SOL    HW136623   2.814   2.739  13.079  1.2975 -1.3969 -0.0487
 8330SOL    HW236624   2.729   2.743  12.958  0.0542  0.3836 -1.8716
 8331SOL     OW36625   1.810   2.680  10.088 -0.4682  0.0787 -0.0089
 8331SOL    HW136626   1.865   2.721  10.155 -0.8374  0.7733 -0.1291
 8331SOL    HW236627   1.766   2.754  10.047  0.8439 -0.0646 -1.6922
 8332SOL     OW36628   1.284   2.120  12.904  0.1291 -0.5189  0.1670
 8332SOL    HW136629   1.377   2.099  12.916  0.3981  1.4846  1.6835
 8332SOL    HW236630   1.289   2.198  12.849  2.7037 -0.9214 -0.1449
 8333SOL     OW36631   0.785   2.312   4.968 -0.1319 -0.2174 -0.0027
 8333SOL    HW136632   0.780   2.231   4.918 -0.4669  0.3097 -0.8191
 8333SOL    HW236633   0.695   2.316   5.002 -0.6664 -0.1940 -1.4031
 8334SOL     OW36634   4.035   0.901   4.204 -0.3976 -0.3484 -0.3029
 8334SOL    HW136635   4.118   0.914   4.160 -0.4643 -0.5856 -0.4977
 8334SOL    HW236636   3.988   0.826   4.167 -0.2592 -0.7391  0.3286
 8335SOL     OW36637   1.543   2.016  12.184 -0.5815  0.2822  0.2671
 8335SOL    HW136638   1.569   2.068  12.108 -2.0601 -1.4535 -1.4172
 8335SOL    HW236639   1.561   1.932  12.141 -2.6774  0.5399 -1.0886
 8336SOL     OW36640   0.064   4.300   9.695  0.0664 -0.1733 -0.7441
 8336SOL    HW136641   4.729   4.239   9.687  1.2811 -1.5308 -1.7013
 8336SOL    HW236642   0.100   4.289   9.607  1.5114 -1.2317 -0.0238
 8337SOL     OW36643   4.508   0.904   2.253  0.4931  0.7758 -0.6621
 8337SOL    HW136644   4.552   0.903   2.168 -1.6082  0.3089 -1.7402
 8337SOL    HW236645   4.574   0.942   2.311  0.6414  0.5177 -0.6631
 8338SOL     OW36646   2.477   2.536   4.559  0.1768 -0.0003  0.3608
 8338SOL    HW136647   2.468   2.489   4.643  0.8022  0.3892  0.6468
 8338SOL    HW236648   2.447   2.626   4.568  0.8296  0.4958 -2.6083
 8339SOL     OW36649   1.495   2.600   5.851  0.3833  0.6391 -0.3718
 8339SOL    HW136650   1.550   2.549   5.792  0.8038  0.8813 -0.1972
 8339SOL    HW236651   1.418   2.604   5.795  1.6120 -1.7455 -2.2512
 8340SOL     OW36652   3.220   0.633   5.344  0.2128 -0.1592  0.0292
 8340SOL    HW136653   3.297   0.680   5.378  0.2245 -0.9976  1.1850
 8340SOL    HW236654   3.160   0.667   5.411 -1.3679 -2.7479 -0.0760
 8341SOL     OW36655   1.752   3.753   6.149  0.3285  0.6216 -0.3149
 8341SOL    HW136656   1.767   3.796   6.234  1.4510  2.3218 -1.3810
 8341SOL    HW236657   1.816   3.798   6.093  1.2135  1.7762  1.5990
 8342SOL     OW36658   2.500   1.159   9.177 -0.1301  0.1316  0.3601
 8342SOL    HW136659   2.446   1.237   9.178  0.8943  0.8019  2.3692
 8342SOL    HW236660   2.450   1.096   9.228 -1.6422  1.5151  0.5606
 8343SOL     OW36661   0.879   0.814   5.737 -0.0841  0.5746 -0.1991
 8343SOL    HW136662   0.868   0.863   5.819 -0.8823 -1.0484  0.6649
 8343SOL    HW236663   0.824   0.738   5.757 -0.9381  1.0589 -0.7145
 8344SOL     OW36664   4.618   0.170   4.756 -0.0390 -0.2866 -0.4528
 8344SOL    HW136665   4.538   0.118   4.750  0.6098 -1.1128 -1.8791
 8344SOL    HW236666   4.670   0.125   4.689  0.8080  0.1355 -0.0747
 8345SOL     OW36667   3.026   1.663   2.931  0.2870 -0.2992  0.3397
 8345SOL    HW136668   3.053   1.630   3.017 -0.2534 -0.4692  0.4469
 8345SOL    HW236669   3.107   1.665   2.880  1.1270  0.9505  1.7281
 8346SOL     OW36670   2.515   2.607  13.079 -0.2745  0.2386  0.1644
 8346SOL    HW136671   2.468   2.609  12.996 -0.7850 -1.4022  0.4187
 8346SOL    HW236672   2.478   2.687  13.116 -0.0783  0.7935 -0.8335
 8347SOL     OW36673   4.443   1.523   2.101 -0.0156 -0.3208  0.1301
 8347SOL    HW136674   4.403   1.488   2.181 -2.0090  0.2849 -0.6060
 8347SOL    HW236675   4.395   1.470   2.036  0.6490 -1.0284  0.2107
 8348SOL     OW36676   0.151   3.071  12.411  0.0486 -0.4539 -0.2295
 8348SOL    HW136677   0.227   3.013  12.416 -0.3459 -0.8721  0.9495
 8348SOL    HW236678   0.163   3.124  12.333 -0.3733  0.0422  0.0465
 8349SOL     OW36679   1.698   4.112   1.233  0.1896  0.6573  0.1060
 8349SOL    HW136680   1.758   4.131   1.160 -0.1896 -1.7971 -0.8396
 8349SOL    HW236681   1.612   4.117   1.191  0.4394  0.3806 -0.4438
 8350SOL     OW36682   2.575   0.963  17.042 -0.1793  0.3619 -0.4228
 8350SOL    HW136683   2.507   0.899  17.025  1.2222 -1.0029 -0.8469
 8350SOL    HW236684   2.522   1.043  17.044  2.3529  2.0231  0.7492
 8351SOL     OW36685   3.463   4.510   5.608 -0.1715 -0.8023  0.0785
 8351SOL    HW136686   3.416   4.426   5.605 -0.3104 -0.7117 -0.2312
 8351SOL    HW236687   3.550   4.478   5.630 -0.9150 -1.5443  1.9554
 8352SOL     OW36688   4.077   2.387  14.450 -0.1206  0.2173  0.1370
 8352SOL    HW136689   4.013   2.317  14.434  1.9185 -1.3642 -0.9389
 8352SOL    HW236690   4.120   2.399  14.366 -0.1355  0.8398  0.2183
 8353SOL     OW36691   4.567   4.577   4.124 -0.3869 -0.2318 -0.0420
 8353SOL    HW136692   4.638   4.620   4.172  1.5244 -2.8452 -0.4831
 8353SOL    HW236693   4.506   4.650   4.114  1.7992  1.4651 -1.0097
 8354SOL     OW36694   1.930   4.137   8.430  0.4762 -0.2748 -0.4762
 8354SOL    HW136695   1.838   4.114   8.415  1.1426 -2.7948 -0.6786
 8354SOL    HW236696   1.936   4.168   8.520  1.1044 -1.2997 -0.1584
 8355SOL     OW36697   0.983   3.347   9.270 -0.3656 -0.0227  0.3466
 8355SOL    HW136698   0.897   3.315   9.243 -0.5262 -0.2614  1.1646
 8355SOL    HW236699   0.958   3.433   9.304  1.2567  0.8026 -0.5285
 8356SOL     OW36700   3.574   2.188  13.382 -0.1955  0.0218  0.0739
 8356SOL    HW136701   3.560   2.098  13.409 -1.8810  0.4075  0.5062
 8356SOL    HW236702   3.493   2.221  13.422  0.8950  0.3935  1.9769
 8357SOL     OW36703   3.798   2.945   4.811  0.1823 -0.0381  0.2875
 8357SOL    HW136704   3.712   2.911   4.783 -0.2283  0.9224  0.3920
 8357SOL    HW236705   3.861   2.893   4.762  0.7357  2.6468 -1.8285
 8358SOL     OW36706   3.843   1.117   5.688 -0.1314  0.4530 -0.2149
 8358SOL    HW136707   3.801   1.058   5.750 -1.1825  1.8815  0.4314
 8358SOL    HW236708   3.836   1.206   5.720  2.0628 -0.1337  1.8694
 8359SOL     OW36709   2.399   2.567   5.600 -0.3208 -0.0130 -0.5893
 8359SOL    HW136710   2.486   2.529   5.588 -0.2870 -0.6659  1.8430
 8359SOL    HW236711   2.420   2.616   5.679  0.9371  2.5656 -2.5085
 8360SOL     OW36712   4.439   0.870  17.039 -0.8871 -0.1846  0.2636
 8360SOL    HW136713   4.343   0.868  17.039 -0.9102  0.7283 -1.7976
 8360SOL    HW236714   4.465   0.945  16.986 -2.8109 -0.7400 -1.4913
 8361SOL     OW36715   3.455   0.973   0.073  1.0931  0.1451 -0.1414
 8361SOL    HW136716   3.509   0.977  17.747 -0.0891 -0.4049 -0.9812
 8361SOL    HW236717   3.387   0.920   0.031  1.3914 -0.5932  0.3234
 8362SOL     OW36718   2.282   2.355   5.381 -0.2369  0.3235 -0.3849
 8362SOL    HW136719   2.304   2.409   5.457 -1.9935  1.1285 -0.4300
 8362SOL    HW236720   2.359   2.360   5.325 -1.4099 -1.0404 -2.1267
 8363SOL     OW36721   3.194   1.455   3.583 -0.1910 -0.5650  0.4497
 8363SOL    HW136722   3.254   1.507   3.529 -1.9736  2.3129  1.2173
 8363SOL    HW236723   3.168   1.384   3.524  0.2083 -0.1612 -0.2196
 8364SOL     OW36724   2.304   2.191  13.469  0.2334  0.1174  0.4552
 8364SOL    HW136725   2.223   2.142  13.479  0.6840 -0.5477  0.8593
 8364SOL    HW236726   2.282   2.268  13.521 -2.4433 -0.8778  0.7909
 8365SOL     OW36727   2.489   1.976   4.782  0.2743  0.0343  0.5703
 8365SOL    HW136728   2.408   2.012   4.817  0.3369  2.4018 -1.7228
 8365SOL    HW236729   2.500   2.032   4.705  1.4736 -1.7294 -0.5115
 8366SOL     OW36730   3.217   3.991   7.064  0.3901  0.0330  0.7333
 8366SOL    HW136731   3.240   3.901   7.088 -1.6346 -0.7800 -0.3997
 8366SOL    HW236732   3.160   4.023   7.135  0.2550  1.1673  0.1040
 8367SOL     OW36733   3.020   0.348   8.725  0.8674  0.3871 -0.5675
 8367SOL    HW136734   3.061   0.271   8.766 -0.7391  0.1244  0.5668
 8367SOL    HW236735   2.936   0.318   8.689  0.1472  0.3915  1.1015
 8368SOL     OW36736   4.564   1.705   2.773  0.0139  0.0959  0.2696
 8368SOL    HW136737   4.574   1.745   2.859 -0.0971 -1.2062  0.8845
 8368SOL    HW236738   4.560   1.611   2.792  1.5875  0.3090  1.6552
 8369SOL     OW36739   1.809   0.114   8.530 -0.0409  0.8250 -0.8017
 8369SOL    HW136740   1.834   0.028   8.562 -1.1688  0.3233 -1.2599
 8369SOL    HW236741   1.725   0.132   8.572  0.4696  1.3563 -0.0006
 8370SOL     OW36742   0.166   1.888   2.107 -0.8255  0.3438  0.6695
 8370SOL    HW136743   0.208   1.912   2.025 -1.5498 -2.5606 -0.5422
 8370SOL    HW236744   0.163   1.793   2.114  0.2158  0.3925  1.8237
 8371SOL     OW36745   3.065   4.736   0.001 -0.0049 -0.0285 -0.0868
 8371SOL    HW136746   3.115   0.077  17.738 -1.4831  0.7529 -0.8806
 8371SOL    HW236747   3.069   4.693  17.668 -0.0429 -0.3131  0.0545
 8372SOL     OW36748   0.237   2.399   6.250 -0.0384  0.3140  1.0359
 8372SOL    HW136749   0.255   2.450   6.171 -2.8775  1.9044  1.4186
 8372SOL    HW236750   0.275   2.312   6.242  0.9052  0.6171  2.1064
 8373SOL     OW36751   3.788   1.122   7.202 -0.4546 -0.0498 -0.3988
 8373SOL    HW136752   3.723   1.178   7.160 -0.9536  0.6540  1.3299
 8373SOL    HW236753   3.786   1.038   7.156  0.0132  0.0353 -0.5849
 8374SOL     OW36754   2.510   4.459   8.387  0.3616  0.0997 -0.3255
 8374SOL    HW136755   2.597   4.421   8.403  0.6647  0.7550 -0.4053
 8374SOL    HW236756   2.459   4.432   8.463  1.6020 -2.3676 -0.3614
 8375SOL     OW36757   2.262   1.621   5.394 -0.0132 -0.1980 -0.0276
 8375SOL    HW136758   2.199   1.573   5.341 -1.3602 -0.2556  1.6401
 8375SOL    HW236759   2.221   1.706   5.378 -0.3853 -0.0622  1.6566
 8376SOL     OW36760   3.558   0.193   6.206  0.8860  0.2590 -0.7695
 8376SOL    HW136761   3.488   0.139   6.243 -0.6502  3.1137  0.4832
 8376SOL    HW236762   3.600   0.130   6.147  0.8474 -1.4955  1.0538
 8377SOL     OW36763   2.538   3.594   8.715 -0.0181 -0.0060 -0.0428
 8377SOL    HW136764   2.510   3.601   8.623 -1.7207  2.3900  0.6781
 8377SOL    HW236765   2.460   3.568   8.764  0.8313  0.6777  1.6461
 8378SOL     OW36766   4.336   1.641   0.957 -0.3597  0.1073 -0.1062
 8378SOL    HW136767   4.336   1.671   0.866  3.0740  0.2681 -0.0544
 8378SOL    HW236768   4.426   1.645   0.990 -0.1507 -0.0795 -0.6369
 8379SOL     OW36769   4.681   1.498   5.525  0.1068  0.4696 -0.3055
 8379SOL    HW136770   4.735   1.440   5.472 -0.0522  0.1770 -0.1533
 8379SOL    HW236771   4.738   1.572   5.546  0.5349 -0.0284  0.2907
 8380SOL     OW36772   4.259   0.394  16.378 -0.0304 -0.2459 -0.6400
 8380SOL    HW136773   4.168   0.371  16.398 -0.1319  0.4820 -0.2645
 8380SOL    HW236774   4.283   0.307  16.349 -0.8733 -0.5847 -0.3348
 8381SOL     OW36775   0.791   1.783   3.672 -0.8869 -0.1137  0.4609
 8381SOL    HW136776   0.707   1.747   3.644 -1.3139  1.1700  0.0828
 8381SOL    HW236777   0.800   1.871   3.637  1.8262 -0.3654  0.5045
 8382SOL     OW36778   4.272   3.040   4.723  0.0121  0.0619  0.5934
 8382SOL    HW136779   4.200   3.083   4.768  1.6958  2.5902  0.8807
 8382SOL    HW236780   4.275   3.064   4.630  2.7731 -1.1870  0.3305
 8383SOL     OW36781   2.350   1.317   3.213  0.1737  0.4485 -0.1970
 8383SOL    HW136782   2.274   1.258   3.208  0.2438  0.2356  1.3952
 8383SOL    HW236783   2.425   1.260   3.229  1.2295  2.3585  1.6828
 8384SOL     OW36784   4.256   3.647   4.633  0.4288  0.1547 -0.5644
 8384SOL    HW136785   4.183   3.594   4.663  0.2293  0.2986 -0.7903
 8384SOL    HW236786   4.304   3.660   4.715 -2.2129 -1.2913  1.2022
 8385SOL     OW36787   3.046   2.450   7.803 -0.0067  0.2735 -0.0363
 8385SOL    HW136788   2.966   2.462   7.854  0.6701  0.3625  1.0149
 8385SOL    HW236789   3.033   2.356   7.794 -0.0571  0.3566 -0.8089
 8386SOL     OW36790   3.401   2.150   2.190  0.0819 -0.0096 -0.0113
 8386SOL    HW136791   3.454   2.125   2.266 -0.2669 -1.3379 -0.1888
 8386SOL    HW236792   3.333   2.082   2.196  0.5545 -0.7826 -3.5046
 8387SOL     OW36793   0.431   1.344   6.257 -0.4042 -0.3829 -0.3902
 8387SOL    HW136794   0.483   1.340   6.337 -1.3535  0.0916  0.2476
 8387SOL    HW236795   0.442   1.259   6.213  1.1647 -0.9658  1.1315
 8388SOL     OW36796   2.895   1.398   8.871  0.0974  0.1147 -0.0967
 8388SOL    HW136797   2.889   1.493   8.861 -0.8533  0.1356  0.6359
 8388SOL    HW236798   2.936   1.400   8.958 -0.2524  1.0903  0.0533
 8389SOL     OW36799   0.912   0.064  17.269 -0.4195  0.2046 -0.6634
 8389SOL    HW136800   0.912   0.160  17.270 -1.6432  0.2227 -2.8761
 8389SOL    HW236801   0.923   0.043  17.362 -0.4184  0.8905 -0.5071
 8390SOL     OW36802   4.179   0.652   6.872  0.0019  0.2683  0.0412
 8390SOL    HW136803   4.274   0.647   6.863 -0.2265 -3.2737 -0.7724
 8390SOL    HW236804   4.167   0.626   6.963  0.5969 -2.4562 -0.6444
 8391SOL     OW36805   0.299   3.827   4.985 -0.5489  0.0457  0.1225
 8391SOL    HW136806   0.359   3.755   4.968  1.2695  1.6081 -0.1292
 8391SOL    HW236807   0.229   3.815   4.920 -0.3454  1.4259 -0.3737
 8392SOL     OW36808   4.559   1.070  12.217  0.3118  0.1315 -0.4122
 8392SOL    HW136809   4.578   1.019  12.296 -0.8447 -1.5822 -1.2260
 8392SOL    HW236810   4.540   1.160  12.246 -0.9269 -0.9553  2.1988
 8393SOL     OW36811   4.692   1.783  15.010 -0.1376 -0.3122 -0.5603
 8393SOL    HW136812   0.029   1.827  15.050  0.8731 -1.8861 -0.7293
 8393SOL    HW236813   4.619   1.838  15.038  0.9998  1.5458 -1.2278
 8394SOL     OW36814   2.069   3.322   2.534 -0.2344 -0.1331 -0.1788
 8394SOL    HW136815   1.980   3.355   2.517 -0.2848 -0.5072 -0.6382
 8394SOL    HW236816   2.072   3.312   2.629  1.2671  0.3855 -0.1690
 8395SOL     OW36817   3.217   4.495   4.236  0.1062  0.5678 -0.1006
 8395SOL    HW136818   3.251   4.527   4.319 -1.2317 -0.2967  0.7685
 8395SOL    HW236819   3.290   4.436   4.218  0.3201  0.7710  0.1051
 8396SOL     OW36820   0.570   2.317   0.624 -0.0110  0.4133 -0.1406
 8396SOL    HW136821   0.653   2.335   0.668  1.7663 -1.9171 -2.5602
 8396SOL    HW236822   0.564   2.223   0.606 -0.1206  0.8501 -2.4054
 8397SOL     OW36823   1.039   3.964   3.461  0.6637 -0.0250  0.0070
 8397SOL    HW136824   1.061   3.904   3.389 -1.5236 -2.0970  1.0842
 8397SOL    HW236825   1.115   4.022   3.462 -1.6178  2.9129  1.5840
 8398SOL     OW36826   1.521   0.283   9.172  0.1032 -0.0370 -0.4892
 8398SOL    HW136827   1.522   0.344   9.246  0.3892 -1.9631  1.0772
 8398SOL    HW236828   1.447   0.226   9.189 -1.3054  1.3263 -1.9821
 8399SOL     OW36829   0.970   1.668   2.799  0.2768  0.0768 -0.5147
 8399SOL    HW136830   0.937   1.757   2.795  2.5578  0.9390 -0.1296
 8399SOL    HW236831   0.909   1.627   2.737 -2.0198  0.7575  1.3084
 8400SOL     OW36832   4.056   1.023   2.304  0.2294 -0.1935 -0.6363
 8400SOL    HW136833   3.972   1.014   2.349  0.0843 -0.9034 -1.0453
 8400SOL    HW236834   4.078   0.934   2.276  2.3743 -0.1630  0.9572
 8401SOL     OW36835   2.118   0.441  10.360  0.4775 -0.8095  0.1617
 8401SOL    HW136836   2.084   0.406  10.277  1.3562  1.8087 -1.3137
 8401SOL    HW236837   2.181   0.507  10.333  0.7119 -1.1799 -0.2111
 8402SOL     OW36838   3.268   2.173   0.476 -0.4474 -0.3618 -0.0235
 8402SOL    HW136839   3.218   2.179   0.394  0.5716  3.9744 -0.3355
 8402SOL    HW236840   3.331   2.103   0.462  0.3657  0.1806  0.9276
 8403SOL     OW36841   0.635   3.157   7.666  0.2075 -0.2584  0.3752
 8403SOL    HW136842   0.572   3.108   7.719 -0.6268  0.6031  0.1790
 8403SOL    HW236843   0.600   3.246   7.665  0.9479  0.0337  0.5818
 8404SOL     OW36844   4.595   3.408   0.379  0.1267 -0.1344  0.2805
 8404SOL    HW136845   4.575   3.329   0.328  1.0542 -0.9589  1.1953
 8404SOL    HW236846   4.592   3.377   0.469 -2.3896 -0.0943  0.2222
 8405SOL     OW36847   3.822   0.975   2.440  0.2470  0.0118  0.5826
 8405SOL    HW136848   3.754   0.959   2.506 -0.2481  0.0918  0.0823
 8405SOL    HW236849   3.784   0.930   2.365  0.6302  0.7911 -0.0696
 8406SOL     OW36850   0.671   0.268  17.382  0.4707  0.6607  0.2262
 8406SOL    HW136851   0.645   0.359  17.376 -0.4640  0.1144 -3.5336
 8406SOL    HW236852   0.619   0.238  17.456 -0.0677  0.3171 -0.2975
 8407SOL     OW36853   1.907   3.126   7.671 -0.3974  0.0773 -0.4455
 8407SOL    HW136854   1.852   3.182   7.726 -0.4261 -0.1983 -0.1902
 8407SOL    HW236855   1.890   3.149   7.580 -0.7513  0.4152 -0.2943
 8408SOL     OW36856   0.091   1.142  16.321 -0.5349 -0.0353  0.0012
 8408SOL    HW136857   0.084   1.048  16.307  0.4670  0.0474 -1.0962
 8408SOL    HW236858   0.072   1.176  16.233  0.5992 -2.2570 -1.0916
 8409SOL     OW36859   2.135   4.183   1.647  0.5326  1.1317 -0.1246
 8409SOL    HW136860   2.135   4.222   1.734 -1.5283 -0.3734  0.5290
 8409SOL    HW236861   2.207   4.229   1.604 -0.4414  2.3755 -0.4283
 8410SOL     OW36862   1.976   3.840   4.770 -0.3078 -0.4317 -0.2554
 8410SOL    HW136863   1.993   3.898   4.696  0.3206 -3.4996 -2.5243
 8410SOL    HW236864   1.921   3.900   4.821  1.5317  1.0766 -0.0593
 8411SOL     OW36865   1.069   0.926   6.904 -0.0203  0.4900  0.3087
 8411SOL    HW136866   0.984   0.964   6.926 -0.2440  0.5712 -0.6893
 8411SOL    HW236867   1.119   1.007   6.896  0.6324 -0.1492 -2.0111
 8412SOL     OW36868   1.622   0.061  14.861 -0.4469  0.6507  0.4615
 8412SOL    HW136869   1.547   0.115  14.887 -0.3960  0.1927  1.5689
 8412SOL    HW236870   1.659   0.101  14.783  1.6312 -1.4945  0.3528
 8413SOL     OW36871   0.888   3.280   3.607  0.8014 -0.4323 -0.1248
 8413SOL    HW136872   0.981   3.288   3.629  0.3776 -0.1022  1.5709
 8413SOL    HW236873   0.904   3.213   3.540  0.1040 -0.3874 -0.3395
 8414SOL     OW36874   0.287   2.392  14.286 -0.5901  0.7650 -0.0150
 8414SOL    HW136875   0.352   2.418  14.351  0.2264  1.2122 -1.0044
 8414SOL    HW236876   0.218   2.449  14.319  1.4462  2.8384  0.6153
 8415SOL     OW36877   0.113   0.529   9.428 -0.7598  0.0201 -0.1536
 8415SOL    HW136878   0.205   0.512   9.409 -0.5016  1.6776 -0.3325
 8415SOL    HW236879   0.105   0.498   9.518  0.9930  0.3727  0.1205
 8416SOL     OW36880   2.639   4.004   7.674 -0.2284  0.4543 -0.5115
 8416SOL    HW136881   2.610   3.914   7.654  0.1997 -0.0813  1.1990
 8416SOL    HW236882   2.727   3.978   7.701 -0.5752 -0.9582 -0.7377
 8417SOL     OW36883   4.551   4.501   9.212 -0.2508  0.0347  0.2292
 8417SOL    HW136884   4.535   4.412   9.178 -0.4490 -0.4676  1.6252
 8417SOL    HW236885   4.624   4.540   9.165 -0.6627  0.3606 -0.1509
 8418SOL     OW36886   1.938   4.046   2.696 -0.1236  0.1482 -0.0291
 8418SOL    HW136887   1.919   4.020   2.606 -3.6714  0.9507  0.4837
 8418SOL    HW236888   1.856   4.013   2.733  0.5606 -0.5578  0.8426
 8419SOL     OW36889   2.530   1.123   3.337 -0.5364  0.6548 -0.0363
 8419SOL    HW136890   2.622   1.098   3.325 -1.5014 -3.1585  0.5951
 8419SOL    HW236891   2.541   1.124   3.433 -2.8838 -0.8073  0.2473
 8420SOL     OW36892   1.766   4.521   9.111 -0.1344  0.0665  0.8563
 8420SOL    HW136893   1.775   4.428   9.090  1.1511  0.5699 -0.8080
 8420SOL    HW236894   1.756   4.564   9.026 -1.1073 -1.6070  0.1357
 8421SOL     OW36895   2.548   3.150   2.522  0.4051  0.0473  0.0913
 8421SOL    HW136896   2.563   3.184   2.434 -1.5759 -1.4025 -0.8183
 8421SOL    HW236897   2.575   3.220   2.581  1.0268 -0.8099  0.8359
 8422SOL     OW36898   2.295   0.353   6.649 -0.1135 -0.0083 -0.2542
 8422SOL    HW136899   2.371   0.411   6.651  0.9194 -1.4143  1.2449
 8422SOL    HW236900   2.263   0.377   6.562  2.2627 -0.4906 -1.2599
 8423SOL     OW36901   1.035   0.983   3.293 -0.4844  0.1727  0.4564
 8423SOL    HW136902   1.082   0.908   3.330  1.6155  0.0528 -2.4942
 8423SOL    HW236903   0.956   0.941   3.260 -0.4821  1.6574 -1.4041
 8424SOL     OW36904   2.038   1.598  15.267 -0.1018  0.2978 -0.1902
 8424SOL    HW136905   2.127   1.607  15.300  0.0901 -0.9118 -0.3530
 8424SOL    HW236906   2.040   1.661  15.196  1.6830  2.2687  1.6351
 8425SOL     OW36907   4.646   2.182   3.315 -0.0032  0.3895 -0.5672
 8425SOL    HW136908   4.599   2.236   3.252 -1.1196 -1.0802 -0.9883
 8425SOL    HW236909   4.580   2.143   3.372  1.6096 -2.7692 -0.8610
 8426SOL     OW36910   3.408   3.682   4.014  0.1437  0.4151  0.0939
 8426SOL    HW136911   3.343   3.666   3.946  1.4916 -1.2907 -0.7856
 8426SOL    HW236912   3.457   3.603   3.995 -0.2639 -0.1807  1.5078
 8427SOL     OW36913   4.487   2.103   1.694  0.0850  0.3797 -0.1756
 8427SOL    HW136914   4.551   2.032   1.692 -1.2221 -0.9061  3.0448
 8427SOL    HW236915   4.401   2.066   1.713  0.9534 -0.5272  2.0153
 8428SOL     OW36916   3.615   0.484  11.418 -0.0800  0.1765 -0.3278
 8428SOL    HW136917   3.607   0.397  11.457 -0.1566  1.2830  2.0972
 8428SOL    HW236918   3.522   0.492  11.397 -0.0038  2.8034  0.2466
 8429SOL     OW36919   1.223   0.207   7.379  0.0195  0.2360 -0.4634
 8429SOL    HW136920   1.258   0.227   7.466  1.3551 -1.6316 -0.5822
 8429SOL    HW236921   1.270   0.128   7.354  0.7159  0.0089  1.5568
 8430SOL     OW36922   2.428   0.187   5.408  0.3355 -0.2979  0.3990
 8430SOL    HW136923   2.478   0.269   5.414  0.8292 -0.7056  1.9825
 8430SOL    HW236924   2.463   0.135   5.481 -1.8920 -1.7160  0.4273
 8431SOL     OW36925   4.052   1.794   3.485 -0.8003 -0.0896  0.3565
 8431SOL    HW136926   4.056   1.839   3.570  0.3786 -2.6351  1.6568
 8431SOL    HW236927   3.981   1.730   3.485 -1.3472  0.5123  1.1609
 8432SOL     OW36928   4.562   4.319   6.063 -0.6021  0.1423 -0.1657
 8432SOL    HW136929   4.555   4.390   6.126 -1.3360 -0.8201  0.8264
 8432SOL    HW236930   4.487   4.263   6.081  2.1668 -3.2855  0.7506
 8433SOL     OW36931   1.868   3.173   2.033 -0.5585 -0.2393 -0.6987
 8433SOL    HW136932   1.839   3.092   1.991 -0.0648 -0.3382 -0.8464
 8433SOL    HW236933   1.913   3.130   2.105  2.3163  0.2596 -2.2002
 8434SOL     OW36934   4.142   0.764  15.121 -0.6811 -0.8367  0.9705
 8434SOL    HW136935   4.124   0.699  15.053 -0.5645  0.5609 -0.4009
 8434SOL    HW236936   4.207   0.817  15.073  0.3311 -1.7682  1.3143
 8435SOL     OW36937   3.216   2.069   4.855 -0.3093 -0.2781  0.8468
 8435SOL    HW136938   3.293   2.111   4.893 -1.2687  2.1836  0.0604
 8435SOL    HW236939   3.247   2.057   4.765 -0.9203 -2.1397  0.8895
 8436SOL     OW36940   3.674   3.211   4.710  0.1172  0.1991 -0.3070
 8436SOL    HW136941   3.632   3.133   4.746 -0.6368  1.1304  0.8129
 8436SOL    HW236942   3.746   3.166   4.665 -0.6432 -0.7755 -0.5533
 8437SOL     OW36943   2.408   1.787  11.257  0.4631  0.1010  0.3623
 8437SOL    HW136944   2.444   1.724  11.319 -2.4320  0.1628  2.0801
 8437SOL    HW236945   2.423   1.736  11.177  0.4421  1.0569 -0.2573
 8438SOL     OW36946   1.202   0.373   5.688 -0.1725  0.0576  0.4536
 8438SOL    HW136947   1.122   0.409   5.650 -0.2115  0.7983  1.2475
 8438SOL    HW236948   1.235   0.323   5.613 -1.0985  1.0590 -0.6236
 8439SOL     OW36949   4.441   1.296   6.603  0.1916  0.7650  0.2536
 8439SOL    HW136950   4.524   1.258   6.573 -1.2766 -1.7916 -0.5444
 8439SOL    HW236951   4.444   1.272   6.696  0.9110  0.7739  0.2332
 8440SOL     OW36952   3.642   1.901   1.060  0.1185 -0.4286 -0.1600
 8440SOL    HW136953   3.683   1.980   1.096 -0.9428  0.1874 -0.3170
 8440SOL    HW236954   3.714   1.838   1.065  1.5390  1.2642  0.6601
 8441SOL     OW36955   3.159   2.370  14.041 -0.0413  0.2310 -0.3109
 8441SOL    HW136956   3.105   2.388  14.118  3.1183  1.5565  1.5957
 8441SOL    HW236957   3.100   2.306  14.000 -0.8818  0.5346  0.4250
 8442SOL     OW36958   1.062   2.113   2.243  0.6499  0.3791  0.0295
 8442SOL    HW136959   1.124   2.053   2.285  2.3480  3.3762  1.7607
 8442SOL    HW236960   1.125   2.170   2.199 -0.8506  2.3126  0.3936
 8443SOL     OW36961   3.894   0.786   1.268 -0.2777  0.4202 -0.5866
 8443SOL    HW136962   3.864   0.822   1.185  1.0969  1.8996 -0.4395
 8443SOL    HW236963   3.862   0.851   1.331 -0.3550 -1.0528  0.8866
 8444SOL     OW36964   3.329   1.246   2.176 -0.2511 -0.2418 -0.0130
 8444SOL    HW136965   3.293   1.161   2.151 -1.8570  0.4091  0.1323
 8444SOL    HW236966   3.257   1.283   2.225 -1.3480  0.4471 -2.1487
 8445SOL     OW36967   4.068   4.221   6.211  0.2328 -0.4159 -1.1574
 8445SOL    HW136968   3.974   4.233   6.215  0.1371 -0.9393 -1.9152
 8445SOL    HW236969   4.082   4.313   6.188 -0.3479 -0.2729 -0.9359
 8446SOL     OW36970   2.055   3.949   1.892 -0.2798  0.2746  0.5062
 8446SOL    HW136971   2.034   3.857   1.874  0.6611  0.4974 -1.7277
 8446SOL    HW236972   2.147   3.940   1.916 -1.1796 -3.3892  2.6131
 8447SOL     OW36973   2.383   0.344  12.451 -0.6074 -0.4241  0.3461
 8447SOL    HW136974   2.309   0.405  12.458 -1.4757 -1.2823 -1.5304
 8447SOL    HW236975   2.453   0.410  12.449  0.1523 -1.2226  0.8015
 8448SOL     OW36976   4.701   1.931   8.494 -0.2816 -0.3088  0.2040
 8448SOL    HW136977   4.654   1.863   8.540 -1.2979  1.1317  1.2973
 8448SOL    HW236978   4.736   1.981   8.568 -0.5249  1.2367 -0.7225
 8449SOL     OW36979   1.499   1.806   4.416 -0.5778 -0.5113 -0.0522
 8449SOL    HW136980   1.515   1.874   4.351  1.7673 -0.5974  0.4521
 8449SOL    HW236981   1.449   1.858   4.479  0.5573  0.9110 -0.3300
 8450SOL     OW36982   4.616   0.148   7.392 -0.5088 -0.3501  0.1811
 8450SOL    HW136983   4.610   0.052   7.386 -0.7884 -0.2615 -0.9101
 8450SOL    HW236984   4.593   0.167   7.483 -0.2881  0.2544  0.1082
 8451SOL     OW36985   2.314   1.506   0.511  0.2970  0.3032 -0.4020
 8451SOL    HW136986   2.390   1.542   0.557 -0.3828  1.4683 -0.1962
 8451SOL    HW236987   2.244   1.562   0.544  0.4775  0.7442 -0.7646
 8452SOL     OW36988   1.416   2.256  14.442  0.1526  0.4066 -0.3610
 8452SOL    HW136989   1.373   2.211  14.515  0.5646 -0.0634 -0.4060
 8452SOL    HW236990   1.387   2.207  14.365 -0.4457  0.3982 -0.1323
 8453SOL     OW36991   3.572   2.472   5.865 -0.1507  0.4934  0.4197
 8453SOL    HW136992   3.570   2.430   5.951  0.5688  1.2414  0.7975
 8453SOL    HW236993   3.643   2.535   5.875 -0.6682  1.2625 -0.8270
 8454SOL     OW36994   0.675   4.042   5.512 -0.1625  0.2802  0.3609
 8454SOL    HW136995   0.600   4.051   5.572 -1.6691 -0.9343 -1.3500
 8454SOL    HW236996   0.637   4.088   5.438  0.5586 -0.2749 -0.3513
 8455SOL     OW36997   0.288   0.557   4.765  0.4224  0.5062 -0.7805
 8455SOL    HW136998   0.249   0.584   4.849  0.6021 -0.7242 -0.3049
 8455SOL    HW236999   0.227   0.487   4.741 -1.4703  2.3402 -1.3923
 8456SOL     OW37000   0.232   3.486   9.936  0.3304  0.5416  0.0989
 8456SOL    HW137001   0.210   3.396   9.958  3.0173  0.0070  0.5943
 8456SOL    HW237002   0.236   3.531  10.020 -0.4717 -0.9410  0.9184
 8457SOL     OW37003   2.485   3.578   4.812 -0.2020  0.3875 -0.6815
 8457SOL    HW137004   2.491   3.519   4.887 -1.3782  1.4000  0.2096
 8457SOL    HW237005   2.529   3.538   4.737 -2.1530 -1.0165 -1.0773
 8458SOL     OW37006   0.202   3.492   8.555  0.1202 -0.0330 -1.1984
 8458SOL    HW137007   0.223   3.571   8.505 -2.1610  2.1299  1.2667
 8458SOL    HW237008   0.191   3.529   8.642  0.1858 -0.0487 -1.1829
 8459SOL     OW37009   1.297   2.326   9.907 -0.9663 -0.1286  0.0107
 8459SOL    HW137010   1.388   2.325   9.937 -0.7935  1.5529 -0.4520
 8459SOL    HW237011   1.310   2.352   9.816  0.1694 -2.2652 -0.4273
 8460SOL     OW37012   2.825   0.503   0.686 -0.0978 -0.0754 -0.2246
 8460SOL    HW137013   2.896   0.454   0.728 -0.2526 -1.7654 -1.9131
 8460SOL    HW237014   2.869   0.545   0.612 -0.2220 -0.2498 -0.3990
 8461SOL     OW37015   3.566   2.266   7.023 -0.2259  0.2809 -0.0109
 8461SOL    HW137016   3.596   2.214   6.948 -1.5599  1.5004 -1.4031
 8461SOL    HW237017   3.649   2.304   7.050  1.2042 -2.0449 -1.1403
 8462SOL     OW37018   2.064   4.266   3.597  0.1039  0.3134 -0.2474
 8462SOL    HW137019   2.050   4.345   3.545  2.0929 -1.2125 -3.0964
 8462SOL    HW237020   1.973   4.254   3.623  0.1478  1.3886  0.4197
 8463SOL     OW37021   2.842   3.521   8.384  0.3535  0.2307 -0.5432
 8463SOL    HW137022   2.830   3.522   8.479 -4.2650  1.8343 -1.1419
 8463SOL    HW237023   2.925   3.473   8.382 -0.2132 -0.8245  1.1927
 8464SOL     OW37024   1.116   0.498  13.792 -0.3640  0.0676 -0.1172
 8464SOL    HW137025   1.192   0.488  13.849 -1.0185 -1.1748  0.5331
 8464SOL    HW237026   1.144   0.576  13.745  0.7476 -0.6213 -0.6117
 8465SOL     OW37027   2.194   4.668   6.421  0.2543 -0.6937  0.3366
 8465SOL    HW137028   2.124   4.609   6.393 -0.5954  0.4436  0.0589
 8465SOL    HW237029   2.158   4.695   6.506 -2.5619  0.9655 -1.4050
 8466SOL     OW37030   2.042   0.458  10.104 -0.7164  0.7460  0.2005
 8466SOL    HW137031   2.120   0.405  10.087 -1.3374 -0.3712  0.8168
 8466SOL    HW237032   2.037   0.515  10.027  0.2768  1.4309  0.6575
 8467SOL     OW37033   1.054   4.258   8.407 -0.2923  1.2611  0.0985
 8467SOL    HW137034   1.119   4.291   8.346  0.4978  1.2838  0.9494
 8467SOL    HW237035   1.003   4.201   8.349  0.2886  1.3075 -0.4538
 8468SOL     OW37036   2.569   0.923   2.082  0.2951 -0.7087  0.1085
 8468SOL    HW137037   2.627   0.846   2.078 -0.5092 -1.2899 -0.3408
 8468SOL    HW237038   2.504   0.885   2.023  0.6123 -0.2753 -0.5283
 8469SOL     OW37039   4.071   0.414   5.632 -0.1996  0.0883  0.1224
 8469SOL    HW137040   4.155   0.447   5.599  1.1478 -2.1458  1.3359
 8469SOL    HW237041   4.093   0.324   5.654 -0.7310  0.3627  1.7735
 8470SOL     OW37042   3.999   2.347   9.041 -0.2263  0.0337 -0.2921
 8470SOL    HW137043   3.967   2.259   9.060  1.8054 -0.4076  0.9777
 8470SOL    HW237044   3.917   2.394   9.027 -1.5745 -1.9112  1.2035
 8471SOL     OW37045   4.501   3.268   1.909 -0.0153  0.3757 -0.1061
 8471SOL    HW137046   4.547   3.239   1.831  1.1772 -1.2720  1.1945
 8471SOL    HW237047   4.410   3.258   1.881 -0.1260  2.7603 -0.5539
 8472SOL     OW37048   1.685   1.756   7.662 -0.4504  0.2317  0.5131
 8472SOL    HW137049   1.744   1.830   7.680  0.4554 -0.0627 -1.2585
 8472SOL    HW237050   1.745   1.706   7.607 -1.9918  0.1893 -1.1532
 8473SOL     OW37051   3.193   0.905  11.533 -0.1882  0.4361  0.5924
 8473SOL    HW137052   3.155   0.975  11.478 -0.2658  0.1983  0.3436
 8473SOL    HW237053   3.258   0.955  11.581  1.0293  2.4690 -3.1205
 8474SOL     OW37054   2.785   2.966   6.502  0.2945 -0.6567 -0.2015
 8474SOL    HW137055   2.819   3.049   6.469 -3.5643  1.0660  0.1298
 8474SOL    HW237056   2.860   2.938   6.553  1.2020  0.8551 -0.7080
 8475SOL     OW37057   4.296   2.338  10.474  0.1265 -0.0924 -0.4868
 8475SOL    HW137058   4.357   2.284  10.424  1.3977 -0.4201  1.4060
 8475SOL    HW237059   4.301   2.421  10.427 -2.9391  0.3604  0.0151
 8476SOL     OW37060   1.304   0.373   6.601  0.0772  0.0122  0.1256
 8476SOL    HW137061   1.292   0.459   6.642  0.9070  0.0380  0.3042
 8476SOL    HW237062   1.212   0.348   6.590  0.4785 -1.5267  0.2341
 8477SOL     OW37063   3.641   0.049  12.613 -0.0541  0.4301 -0.0001
 8477SOL    HW137064   3.647   0.092  12.698  1.5547  0.0533  0.0631
 8477SOL    HW237065   3.645   4.693  12.626  0.8470  0.3569 -0.7942
 8478SOL     OW37066   0.535   3.769   5.996 -0.5939  0.4666 -0.1226
 8478SOL    HW137067   0.457   3.818   5.972  0.9269  1.1639 -3.6288
 8478SOL    HW237068   0.506   3.688   6.038 -1.2229  0.3415 -0.7968
 8479SOL     OW37069   4.544   3.464   8.840  0.2214  0.5209  0.0285
 8479SOL    HW137070   4.590   3.383   8.819  1.2638  0.8414  1.0944
 8479SOL    HW237071   4.536   3.463   8.936 -2.6643  0.0047 -0.2176
 8480SOL     OW37072   3.155   2.330   1.260  0.5662  0.6030 -0.2308
 8480SOL    HW137073   3.076   2.376   1.230  0.3842  1.3594  1.3882
 8480SOL    HW237074   3.189   2.291   1.180  0.5188 -1.2018  0.6416
 8481SOL     OW37075   4.534   3.177   8.978  0.3348 -0.2460 -0.0772
 8481SOL    HW137076   4.513   3.192   9.070  0.3823 -0.9190  0.0481
 8481SOL    HW237077   4.618   3.222   8.973 -0.4840  1.4407  1.4610
 8482SOL     OW37078   4.016   1.602   4.857  0.5979  0.2761 -0.1058
 8482SOL    HW137079   3.972   1.662   4.918  0.1910  1.3952 -1.5025
 8482SOL    HW237080   4.107   1.633   4.862  1.4222 -1.5541 -3.8246
 8483SOL     OW37081   3.655   1.740   2.478 -0.3168  0.0902 -0.2179
 8483SOL    HW137082   3.665   1.688   2.557 -1.9093 -0.5853 -0.4708
 8483SOL    HW237083   3.742   1.780   2.472  0.1756 -1.0524 -0.5284
 8484SOL     OW37084   0.303   1.907   0.183 -0.7202  0.2255 -0.3837
 8484SOL    HW137085   0.250   1.932   0.108 -2.1903  1.8812  1.2232
 8484SOL    HW237086   0.371   1.975   0.185 -0.2605 -0.2408 -0.0527
 8485SOL     OW37087   1.665   2.171   2.174  0.4395  0.1691 -0.2180
 8485SOL    HW137088   1.743   2.197   2.124  0.4700 -0.1481 -0.3359
 8485SOL    HW237089   1.695   2.189   2.263 -1.9773 -0.4427  0.7090
 8486SOL     OW37090   2.157   4.337   6.367  0.6673 -0.6013  0.4107
 8486SOL    HW137091   2.087   4.396   6.393  3.2362  3.1485 -1.1351
 8486SOL    HW237092   2.217   4.363   6.437  0.4132 -2.1329  1.2016
 8487SOL     OW37093   0.690   2.123   1.456 -0.1629 -0.0083  0.1352
 8487SOL    HW137094   0.734   2.147   1.374 -0.6914  0.2481 -0.0731
 8487SOL    HW237095   0.723   2.194   1.511 -1.4940  0.1432  0.7387
 8488SOL     OW37096   3.917   1.818  11.483 -0.1792 -0.2856 -0.2161
 8488SOL    HW137097   3.852   1.754  11.455 -2.2654  1.8150 -0.1905
 8488SOL    HW237098   3.950   1.867  11.407 -1.2387  0.0360 -0.4677
 8489SOL     OW37099   0.596   0.953  12.203 -0.0574 -0.1035 -0.1914
 8489SOL    HW137100   0.548   0.961  12.121 -2.4530  2.3726  1.4290
 8489SOL    HW237101   0.571   1.036  12.244 -1.3107 -1.4692  1.8457
 8490SOL     OW37102   2.587   4.242   5.584  0.4853  0.7005  0.3269
 8490SOL    HW137103   2.615   4.330   5.611 -0.0998  1.8638 -2.8834
 8490SOL    HW237104   2.623   4.239   5.496 -4.1157 -2.7606 -1.4851
 8491SOL     OW37105   0.686   0.798   3.458 -0.6059 -0.0787  0.2452
 8491SOL    HW137106   0.740   0.838   3.390  0.9387 -2.6577 -0.0534
 8491SOL    HW237107   0.697   0.704   3.445 -3.1169 -0.4466  0.7555
 8492SOL     OW37108   0.016   4.263   3.532  0.2656  0.1452  0.9605
 8492SOL    HW137109   4.694   4.329   3.567  0.4275  0.2477  1.0460
 8492SOL    HW237110   4.708   4.179   3.538 -1.6726  1.0789 -1.5107
 8493SOL     OW37111   1.006   1.253   0.934  0.1223 -0.6625 -0.0041
 8493SOL    HW137112   0.918   1.273   0.965  0.5627  1.0393  0.1361
 8493SOL    HW237113   1.057   1.321   0.978 -1.6015  2.8295 -3.3755
 8494SOL     OW37114   1.493   1.150  15.396  0.8362  0.4958  0.2844
 8494SOL    HW137115   1.438   1.073  15.382  2.0657 -0.4787  0.8451
 8494SOL    HW237116   1.430   1.218  15.418  0.5394 -0.4880  2.4294
 8495SOL     OW37117   0.299   2.462   9.219  0.0722 -0.4660  0.3429
 8495SOL    HW137118   0.226   2.509   9.258 -1.8254 -1.9842 -1.3767
 8495SOL    HW237119   0.299   2.500   9.131  1.6585 -1.2674 -0.0081
 8496SOL     OW37120   3.968   1.937   8.822  0.6945  0.6150 -0.4435
 8496SOL    HW137121   3.944   1.914   8.732 -0.7953  0.3632  0.0327
 8496SOL    HW237122   3.927   1.865   8.869  1.1297  2.9251  3.4762
 8497SOL     OW37123   4.452   0.651   5.832  0.4317  0.5590 -0.0573
 8497SOL    HW137124   4.401   0.729   5.853 -0.9279 -0.1166 -0.8986
 8497SOL    HW237125   4.528   0.663   5.889  0.9115 -0.4185 -0.4883
 8498SOL     OW37126   0.816   0.514   6.508  0.0327  0.3571  0.3685
 8498SOL    HW137127   0.751   0.447   6.489  0.0497  1.1263 -2.5393
 8498SOL    HW237128   0.768   0.587   6.547 -2.1479 -0.8822  0.0416
 8499SOL     OW37129   0.315   1.905   2.339 -0.3777 -0.0260  0.8779
 8499SOL    HW137130   0.386   1.854   2.299  0.4892  2.8261 -1.3000
 8499SOL    HW237131   0.266   1.934   2.262  0.3550  0.2312  0.4984
 8500SOL     OW37132   2.722   1.178   7.546  0.6693  0.3346  0.7962
 8500SOL    HW137133   2.792   1.113   7.556  1.8982  1.4828 -0.3992
 8500SOL    HW237134   2.653   1.139   7.494  2.6158  0.7975 -2.1102
 8501SOL     OW37135   3.693   2.742   2.462 -0.1032  0.3597  0.2390
 8501SOL    HW137136   3.685   2.674   2.395 -0.2861  1.0532 -0.4513
 8501SOL    HW237137   3.788   2.735   2.461 -0.1708 -0.2300 -1.8281
 8502SOL     OW37138   0.182   0.961   4.347 -0.2365  0.4735 -0.5869
 8502SOL    HW137139   0.261   0.999   4.386 -0.7919  0.3833  0.6466
 8502SOL    HW237140   0.116   0.967   4.417 -1.3464 -2.6991 -1.3473
 8503SOL     OW37141   4.567   0.036   9.561  0.2160  0.4221  0.1117
 8503SOL    HW137142   4.571   4.683   9.531 -0.4662  1.0079 -1.7944
 8503SOL    HW237143   4.576   0.033   9.656 -0.1529  0.1962  0.1404
 8504SOL     OW37144   1.708   2.163   6.728 -0.2492 -0.0730 -0.1741
 8504SOL    HW137145   1.640   2.132   6.668 -0.2170 -1.0227  0.2836
 8504SOL    HW237146   1.749   2.082   6.757  0.8503  0.9886  1.2429
 8505SOL     OW37147   2.183   4.260   4.067  0.2661  0.2547 -0.2211
 8505SOL    HW137148   2.224   4.248   4.153 -1.8649 -1.1829  0.6012
 8505SOL    HW237149   2.133   4.337   4.094 -2.0285 -1.4544  0.4716
 8506SOL     OW37150   2.842   4.173   2.961 -0.3141  0.0121 -0.3273
 8506SOL    HW137151   2.750   4.163   2.983 -0.7205 -0.3400 -2.2382
 8506SOL    HW237152   2.878   4.191   3.048 -1.3818 -2.4789  0.6384
 8507SOL     OW37153   4.393   1.401  14.903  0.8597  0.0006 -0.2193
 8507SOL    HW137154   4.324   1.426  14.842 -0.0843 -1.2818  0.3267
 8507SOL    HW237155   4.446   1.476  14.876 -1.3032  1.4956 -0.3538
 8508SOL     OW37156   2.271   2.064   3.622  0.4122  0.1583  0.4252
 8508SOL    HW137157   2.297   1.979   3.587  1.2241  1.0187 -1.0728
 8508SOL    HW237158   2.191   2.037   3.666  0.3705 -0.3466  0.0448
 8509SOL     OW37159   0.189   0.394   7.273  0.1093 -0.0073 -0.3495
 8509SOL    HW137160   0.174   0.451   7.348 -0.1255  0.1843 -0.5386
 8509SOL    HW237161   0.255   0.335   7.309 -0.5853 -0.7692 -0.3197
 8510SOL     OW37162   2.106   0.647  10.546  0.6267 -0.1310 -0.2272
 8510SOL    HW137163   2.114   0.665  10.639 -0.1979  3.8993 -0.9209
 8510SOL    HW237164   2.194   0.637  10.510  1.1646 -3.0749  1.9703
 8511SOL     OW37165   3.752   0.288   8.432 -0.2225  0.0543 -0.3590
 8511SOL    HW137166   3.782   0.319   8.518  0.7186 -0.4823 -0.4955
 8511SOL    HW237167   3.666   0.274   8.472  0.5628  0.3450  1.4640
 8512SOL     OW37168   4.085   4.023  16.603  0.2380  0.3056  0.4865
 8512SOL    HW137169   4.035   4.105  16.601 -1.8535 -1.0453 -1.2878
 8512SOL    HW237170   4.045   3.981  16.679 -1.3200  1.6685  0.4347
 8513SOL     OW37171   0.655   0.428   1.662 -0.2742  0.2069  0.3696
 8513SOL    HW137172   0.639   0.396   1.573 -2.0420  3.2987 -0.4443
 8513SOL    HW237173   0.575   0.393   1.702  0.2110 -1.5428 -0.2054
 8514SOL     OW37174   1.807   2.282  13.958  0.0028 -0.0919 -0.1528
 8514SOL    HW137175   1.769   2.196  13.976  0.8907 -0.7724 -1.5132
 8514SOL    HW237176   1.758   2.338  14.019 -0.6248 -0.4706 -0.3142
 8515SOL     OW37177   1.218   4.557   3.472 -0.3287 -0.4721 -0.3996
 8515SOL    HW137178   1.169   4.515   3.542  0.5542  2.0186  1.7099
 8515SOL    HW237179   1.169   4.639   3.469  0.5175  0.0297 -0.5490
 8516SOL     OW37180   3.593   3.444   4.561  0.4461 -0.0603 -0.2133
 8516SOL    HW137181   3.600   3.354   4.593  1.4570  0.2680  0.4704
 8516SOL    HW237182   3.684   3.452   4.532  0.4624 -1.8580 -0.6270
 8517SOL     OW37183   2.157   1.905  11.094  0.2981 -0.0764  0.0655
 8517SOL    HW137184   2.161   1.871  11.183  0.1038 -0.6137 -0.1311
 8517SOL    HW237185   2.228   1.851  11.059  0.6179  0.8825 -0.7772
 8518SOL     OW37186   0.135   0.013   9.232 -0.0077 -0.4185  0.5065
 8518SOL    HW137187   0.137   0.052   9.144 -1.7418  0.5129  0.8823
 8518SOL    HW237188   0.093   0.086   9.278  0.2154  0.7768 -1.1738
 8519SOL     OW37189   3.136   1.235   8.025  0.2504  0.0332  0.5359
 8519SOL    HW137190   3.051   1.192   8.028 -0.0700  0.5659 -0.8095
 8519SOL    HW237191   3.112   1.327   8.009 -0.6854 -0.3791 -0.4413
 8520SOL     OW37192   4.632   1.023   4.010  0.2043  0.2565  0.1390
 8520SOL    HW137193   4.602   1.080   4.081  0.1951 -0.8504  1.0088
 8520SOL    HW237194   4.723   1.050   3.998  0.8839 -1.0338  2.3880
 8521SOL     OW37195   2.624   3.418  11.059  0.7954  0.0737 -0.0746
 8521SOL    HW137196   2.584   3.504  11.064  0.9618  0.1377  0.1612
 8521SOL    HW237197   2.609   3.384  11.147  0.2586 -1.6105 -0.8050
 8522SOL     OW37198   2.099   1.833   5.333 -0.8321 -0.1703  0.7270
 8522SOL    HW137199   2.030   1.880   5.287  0.8109  0.4408 -1.0898
 8522SOL    HW237200   2.141   1.903   5.383  1.1633 -0.2744 -0.7837
 8523SOL     OW37201   0.386   2.250   0.805  0.4199 -0.1833 -0.7605
 8523SOL    HW137202   0.463   2.244   0.860 -0.5308 -2.4005  0.3233
 8523SOL    HW237203   0.430   2.295   0.733  3.1542 -2.0063 -0.2400
 8524SOL     OW37204   4.678   3.624   8.292 -0.7270 -0.3257 -0.3753
 8524SOL    HW137205   4.603   3.684   8.295 -0.1166  0.2604  2.3376
 8524SOL    HW237206   4.658   3.549   8.347  0.2804  0.1655  0.6397
 8525SOL     OW37207   0.048   1.426  13.642  0.1216 -0.5852  0.0136
 8525SOL    HW137208   4.722   1.404  13.575  2.2072 -3.0660 -1.1904
 8525SOL    HW237209   0.132   1.393  13.609  0.9590  3.4062 -1.9768
 8526SOL     OW37210   0.387   3.637   8.783 -0.0131  0.7593  0.0693
 8526SOL    HW137211   0.310   3.639   8.840  0.0886 -2.8877  0.3213
 8526SOL    HW237212   0.455   3.596   8.836 -1.2863 -1.4475 -0.0108
 8527SOL     OW37213   3.208   1.594   1.364 -0.6162 -0.2452  0.0459
 8527SOL    HW137214   3.130   1.568   1.315  0.4609 -3.1243 -0.1604
 8527SOL    HW237215   3.207   1.689   1.351 -0.3114 -0.0985  1.0853
 8528SOL     OW37216   4.048   2.756  13.110 -0.3113 -0.2227  0.4582
 8528SOL    HW137217   4.103   2.822  13.069 -1.0744 -0.4911 -1.0120
 8528SOL    HW237218   4.026   2.709  13.029  1.2124 -1.1026  0.5579
 8529SOL     OW37219   1.898   2.639   6.614  0.2266 -0.5031 -0.4723
 8529SOL    HW137220   1.881   2.688   6.694  1.5580 -1.6276  0.4959
 8529SOL    HW237221   1.970   2.684   6.570  1.3394 -1.5182  0.3302
 8530SOL     OW37222   0.063   0.843  11.028  0.3370  0.3581 -0.6758
 8530SOL    HW137223   0.026   0.932  11.027  0.3656  0.3706 -0.3243
 8530SOL    HW237224   0.152   0.868  11.052  0.0347  0.3459  0.4267
 8531SOL     OW37225   1.353   4.328  10.175  0.1395 -0.5083  0.2018
 8531SOL    HW137226   1.402   4.391  10.121  1.2829 -1.4549  0.1386
 8531SOL    HW237227   1.268   4.320  10.131  0.5821  1.9895 -1.1143
 8532SOL     OW37228   4.393   1.171   5.838  0.1841 -0.6168  0.7256
 8532SOL    HW137229   4.425   1.261   5.830 -0.1657 -0.6933 -1.5312
 8532SOL    HW237230   4.415   1.140   5.750 -1.9369 -0.2161  0.0534
 8533SOL     OW37231   2.361   4.429  13.374  0.4298 -0.5292  0.6066
 8533SOL    HW137232   2.268   4.430  13.399  0.1662 -5.6383 -0.0988
 8533SOL    HW237233   2.368   4.361  13.307  0.4592 -0.0207  0.0904
 8534SOL     OW37234   4.488   0.505   6.944 -0.1216 -0.0445 -0.0655
 8534SOL    HW137235   4.450   0.462   7.020  2.5551 -0.4325  1.0437
 8534SOL    HW237236   4.543   0.436   6.906 -0.1389 -0.4077  0.5777
 8535SOL     OW37237   0.926   2.252   2.044 -0.2256  0.0048 -0.4389
 8535SOL    HW137238   0.991   2.190   2.077  0.6723  0.8160 -0.6858
 8535SOL    HW237239   0.973   2.286   1.968 -1.0464 -0.8974 -1.3633
 8536SOL     OW37240   1.291   4.451   9.380  0.0187 -0.1045  0.0999
 8536SOL    HW137241   1.355   4.403   9.328 -0.4192  0.2382 -0.7554
 8536SOL    HW237242   1.345   4.489   9.449 -0.8079  1.2028  0.0199
 8537SOL     OW37243   1.331   1.459  14.813  0.0880  0.8207 -0.8041
 8537SOL    HW137244   1.396   1.407  14.862 -1.1128 -0.2073 -0.3043
 8537SOL    HW237245   1.249   1.428  14.851  0.3572  0.4815 -0.4987
 8538SOL     OW37246   3.033   4.646  12.075  0.0971  0.8714  0.3703
 8538SOL    HW137247   3.032   4.551  12.066 -0.9316  0.9784 -0.5502
 8538SOL    HW237248   2.951   4.653  12.123 -0.4655  0.1504 -0.4940
 8539SOL     OW37249   1.216   0.387   5.033 -0.2336 -0.0373 -0.1243
 8539SOL    HW137250   1.176   0.415   5.115 -2.4873 -0.7310 -0.9685
 8539SOL    HW237251   1.306   0.415   5.045  0.0807 -1.5810  1.1935
 8540SOL     OW37252   4.396   0.300   4.310 -0.8077 -0.5245 -0.2482
 8540SOL    HW137253   4.432   0.248   4.382 -2.0579 -0.1500  0.6547
 8540SOL    HW237254   4.304   0.274   4.315 -1.3400  1.0109 -1.9331
 8541SOL     OW37255   2.934   1.369   5.105  0.1372  0.4027  0.3200
 8541SOL    HW137256   2.908   1.285   5.065  0.8442  0.0212  0.6651
 8541SOL    HW237257   2.866   1.377   5.172 -1.1850  1.5545 -1.1688
 8542SOL     OW37258   3.745   0.581  15.845 -0.1962  0.2373  0.5141
 8542SOL    HW137259   3.745   0.662  15.896 -1.7349  0.6562 -0.1650
 8542SOL    HW237260   3.759   0.502  15.896 -3.1338 -0.5962  0.0222
 8543SOL     OW37261   3.667   2.422   2.822 -0.4800  0.9581 -0.5702
 8543SOL    HW137262   3.631   2.509   2.841  0.0582  0.7719  1.3711
 8543SOL    HW237263   3.626   2.376   2.895 -1.6023  0.6322 -1.4177
 8544SOL     OW37264   4.175   0.163  15.547 -0.3247 -0.8437  0.1389
 8544SOL    HW137265   4.143   0.218  15.476 -0.8325 -0.9210  0.3041
 8544SOL    HW237266   4.131   0.084  15.514 -0.4100 -0.2017 -1.2740
 8545SOL     OW37267   2.179   4.322   6.840 -0.0486  0.0687  0.6049
 8545SOL    HW137268   2.097   4.276   6.856  1.2926 -2.3457  0.5721
 8545SOL    HW237269   2.164   4.408   6.879  2.3680  0.5488  0.4577
 8546SOL     OW37270   4.481   2.359   9.565 -0.0813 -0.1649  0.1679
 8546SOL    HW137271   4.480   2.436   9.508  3.4795  0.0241  0.3623
 8546SOL    HW237272   4.512   2.397   9.647 -0.1005  0.2286 -0.0073
 8547SOL     OW37273   3.411   3.384   0.828 -0.5533 -0.3565 -0.0373
 8547SOL    HW137274   3.321   3.409   0.848 -1.2409 -2.1367 -0.9115
 8547SOL    HW237275   3.421   3.426   0.742 -0.8894  0.4730  0.3312
 8548SOL     OW37276   3.673   1.583   8.350 -0.3498 -0.0914 -0.3618
 8548SOL    HW137277   3.610   1.553   8.416 -1.0124 -0.5817 -1.2074
 8548SOL    HW237278   3.657   1.677   8.349 -2.0082 -0.3740 -0.5919
 8549SOL     OW37279   2.066   0.981   4.144 -0.1880 -0.3002 -0.1249
 8549SOL    HW137280   2.022   0.898   4.163 -0.8186  0.2573  0.8330
 8549SOL    HW237281   2.152   0.967   4.185  0.0443 -1.5518 -1.0156
 8550SOL     OW37282   2.780   3.351   5.875 -0.3823  0.0342 -0.1154
 8550SOL    HW137283   2.732   3.303   5.808 -0.4297 -0.1540  0.0549
 8550SOL    HW237284   2.872   3.326   5.860 -0.3139  0.1505  0.1012
 8551SOL     OW37285   0.666   0.364   1.402 -0.4790  0.2929 -0.1931
 8551SOL    HW137286   0.649   0.432   1.337 -0.7853 -0.6397 -1.0795
 8551SOL    HW237287   0.762   0.368   1.411 -0.3821  0.3308 -1.3150
 8552SOL     OW37288   1.979   4.698  14.398 -0.3805  0.5370 -0.1488
 8552SOL    HW137289   2.017   4.677  14.312  1.9600  0.5211  0.8735
 8552SOL    HW237290   1.948   4.609  14.412 -2.6578  1.4210  0.2986
 8553SOL     OW37291   3.033   0.249  13.559  0.0287 -0.0243 -0.5759
 8553SOL    HW137292   2.951   0.213  13.593 -0.5350  3.0910  1.3648
 8553SOL    HW237293   3.084   0.237  13.639 -1.0076 -2.4692 -0.2865
 8554SOL     OW37294   1.919   2.238  11.208 -0.0116  0.2986  0.6872
 8554SOL    HW137295   2.000   2.287  11.221  0.4607 -0.3953  0.3962
 8554SOL    HW237296   1.928   2.170  11.274 -0.3877 -0.8671 -0.4690
 8555SOL     OW37297   0.074   3.894  12.973 -0.1115 -0.8791  0.7164
 8555SOL    HW137298   0.032   3.822  12.926  0.9611 -2.2028  1.7770
 8555SOL    HW237299   0.076   3.961  12.905 -1.7265 -1.2163  0.3275
 8556SOL     OW37300   4.434   2.798   1.072  0.2418 -0.0126  0.1028
 8556SOL    HW137301   4.432   2.742   0.994 -0.1460  1.5636 -1.0197
 8556SOL    HW237302   4.346   2.782   1.108 -0.0725  0.1763 -0.5873
 8557SOL     OW37303   1.861   0.498   5.256 -0.0666 -0.2775 -0.5854
 8557SOL    HW137304   1.947   0.523   5.223  1.0238 -2.4723  0.5686
 8557SOL    HW237305   1.841   0.408   5.231  0.4999 -0.7626  0.6918
 8558SOL     OW37306   3.506   4.434   7.695 -0.2957 -0.7106 -0.2687
 8558SOL    HW137307   3.550   4.423   7.779  0.5127  0.7011 -0.5193
 8558SOL    HW237308   3.451   4.355   7.689 -1.0689 -0.2761  1.0201
 8559SOL     OW37309   3.351   0.449   5.715 -0.7552  0.1324 -0.2771
 8559SOL    HW137310   3.332   0.504   5.791  0.1493 -1.2891  0.9644
 8559SOL    HW237311   3.422   0.391   5.741 -0.5936  0.2057 -0.5486
 8560SOL     OW37312   0.038   3.921   8.655 -0.5536  0.4287 -0.1845
 8560SOL    HW137313   4.713   3.965   8.598 -1.4896 -1.3606 -0.5574
 8560SOL    HW237314   4.720   3.865   8.708 -1.5835 -0.2140 -1.9612
 8561SOL     OW37315   3.352   1.228   5.319  0.8959 -0.7254 -0.0695
 8561SOL    HW137316   3.429   1.171   5.322  0.2374 -1.6006  0.4853
 8561SOL    HW237317   3.307   1.186   5.245  0.4432  1.1279 -0.8285
 8562SOL     OW37318   0.490   3.197  11.003  0.6685 -0.1693 -0.6099
 8562SOL    HW137319   0.423   3.151  11.053 -1.2920  0.1840 -2.9087
 8562SOL    HW237320   0.453   3.283  11.023  1.6848 -0.0655  0.8745
 8563SOL     OW37321   4.123   2.427  13.618  0.2762 -0.2017 -0.1731
 8563SOL    HW137322   4.061   2.488  13.578 -2.5409 -3.7317 -1.1508
 8563SOL    HW237323   4.083   2.343  13.597 -0.9440  0.2220  0.4071
 8564SOL     OW37324   3.464   1.947   1.723  0.2979  0.4648  0.0653
 8564SOL    HW137325   3.435   1.858   1.745  2.0924 -0.2692 -0.5805
 8564SOL    HW237326   3.482   1.987   1.808 -0.4380 -0.4899  0.6823
 8565SOL     OW37327   4.350   2.290   0.488  0.0978  0.0669  0.5569
 8565SOL    HW137328   4.384   2.380   0.481  2.3207 -0.8329 -0.1654
 8565SOL    HW237329   4.261   2.309   0.518 -0.1744 -0.3036 -0.0002
 8566SOL     OW37330   0.186   4.280   9.457  0.4761 -0.0691  0.1585
 8566SOL    HW137331   0.172   4.355   9.399  0.2061  0.4277  0.8710
 8566SOL    HW237332   0.281   4.289   9.466  0.7033  1.9436 -4.1420
 8567SOL     OW37333   4.161   2.535   6.726 -0.0447 -0.1418 -0.6407
 8567SOL    HW137334   4.132   2.592   6.656  2.0041  0.9286 -0.6036
 8567SOL    HW237335   4.253   2.561   6.726 -0.6135  1.8657 -1.4923
 8568SOL     OW37336   0.139   0.245   8.626 -0.1751  0.1831 -0.1125
 8568SOL    HW137337   0.218   0.295   8.649 -0.4274 -0.5191  2.2498
 8568SOL    HW237338   0.079   0.305   8.670 -1.0977 -0.3525 -0.6451
 8569SOL     OW37339   3.801   2.783   6.412 -0.2177 -0.5499  0.3235
 8569SOL    HW137340   3.755   2.833   6.479 -0.5028 -2.7477  1.7675
 8569SOL    HW237341   3.795   2.845   6.339  0.2652  0.9035  1.5311
 8570SOL     OW37342   4.528   0.777   8.310  0.0414  0.3256  0.2465
 8570SOL    HW137343   4.595   0.832   8.269  0.3839  0.0065  0.3722
 8570SOL    HW237344   4.544   0.692   8.268  0.3167  0.2380  0.5246
 8571SOL     OW37345   4.066   4.040  17.164  0.3255  0.3422  0.4212
 8571SOL    HW137346   4.025   3.973  17.219 -0.2620  0.5755  0.2669
 8571SOL    HW237347   4.152   4.053  17.205 -0.2959 -1.3526  2.2493
 8572SOL     OW37348   3.577   0.426   1.971  0.1224 -0.0266  0.2273
 8572SOL    HW137349   3.552   0.518   1.964 -3.9150 -1.1694 -0.0277
 8572SOL    HW237350   3.632   0.423   2.049  2.7023 -0.6524 -1.5980
 8573SOL     OW37351   1.062   2.889   4.048  0.0513 -0.0818  0.2907
 8573SOL    HW137352   1.054   2.972   4.000 -0.1404  0.1514  0.7291
 8573SOL    HW237353   1.150   2.872   4.015  0.7370  1.4092  1.3169
 8574SOL     OW37354   1.111   0.896   2.854  0.1300  0.3611 -0.1774
 8574SOL    HW137355   1.089   0.985   2.824 -1.1558 -0.1653 -0.8115
 8574SOL    HW237356   1.021   0.864   2.854 -0.3451  1.6788 -0.4233
 8575SOL     OW37357   0.097   4.440  12.263 -0.4976  0.1564 -0.1451
 8575SOL    HW137358   0.002   4.439  12.262 -0.5169  0.9405  0.3538
 8575SOL    HW237359   0.104   4.350  12.231  2.2062  0.4455 -0.3840
 8576SOL     OW37360   1.923   2.179   4.769 -1.0687  0.0758 -0.5240
 8576SOL    HW137361   1.900   2.101   4.819  0.2644  0.7674  1.1671
 8576SOL    HW237362   2.004   2.155   4.724 -0.8445 -0.3800  0.1108
 8577SOL     OW37363   1.084   0.432   7.856  0.3462 -0.1404  0.1153
 8577SOL    HW137364   1.103   0.440   7.949  1.8916 -0.4276 -0.1662
 8577SOL    HW237365   1.120   0.348   7.825 -2.0051 -1.7585  1.7954
 8578SOL     OW37366   4.408   4.143   8.616 -0.1510  0.1705  0.1222
 8578SOL    HW137367   4.377   4.072   8.672 -0.4039 -0.2569 -0.5577
 8578SOL    HW237368   4.490   4.158   8.662  0.2471 -0.2826 -0.4376
 8579SOL     OW37369   3.874   3.741  13.990 -0.2469 -0.3247  0.1337
 8579SOL    HW137370   3.846   3.833  13.985  0.6022 -0.0058  1.2568
 8579SOL    HW237371   3.881   3.726  14.084 -0.6644  2.7440  0.6854
 8580SOL     OW37372   2.951   0.127   7.910  0.4781 -0.0636 -0.0685
 8580SOL    HW137373   2.959   0.031   7.912  1.8912  0.0427 -0.6566
 8580SOL    HW237374   2.882   0.140   7.846  1.5404  0.2015 -1.1553
 8581SOL     OW37375   4.665   0.546   5.110  0.3460  0.4699 -0.0934
 8581SOL    HW137376   4.598   0.598   5.156 -3.4258 -2.1914 -2.5923
 8581SOL    HW237377   4.634   0.544   5.019  0.8159  1.2511 -0.2774
 8582SOL     OW37378   0.020   3.626   7.608 -0.1292 -0.0020 -0.2864
 8582SOL    HW137379   0.022   3.679   7.528  0.2818 -0.9653 -0.9098
 8582SOL    HW237380   4.671   3.645   7.642  0.2785  1.9783 -0.3365
 8583SOL     OW37381   0.402   0.599   6.613  1.1550  0.0401  0.2715
 8583SOL    HW137382   0.384   0.632   6.701 -0.5155 -0.2987  0.0495
 8583SOL    HW237383   0.379   0.507   6.626  0.9891 -0.0910 -0.9818
 8584SOL     OW37384   2.145   1.302  16.056  0.1441  0.5820 -0.4362
 8584SOL    HW137385   2.176   1.330  16.142  1.2987  0.5656 -0.8497
 8584SOL    HW237386   2.133   1.382  16.006  0.7724  1.5050  0.9039
 8585SOL     OW37387   0.377   4.671   5.129  0.7096  0.5048  1.1359
 8585SOL    HW137388   0.342   0.020   5.141 -0.0588  0.2719  0.6018
 8585SOL    HW237389   0.437   4.677   5.203  3.3586 -0.7160 -0.9177
 8586SOL     OW37390   1.935   3.744  12.686 -0.7055 -0.0759 -0.5579
 8586SOL    HW137391   1.935   3.684  12.760  0.6054 -1.1361 -1.4102
 8586SOL    HW237392   1.919   3.820  12.742 -0.1236 -0.9331  0.7774
 8587SOL     OW37393   0.225   2.028   7.138 -0.4516  0.2327  0.4991
 8587SOL    HW137394   0.143   2.016   7.091 -0.8449  0.7088  1.0649
 8587SOL    HW237395   0.194   2.014   7.228 -0.4983 -1.1375  0.2795
 8588SOL     OW37396   0.766   1.467  12.242  0.3109  0.2621  0.0069
 8588SOL    HW137397   0.745   1.388  12.192 -0.9528  3.0778 -3.9014
 8588SOL    HW237398   0.856   1.484  12.213 -0.0931  0.4480 -1.1319
 8589SOL     OW37399   3.885   0.430   9.213 -0.8955  0.2903 -0.1103
 8589SOL    HW137400   3.896   0.427   9.118 -0.4184 -0.2023 -0.0389
 8589SOL    HW237401   3.797   0.392   9.220 -0.1229 -1.8788 -2.2985
 8590SOL     OW37402   3.139   1.013   1.706 -0.3211  0.4247  0.1673
 8590SOL    HW137403   3.174   1.051   1.625  2.7626 -0.0816  1.2583
 8590SOL    HW237404   3.059   1.064   1.714 -0.1551  0.6377  0.4525
 8591SOL     OW37405   0.125   2.772   5.521  0.2939  0.2569  0.2734
 8591SOL    HW137406   0.107   2.747   5.611  0.4452  3.8055  1.2975
 8591SOL    HW237407   0.221   2.775   5.522  0.2895  0.9579 -1.1790
 8592SOL     OW37408   0.418   0.947  14.265 -0.4461 -0.1273 -0.4765
 8592SOL    HW137409   0.331   0.920  14.238 -1.4557  1.3701  1.2903
 8592SOL    HW237410   0.420   1.041  14.244 -1.5670 -0.0713 -0.3053
 8593SOL     OW37411   3.268   2.810   2.279  0.0367  0.2017 -0.2164
 8593SOL    HW137412   3.284   2.890   2.228  2.3590 -1.3925 -2.0030
 8593SOL    HW237413   3.220   2.854   2.349 -0.2026  1.0255 -0.9056
 8594SOL     OW37414   4.102   1.408   5.720  0.2713  0.1065 -0.2828
 8594SOL    HW137415   4.023   1.405   5.774  0.9187  0.7832  0.7054
 8594SOL    HW237416   4.163   1.438   5.786  0.0915  0.7202 -0.4005
 8595SOL     OW37417   1.896   2.767   1.264 -0.2632 -0.8124 -0.4098
 8595SOL    HW137418   1.805   2.767   1.294  0.0242 -0.5741  0.4644
 8595SOL    HW237419   1.933   2.851   1.291 -1.5297 -0.9024  1.5940
 8596SOL     OW37420   2.662   3.809  12.924  0.3302 -0.7718 -0.2045
 8596SOL    HW137421   2.711   3.851  12.995  0.5824  0.0234 -0.8512
 8596SOL    HW237422   2.611   3.744  12.973 -0.3668  0.1825  0.3404
 8597SOL     OW37423   2.464   1.421   6.370  0.1357 -0.0305 -0.3385
 8597SOL    HW137424   2.513   1.460   6.442  1.2248  0.7692 -1.5245
 8597SOL    HW237425   2.514   1.455   6.296  2.0873 -3.0434 -0.3523
 8598SOL     OW37426   0.891   2.037  13.145  0.5700 -0.5110  0.7870
 8598SOL    HW137427   0.872   2.129  13.166 -0.7325 -0.7719  0.7715
 8598SOL    HW237428   0.985   2.047  13.157  0.8135 -0.3162 -1.2100
 8599SOL     OW37429   0.521   1.245  14.095  0.2771  0.7408  0.3681
 8599SOL    HW137430   0.478   1.252  14.180  0.9368 -2.9944  1.0103
 8599SOL    HW237431   0.586   1.183  14.128 -0.6641 -1.3151 -1.6089
 8600SOL     OW37432   3.362   0.402  11.720 -0.2195  0.0148  0.4163
 8600SOL    HW137433   3.279   0.357  11.737 -1.2471  1.9657  0.4764
 8600SOL    HW237434   3.338   0.489  11.751 -1.2901  0.8700 -2.8087
 8601SOL     OW37435   3.478   1.789   4.603  0.6425  0.1918 -0.2003
 8601SOL    HW137436   3.518   1.779   4.516 -0.1216 -1.6238 -0.3494
 8601SOL    HW237437   3.479   1.715   4.663  2.4930 -0.6473 -1.2550
 8602SOL     OW37438   4.337   4.375   7.087 -0.4804  0.2486 -0.6156
 8602SOL    HW137439   4.257   4.329   7.112  0.2181 -0.0933  1.0362
 8602SOL    HW237440   4.314   4.464   7.114 -0.5932  0.7946 -2.5059
 8603SOL     OW37441   0.112   0.515   6.327 -0.2653 -0.4387 -0.5884
 8603SOL    HW137442   0.083   0.539   6.415  2.3101  2.1378 -0.4162
 8603SOL    HW237443   0.058   0.577   6.278 -0.7515 -1.2001 -1.0182
 8604SOL     OW37444   1.434   4.548  14.193  0.4492  0.0153  0.0702
 8604SOL    HW137445   1.526   4.527  14.177  0.0881 -0.7298 -1.0063
 8604SOL    HW237446   1.388   4.509  14.119 -1.4651 -0.7329  1.6636
 8605SOL     OW37447   0.870   4.090   9.282 -0.3455 -0.3679 -0.1693
 8605SOL    HW137448   0.959   4.122   9.296 -0.9813  1.1107  0.4163
 8605SOL    HW237449   0.820   4.142   9.344 -0.3256  0.6414 -0.9981
 8606SOL     OW37450   1.370   0.608  16.745 -0.6518 -0.5983 -0.1176
 8606SOL    HW137451   1.348   0.593  16.837  2.0463  1.1867  0.8298
 8606SOL    HW237452   1.460   0.641  16.745 -0.1318 -2.0776 -1.6114
 8607SOL     OW37453   3.431   0.320   1.651 -0.5664  0.0821 -0.0056
 8607SOL    HW137454   3.391   0.327   1.738 -0.0099 -1.8699  0.4052
 8607SOL    HW237455   3.515   0.360   1.674 -1.1458  0.3693  1.6380
 8608SOL     OW37456   4.567   0.418   4.866  0.3572 -0.0501 -0.1799
 8608SOL    HW137457   4.589   0.336   4.822 -1.1056 -1.0862  1.0437
 8608SOL    HW237458   4.476   0.416   4.837  0.4243 -2.9839 -0.1899
 8609SOL     OW37459   4.268   2.849   4.939  0.2266  0.2456  0.4660
 8609SOL    HW137460   4.238   2.913   4.874 -1.0717 -1.2689 -0.4369
 8609SOL    HW237461   4.254   2.912   5.010 -2.6478  1.0614 -0.7916
 8610SOL     OW37462   2.472   3.757  11.649  0.4587  0.2318 -0.3623
 8610SOL    HW137463   2.420   3.777  11.727 -0.2728  0.1267 -0.8239
 8610SOL    HW237464   2.404   3.704  11.609 -0.2361 -0.8596  2.2210
 8611SOL     OW37465   0.606   4.248   8.236 -0.4490 -0.5047  0.4690
 8611SOL    HW137466   0.576   4.184   8.300 -0.3292  0.0398  1.0680
 8611SOL    HW237467   0.530   4.307   8.233  0.7350  1.0370  0.7138
 8612SOL     OW37468   3.118   0.296   5.912  0.1821 -0.4024 -0.4700
 8612SOL    HW137469   3.156   0.332   5.992 -0.8144  1.6050 -0.8946
 8612SOL    HW237470   3.034   0.343   5.918 -0.5325 -1.6151 -0.9486
 8613SOL     OW37471   0.498   0.622   8.267  0.3745  0.1168  0.0157
 8613SOL    HW137472   0.424   0.563   8.254 -0.5777  0.8564  2.1136
 8613SOL    HW237473   0.563   0.583   8.208 -1.0522 -0.5946 -1.0761
 8614SOL     OW37474   2.484   3.931  16.118 -0.6557 -0.3505 -0.1600
 8614SOL    HW137475   2.527   3.881  16.188  1.0757  0.1373 -0.8577
 8614SOL    HW237476   2.539   3.916  16.040  0.2833 -2.2566  0.8607
 8615SOL     OW37477   4.042   2.307   3.976 -0.0145  0.3707  0.6139
 8615SOL    HW137478   3.948   2.286   3.975  0.0243  0.2509 -0.5552
 8615SOL    HW237479   4.071   2.275   4.062  0.5466 -1.4229 -0.2554
 8616SOL     OW37480   2.182   0.064  17.490 -0.1641 -0.2161 -0.4676
 8616SOL    HW137481   2.154   0.151  17.461 -0.1025 -0.2746 -0.6993
 8616SOL    HW237482   2.263   0.085  17.537 -1.1491  0.8115  0.7716
 8617SOL     OW37483   1.003   2.201   3.528  0.0250 -0.5319 -0.0996
 8617SOL    HW137484   0.983   2.284   3.485 -2.4626 -1.2786 -0.3708
 8617SOL    HW237485   1.043   2.151   3.457 -1.0905  1.7592 -2.3504
 8618SOL     OW37486   1.402   3.305   7.452 -0.2816 -0.4378  0.6647
 8618SOL    HW137487   1.312   3.301   7.485  0.5030  0.0282  2.8709
 8618SOL    HW237488   1.416   3.211   7.442 -3.0344 -0.6020 -1.5936
 8619SOL     OW37489   4.567   1.401   5.780 -0.7752  0.2467  0.7830
 8619SOL    HW137490   4.501   1.462   5.812 -1.3287  0.5649 -0.9441
 8619SOL    HW237491   4.604   1.437   5.699 -1.1713  2.2879  1.5025
 8620SOL     OW37492   0.650   2.150   1.811 -0.2712 -0.6213 -0.2262
 8620SOL    HW137493   0.726   2.191   1.770 -0.1912  0.5718  1.0831
 8620SOL    HW237494   0.623   2.225   1.864 -2.9081 -0.5272 -1.6823
 8621SOL     OW37495   0.767   3.827   2.452 -0.6601 -0.1365 -0.2227
 8621SOL    HW137496   0.708   3.800   2.523 -1.0679 -0.4174 -0.6751
 8621SOL    HW237497   0.854   3.796   2.478 -0.8379 -0.1650  0.3362
 8622SOL     OW37498   3.637   0.577  15.316  1.0613  0.6294  0.2607
 8622SOL    HW137499   3.571   0.519  15.280 -0.0272  1.8353  0.3235
 8622SOL    HW237500   3.689   0.517  15.369  1.4158 -0.6543 -1.5784
 8623SOL     OW37501   2.742   2.636   5.929 -0.6424 -0.1475  0.0150
 8623SOL    HW137502   2.809   2.611   5.993 -0.8607  1.3601  0.8298
 8623SOL    HW237503   2.783   2.710   5.885 -0.9667  0.7216  1.1868
 8624SOL     OW37504   3.449   3.524   1.770 -0.4837 -0.9102 -0.0194
 8624SOL    HW137505   3.513   3.500   1.703  0.7382  0.4116  0.6647
 8624SOL    HW237506   3.380   3.558   1.713 -0.3933 -1.6804 -0.5836
 8625SOL     OW37507   2.861   3.121   8.631  0.0786 -0.5272 -0.5409
 8625SOL    HW137508   2.809   3.179   8.686  1.8026  1.3896 -0.9567
 8625SOL    HW237509   2.935   3.097   8.686 -0.4014 -2.4373 -0.6994
 8626SOL     OW37510   0.993   3.744   7.009  0.3581  0.5518 -0.5132
 8626SOL    HW137511   0.934   3.802   6.962 -0.2946 -0.4730 -0.9581
 8626SOL    HW237512   1.062   3.728   6.945  0.7466  0.0252  0.0337
 8627SOL     OW37513   1.850   1.207   8.135 -0.0949  0.2044 -0.3138
 8627SOL    HW137514   1.836   1.272   8.066 -0.5688 -1.9577 -2.2406
 8627SOL    HW237515   1.759   1.206   8.165  1.0842 -2.8307  3.0866
 8628SOL     OW37516   3.854   1.156   6.830 -0.1024 -0.3994  0.1833
 8628SOL    HW137517   3.781   1.213   6.807 -3.3650 -2.6729  4.7818
 8628SOL    HW237518   3.803   1.096   6.886 -2.3646  0.2929 -1.1452
 8629SOL     OW37519   4.719   2.037   2.257 -0.3982  0.6568  0.1900
 8629SOL    HW137520   4.659   1.962   2.263 -1.4686  1.3511 -2.0631
 8629SOL    HW237521   0.036   1.999   2.189 -2.2038  1.6339 -1.8495
 8630SOL     OW37522   0.306   4.707  17.510 -0.2584  0.2405  0.1705
 8630SOL    HW137523   0.370   4.689  17.441 -2.8514 -1.2531 -1.8451
 8630SOL    HW237524   0.307   4.633  17.570  0.4138 -0.4021 -0.6391
 8631SOL     OW37525   0.899   0.457   8.756 -0.2996 -0.0369 -0.0643
 8631SOL    HW137526   0.862   0.375   8.724  0.1979  0.7133 -2.5841
 8631SOL    HW237527   0.824   0.508   8.787  0.7407 -0.1475  2.6974
 8632SOL     OW37528   0.308   2.209  16.828  0.6014  0.3290  0.5391
 8632SOL    HW137529   0.256   2.128  16.823  0.9621  0.0751  0.8785
 8632SOL    HW237530   0.236   2.267  16.804 -0.5436 -1.5265 -0.5191
 8633SOL     OW37531   3.615   4.597   1.719 -0.0993  1.0582  0.2846
 8633SOL    HW137532   3.557   4.641   1.657 -0.2333  2.1681  1.2239
 8633SOL    HW237533   3.693   4.597   1.663 -0.6306  3.2451 -0.4446
 8634SOL     OW37534   0.885   1.699   5.005 -0.1025 -0.3699 -0.5085
 8634SOL    HW137535   0.792   1.715   5.021 -0.0851 -0.1828 -0.5877
 8634SOL    HW237536   0.890   1.609   5.037 -0.9623  0.2787  1.4362
 8635SOL     OW37537   1.686   0.659   9.998  0.6991  0.3516  0.2955
 8635SOL    HW137538   1.672   0.694   9.909 -0.4046 -1.0523 -0.0846
 8635SOL    HW237539   1.608   0.605  10.013  1.0229 -0.3423 -0.5356
 8636SOL     OW37540   0.762   0.733  16.761  0.5880 -0.1049 -0.4380
 8636SOL    HW137541   0.805   0.809  16.801  0.5957 -0.7391  0.7794
 8636SOL    HW237542   0.816   0.661  16.795 -1.0861 -0.0560  2.3494
 8637SOL     OW37543   3.236   2.682  12.862 -0.5987 -0.0286 -0.1742
 8637SOL    HW137544   3.194   2.595  12.858 -2.5116  0.8916 -0.4664
 8637SOL    HW237545   3.158   2.735  12.842  0.4029  0.6738 -2.1876
 8638SOL     OW37546   0.969   2.416   0.648 -0.2834  0.4367 -0.7532
 8638SOL    HW137547   0.924   2.498   0.667 -0.8303 -0.2682  0.9883
 8638SOL    HW237548   0.917   2.364   0.709  0.5168  0.4782 -0.0459
 8639SOL     OW37549   1.187   3.316   5.476  0.3082  0.3008  0.3708
 8639SOL    HW137550   1.094   3.341   5.468  0.8856  2.1601 -0.7070
 8639SOL    HW237551   1.187   3.255   5.402  0.2495  1.0593 -0.2632
 8640SOL     OW37552   1.591   2.885  14.345  0.1836 -0.5882  0.4753
 8640SOL    HW137553   1.670   2.932  14.369  1.3790 -0.3883 -3.8680
 8640SOL    HW237554   1.603   2.879  14.250 -3.1621  1.9972 -0.1553
 8641SOL     OW37555   4.550   0.197   2.503  0.1656  0.6841 -0.0759
 8641SOL    HW137556   4.556   0.178   2.597 -1.7720  0.6670  0.0412
 8641SOL    HW237557   4.482   0.136   2.475 -0.4504  2.6249 -2.8243
 8642SOL     OW37558   1.784   4.527   1.901 -0.3334  0.4451 -0.2109
 8642SOL    HW137559   1.842   4.597   1.871  0.7375 -1.0211 -1.5909
 8642SOL    HW237560   1.734   4.515   1.821  1.8909 -0.2857 -1.5064
 8643SOL     OW37561   2.272   0.727   4.103 -0.5236 -0.4439 -0.0061
 8643SOL    HW137562   2.270   0.731   4.199  1.1709 -1.2330  0.0612
 8643SOL    HW237563   2.350   0.673   4.094 -0.0603 -0.0117  1.3510
 8644SOL     OW37564   1.578   2.963   6.189  0.4703 -0.0802  0.0077
 8644SOL    HW137565   1.554   2.874   6.163 -0.2883  0.7901 -2.2402
 8644SOL    HW237566   1.609   2.989   6.103  2.0944  1.7595  1.1491
 8645SOL     OW37567   3.843   3.189  14.790 -0.1345  0.1921  0.7178
 8645SOL    HW137568   3.812   3.176  14.700 -0.9257 -1.3261  1.2008
 8645SOL    HW237569   3.781   3.133  14.838 -0.2414 -0.7592 -0.5266
 8646SOL     OW37570   2.462   3.639   3.953 -0.5705  0.3646 -0.3093
 8646SOL    HW137571   2.529   3.705   3.938  0.7512 -0.9885 -0.4299
 8646SOL    HW237572   2.388   3.680   3.998  0.0441  1.0460  0.0692
 8647SOL     OW37573   0.326   0.184  11.366 -0.0814 -0.7171 -0.1555
 8647SOL    HW137574   0.279   0.261  11.334 -2.2267 -1.0611  2.1054
 8647SOL    HW237575   0.323   0.199  11.461  0.1989  0.3660 -0.3181
 8648SOL     OW37576   4.733   3.628  12.962 -0.1486  0.0401  0.1332
 8648SOL    HW137577   0.079   3.583  12.955 -0.1662 -0.0483  0.4884
 8648SOL    HW237578   4.711   3.647  12.871  0.0194 -2.1440 -0.3818
 8649SOL     OW37579   4.149   1.493   3.289 -0.0315 -0.2888 -0.0750
 8649SOL    HW137580   4.061   1.518   3.261  0.3883  1.4853  0.2153
 8649SOL    HW237581   4.202   1.506   3.210 -1.2634 -2.1132 -1.1967
 8650SOL     OW37582   0.052   2.583   1.766 -0.3343 -0.4031  0.6607
 8650SOL    HW137583   0.084   2.618   1.683  0.0629  0.3510  1.1383
 8650SOL    HW237584   0.026   2.495   1.737  1.4487 -1.7835  3.2451
 8651SOL     OW37585   4.334   3.597   9.237 -0.2782  0.2303 -0.1132
 8651SOL    HW137586   4.364   3.676   9.192  1.6117 -1.3286 -1.5661
 8651SOL    HW237587   4.311   3.636   9.321  2.2864  2.5032 -0.4938
 8652SOL     OW37588   3.072   1.578   5.868 -0.0478  0.3962  0.2196
 8652SOL    HW137589   3.093   1.643   5.802 -1.0319  0.2852 -0.1997
 8652SOL    HW237590   3.156   1.553   5.906 -0.0395 -0.9837 -0.7009
 8653SOL     OW37591   4.007   4.078   3.045 -0.1654  0.3255 -0.3875
 8653SOL    HW137592   3.921   4.075   3.003  0.1480 -0.6826 -0.9558
 8653SOL    HW237593   4.063   4.060   2.970  0.6887  2.4058 -0.2359
 8654SOL     OW37594   2.780   0.827   5.532  0.0318 -0.5753 -0.0537
 8654SOL    HW137595   2.763   0.818   5.439 -1.9384  0.0034  0.2380
 8654SOL    HW237596   2.866   0.788   5.548 -0.9294 -2.7096 -0.1041
 8655SOL     OW37597   3.368   2.972  15.863 -0.3292 -0.5009  0.0545
 8655SOL    HW137598   3.437   3.012  15.917  0.6902 -1.6816 -0.3484
 8655SOL    HW237599   3.328   3.053  15.832  0.9458  0.0792 -0.0828
 8656SOL     OW37600   1.141   4.612   8.009  0.0340  0.1354  0.3534
 8656SOL    HW137601   1.186   4.677   8.063 -0.6316 -0.7725  2.0010
 8656SOL    HW237602   1.203   4.540   8.013  1.2337  1.1368 -0.1147
 8657SOL     OW37603   4.281   2.924   7.674  0.0020  0.3144  0.1412
 8657SOL    HW137604   4.192   2.908   7.644  0.3534  0.7166 -1.1187
 8657SOL    HW237605   4.298   2.850   7.732 -1.8796  0.9169  1.4464
 8658SOL     OW37606   2.772   1.253   4.579  0.1996 -0.0783  0.3117
 8658SOL    HW137607   2.844   1.279   4.520 -0.2348  0.9940  0.2600
 8658SOL    HW237608   2.804   1.297   4.657  0.3025 -1.0844  0.8327
 8659SOL     OW37609   1.981   2.257  14.834 -0.6509  0.7596  0.0092
 8659SOL    HW137610   1.898   2.212  14.850 -0.1089 -0.9309 -1.9406
 8659SOL    HW237611   1.986   2.236  14.740 -0.0104  0.6827  0.0637
 8660SOL     OW37612   1.767   0.812   5.175  0.4554  0.1465 -0.2465
 8660SOL    HW137613   1.704   0.758   5.223 -1.0987  0.8175 -1.5361
 8660SOL    HW237614   1.783   0.750   5.105 -0.8021 -1.8833  1.2700
 8661SOL     OW37615   2.565   2.348   8.416  0.0515 -0.0968  0.3535
 8661SOL    HW137616   2.489   2.388   8.458  1.6184  0.5818  2.5527
 8661SOL    HW237617   2.525   2.268   8.381 -0.9892  1.4823 -2.0727
 8662SOL     OW37618   2.362   3.941   8.782  0.0863 -0.4812 -0.6949
 8662SOL    HW137619   2.365   3.847   8.798  0.2244 -0.1815  1.0366
 8662SOL    HW237620   2.404   3.980   8.859 -0.2134  0.5831 -1.0674
 8663SOL     OW37621   4.632   3.830  11.046  0.2029 -0.3426 -0.0556
 8663SOL    HW137622   4.722   3.804  11.025  0.5096  0.0005  0.8234
 8663SOL    HW237623   4.644   3.866  11.134 -1.3162 -0.0541  0.0350
 8664SOL     OW37624   4.315   2.895   6.810 -0.0849 -0.1158 -0.4088
 8664SOL    HW137625   4.323   2.867   6.902  1.0117 -1.7996 -1.0137
 8664SOL    HW237626   4.378   2.834   6.772  0.5732  0.6476 -0.5270
 8665SOL     OW37627   2.716   4.258  13.715 -0.2274 -0.0836 -0.3745
 8665SOL    HW137628   2.724   4.167  13.685  2.2344  0.5178 -1.6216
 8665SOL    HW237629   2.670   4.245  13.798  0.5578 -2.7148 -0.3291
 8666SOL     OW37630   3.144   1.777  15.830  0.0921 -0.0703 -0.1267
 8666SOL    HW137631   3.122   1.689  15.800  2.3809 -1.0210  0.9856
 8666SOL    HW237632   3.156   1.765  15.925 -0.2292  0.9326  0.0406
 8667SOL     OW37633   2.261   1.480  11.277 -0.0675  0.0237  0.1068
 8667SOL    HW137634   2.306   1.413  11.226  2.8234  3.0174 -1.3070
 8667SOL    HW237635   2.190   1.500  11.216 -0.0905  1.3198  0.5599
 8668SOL     OW37636   4.667   4.101   5.380 -0.9446  0.3932  0.2149
 8668SOL    HW137637   4.660   4.189   5.344  1.4938  0.1153 -0.9243
 8668SOL    HW237638   4.584   4.057   5.359  1.2946 -2.9876 -1.6481
 8669SOL     OW37639   0.392   1.570  16.323  0.0069 -0.5703 -0.2993
 8669SOL    HW137640   0.410   1.590  16.415  1.5698 -1.3778 -0.4274
 8669SOL    HW237641   0.300   1.544  16.318 -0.1215 -0.4045  1.2620
 8670SOL     OW37642   3.809   2.100   9.509 -0.0096  0.2139 -0.2969
 8670SOL    HW137643   3.774   2.189   9.515  1.0559  0.6615 -0.7582
 8670SOL    HW237644   3.888   2.118   9.457  0.0552 -0.8831 -0.5723
 8671SOL     OW37645   0.598   4.221   4.511 -0.2940  0.2300 -0.4821
 8671SOL    HW137646   0.636   4.151   4.459  0.6032  0.1757  0.2374
 8671SOL    HW237647   0.599   4.286   4.441 -0.8637 -0.7770 -1.4120
 8672SOL     OW37648   4.735   0.590   4.739  0.3884  0.3320  0.8488
 8672SOL    HW137649   4.696   0.535   4.807  1.5079 -2.1952 -0.5491
 8672SOL    HW237650   4.709   0.541   4.661  0.3502  2.1459 -0.2588
 8673SOL     OW37651   0.000   1.453  12.072 -0.4202  0.3925  0.6195
 8673SOL    HW137652   4.713   1.481  12.160 -1.7841  1.0103  0.0252
 8673SOL    HW237653   0.035   1.537  12.042  1.2624 -0.4721  0.1550
 8674SOL     OW37654   1.846   3.831   3.887  0.0770 -0.0237 -0.3170
 8674SOL    HW137655   1.873   3.859   3.974  2.5591 -1.3179 -0.6445
 8674SOL    HW237656   1.908   3.881   3.832  0.5016  0.5606  0.6986
 8675SOL     OW37657   4.313   2.987   3.122  0.0704 -0.0531  0.3504
 8675SOL    HW137658   4.287   2.988   3.030 -0.9942 -2.1314  0.6505
 8675SOL    HW237659   4.389   3.045   3.117  1.1558 -1.5412 -0.0338
 8676SOL     OW37660   1.465   2.528   1.516  0.2832 -0.1511 -0.2648
 8676SOL    HW137661   1.394   2.549   1.576 -0.0151 -1.6325 -0.0955
 8676SOL    HW237662   1.423   2.455   1.469 -1.6929  0.1482  1.0471
 8677SOL     OW37663   1.213   4.067   3.203  0.4522  0.1193 -0.0518
 8677SOL    HW137664   1.242   4.150   3.241 -1.1100  0.9304 -0.6305
 8677SOL    HW237665   1.151   4.112   3.146  0.4445 -1.0965 -0.9789
 8678SOL     OW37666   0.598   4.112   6.212 -0.0891  0.5477 -0.2475
 8678SOL    HW137667   0.514   4.130   6.256 -1.6280 -3.0117 -1.8019
 8678SOL    HW237668   0.610   4.028   6.256 -2.0628 -1.1682 -3.0045
 8679SOL     OW37669   0.744   1.382  11.013 -0.1615 -0.2444  0.0817
 8679SOL    HW137670   0.654   1.360  11.038  0.4171  0.0781  2.4180
 8679SOL    HW237671   0.743   1.338  10.928 -0.2364  2.3820 -1.3066
 8680SOL     OW37672   3.064   4.466  14.092 -0.0979 -0.2460 -0.6303
 8680SOL    HW137673   3.057   4.557  14.120 -0.2461  0.0036 -1.4878
 8680SOL    HW237674   3.076   4.480  13.999  0.7439 -0.2728 -0.5203
 8681SOL     OW37675   2.773   1.113   7.189  0.4796 -0.9730  0.5090
 8681SOL    HW137676   2.703   1.065   7.233 -0.0445  2.0560  2.9321
 8681SOL    HW237677   2.838   1.045   7.171  0.8513 -0.4982  0.0549
 8682SOL     OW37678   0.953   1.747  16.658 -0.1135  0.6268  0.2531
 8682SOL    HW137679   0.967   1.673  16.716 -4.7118  0.9112  1.6789
 8682SOL    HW237680   0.936   1.706  16.573  2.5392 -2.8495  1.4280
 8683SOL     OW37681   3.750   0.250   5.617  0.0829 -0.0057  0.0031
 8683SOL    HW137682   3.835   0.252   5.660 -0.8983 -0.3830  1.9802
 8683SOL    HW237683   3.757   0.307   5.540  1.1314 -0.7658 -0.4634
 8684SOL     OW37684   3.831   0.804   5.665 -0.3143  0.6666 -0.2227
 8684SOL    HW137685   3.739   0.779   5.675 -0.3678  0.4816 -1.2228
 8684SOL    HW237686   3.827   0.794   5.570  1.3594 -1.7827 -0.0207
 8685SOL     OW37687   1.476   0.948  14.780 -0.2985  0.1960 -0.1791
 8685SOL    HW137688   1.524   0.953  14.863 -2.1157 -0.2436  0.8956
 8685SOL    HW237689   1.452   0.856  14.782  0.0692  0.0938 -0.7590
 8686SOL     OW37690   3.926   1.914   8.112  0.1401 -0.0715  0.4677
 8686SOL    HW137691   3.988   1.963   8.057  0.6734  1.6070  2.5449
 8686SOL    HW237692   3.846   1.963   8.096  0.1033 -0.7068 -1.2738
 8687SOL     OW37693   2.831   4.186  15.871  0.0067  0.7765  0.1747
 8687SOL    HW137694   2.736   4.190  15.863 -0.0491 -0.8461  0.0011
 8687SOL    HW237695   2.837   4.276  15.838 -2.3979  0.5668 -0.7832
 8688SOL     OW37696   3.310   2.791   1.794 -0.1547 -0.1600 -0.1795
 8688SOL    HW137697   3.285   2.699   1.806  1.7487 -0.6374  0.2153
 8688SOL    HW237698   3.252   2.840   1.852 -1.5709 -2.8382  0.6449
 8689SOL     OW37699   4.473   0.616  12.691 -0.5425 -0.2543 -0.0426
 8689SOL    HW137700   4.509   0.554  12.627  0.0254 -0.4082  0.4350
 8689SOL    HW237701   4.492   0.701  12.651 -0.7748 -0.8967 -1.5201
 8690SOL     OW37702   3.200   1.253   4.572  0.5719 -0.2457  0.8000
 8690SOL    HW137703   3.255   1.202   4.631  1.1743  0.7062  1.0760
 8690SOL    HW237704   3.267   1.293   4.516 -0.0780 -0.4272 -0.1057
 8691SOL     OW37705   2.971   0.618   1.211  0.3006 -0.6118 -0.1365
 8691SOL    HW137706   2.908   0.645   1.144  0.4906  0.7350  0.2366
 8691SOL    HW237707   2.943   0.529   1.234  2.4443 -0.5081  2.8747
 8692SOL     OW37708   2.893   2.838   2.157 -0.5203 -0.6376  0.0332
 8692SOL    HW137709   2.870   2.765   2.215  0.7979 -2.4528 -1.7168
 8692SOL    HW237710   2.864   2.916   2.204  2.1209  0.2483  0.2385
 8693SOL     OW37711   2.540   0.579   3.708 -0.4837 -0.1729 -0.0990
 8693SOL    HW137712   2.564   0.486   3.702 -2.0189 -0.6835  1.4310
 8693SOL    HW237713   2.447   0.586   3.729  0.0738 -0.5182  2.5440
 8694SOL     OW37714   0.948   3.440   5.456 -0.5737  0.1515 -0.0297
 8694SOL    HW137715   0.987   3.527   5.447  0.5867 -0.2431  1.3427
 8694SOL    HW237716   0.897   3.459   5.535  0.8426  1.8047  0.4815
 8695SOL     OW37717   4.212   3.664   8.695  0.0702 -0.2372 -0.5118
 8695SOL    HW137718   4.194   3.748   8.739  1.3569 -0.1092 -0.2294
 8695SOL    HW237719   4.199   3.600   8.765  0.2726  0.9700  0.6481
 8696SOL     OW37720   0.083   4.286   4.730 -0.7319 -0.2221 -0.3332
 8696SOL    HW137721   0.149   4.219   4.711  0.6661  1.5222 -1.5769
 8696SOL    HW237722   0.027   4.269   4.654 -0.2256 -1.1260 -0.5083
 8697SOL     OW37723   3.834   2.761   5.109 -0.3372  0.2091 -0.1358
 8697SOL    HW137724   3.787   2.741   5.028 -1.6447 -0.9230  0.9193
 8697SOL    HW237725   3.764   2.770   5.173  0.6014  1.4833  0.7224
 8698SOL     OW37726   3.088   0.875  13.330 -0.0418 -0.4973  0.0818
 8698SOL    HW137727   3.184   0.875  13.324 -0.1396  0.5380 -1.5430
 8698SOL    HW237728   3.065   0.931  13.256  0.8956 -0.6028 -0.2840
 8699SOL     OW37729   4.179   1.832   1.888  0.1695 -0.1889  0.0047
 8699SOL    HW137730   4.087   1.853   1.905 -0.1101 -2.5148  1.2521
 8699SOL    HW237731   4.227   1.908   1.854  1.4960 -2.0138 -2.2016
 8700SOL     OW37732   2.785   3.948   1.217  0.6337  0.4434 -0.1015
 8700SOL    HW137733   2.781   4.041   1.238  1.4164 -0.2269  3.0218
 8700SOL    HW237734   2.702   3.946   1.169  0.2956  1.9767  0.4353
 8701SOL     OW37735   0.755   2.076   4.837  0.0171 -0.3186 -0.3341
 8701SOL    HW137736   0.808   2.090   4.759 -0.3819 -1.3083 -0.7938
 8701SOL    HW237737   0.697   2.003   4.812 -1.3816  0.5058  0.4836
 8702SOL     OW37738   0.138   2.519  14.491 -0.0915 -0.3571  0.0904
 8702SOL    HW137739   0.106   2.474  14.569 -2.5094  2.4466  0.7108
 8702SOL    HW237740   0.078   2.593  14.478  2.8199  1.7767 -1.0893
 8703SOL     OW37741   0.757   3.212   9.291 -0.1500 -0.1445 -0.1285
 8703SOL    HW137742   0.809   3.156   9.234 -0.7693 -2.4949  1.5953
 8703SOL    HW237743   0.789   3.189   9.379 -1.5298 -1.6548 -0.0180
 8704SOL     OW37744   2.079   3.299   0.120  0.0103  0.1972 -0.2713
 8704SOL    HW137745   2.170   3.277   0.142  0.7979  1.4619 -2.2044
 8704SOL    HW237746   2.037   3.216   0.139  2.1669 -0.4490  1.7212
 8705SOL     OW37747   1.771   4.631  16.416  0.0973 -0.3243 -0.3102
 8705SOL    HW137748   1.704   4.583  16.465  1.1837 -0.0088  1.4997
 8705SOL    HW237749   1.795   4.562  16.354 -2.3915 -1.3922 -0.1023
 8706SOL     OW37750   0.121   0.320  12.296 -0.2176 -0.2400 -0.3466
 8706SOL    HW137751   0.182   0.359  12.233 -0.3711 -1.0727 -1.0292
 8706SOL    HW237752   0.045   0.377  12.290  0.6107  1.1293  2.0533
 8707SOL     OW37753   3.091   1.321   2.289  0.2520  0.8080 -0.4293
 8707SOL    HW137754   3.087   1.416   2.296 -0.5906  0.7643 -0.2489
 8707SOL    HW237755   3.007   1.294   2.251  0.7943 -2.1833  0.4817
 8708SOL     OW37756   4.227   3.113   4.453 -0.5746 -0.4679 -0.0685
 8708SOL    HW137757   4.320   3.089   4.450 -0.1962  1.3498 -2.9361
 8708SOL    HW237758   4.195   3.085   4.368  1.2281 -0.5566 -0.7207
 8709SOL     OW37759   1.839   4.553   2.477 -0.0841  0.8208  0.0656
 8709SOL    HW137760   1.891   4.612   2.532 -0.4604  0.3044  0.9746
 8709SOL    HW237761   1.866   4.474   2.523  0.1789 -0.1725 -1.7936
 8710SOL     OW37762   0.181   1.472   0.284 -0.3555 -0.0600  0.3810
 8710SOL    HW137763   0.160   1.549   0.336 -0.7366 -1.9508  2.9937
 8710SOL    HW237764   0.095   1.452   0.247 -0.1485  0.1506 -0.2134
 8711SOL     OW37765   4.061   1.276   2.394 -0.4680 -0.4148 -0.2868
 8711SOL    HW137766   4.034   1.242   2.479  0.2098  0.5546  0.3086
 8711SOL    HW237767   4.054   1.202   2.333  2.6238 -0.5779 -0.4553
 8712SOL     OW37768   1.287   0.952   0.840 -0.3113 -0.3626  0.5029
 8712SOL    HW137769   1.316   1.032   0.884  0.6355 -0.8962  0.8585
 8712SOL    HW237770   1.193   0.965   0.826  0.0062 -0.6291 -1.8495
 8713SOL     OW37771   3.039   3.378  16.109  0.1959  0.0803  0.3042
 8713SOL    HW137772   3.048   3.456  16.054  0.6298  1.1127  1.8596
 8713SOL    HW237773   2.948   3.391  16.133 -0.0773 -0.8125 -0.2298
 8714SOL     OW37774   3.863   4.487   2.309 -0.5050  0.6835 -0.0730
 8714SOL    HW137775   3.952   4.462   2.332 -0.7723  0.3667  0.5984
 8714SOL    HW237776   3.820   4.402   2.303 -0.1646  0.4655  0.6518
 8715SOL     OW37777   3.470   2.385   6.366 -0.0571  1.0673 -0.2624
 8715SOL    HW137778   3.398   2.366   6.426 -0.3353  2.6867 -0.0946
 8715SOL    HW237779   3.476   2.480   6.375 -1.1740  1.1021  0.1441
 8716SOL     OW37780   2.147   3.075  16.208 -0.4049 -0.4773 -0.4453
 8716SOL    HW137781   2.084   3.078  16.137 -0.8220  3.1494  0.0945
 8716SOL    HW237782   2.099   3.017  16.268 -1.6198  0.0856 -0.8776
 8717SOL     OW37783   0.287   2.306   0.303  0.0799  0.3556  0.5281
 8717SOL    HW137784   0.225   2.296   0.375 -0.7958 -1.2518 -0.4437
 8717SOL    HW237785   0.264   2.396   0.281  1.5866  0.2021 -1.7261
 8718SOL     OW37786   2.836   0.500   7.933 -0.0847  0.9070 -0.0606
 8718SOL    HW137787   2.842   0.558   8.009  1.0894  0.1212  0.4378
 8718SOL    HW237788   2.928   0.476   7.928 -0.0317  0.9240  0.7862
 8719SOL     OW37789   3.519   2.405   3.465  0.3823 -0.2365 -0.2985
 8719SOL    HW137790   3.560   2.475   3.515  0.0726 -0.7631  0.6766
 8719SOL    HW237791   3.497   2.448   3.382  2.3432 -0.7146 -1.0597
 8720SOL     OW37792   3.373   4.339   8.689  0.1989  0.0472  0.0575
 8720SOL    HW137793   3.428   4.262   8.702  0.3418  0.3082  0.9534
 8720SOL    HW237794   3.298   4.311   8.742  2.9424  1.0369  4.4297
 8721SOL     OW37795   3.423   4.365  10.094  0.1200 -0.4816 -0.1588
 8721SOL    HW137796   3.359   4.324  10.151  0.5115 -0.3486  0.3728
 8721SOL    HW237797   3.498   4.339  10.147  1.7834  0.2050 -2.1872
 8722SOL     OW37798   1.897   0.790   8.955 -0.0553 -0.8167 -0.2984
 8722SOL    HW137799   1.912   0.759   9.044 -1.7020  0.1726  0.3255
 8722SOL    HW237800   1.830   0.726   8.931 -0.4201 -0.2675 -0.7174
 8723SOL     OW37801   0.352   3.195  14.337  0.1059 -0.1786  0.0492
 8723SOL    HW137802   0.385   3.147  14.262 -2.4985  0.5035 -1.5347
 8723SOL    HW237803   0.263   3.208  14.304  0.1486 -2.0660 -0.7823
 8724SOL     OW37804   2.085   1.458   8.868 -0.0858  0.4020  0.1016
 8724SOL    HW137805   2.154   1.407   8.910 -1.4204 -0.9704  0.6373
 8724SOL    HW237806   2.140   1.500   8.801 -0.7756  2.1451  0.6432
 8725SOL     OW37807   1.740   3.974   5.800  0.1216 -0.4446  0.5461
 8725SOL    HW137808   1.757   3.884   5.773 -1.4634 -0.9982  1.3973
 8725SOL    HW237809   1.752   4.008   5.712 -0.4291  1.0300  1.0333
 8726SOL     OW37810   1.462   3.201  11.564  0.7526 -0.1397 -0.2189
 8726SOL    HW137811   1.386   3.171  11.615 -0.5449  2.2711 -0.7198
 8726SOL    HW237812   1.540   3.177  11.613 -1.1530 -0.5631  2.5970
 8727SOL     OW37813   4.205   1.101   6.446 -0.3194  0.3581 -0.5003
 8727SOL    HW137814   4.248   1.169   6.498 -1.1435 -0.2265  0.9458
 8727SOL    HW237815   4.131   1.091   6.506  1.5984  0.4850  1.9153
 8728SOL     OW37816   0.897   4.237   2.113  0.4114 -0.1741  0.1095
 8728SOL    HW137817   0.923   4.327   2.092  1.9867 -0.9459 -1.2590
 8728SOL    HW237818   0.891   4.200   2.025  2.4611  1.1130 -0.5888
 8729SOL     OW37819   2.568   4.103   7.438 -0.2124  0.0512  0.3714
 8729SOL    HW137820   2.570   4.074   7.529 -0.2928  1.6516  0.8829
 8729SOL    HW237821   2.599   4.193   7.436  0.2752 -0.1547 -1.0334
 8730SOL     OW37822   0.205   0.791   3.883  0.1657  0.0503 -0.0493
 8730SOL    HW137823   0.200   0.773   3.977 -1.3173 -1.4617 -0.4283
 8730SOL    HW237824   0.113   0.776   3.863 -0.4162  1.4143  1.5679
 8731SOL     OW37825   0.672   2.888   4.117  0.4051  0.4981  0.3064
 8731SOL    HW137826   0.673   2.970   4.069  0.4745  0.8901  0.9860
 8731SOL    HW237827   0.733   2.892   4.190 -1.8278  0.2118  2.2030
 8732SOL     OW37828   3.336   4.296   4.449  0.1276  0.3043 -0.0230
 8732SOL    HW137829   3.394   4.241   4.397 -0.1528 -3.0309  3.2378
 8732SOL    HW237830   3.365   4.288   4.540 -0.6645 -1.3077  0.0753
 8733SOL     OW37831   4.059   2.242   5.551  1.0998  0.3789  0.2066
 8733SOL    HW137832   4.066   2.336   5.564 -1.2628  0.5120  0.5754
 8733SOL    HW237833   4.078   2.238   5.458  1.5211  0.4609  0.2901
 8734SOL     OW37834   1.874   0.258   6.972  0.3183 -0.0534  0.4630
 8734SOL    HW137835   1.853   0.336   7.023  0.9117 -0.3123  1.0973
 8734SOL    HW237836   1.958   0.282   6.932  0.6173  0.2061  1.2634
 8735SOL     OW37837   0.824   2.027  12.610  0.0168  0.2380  0.1921
 8735SOL    HW137838   0.842   1.949  12.664  1.2629  0.8395  0.6516
 8735SOL    HW237839   0.831   2.087  12.684  0.2679 -0.3359  0.6358
 8736SOL     OW37840   1.377   2.566   3.433 -0.6404  0.8559 -0.3779
 8736SOL    HW137841   1.337   2.533   3.352 -0.2876 -3.1889  1.0935
 8736SOL    HW237842   1.390   2.486   3.485 -1.8368  1.3959  0.7655
 8737SOL     OW37843   1.449   4.272   3.828 -0.3648  0.1226  0.1217
 8737SOL    HW137844   1.440   4.325   3.908  1.2401  2.0277 -0.9658
 8737SOL    HW237845   1.401   4.191   3.848 -2.0873  0.7957 -1.2797
 8738SOL     OW37846   1.580   4.548   4.165 -0.3533  0.0111  0.5650
 8738SOL    HW137847   1.507   4.493   4.137  0.8317 -0.5257 -1.4695
 8738SOL    HW237848   1.588   4.609   4.091 -0.9886  0.5662  0.9454
 8739SOL     OW37849   2.318   2.245   5.682 -0.6384 -0.2424  0.0450
 8739SOL    HW137850   2.274   2.303   5.745 -1.0679  2.7403 -3.0004
 8739SOL    HW237851   2.382   2.305   5.644  0.4412 -0.3321  1.7377
 8740SOL     OW37852   3.916   3.363   5.345  0.1628 -0.2227 -0.3425
 8740SOL    HW137853   3.867   3.359   5.427  1.5747 -1.6226  0.4569
 8740SOL    HW237854   3.856   3.351   5.272  0.3266 -0.0208 -0.5101
 8741SOL     OW37855   3.471   3.712  10.526  0.1882  0.2916  0.2357
 8741SOL    HW137856   3.391   3.755  10.494 -1.1179 -1.5648  0.9765
 8741SOL    HW237857   3.529   3.788  10.531  1.6722 -0.9172  1.3817
 8742SOL     OW37858   4.077   2.554   3.885 -0.9109 -0.2735  0.1415
 8742SOL    HW137859   4.046   2.473   3.926 -0.4806  1.1519  3.2721
 8742SOL    HW237860   4.172   2.559   3.897 -0.8071  1.3897 -1.5151
 8743SOL     OW37861   0.455   1.079   3.164  0.2705  0.2411  0.4178
 8743SOL    HW137862   0.420   1.128   3.090 -0.3024 -0.4409  0.2426
 8743SOL    HW237863   0.543   1.116   3.167 -0.2883  1.3277  3.1555
 8744SOL     OW37864   3.212   3.984  14.357 -0.0113  0.0866  0.6843
 8744SOL    HW137865   3.195   3.893  14.333 -0.8840  0.2344  0.7524
 8744SOL    HW237866   3.151   4.038  14.306 -1.0759 -1.2792  0.5282
 8745SOL     OW37867   3.896   4.313   0.684  0.3507  0.5297 -0.2688
 8745SOL    HW137868   3.811   4.332   0.724  0.7971  0.1112  0.9076
 8745SOL    HW237869   3.901   4.217   0.687 -1.1348  0.4548 -0.2022
 8746SOL     OW37870   3.410   2.344   4.268 -0.1940  0.4374 -0.5361
 8746SOL    HW137871   3.381   2.435   4.279 -1.7778 -0.0740 -0.4517
 8746SOL    HW237872   3.331   2.292   4.284  1.7982 -2.8116 -1.4253
 8747SOL     OW37873   4.192   3.221   2.680  1.0548 -0.6561  0.1867
 8747SOL    HW137874   4.253   3.241   2.751  0.6027  0.2115  0.3263
 8747SOL    HW237875   4.253   3.179   2.619  0.2033 -1.3310 -0.1990
 8748SOL     OW37876   3.611   1.249   6.731  0.1241  0.5981  0.1869
 8748SOL    HW137877   3.576   1.169   6.691  0.6936  1.3607 -1.8236
 8748SOL    HW237878   3.583   1.316   6.668 -0.1207  0.5472  0.2406
 8749SOL     OW37879   0.255   3.231   6.371  0.5417  0.3611 -0.2838
 8749SOL    HW137880   0.213   3.317   6.363 -1.6286 -0.6018  0.8465
 8749SOL    HW237881   0.245   3.215   6.465  2.1935 -0.0362 -0.1807
 8750SOL     OW37882   1.068   4.385  17.406 -0.1130  0.2065 -0.3741
 8750SOL    HW137883   1.141   4.325  17.388  0.7703  1.2486 -0.3174
 8750SOL    HW237884   1.036   4.349  17.489  1.2172  0.2222  0.1538
 8751SOL     OW37885   4.334   2.987   0.856  0.6281  0.2406  0.8884
 8751SOL    HW137886   4.352   2.951   0.943  0.0272 -1.8662  0.1474
 8751SOL    HW237887   4.247   3.022   0.877 -0.0665 -0.6264 -0.5121
 8752SOL     OW37888   0.312   3.245   6.085  0.2111  0.0111  0.1179
 8752SOL    HW137889   0.294   3.238   6.179 -0.6743 -0.8028 -0.1142
 8752SOL    HW237890   0.285   3.336   6.073 -0.8040 -0.0920  1.5843
 8753SOL     OW37891   2.881   0.259   1.949  0.5432 -0.1840 -0.1579
 8753SOL    HW137892   2.958   0.307   1.917  0.8263  0.3415  1.3213
 8753SOL    HW237893   2.884   0.184   1.890  0.1784  0.0388 -0.4572
 8754SOL     OW37894   1.938   4.142   3.154 -0.4242 -0.0720 -0.2279
 8754SOL    HW137895   1.855   4.179   3.183 -0.6972  0.3100 -1.5130
 8754SOL    HW237896   1.899   4.107   3.074 -1.3512  0.1237  0.1367
 8755SOL     OW37897   4.462   3.408   7.299  0.9654 -0.5189  0.0946
 8755SOL    HW137898   4.521   3.374   7.366  2.2055  1.8525  0.2231
 8755SOL    HW237899   4.370   3.393   7.321  0.5778  1.3504 -0.2677
 8756SOL     OW37900   3.473   2.803   4.059  0.0953 -0.3289 -0.5562
 8756SOL    HW137901   3.526   2.848   4.124 -0.9445  0.6107 -0.3650
 8756SOL    HW237902   3.536   2.806   3.987  0.1976  1.4417 -0.3927
 8757SOL     OW37903   1.797   0.491  11.212  0.1257  0.3049 -0.1901
 8757SOL    HW137904   1.823   0.583  11.219 -0.8647  0.6052 -0.3523
 8757SOL    HW237905   1.876   0.451  11.177  1.0074  0.1318  1.9940
 8758SOL     OW37906   2.545   0.736   8.387  0.3433 -0.0056 -0.3520
 8758SOL    HW137907   2.452   0.740   8.362  1.3278 -1.6781 -4.4453
 8758SOL    HW237908   2.586   0.708   8.305  0.4239  2.0478 -1.0131
 8759SOL     OW37909   4.112   1.595  12.541  0.0006  0.0136 -0.5659
 8759SOL    HW137910   4.193   1.578  12.493  1.0233  0.3569  1.0161
 8759SOL    HW237911   4.145   1.596  12.631 -1.3026  1.9105 -0.1067
 8760SOL     OW37912   4.288   0.134  15.072  0.7277  0.2432  0.8895
 8760SOL    HW137913   4.209   0.185  15.055  0.1606 -0.8894  0.1154
 8760SOL    HW237914   4.251   0.051  15.041 -3.0299  1.6078  1.7914
 8761SOL     OW37915   2.659   4.119   3.773 -0.1660 -0.3276 -0.0841
 8761SOL    HW137916   2.579   4.153   3.813  0.6320  2.2616 -0.7292
 8761SOL    HW237917   2.640   4.134   3.680  0.0018 -0.5628 -0.1566
 8762SOL     OW37918   1.892   3.455   5.616  0.5898  0.0633  0.0075
 8762SOL    HW137919   1.815   3.400   5.633  2.3713 -2.1168  1.0959
 8762SOL    HW237920   1.850   3.541   5.613  0.7070  0.1238  0.1061
 8763SOL     OW37921   2.204   0.740  16.571 -0.2643  0.4858 -0.0012
 8763SOL    HW137922   2.174   0.735  16.480  1.2099  1.3968 -0.5348
 8763SOL    HW237923   2.185   0.655  16.610  1.0163 -0.2832 -1.0945
 8764SOL     OW37924   2.760   4.114   5.238  0.5000 -0.3685  0.2458
 8764SOL    HW137925   2.791   4.050   5.175 -1.5458  1.2576 -2.3968
 8764SOL    HW237926   2.673   4.124   5.200  0.8439 -1.4623 -0.8235
 8765SOL     OW37927   1.241   1.116   6.514  0.4454 -0.1111 -0.4486
 8765SOL    HW137928   1.254   1.177   6.441  1.9401  0.4132  0.2584
 8765SOL    HW237929   1.242   1.031   6.470 -2.7719 -0.4697  0.1621
 8766SOL     OW37930   1.926   0.078   5.893 -0.4598  0.5713 -0.6102
 8766SOL    HW137931   1.838   0.114   5.901  0.5651  2.6353  1.4365
 8766SOL    HW237932   1.966   0.154   5.850  0.5994 -0.1833 -0.9393
 8767SOL     OW37933   0.446   4.368   6.121  0.4677  0.3945 -0.4325
 8767SOL    HW137934   0.466   4.365   6.027  0.6003  0.0320 -0.3947
 8767SOL    HW237935   0.538   4.343   6.133 -0.7141 -3.2211  1.0153
 8768SOL     OW37936   3.224   3.453  17.293  0.4154  0.0580 -0.1257
 8768SOL    HW137937   3.278   3.475  17.369 -1.0086 -0.8153  1.1372
 8768SOL    HW237938   3.266   3.505  17.224 -1.2332  1.1279 -0.3064
 8769SOL     OW37939   1.450   3.096  14.700 -0.6595  0.2353  0.4359
 8769SOL    HW137940   1.472   3.050  14.782 -1.4465  3.3965  2.4079
 8769SOL    HW237941   1.375   3.143  14.738 -0.8354  0.6905 -0.4922
 8770SOL     OW37942   3.603   4.543  16.820  0.0701  0.4171 -0.1829
 8770SOL    HW137943   3.550   4.595  16.759  0.7977  3.5415  1.7832
 8770SOL    HW237944   3.555   4.563  16.901  0.2557  0.0266  0.0209
 8771SOL     OW37945   4.718   4.594  14.652  0.1041 -0.2643 -0.6242
 8771SOL    HW137946   0.066   4.600  14.612  0.3366 -2.8376 -0.4759
 8771SOL    HW237947   4.717   4.501  14.676  2.9182 -0.0692  0.3228
 8772SOL     OW37948   2.192   1.548   3.124 -0.1078 -0.0386 -0.0157
 8772SOL    HW137949   2.272   1.497   3.137  0.3153  0.7606  0.5351
 8772SOL    HW237950   2.170   1.588   3.208 -2.6493 -3.1629  0.7938
 8773SOL     OW37951   4.157   4.082   7.971  0.0541 -0.8614  0.3834
 8773SOL    HW137952   4.206   4.126   8.041  0.4485 -0.1435 -0.3354
 8773SOL    HW237953   4.204   4.111   7.893 -0.8216  1.5033  0.7171
 8774SOL     OW37954   4.305   4.069   4.817  0.4055 -0.3824  0.0940
 8774SOL    HW137955   4.288   4.163   4.818  0.2098 -0.4196  0.3306
 8774SOL    HW237956   4.216   4.034   4.817  0.1062  0.3865 -0.0523
 8775SOL     OW37957   3.728   4.415   5.482  0.4620  0.2350  0.0384
 8775SOL    HW137958   3.724   4.405   5.577  0.6158 -0.5675 -0.0414
 8775SOL    HW237959   3.717   4.327   5.446 -1.2348 -0.8613  3.2502
 8776SOL     OW37960   4.244   3.141   3.783 -0.0353  0.9781  0.0450
 8776SOL    HW137961   4.161   3.146   3.736  0.3637 -0.0334 -0.7546
 8776SOL    HW237962   4.225   3.195   3.861  0.6733  2.2336 -0.6456
 8777SOL     OW37963   3.012   2.462   5.960 -0.0695  0.5057 -0.0067
 8777SOL    HW137964   2.969   2.475   6.044  0.6534  0.3074  0.3910
 8777SOL    HW237965   3.049   2.374   5.968 -0.3223  0.4442  0.4723
 8778SOL     OW37966   2.192   4.148   9.045 -0.3393 -0.2176 -0.0248
 8778SOL    HW137967   2.243   4.141   9.126 -0.0600 -1.1171 -0.2874
 8778SOL    HW237968   2.192   4.243   9.032 -3.2436 -0.1439  0.3230
 8779SOL     OW37969   2.188   2.405   9.672  0.4074  0.1434  0.4072
 8779SOL    HW137970   2.093   2.407   9.678  0.3745 -1.9846  0.6683
 8779SOL    HW237971   2.217   2.339   9.735 -2.5150 -1.7656 -0.2204
 8780SOL     OW37972   1.201   3.401   8.366 -0.1403 -0.0589  0.0341
 8780SOL    HW137973   1.290   3.367   8.371 -1.3476 -2.9168  2.6580
 8780SOL    HW237974   1.214   3.434   8.278  0.4107 -0.5769 -0.0778
 8781SOL     OW37975   4.363   0.727   2.387 -0.3476  0.2682 -0.1510
 8781SOL    HW137976   4.401   0.795   2.331  2.5399  1.0863  2.7575
 8781SOL    HW237977   4.323   0.673   2.319  1.6024 -0.5268 -0.6738
 8782SOL     OW37978   3.109   2.919   1.954  0.2877 -0.3697  0.8242
 8782SOL    HW137979   3.147   2.970   2.026  0.4390 -1.0646  1.2382
 8782SOL    HW237980   3.044   2.875   2.009 -0.3462 -0.4060  0.0528
 8783SOL     OW37981   0.467   2.722   7.540 -0.3474  0.1681 -0.0081
 8783SOL    HW137982   0.560   2.716   7.565 -0.4855 -0.7312  0.2647
 8783SOL    HW237983   0.434   2.785   7.604 -0.9205  0.2435 -0.3732
 8784SOL     OW37984   2.914   4.596   0.193  0.1167  0.1107  0.0878
 8784SOL    HW137985   2.934   4.643   0.112  0.7981  1.1217  0.8407
 8784SOL    HW237986   2.972   4.522   0.173 -0.8030  0.1530 -2.7705
 8785SOL     OW37987   1.264   3.846  16.155  0.6891 -0.0593  0.7061
 8785SOL    HW137988   1.357   3.865  16.163  0.6544  0.0135  0.9405
 8785SOL    HW237989   1.224   3.933  16.144 -0.0589 -0.2558  1.9965
 8786SOL     OW37990   2.753   2.777   2.694  0.7273  0.7036  0.5513
 8786SOL    HW137991   2.804   2.696   2.693  1.1587  0.9809  0.3070
 8786SOL    HW237992   2.663   2.744   2.690  1.2977 -0.7619 -0.3605
 8787SOL     OW37993   3.178   2.378  15.642  0.1084  0.5071  0.3644
 8787SOL    HW137994   3.182   2.283  15.628 -0.5395  0.5694 -0.2041
 8787SOL    HW237995   3.086   2.399  15.656 -0.0627 -0.8300  1.2627
 8788SOL     OW37996   4.567   4.025   3.258  0.2726  0.9155 -0.3260
 8788SOL    HW137997   4.595   4.056   3.344 -1.9714  1.3188  0.2606
 8788SOL    HW237998   4.542   3.935   3.275 -0.8416  1.4909  1.0385
 8789SOL     OW37999   3.856   3.699  13.131  0.7830  0.0871  0.0204
 8789SOL    HW138000   3.863   3.793  13.149  0.4581 -0.0162  0.6353
 8789SOL    HW238001   3.882   3.697  13.038  0.9583 -1.4813  0.0935
 8790SOL     OW38002   0.698   4.530   9.290  0.6908 -0.0295  0.7729
 8790SOL    HW138003   0.719   4.448   9.246 -1.6976  1.2134 -2.6652
 8790SOL    HW238004   0.756   4.590   9.243 -0.3427  0.4213  0.0672
 8791SOL     OW38005   1.785   2.340   6.026  0.1738 -0.2337 -0.1587
 8791SOL    HW138006   1.747   2.323   5.940 -1.5865 -0.9129  0.7492
 8791SOL    HW238007   1.812   2.252   6.053 -1.6915 -0.6957  0.1996
 8792SOL     OW38008   2.181   1.419   6.396  0.3550  0.5414  0.2939
 8792SOL    HW138009   2.179   1.514   6.400  1.3949  0.5340  1.0408
 8792SOL    HW238010   2.276   1.409   6.387  0.4034  0.0441  1.4100
 8793SOL     OW38011   2.902   4.357   4.633 -0.4987 -0.2542 -0.0551
 8793SOL    HW138012   2.929   4.347   4.541 -1.6842 -1.1242 -0.3087
 8793SOL    HW238013   2.810   4.331   4.633 -0.4838 -0.1888  4.7265
 8794SOL     OW38014   1.686   4.335   3.248 -0.0266 -0.0586  0.0361
 8794SOL    HW138015   1.767   4.381   3.272  1.0776 -1.3641 -1.2027
 8794SOL    HW238016   1.683   4.350   3.154  0.2579 -3.0344 -0.4483
 8795SOL     OW38017   1.216   2.740   0.382 -0.0095  0.0717  0.1313
 8795SOL    HW138018   1.267   2.705   0.309  2.1106  1.7187  0.8506
 8795SOL    HW238019   1.278   2.734   0.455 -0.6895  2.2725  0.8881
 8796SOL     OW38020   1.090   2.677  13.072 -0.3945  0.6783 -0.4543
 8796SOL    HW138021   1.015   2.656  13.017 -0.5691  0.4283 -0.1190
 8796SOL    HW238022   1.161   2.626  13.033  0.8938  1.6709  0.5902
 8797SOL     OW38023   2.980   3.930   5.710 -0.4875  0.4049 -0.5597
 8797SOL    HW138024   3.045   3.970   5.652 -0.6527 -0.7777 -1.5389
 8797SOL    HW238025   2.962   4.006   5.766  1.2162 -0.1821  0.8016
 8798SOL     OW38026   1.658   4.250   1.742  0.3264 -0.3746 -0.4433
 8798SOL    HW138027   1.708   4.169   1.748  1.8372  0.6061  0.1106
 8798SOL    HW238028   1.706   4.297   1.674 -0.0855 -0.4847 -0.8102
 8799SOL     OW38029   4.439   2.630   6.736 -0.1619 -0.0925 -0.4021
 8799SOL    HW138030   4.483   2.555   6.696 -3.5734 -0.8889 -2.6280
 8799SOL    HW238031   4.513   2.682   6.767  0.4719 -1.8256  0.9916
 8800SOL     OW38032   1.222   0.147   6.159 -0.1919 -0.4945  0.1108
 8800SOL    HW138033   1.206   0.190   6.075  0.3343  1.9479  1.2870
 8800SOL    HW238034   1.169   0.205   6.212  0.8624  0.5020  0.0702
 8801SOL     OW38035   3.282   4.571  17.745  0.4332  0.7931  0.5679
 8801SOL    HW138036   3.216   4.623   0.038 -1.9336 -1.4120 -0.3942
 8801SOL    HW238037   3.233   4.520  17.681  0.6046  2.4826 -0.8975
 8802SOL     OW38038   1.327   1.670   2.897  0.3439  0.2287  0.2764
 8802SOL    HW138039   1.310   1.677   2.991 -1.7349  1.2442 -0.1560
 8802SOL    HW238040   1.334   1.575   2.890 -2.3093  0.0316  0.0268
 8803SOL     OW38041   0.796   4.116   2.655 -0.4569 -0.3043  0.0946
 8803SOL    HW138042   0.733   4.090   2.587  0.0849 -0.2381 -0.4408
 8803SOL    HW238043   0.821   4.036   2.700  0.9995  0.0800 -0.0224
 8804SOL     OW38044   0.058   2.300   0.456 -0.2011  0.1378 -0.2281
 8804SOL    HW138045   0.027   2.388   0.435 -0.7652 -0.6958 -2.9169
 8804SOL    HW238046   0.058   2.289   0.551 -0.0122 -0.1107 -0.2563
 8805SOL     OW38047   4.494   0.584   8.641 -0.7636  0.0999  0.4300
 8805SOL    HW138048   4.408   0.624   8.625 -0.6073  0.4041  0.3473
 8805SOL    HW238049   4.544   0.654   8.599 -2.9477  1.4041 -0.0292
 8806SOL     OW38050   0.053   0.930   9.958 -0.0938  0.3016  0.3119
 8806SOL    HW138051   0.133   0.929  10.010 -0.5073  0.7744  0.9541
 8806SOL    HW238052   4.731   0.940  10.031  0.0918  0.9252  0.3779
 8807SOL     OW38053   1.952   1.015  13.946  0.7058  0.1967  0.1820
 8807SOL    HW138054   2.007   0.990  13.872 -1.0976  0.7272 -1.3448
 8807SOL    HW238055   1.918   0.931  13.974  0.9449 -0.3192 -1.0743
 8808SOL     OW38056   0.734   4.222  10.511 -0.7686  0.6062  0.1777
 8808SOL    HW138057   0.678   4.175  10.574 -0.5994  0.4777  0.2310
 8808SOL    HW238058   0.815   4.173  10.525 -1.7358 -0.7206  1.1462
 8809SOL     OW38059   1.082   4.676   5.090 -0.5812  0.0174  0.3686
 8809SOL    HW138060   1.042   4.621   5.023 -0.3823  0.9846 -0.5330
 8809SOL    HW238061   1.078   0.027   5.056 -0.2235 -0.1642 -0.1368
 8810SOL     OW38062   3.516   2.034  16.971 -0.1204 -0.1585 -0.1504
 8810SOL    HW138063   3.548   2.041  16.881 -0.2465 -1.2548 -0.2780
 8810SOL    HW238064   3.458   1.958  16.970  0.9182 -0.9456 -0.1608
 8811SOL     OW38065   0.389   1.161   0.090  0.1098 -0.3038  0.4917
 8811SOL    HW138066   0.324   1.199   0.030 -0.4018  0.1802  1.3606
 8811SOL    HW238067   0.446   1.236   0.107  0.8527 -0.6355 -0.5395
 8812SOL     OW38068   1.479   3.858  12.500 -0.0793  0.2101 -0.0950
 8812SOL    HW138069   1.563   3.900  12.521 -0.4111 -0.5962  2.9009
 8812SOL    HW238070   1.454   3.834  12.590 -2.6181 -1.9476 -1.3761
 8813SOL     OW38071   3.825   2.322   1.779 -0.2791 -0.9099 -0.0912
 8813SOL    HW138072   3.823   2.382   1.704  0.1829 -3.0230 -1.7986
 8813SOL    HW238073   3.744   2.340   1.825  0.6656 -0.2240  1.3073
 8814SOL     OW38074   2.316   3.104  15.221  0.3647  0.4128 -0.0194
 8814SOL    HW138075   2.236   3.158  15.221 -0.1963 -0.4159 -0.9479
 8814SOL    HW238076   2.280   3.024  15.257  2.4237  0.9697  3.2072
 8815SOL     OW38077   0.915   4.254   5.387 -0.0866  0.4009  0.1069
 8815SOL    HW138078   0.957   4.216   5.309 -0.3530 -0.1027  0.2076
 8815SOL    HW238079   0.836   4.289   5.346  0.0571  2.2845  1.4373
 8816SOL     OW38080   1.716   2.944   6.477  0.2037  0.6891 -0.6736
 8816SOL    HW138081   1.709   2.870   6.417 -2.0147  1.3532 -1.2250
 8816SOL    HW238082   1.643   2.924   6.535  1.0217  2.7487  1.0844
 8817SOL     OW38083   4.002   0.429   6.288 -0.6090 -0.1204  0.2427
 8817SOL    HW138084   3.943   0.405   6.217 -0.4561 -0.2484  0.1575
 8817SOL    HW238085   3.985   0.521   6.306 -1.4513  0.0509 -1.4059
 8818SOL     OW38086   4.377   1.767   8.266 -0.5764  0.1570 -0.1820
 8818SOL    HW138087   4.351   1.852   8.229  0.6203  0.4815 -0.2733
 8818SOL    HW238088   4.385   1.798   8.356 -0.2998  2.7374 -1.1001
 8819SOL     OW38089   1.807   0.562  15.502 -0.1483 -0.1022 -0.5753
 8819SOL    HW138090   1.756   0.485  15.474  1.0355 -0.6314 -1.2843
 8819SOL    HW238091   1.835   0.605  15.422  1.0215  0.5577  0.1926
 8820SOL     OW38092   2.587   3.367   2.679  0.3145  0.1944 -0.0032
 8820SOL    HW138093   2.646   3.326   2.741 -0.9209 -1.0421  0.3642
 8820SOL    HW238094   2.515   3.374   2.742 -1.8642 -3.2717 -2.1063
 8821SOL     OW38095   2.575   1.767   5.413 -0.5464  0.2174  0.0780
 8821SOL    HW138096   2.515   1.706   5.370 -1.6881  0.4332  1.3869
 8821SOL    HW238097   2.520   1.845   5.414 -0.9367 -0.0853  1.3014
 8822SOL     OW38098   1.775   4.162  12.283  0.3797  0.8193  0.3660
 8822SOL    HW138099   1.848   4.189  12.338  0.2092  1.0568  0.4754
 8822SOL    HW238100   1.725   4.244  12.276  1.7218  1.5136 -1.1334
 8823SOL     OW38101   0.187   1.336  17.739 -0.3981 -0.0162 -0.3785
 8823SOL    HW138102   0.210   1.429  17.737  1.5695 -0.5215 -1.7755
 8823SOL    HW238103   0.120   1.335   0.054  0.2072 -1.3936  0.1939
 8824SOL     OW38104   4.523   3.181   4.182  0.6487  0.2480 -0.1262
 8824SOL    HW138105   4.618   3.189   4.177  0.6007 -0.0972 -1.6239
 8824SOL    HW238106   4.512   3.113   4.248  0.5685 -0.7144 -1.1345
 8825SOL     OW38107   2.377   1.835   4.377 -0.5363  0.2341 -0.1660
 8825SOL    HW138108   2.455   1.779   4.387 -1.4754 -0.7991  1.3331
 8825SOL    HW238109   2.429   1.915   4.390 -1.8548  1.2792 -1.3471
 8826SOL     OW38110   1.838   4.134   8.693 -0.5371  0.3220 -0.7017
 8826SOL    HW138111   1.911   4.084   8.729  0.4933  0.9250 -1.9994
 8826SOL    HW238112   1.764   4.085   8.730 -0.8939  1.4013  0.0029
 8827SOL     OW38113   1.829   4.048  12.776  0.3384 -0.0084  0.5057
 8827SOL    HW138114   1.736   4.072  12.778  0.6247  0.9738  1.5554
 8827SOL    HW238115   1.844   4.020  12.866  3.7081  1.5351  0.4193
 8828SOL     OW38116   1.817   2.500  16.525  0.1595  0.3815  0.2186
 8828SOL    HW138117   1.732   2.525  16.489 -0.8000 -2.7014  0.3586
 8828SOL    HW238118   1.877   2.537  16.460 -1.7540  0.7648 -1.3491
 8829SOL     OW38119   1.648   4.592   4.449  0.1657 -0.0038  0.0099
 8829SOL    HW138120   1.614   4.594   4.359  0.8069 -3.7630 -0.2860
 8829SOL    HW238121   1.709   4.665   4.442  0.7075 -0.5991 -1.6413
 8830SOL     OW38122   2.328   4.216   4.876  0.3289  0.0006 -0.3171
 8830SOL    HW138123   2.282   4.217   4.960  0.2019 -0.0248 -0.3868
 8830SOL    HW238124   2.417   4.192   4.901  0.1005 -3.4493 -2.9259
 8831SOL     OW38125   1.215   0.713   6.180  0.0511  0.1933  0.1796
 8831SOL    HW138126   1.202   0.656   6.104 -2.3343 -0.6699  1.2695
 8831SOL    HW238127   1.306   0.743   6.168  0.1848 -0.2093  0.2070
 8832SOL     OW38128   2.085   4.144   7.534 -0.1488 -0.0664 -0.2290
 8832SOL    HW138129   2.166   4.103   7.503  0.4439 -0.4008  1.7494
 8832SOL    HW238130   2.023   4.075   7.512 -0.2530  1.1749 -3.8202
 8833SOL     OW38131   2.717   4.706   1.908  0.4252 -0.3972 -0.4465
 8833SOL    HW138132   2.691   4.616   1.887 -0.5249 -0.1001 -0.5562
 8833SOL    HW238133   2.802   4.706   1.865  0.6016 -0.2922 -0.0923
 8834SOL     OW38134   1.407   0.088   3.042 -0.6899 -0.7162 -0.5832
 8834SOL    HW138135   1.491   0.075   3.086 -0.9381  0.6672  0.3103
 8834SOL    HW238136   1.425   0.173   3.002  0.0027 -1.0820 -1.0657
 8835SOL     OW38137   0.660   1.123  13.847  0.0220 -0.1776  0.5260
 8835SOL    HW138138   0.635   1.159  13.932  1.7130  2.4769 -0.1020
 8835SOL    HW238139   0.706   1.043  13.871  1.2216 -0.5407 -3.0456
 8836SOL     OW38140   3.669   3.363   6.462 -0.5239  0.2925 -0.0455
 8836SOL    HW138141   3.681   3.450   6.500  2.2725  0.6097 -1.6897
 8836SOL    HW238142   3.662   3.313   6.543  2.0241  0.3313  0.1964
 8837SOL     OW38143   3.912   0.425   4.818 -0.1895 -0.6650  0.2456
 8837SOL    HW138144   3.817   0.436   4.814 -0.2580 -1.6231 -0.6196
 8837SOL    HW238145   3.923   0.371   4.897 -0.3931 -0.4406  0.4266
 8838SOL     OW38146   0.058   4.123   6.624  0.0791  0.0724 -0.2515
 8838SOL    HW138147   0.089   4.170   6.701 -0.4923  2.6969 -1.6125
 8838SOL    HW238148   0.139   4.077   6.602  0.0858 -0.4075  0.8044
 8839SOL     OW38149   0.772   3.999   8.493  0.4164  0.3548  0.0164
 8839SOL    HW138150   0.720   3.930   8.451  1.0482 -0.1961  0.1454
 8839SOL    HW238151   0.710   4.072   8.496  0.0243  0.0781 -1.1372
 8840SOL     OW38152   2.960   0.764  17.091  0.0487 -0.0172  0.5974
 8840SOL    HW138153   3.020   0.720  17.031 -0.7159 -2.3065  1.5491
 8840SOL    HW238154   3.009   0.843  17.115 -2.0591  1.6837 -0.6029
 8841SOL     OW38155   4.056   2.615   7.300  1.1998 -0.5369  0.4209
 8841SOL    HW138156   4.111   2.675   7.351  0.4230 -0.7446  1.4894
 8841SOL    HW238157   3.989   2.668   7.258 -0.0898 -2.4776  0.0626
 8842SOL     OW38158   0.487   1.956  13.742 -0.2391 -0.2454 -0.1029
 8842SOL    HW138159   0.468   2.011  13.818  1.2031  2.7929 -1.9452
 8842SOL    HW238160   0.561   1.901  13.771  0.5470  1.6808  1.5599
 8843SOL     OW38161   2.420   3.203   5.545 -0.1043 -0.1589 -0.2215
 8843SOL    HW138162   2.359   3.164   5.607 -0.1458  0.4810  0.1405
 8843SOL    HW238163   2.433   3.121   5.499  0.0263  0.5156 -1.3939
 8844SOL     OW38164   1.330   4.399   0.312  0.0821 -0.0422  0.2332
 8844SOL    HW138165   1.293   4.373   0.397 -1.1486 -1.3113 -0.7014
 8844SOL    HW238166   1.384   4.321   0.301  0.1166  0.1554 -0.9959
 8845SOL     OW38167   2.599   2.139   5.465  0.2929  0.1398 -0.1620
 8845SOL    HW138168   2.579   2.231   5.483  1.3555  0.4565 -0.6011
 8845SOL    HW238169   2.674   2.115   5.519  0.1712  0.2274  0.0484
 8846SOL     OW38170   2.271   0.911   3.682 -0.0124 -0.2309 -0.3149
 8846SOL    HW138171   2.181   0.940   3.697  0.0440  0.0084 -0.4322
 8846SOL    HW238172   2.296   0.919   3.775  2.7361 -0.7058 -1.0155
 8847SOL     OW38173   3.220   1.677   7.921  1.1489  0.2991  0.2062
 8847SOL    HW138174   3.149   1.619   7.895 -0.1986  2.8013 -1.8009
 8847SOL    HW238175   3.192   1.707   8.008 -2.0341  0.5879 -0.9041
 8848SOL     OW38176   1.481   3.540  12.600  0.4565  0.4704 -0.6086
 8848SOL    HW138177   1.506   3.448  12.594 -2.6394 -0.3455 -0.9064
 8848SOL    HW238178   1.570   3.572  12.618  0.5193  0.1857 -0.4150
 8849SOL     OW38179   4.658   1.388   0.178  0.1769  0.2188  0.0720
 8849SOL    HW138180   4.602   1.315   0.201 -0.5143  0.0912 -2.0086
 8849SOL    HW238181   4.598   1.453   0.141  0.5466  0.1282 -0.6899
 8850SOL     OW38182   2.363   3.614   3.680 -0.0442  0.0049 -0.5457
 8850SOL    HW138183   2.428   3.649   3.742  0.7747 -2.8873  0.2340
 8850SOL    HW238184   2.277   3.633   3.719 -0.1351  1.1631 -1.3401
 8851SOL     OW38185   2.932   2.559   4.154  0.0946 -0.1995  0.1733
 8851SOL    HW138186   2.873   2.616   4.104  2.2278  0.7271 -1.2830
 8851SOL    HW238187   2.993   2.535   4.084  0.0595  4.0442 -1.3131
 8852SOL     OW38188   0.917   2.537   1.770 -0.5821  0.4966  0.1522
 8852SOL    HW138189   0.992   2.565   1.822  1.8561 -0.4795 -2.8111
 8852SOL    HW238190   0.929   2.584   1.687  0.2102 -1.4181 -0.8387
 8853SOL     OW38191   2.412   3.565   7.335 -0.2447 -0.1697  0.0242
 8853SOL    HW138192   2.393   3.587   7.244 -2.1088  0.9700  0.6817
 8853SOL    HW238193   2.426   3.654   7.367 -0.5485  0.2029 -0.8845
 8854SOL     OW38194   0.882   2.015  16.616 -0.4358  0.0654  0.1832
 8854SOL    HW138195   0.956   2.048  16.668 -0.0169 -0.8280  0.1675
 8854SOL    HW238196   0.916   1.926  16.624  2.3106  1.1438  0.4917
 8855SOL     OW38197   3.036   2.483  10.784  0.5328 -0.7504  0.2217
 8855SOL    HW138198   2.953   2.449  10.818 -0.8183  2.0115 -0.3221
 8855SOL    HW238199   3.084   2.402  10.763 -0.1960 -0.6497 -1.8436
 8856SOL     OW38200   2.292   4.404   7.596 -0.2299 -0.6607  0.0451
 8856SOL    HW138201   2.308   4.376   7.505 -2.8280 -3.6212  0.4849
 8856SOL    HW238202   2.201   4.378   7.614  0.0052 -1.3306  0.2611
 8857SOL     OW38203   2.853   3.578  14.929 -0.9151 -0.3521 -0.5736
 8857SOL    HW138204   2.887   3.662  14.959  0.1202 -0.8980 -0.2197
 8857SOL    HW238205   2.867   3.528  15.009  0.7196 -1.9091 -1.8283
 8858SOL     OW38206   4.052   2.048  12.722 -0.7775  0.0968  0.3296
 8858SOL    HW138207   4.142   2.080  12.731 -0.4155 -0.2720 -2.0433
 8858SOL    HW238208   4.007   2.108  12.663 -1.3648 -1.1361 -0.4667
 8859SOL     OW38209   4.708   4.623   4.454  0.2575  0.2632 -0.4470
 8859SOL    HW138210   4.634   4.682   4.443  0.7039  0.8766 -0.2250
 8859SOL    HW238211   4.717   4.620   4.550  0.1330 -1.3115 -0.4892
 8860SOL     OW38212   0.399   0.717   4.323 -0.2153 -0.7673  0.4238
 8860SOL    HW138213   0.345   0.689   4.396 -1.2941  1.0762  0.3532
 8860SOL    HW238214   0.332   0.772   4.282  0.0731 -1.4100 -0.9112
 8861SOL     OW38215   0.666   1.165   6.213  0.1758 -0.2266 -0.3107
 8861SOL    HW138216   0.659   1.079   6.254 -0.8354  0.9598  1.9570
 8861SOL    HW238217   0.669   1.229   6.284 -2.6917  1.5299 -1.7860
 8862SOL     OW38218   2.485   4.156   1.064 -0.3565 -1.0552  0.6902
 8862SOL    HW138219   2.394   4.131   1.049 -0.0576 -1.5617 -0.2954
 8862SOL    HW238220   2.529   4.071   1.072  0.8593 -0.5631 -0.6817
 8863SOL     OW38221   3.859   2.785   7.172  0.0965 -0.5211 -0.2168
 8863SOL    HW138222   3.838   2.791   7.079  0.0110 -0.7366 -0.2119
 8863SOL    HW238223   3.868   2.877   7.196 -0.5286 -0.3757 -0.5501
 8864SOL     OW38224   2.965   0.156   7.513  0.1373  0.0925 -0.3566
 8864SOL    HW138225   2.907   0.098   7.464 -0.3792 -0.0225  0.3872
 8864SOL    HW238226   2.898   0.215   7.547  2.6809  2.7956 -0.0649
 8865SOL     OW38227   2.312   0.622   2.478 -0.3527 -0.3151  0.5667
 8865SOL    HW138228   2.286   0.678   2.551 -0.6172  0.5412 -0.1909
 8865SOL    HW238229   2.234   0.626   2.424 -0.1501  1.4927  0.4314
 8866SOL     OW38230   1.233   3.021  14.905 -0.0369  0.1628 -0.2368
 8866SOL    HW138231   1.193   2.943  14.866 -1.5553  0.1835  1.2900
 8866SOL    HW238232   1.158   3.080  14.915  1.8727  2.4530  0.5125
 8867SOL     OW38233   4.346   0.392   4.655 -0.1758  0.8174  0.5035
 8867SOL    HW138234   4.291   0.344   4.718  0.6364  1.0963  1.4271
 8867SOL    HW238235   4.323   0.470   4.704 -1.7455  0.5489  0.2064
 8868SOL     OW38236   2.770   3.446  10.231  0.3515  0.0733  0.3522
 8868SOL    HW138237   2.824   3.512  10.276  0.3784 -0.0040  0.4322
 8868SOL    HW238238   2.828   3.436  10.156  3.4794  0.1117  2.7745
 8869SOL     OW38239   4.446   0.345   3.575  0.1375  0.2342 -0.3827
 8869SOL    HW138240   4.437   0.251   3.557 -2.7520  0.2699  0.9934
 8869SOL    HW238241   4.387   0.382   3.509 -1.9543 -1.1524  0.7347
 8870SOL     OW38242   2.573   2.619   7.084  0.2248  0.1431  0.2238
 8870SOL    HW138243   2.522   2.612   7.164 -1.5293 -0.3992 -0.9378
 8870SOL    HW238244   2.664   2.590   7.095 -0.2585 -1.3606  0.3314
 8871SOL     OW38245   1.805   0.452   3.514 -0.6586  0.4582  0.3104
 8871SOL    HW138246   1.865   0.378   3.505 -1.1512 -0.1998  2.4458
 8871SOL    HW238247   1.837   0.507   3.586  0.6486  0.9418 -0.6353
 8872SOL     OW38248   1.633   1.335   9.808 -0.0971 -0.4847  0.2494
 8872SOL    HW138249   1.601   1.281   9.736  0.1799  1.4010 -1.2916
 8872SOL    HW238250   1.715   1.363   9.766  0.2156 -2.0012 -0.1368
 8873SOL     OW38251   0.324   0.286   7.021  0.2335  0.3816  0.2590
 8873SOL    HW138252   0.391   0.352   7.005 -0.0244  0.7371  0.6622
 8873SOL    HW238253   0.267   0.322   7.089 -1.7420 -0.6659 -0.8484
 8874SOL     OW38254   1.431   2.136   3.907 -0.2016  0.3885 -0.1183
 8874SOL    HW138255   1.446   2.172   3.994 -0.8951  0.7930 -0.1668
 8874SOL    HW238256   1.394   2.052   3.934  0.7567  0.4471  1.4180
 8875SOL     OW38257   3.172   4.250   7.472 -0.1357 -0.5505 -0.2502
 8875SOL    HW138258   3.089   4.208   7.454 -0.2122 -0.6541  0.3284
 8875SOL    HW238259   3.177   4.334   7.425  0.0432 -0.0042  0.7256
 8876SOL     OW38260   4.345   2.277   3.078 -0.2524  0.0449 -0.4748
 8876SOL    HW138261   4.271   2.224   3.108 -0.7312  2.3031  2.3407
 8876SOL    HW238262   4.373   2.321   3.157 -3.4841  2.1196 -0.4986
 8877SOL     OW38263   1.892   3.520   7.449  0.5515 -0.7123  0.2385
 8877SOL    HW138264   1.876   3.602   7.401  0.4339 -1.0705 -0.3357
 8877SOL    HW238265   1.957   3.550   7.513  0.3171  0.6403 -0.1480
 8878SOL     OW38266   0.916   0.065   2.886 -0.4565 -0.7772 -0.3161
 8878SOL    HW138267   0.941   4.721   2.845  0.5761 -1.1134  0.9994
 8878SOL    HW238268   0.907   0.044   2.979  3.8360  1.7833  0.6788
 8879SOL     OW38269   2.395   2.353   4.172  0.4893  0.1699  0.1460
 8879SOL    HW138270   2.444   2.287   4.122  1.9493  2.1466 -1.0057
 8879SOL    HW238271   2.312   2.304   4.179  0.1672  0.7073  0.0793
 8880SOL     OW38272   3.168   2.720  10.887  0.3899  0.1791  0.1894
 8880SOL    HW138273   3.183   2.735  10.794  1.7028  1.1489  0.5615
 8880SOL    HW238274   3.093   2.661  10.877  0.4611  0.1813 -0.3299
 8881SOL     OW38275   0.580   1.068   7.193  0.2223 -0.2146 -0.4980
 8881SOL    HW138276   0.621   1.154   7.191  0.8886 -0.5672 -1.8980
 8881SOL    HW238277   0.500   1.086   7.242 -1.2583 -1.6066 -2.3742
 8882SOL     OW38278   3.321   3.009   6.829  0.0017  0.1467 -0.0522
 8882SOL    HW138279   3.305   2.917   6.806  1.5506  0.2566 -1.6240
 8882SOL    HW238280   3.251   3.034   6.889 -2.1050 -0.7731 -2.1560
 8883SOL     OW38281   4.233   2.121  16.329  0.1468  0.0615  0.1436
 8883SOL    HW138282   4.168   2.130  16.259  0.4215  0.0956 -0.1093
 8883SOL    HW238283   4.248   2.207  16.366  1.0274  0.5910 -1.4423
 8884SOL     OW38284   4.057   1.557   9.679  0.2773  0.1225  0.3239
 8884SOL    HW138285   4.006   1.562   9.759  1.7859  2.0860  1.1547
 8884SOL    HW238286   4.133   1.516   9.720  1.3517  2.8074  0.9897
 8885SOL     OW38287   0.615   1.349   2.966 -1.0988  0.1377  0.3656
 8885SOL    HW138288   0.594   1.402   2.889 -0.2625 -0.0551  0.0057
 8885SOL    HW238289   0.671   1.287   2.920 -2.2585 -1.2358  0.8163
 8886SOL     OW38290   3.362   4.607   9.125  0.0702 -0.3409 -0.2068
 8886SOL    HW138291   3.301   4.631   9.056 -0.4921 -0.0618  0.3799
 8886SOL    HW238292   3.323   4.631   9.209  0.9568 -0.1217  0.1400
 8887SOL     OW38293   2.226   1.346  15.680 -0.0271 -0.0340  0.0878
 8887SOL    HW138294   2.250   1.439  15.673 -0.2148  0.0373  0.3640
 8887SOL    HW238295   2.174   1.338  15.760  1.2288  1.8745  1.1080
 8888SOL     OW38296   2.668   0.082   8.110 -0.6478 -0.3772 -0.0914
 8888SOL    HW138297   2.602   0.016   8.130  1.6213 -2.8520 -0.7917
 8888SOL    HW238298   2.695   0.065   8.020  1.5217  0.4634  0.4093
 8889SOL     OW38299   0.370   2.816   1.717 -0.0601 -0.1866 -0.2986
 8889SOL    HW138300   0.409   2.775   1.795 -0.9967  0.4451  0.5080
 8889SOL    HW238301   0.328   2.891   1.760 -0.2483 -0.9430  0.8320
 8890SOL     OW38302   0.983   1.877   6.335  0.2969 -0.0866  0.1187
 8890SOL    HW138303   1.070   1.863   6.372  0.3649  0.8776  0.3245
 8890SOL    HW238304   0.987   1.971   6.315  1.6766 -0.8556 -3.2343
 8891SOL     OW38305   2.859   3.983  16.336 -0.4238 -0.7064  0.1798
 8891SOL    HW138306   2.885   3.893  16.319 -0.2780 -0.4744 -0.8170
 8891SOL    HW238307   2.862   4.005  16.243 -0.2671  2.9350  1.0406
 8892SOL     OW38308   1.484   4.042   6.573 -0.3940  0.0986  0.1542
 8892SOL    HW138309   1.541   3.989   6.517 -2.1233 -1.7541  0.1349
 8892SOL    HW238310   1.433   3.974   6.618  2.1653 -1.1055  1.2531
 8893SOL     OW38311   1.704   0.069   4.965 -0.3744 -0.0049  0.4253
 8893SOL    HW138312   1.728   4.731   4.913 -2.1140  2.3473 -3.8250
 8893SOL    HW238313   1.771   0.129   4.932  0.1596 -1.5401 -1.2955
 8894SOL     OW38314   2.123   0.470  12.433  0.4352 -0.0145  0.2672
 8894SOL    HW138315   2.117   0.422  12.350  1.5619 -0.8155  0.6445
 8894SOL    HW238316   2.071   0.407  12.483 -1.3305  1.6639  0.5197
 8895SOL     OW38317   4.500   2.335   2.006 -0.2952  0.0026  0.0319
 8895SOL    HW138318   4.557   2.402   1.967  2.6152 -2.9791 -0.8568
 8895SOL    HW238319   4.532   2.312   2.093  1.0180 -0.1050 -0.4660
 8896SOL     OW38320   3.933   3.993   4.215  0.2423 -0.1457  0.2899
 8896SOL    HW138321   4.020   3.970   4.183  0.5582  0.7860  0.4743
 8896SOL    HW238322   3.874   3.940   4.162  0.1878 -0.5446  0.7419
 8897SOL     OW38323   4.736   2.559   5.409 -0.1717 -0.4544 -0.1420
 8897SOL    HW138324   0.060   2.488   5.392  0.1405 -0.1373 -0.3120
 8897SOL    HW238325   0.055   2.620   5.455  1.6252 -3.2438  1.3148
 8898SOL     OW38326   0.827   0.204   3.717  0.0336  0.2316  0.4506
 8898SOL    HW138327   0.749   0.149   3.729  0.5852 -0.4610  0.8891
 8898SOL    HW238328   0.795   0.282   3.673  0.7012  0.9560  1.2566
 8899SOL     OW38329   1.291   3.167   2.122  0.3598 -0.5806  0.5229
 8899SOL    HW138330   1.248   3.221   2.188  1.1323  3.2860 -2.1889
 8899SOL    HW238331   1.306   3.089   2.176  0.9377 -2.2112 -1.9565
 8900SOL     OW38332   0.234   1.993   1.836  0.5916  0.2323 -0.2733
 8900SOL    HW138333   0.220   2.076   1.880 -0.8188 -0.7195  1.0662
 8900SOL    HW238334   0.148   1.960   1.808 -0.6374  1.0135  2.6210
 8901SOL     OW38335   2.023   2.481   0.669 -0.1293 -0.4737  0.2681
 8901SOL    HW138336   1.961   2.529   0.724  1.1050  0.9585  0.3973
 8901SOL    HW238337   1.978   2.492   0.586  0.8498 -1.0142 -0.3352
 8902SOL     OW38338   2.243   1.071   5.099  0.0675  0.3599  0.3989
 8902SOL    HW138339   2.153   1.043   5.081  0.0186 -0.6626  2.1405
 8902SOL    HW238340   2.263   1.021   5.179 -1.1581  0.8012  0.9785
 8903SOL     OW38341   0.819   4.094   4.677 -0.2329 -0.0243  0.2812
 8903SOL    HW138342   0.739   4.131   4.639 -1.1873 -1.1070  1.2532
 8903SOL    HW238343   0.884   4.161   4.655  0.7827 -1.2879 -0.5695
 8904SOL     OW38344   0.831   1.855  14.745  0.0202 -0.7664 -1.0701
 8904SOL    HW138345   0.838   1.789  14.676  1.3537 -1.0386 -0.6758
 8904SOL    HW238346   0.915   1.900  14.737  0.2900 -0.7917  1.6594
 8905SOL     OW38347   3.644   3.672  12.390  0.1184 -0.1086  0.2511
 8905SOL    HW138348   3.636   3.718  12.306  1.1583  1.3025  0.9318
 8905SOL    HW238349   3.573   3.706  12.445  0.9008 -0.5627  1.5352
 8906SOL     OW38350   1.499   3.191   2.431  0.3618 -0.3131 -0.0768
 8906SOL    HW138351   1.581   3.217   2.389  0.2537  0.2712  0.0755
 8906SOL    HW238352   1.526   3.122   2.491  1.5720 -0.1854 -0.4908
 8907SOL     OW38353   1.584   1.926   1.401 -0.5113 -0.1349  0.1020
 8907SOL    HW138354   1.541   1.843   1.381 -1.6472 -0.2880  3.2218
 8907SOL    HW238355   1.650   1.916   1.333 -0.6573 -1.4297  0.1462
 8908SOL     OW38356   4.577   0.066   3.413 -0.4160 -0.1363 -0.1852
 8908SOL    HW138357   4.567   4.737   3.347  0.2790  1.1104 -1.5811
 8908SOL    HW238358   4.647   0.127   3.389  0.2906 -1.2197 -0.8426
 8909SOL     OW38359   3.897   3.836   7.574  0.0401  0.1334  0.0435
 8909SOL    HW138360   3.986   3.813   7.547  0.2398 -1.5923  2.2005
 8909SOL    HW238361   3.860   3.751   7.596  1.3822 -0.8316 -1.4003
 8910SOL     OW38362   1.862   1.205   4.163 -0.1392 -0.2226  0.0188
 8910SOL    HW138363   1.783   1.159   4.192  1.0806 -1.7407  0.9991
 8910SOL    HW238364   1.903   1.121   4.140 -0.6134 -1.2751  2.9250
 8911SOL     OW38365   3.807   3.868   9.436 -0.0779 -0.3579  0.4958
 8911SOL    HW138366   3.734   3.852   9.496  0.0845 -2.9116 -0.0102
 8911SOL    HW238367   3.790   3.813   9.360 -2.0474 -0.1663  0.7972
 8912SOL     OW38368   4.699   0.556   7.453  0.2153 -0.5642  0.1142
 8912SOL    HW138369   4.652   0.621   7.401 -1.5797 -3.8510 -2.3240
 8912SOL    HW238370   4.640   0.572   7.527  1.1907  0.5577  0.6585
 8913SOL     OW38371   2.476   3.374   4.417 -0.0004 -0.4984 -0.5559
 8913SOL    HW138372   2.384   3.363   4.394 -0.1538  0.3565 -0.3292
 8913SOL    HW238373   2.495   3.444   4.355  0.4045 -0.8599 -0.8498
 8914SOL     OW38374   3.095   0.672  12.066  0.2122 -0.6842  0.1173
 8914SOL    HW138375   3.151   0.597  12.049  0.0698 -0.5296 -1.0534
 8914SOL    HW238376   3.143   0.747  12.100 -1.1295 -0.0469  0.6372
 8915SOL     OW38377   1.334   0.751   2.912 -0.1112 -0.4005 -0.3422
 8915SOL    HW138378   1.269   0.803   2.864 -1.9672 -1.0371  1.4590
 8915SOL    HW238379   1.315   0.761   3.005  1.9579 -0.4296  0.0647
 8916SOL     OW38380   1.792   1.932   5.472 -0.5995  0.0347  0.1003
 8916SOL    HW138381   1.753   1.845   5.461  1.4925 -0.9779  0.6719
 8916SOL    HW238382   1.795   1.924   5.568  2.2191  4.1085  0.3267
 8917SOL     OW38383   1.549   3.336   7.044 -0.2312 -0.5738  0.3376
 8917SOL    HW138384   1.609   3.261   7.040  1.1062  0.3736  2.2881
 8917SOL    HW238385   1.537   3.358   6.952 -0.0248  1.6254  0.8440
 8918SOL     OW38386   2.848   3.957   3.870 -0.1236 -0.2096  0.0398
 8918SOL    HW138387   2.785   3.887   3.857  0.0227 -0.2707 -0.3320
 8918SOL    HW238388   2.794   4.028   3.837 -1.2689 -0.7379  0.7880
 8919SOL     OW38389   1.407   1.545   1.503  0.2454  0.1698 -0.3449
 8919SOL    HW138390   1.462   1.495   1.444  0.1999 -1.1908  0.7570
 8919SOL    HW238391   1.341   1.582   1.444  1.3009  0.3543 -1.4109
 8920SOL     OW38392   3.686   1.663   7.077  0.0653  0.4087  0.2149
 8920SOL    HW138393   3.676   1.688   6.985  1.8163 -1.8898 -0.5991
 8920SOL    HW238394   3.647   1.737   7.123 -1.0392  0.7233 -1.2264
 8921SOL     OW38395   3.049   2.474   1.647 -0.3875  0.6508 -0.3210
 8921SOL    HW138396   2.973   2.530   1.661  0.0286  1.3630 -0.9330
 8921SOL    HW238397   3.109   2.497   1.718 -1.6417  1.5473  0.4470
 8922SOL     OW38398   0.801   0.228   8.654  0.5189  0.1879  0.7238
 8922SOL    HW138399   0.756   0.172   8.590 -1.5694  2.5564  0.1084
 8922SOL    HW238400   0.766   0.202   8.739 -0.6490 -0.4443  0.0571
 8923SOL     OW38401   4.017   4.462   6.893  0.2679 -0.3933 -0.6426
 8923SOL    HW138402   3.936   4.511   6.880  0.0945 -0.1958  1.1800
 8923SOL    HW238403   4.010   4.426   6.982  0.7790 -0.5050 -0.6456
 8924SOL     OW38404   3.414   2.307   5.407 -0.1369 -0.0951 -0.0112
 8924SOL    HW138405   3.398   2.400   5.427 -1.2767 -0.3144  0.0507
 8924SOL    HW238406   3.509   2.299   5.396 -0.2182 -1.6903  0.5021
 8925SOL     OW38407   2.147   2.082   4.340  0.2782  0.1572 -0.1678
 8925SOL    HW138408   2.206   2.028   4.287 -0.1787 -0.3065 -0.2060
 8925SOL    HW238409   2.124   2.153   4.280 -1.6595 -0.4983 -0.2012
 8926SOL     OW38410   0.004   0.638  14.769  0.0230 -0.3575 -0.4544
 8926SOL    HW138411   0.001   0.638  14.674 -1.1083  0.6096 -0.4181
 8926SOL    HW238412   0.061   0.712  14.790  0.1673 -0.4471 -0.5280
 8927SOL     OW38413   0.112   2.658  12.686 -0.2681  0.4271 -0.3072
 8927SOL    HW138414   0.060   2.601  12.630 -0.2508 -0.6132  0.7337
 8927SOL    HW238415   0.099   2.613  12.769 -0.4581 -1.3828 -1.3301
 8928SOL     OW38416   3.567   4.586   8.748  0.6344 -0.3626  0.6718
 8928SOL    HW138417   3.625   4.538   8.807  1.3094 -0.2291  0.1115
 8928SOL    HW238418   3.515   4.511   8.719  0.4083  0.3770 -0.8453
 8929SOL     OW38419   1.780   1.849   3.195  0.0014 -0.6091 -0.1569
 8929SOL    HW138420   1.739   1.775   3.240  0.0555  1.0175  2.5765
 8929SOL    HW238421   1.870   1.817   3.192  0.7096  1.2645  1.3174
 8930SOL     OW38422   2.038   1.080  12.566 -0.2303  0.0459 -0.0908
 8930SOL    HW138423   2.047   1.143  12.638 -1.9181  1.2260 -0.9004
 8930SOL    HW238424   1.977   1.120  12.504 -2.3022 -1.8676  0.7442
 8931SOL     OW38425   4.687   3.983   6.958  0.1395  0.3908  0.2866
 8931SOL    HW138426   4.683   3.976   6.863  0.5916 -1.7664  0.4109
 8931SOL    HW238427   4.730   4.065   6.981 -1.8278  1.4128  0.2667
 8932SOL     OW38428   2.278   4.546  14.394  0.2563  0.0546  0.0312
 8932SOL    HW138429   2.213   4.556  14.464 -0.5249 -0.8707 -0.5609
 8932SOL    HW238430   2.275   4.633  14.354 -0.3999  0.4124  0.8464
 8933SOL     OW38431   2.422   2.298  12.945 -0.0117 -0.1602  0.4643
 8933SOL    HW138432   2.426   2.251  13.029 -0.6760 -2.6807 -0.9169
 8933SOL    HW238433   2.512   2.328  12.935  0.1262 -0.6511  0.2617
 8934SOL     OW38434   4.068   0.180   3.614  0.1140  0.4131 -0.0478
 8934SOL    HW138435   4.043   0.090   3.594  1.3155 -0.0783  0.6431
 8934SOL    HW238436   4.163   0.188   3.609  0.0956 -0.3377 -1.6153
 8935SOL     OW38437   1.738   0.071   3.737 -0.2021  0.2688 -0.3384
 8935SOL    HW138438   1.764   0.150   3.783  0.3102 -0.1279  0.0455
 8935SOL    HW238439   1.700   0.104   3.655 -2.3312 -0.8336  0.1862
 8936SOL     OW38440   3.592   4.609   8.186 -0.4332 -0.0356 -0.0780
 8936SOL    HW138441   3.641   4.644   8.260 -0.7889 -1.3820  0.7996
 8936SOL    HW238442   3.550   4.533   8.227  1.3761  0.4512  2.7223
 8937SOL     OW38443   1.449   3.068   7.093 -0.0687 -0.1546  0.6256
 8937SOL    HW138444   1.384   2.998   7.086  1.2000 -1.4134  1.4053
 8937SOL    HW238445   1.442   3.115   7.009 -1.9114  2.2117  2.1087
 8938SOL     OW38446   3.683   4.161   5.413 -0.1296 -1.0031  0.6105
 8938SOL    HW138447   3.629   4.158   5.334 -1.3253 -0.9297  1.4303
 8938SOL    HW238448   3.756   4.107   5.384 -1.6284 -1.8641 -1.5514
 8939SOL     OW38449   1.583   4.226   9.028  0.2148 -0.1197  0.1994
 8939SOL    HW138450   1.671   4.252   9.055 -0.6146  0.7038  2.1745
 8939SOL    HW238451   1.612   4.139   9.000 -0.7956  0.0152 -1.2384
 8940SOL     OW38452   4.215   0.968   9.454 -0.7288 -0.1505  0.4730
 8940SOL    HW138453   4.158   1.024   9.508  0.7032  0.9183  0.8909
 8940SOL    HW238454   4.160   0.932   9.385 -0.1550 -1.0550  0.4907
 8941SOL     OW38455   3.721   1.723   3.556 -0.3278  1.0887 -0.1817
 8941SOL    HW138456   3.754   1.643   3.597  0.7743 -0.2005 -3.5954
 8941SOL    HW238457   3.686   1.777   3.627 -2.1626 -1.3002  0.7060
 8942SOL     OW38458   3.598   1.765   0.512  0.3735  0.3195  0.3366
 8942SOL    HW138459   3.681   1.762   0.561  1.7023  0.5502 -1.9202
 8942SOL    HW238460   3.618   1.688   0.460 -3.2618 -0.3002 -0.1125
 8943SOL     OW38461   0.343   4.695  12.619  0.3944 -0.5317 -0.1781
 8943SOL    HW138462   0.289   4.620  12.593  1.0213 -0.2483 -2.2679
 8943SOL    HW238463   0.299   0.028  12.573 -2.2738 -3.2502 -1.8690
 8944SOL     OW38464   1.358   2.787  15.499  0.2668  0.3972  0.5472
 8944SOL    HW138465   1.402   2.817  15.419  1.2457  0.8501  1.2381
 8944SOL    HW238466   1.309   2.864  15.529 -0.9929  0.3282 -1.3762
 8945SOL     OW38467   2.148   2.033   6.594  0.1120 -0.3466  0.1393
 8945SOL    HW138468   2.074   2.042   6.654 -0.4918 -1.5672 -0.4384
 8945SOL    HW238469   2.158   2.119   6.553 -0.0160 -0.5325 -0.2737
 8946SOL     OW38470   0.277   4.378  10.114  0.8464  0.0952 -0.0801
 8946SOL    HW138471   0.331   4.300  10.098  2.6750  1.6743 -1.5611
 8946SOL    HW238472   0.263   4.400  10.022  0.0012  0.8349  0.2330
 8947SOL     OW38473   1.722   0.860   7.056 -0.4905 -0.0045  0.2883
 8947SOL    HW138474   1.653   0.910   7.013 -1.2317  0.3499  1.9091
 8947SOL    HW238475   1.680   0.836   7.138 -0.3144 -1.6506 -0.0914
 8948SOL     OW38476   3.462   4.660   3.041 -0.1154  0.5279 -0.0357
 8948SOL    HW138477   3.406   4.626   2.972 -1.6595 -1.2406  2.0798
 8948SOL    HW238478   3.430   0.011   3.054  2.5417  1.6295 -1.1195
 8949SOL     OW38479   0.873   3.880   2.779  0.1533 -0.0677 -1.0387
 8949SOL    HW138480   0.813   3.856   2.849  0.0619 -2.0719 -1.8017
 8949SOL    HW238481   0.920   3.796   2.787 -0.8570 -0.5708 -0.4245
 8950SOL     OW38482   3.785   2.802   4.344  0.7830 -0.0649  0.0747
 8950SOL    HW138483   3.797   2.798   4.439  2.6983  2.4375 -0.0490
 8950SOL    HW238484   3.868   2.841   4.315  2.1922 -2.8756  0.3821
 8951SOL     OW38485   3.501   2.861  13.859  0.3297 -0.2562  0.1698
 8951SOL    HW138486   3.582   2.904  13.888 -0.3701  0.5500  0.9329
 8951SOL    HW238487   3.473   2.928  13.797  0.7313 -0.1807  0.0679
 8952SOL     OW38488   3.234   2.306   6.936  0.1489  0.5322  0.1927
 8952SOL    HW138489   3.217   2.272   7.024 -0.8369  0.7895  0.1019
 8952SOL    HW238490   3.239   2.227   6.884  0.9716 -0.2014  1.3850
 8953SOL     OW38491   4.026   2.811   7.665 -0.4570  0.3884 -0.2534
 8953SOL    HW138492   4.014   2.717   7.650  2.8100 -0.3951  1.9986
 8953SOL    HW238493   3.965   2.830   7.736  0.4978 -0.3820  0.7780
 8954SOL     OW38494   0.969   3.321   7.448 -0.4166 -0.0971 -0.0516
 8954SOL    HW138495   0.894   3.368   7.484  1.2889  2.5714  0.0687
 8954SOL    HW238496   1.022   3.375   7.390  0.0689 -0.0747  0.4106
 8955SOL     OW38497   1.259   1.683   7.079 -0.0422  0.2847 -0.0378
 8955SOL    HW138498   1.215   1.618   7.024 -0.0412 -1.1902  1.7021
 8955SOL    HW238499   1.207   1.761   7.065  0.7978  0.7899 -0.3143
 8956SOL     OW38500   3.156   0.895   3.289  0.0255 -0.1943 -0.1880
 8956SOL    HW138501   3.117   0.874   3.374  1.3775  2.7716  1.1703
 8956SOL    HW238502   3.077   0.920   3.242 -0.6417  1.3899  1.7749
 8957SOL     OW38503   3.504   0.621  12.027 -0.5099 -0.2358 -0.1676
 8957SOL    HW138504   3.489   0.531  11.999 -0.7376 -0.4587  0.6758
 8957SOL    HW238505   3.599   0.626  12.011 -0.3429 -1.0211  0.5684
 8958SOL     OW38506   3.443   0.124   8.211 -0.2021  0.5056  0.1715
 8958SOL    HW138507   3.520   0.135   8.154 -0.9327  0.3347 -0.8556
 8958SOL    HW238508   3.433   0.030   8.199  0.7298  0.8162 -3.0722
 8959SOL     OW38509   4.314   3.880   2.249 -0.1788  0.2847 -0.2687
 8959SOL    HW138510   4.235   3.930   2.269 -0.5820 -0.1381 -0.8196
 8959SOL    HW238511   4.292   3.837   2.167 -1.4258 -0.3990  0.4307
 8960SOL     OW38512   1.539   2.458   9.675  0.9634 -0.0172 -0.0446
 8960SOL    HW138513   1.510   2.550   9.679  1.5617  0.1395  0.8636
 8960SOL    HW238514   1.473   2.428   9.614 -1.1750 -1.7811  3.1367
 8961SOL     OW38515   4.446   1.946  16.365  0.3690 -0.1423 -0.1571
 8961SOL    HW138516   4.465   1.954  16.272 -0.8071 -0.8538 -0.4593
 8961SOL    HW238517   4.376   2.011  16.360  0.5538  0.0101 -0.7234
 8962SOL     OW38518   2.127   4.210   9.746 -0.0058 -0.1012  0.2425
 8962SOL    HW138519   2.222   4.203   9.746  0.1105  1.6038 -1.8533
 8962SOL    HW238520   2.103   4.234   9.836 -0.5029  2.5307 -0.5831
 8963SOL     OW38521   1.381   3.402   2.011 -0.1034 -0.6629  0.3445
 8963SOL    HW138522   1.341   3.320   2.040 -1.2948  0.1007  0.8644
 8963SOL    HW238523   1.470   3.377   1.989  1.0661  2.7539  1.0967
 8964SOL     OW38524   4.321   0.620  16.513 -0.6606  0.0904 -0.0735
 8964SOL    HW138525   4.384   0.662  16.454  1.1089  3.5257  4.1784
 8964SOL    HW238526   4.301   0.531  16.487 -1.1281  0.2882 -0.3913
 8965SOL     OW38527   4.397   0.557   7.279  0.4207  0.2096 -0.1750
 8965SOL    HW138528   4.365   0.536   7.367  1.8598 -0.2855  0.2350
 8965SOL    HW238529   4.426   0.469   7.257  0.1090 -0.3761  1.7266
 8966SOL     OW38530   1.240   2.880   7.077  0.2271 -0.3629  0.2517
 8966SOL    HW138531   1.158   2.924   7.099  0.1653 -1.0784  1.3914
 8966SOL    HW238532   1.208   2.812   7.018 -0.9373  0.5846 -0.2097
 8967SOL     OW38533   1.675   3.981   8.869 -0.0546  0.0989  0.2969
 8967SOL    HW138534   1.702   3.900   8.912 -1.6019 -0.4187  0.2845
 8967SOL    HW238535   1.582   3.976   8.845  0.8191  2.8658 -3.7567
 8968SOL     OW38536   2.702   4.103   4.427 -0.4087 -0.0424 -0.0318
 8968SOL    HW138537   2.690   4.172   4.492  1.1187 -1.2359  1.5334
 8968SOL    HW238538   2.792   4.072   4.430  0.0140  1.1083 -0.8532
 8969SOL     OW38539   2.714   1.355  11.232  0.4333  0.3252 -0.0440
 8969SOL    HW138540   2.734   1.269  11.269 -1.6919 -0.0760  0.1727
 8969SOL    HW238541   2.634   1.332  11.185 -0.7302  1.2055  1.4798
 8970SOL     OW38542   4.376   1.472   3.790  0.2368  0.8810 -0.4196
 8970SOL    HW138543   4.334   1.479   3.704 -1.3760 -2.0410  0.1329
 8970SOL    HW238544   4.322   1.534   3.840 -0.2528 -0.2057  0.4070
 8971SOL     OW38545   3.708   0.833  17.391  0.5680 -0.0083  0.8809
 8971SOL    HW138546   3.693   0.857  17.300 -1.0701 -3.1881  0.3304
 8971SOL    HW238547   3.622   0.799  17.412  1.2668 -2.6882 -0.6521
 8972SOL     OW38548   0.210   0.775   8.861 -0.4476  0.3851  0.2999
 8972SOL    HW138549   0.150   0.829   8.810 -1.3032 -0.6797  0.1719
 8972SOL    HW238550   0.153   0.740   8.929  4.1578 -1.7911  3.0266
 8973SOL     OW38551   1.451   1.122   2.453  0.7141 -0.0076 -0.0260
 8973SOL    HW138552   1.518   1.116   2.385  0.9947 -0.9762  0.3366
 8973SOL    HW238553   1.476   1.047   2.508 -0.5561 -0.8989 -0.6777
 8974SOL     OW38554   0.006   3.674   0.117 -0.9367 -0.8876 -0.1130
 8974SOL    HW138555   4.700   3.700   0.197  0.4634 -2.5484  1.2217
 8974SOL    HW238556   0.081   3.733   0.124 -0.2312 -1.7591 -0.1914
 8975SOL     OW38557   3.334   3.705   0.593 -0.3435  0.2694 -0.1187
 8975SOL    HW138558   3.353   3.799   0.599  0.9514  0.0215 -0.2563
 8975SOL    HW238559   3.241   3.716   0.575 -0.3211  0.7294  0.0362
 8976SOL     OW38560   4.123   3.741   7.440 -0.3329  0.5550  0.6843
 8976SOL    HW138561   4.104   3.650   7.462  1.7087  0.0998  0.5993
 8976SOL    HW238562   4.209   3.737   7.398 -1.4291  1.5058 -1.6046
 8977SOL     OW38563   2.487   4.637   8.168  0.5420  0.3178 -0.5580
 8977SOL    HW138564   2.505   4.576   8.240 -1.1181  2.3804  1.6037
 8977SOL    HW238565   2.514   4.589   8.090 -2.7667 -1.1115 -0.8288
 8978SOL     OW38566   2.051   1.287  16.930 -0.0914 -0.1375 -0.3673
 8978SOL    HW138567   2.041   1.371  16.975 -0.7149  0.7382 -2.1569
 8978SOL    HW238568   2.083   1.239  17.007  0.0648 -0.2756 -0.5212
 8979SOL     OW38569   2.917   2.989   9.613 -0.3304 -0.4197 -0.5023
 8979SOL    HW138570   2.839   3.030   9.650  0.1995  0.4857 -0.4049
 8979SOL    HW238571   2.954   3.070   9.581 -0.6410 -0.6816 -1.5395
 8980SOL     OW38572   3.334   3.608   5.699  0.1357 -0.2070 -0.3797
 8980SOL    HW138573   3.368   3.529   5.656  1.3856  1.9235 -3.3334
 8980SOL    HW238574   3.413   3.656   5.726 -0.1603 -0.7389  1.4495
 8981SOL     OW38575   1.946   0.297   9.116  0.3494 -0.5461  0.2627
 8981SOL    HW138576   1.913   0.223   9.064 -3.7594  0.9284  0.7836
 8981SOL    HW238577   2.041   0.288   9.120  0.3200 -1.5623 -1.3384
 8982SOL     OW38578   2.075   4.243  12.868 -0.1404  0.1687 -0.1368
 8982SOL    HW138579   2.043   4.325  12.908  1.0394 -0.7252  2.6030
 8982SOL    HW238580   1.989   4.201  12.867 -0.0559 -0.0615  2.6507
 8983SOL     OW38581   3.774   0.705  16.670  0.6669  0.2730  0.2982
 8983SOL    HW138582   3.826   0.771  16.716  0.0494 -0.4025  1.9836
 8983SOL    HW238583   3.762   0.737  16.581 -0.9880  0.9746  0.7917
 8984SOL     OW38584   3.149   4.056  10.322 -0.0032  0.4060 -0.3989
 8984SOL    HW138585   3.187   4.141  10.346 -1.6743  0.5446  1.8443
 8984SOL    HW238586   3.198   4.037  10.243  0.4084  2.2072 -0.5774
 8985SOL     OW38587   3.664   1.079   7.711 -0.4211 -0.3703 -0.1939
 8985SOL    HW138588   3.599   1.013   7.686 -0.7750 -0.7448  1.7615
 8985SOL    HW238589   3.702   1.101   7.626  2.1591 -0.3206  0.9771
 8986SOL     OW38590   3.575   2.175   1.423  0.5998 -0.0981 -0.2411
 8986SOL    HW138591   3.568   2.270   1.433  2.2832  0.0656 -0.5413
 8986SOL    HW238592   3.626   2.171   1.341 -1.5589  0.1465 -1.5813
 8987SOL     OW38593   2.329   3.803  15.963  0.1620  0.0693  0.0052
 8987SOL    HW138594   2.299   3.728  16.015  2.7053 -0.2891  0.9533
 8987SOL    HW238595   2.381   3.860  16.020  0.5261 -0.6272  0.3712
 8988SOL     OW38596   2.425   2.550   0.062  0.5357 -0.3452 -0.0698
 8988SOL    HW138597   2.430   2.614   0.133  0.4652 -0.5976  0.1673
 8988SOL    HW238598   2.500   2.565   0.005 -0.9028 -1.5558 -2.2980
 8989SOL     OW38599   0.541   2.390   0.343  0.0374  0.1471 -0.2290
 8989SOL    HW138600   0.479   2.318   0.333 -0.9599  0.8944  0.7403
 8989SOL    HW238601   0.534   2.412   0.435  1.6006 -1.4680  0.2761
 8990SOL     OW38602   2.260   3.360   2.054  0.5908 -0.1563 -0.3008
 8990SOL    HW138603   2.350   3.328   2.061  0.6952  0.5160  1.3038
 8990SOL    HW238604   2.253   3.405   2.138  1.0665 -0.5814 -0.0275
 8991SOL     OW38605   4.496   2.977   4.350  0.0726 -0.3716  0.1760
 8991SOL    HW138606   4.559   3.003   4.417 -2.5378  2.1867  1.6449
 8991SOL    HW238607   4.512   2.883   4.363 -1.2045 -0.3827  1.5518
 8992SOL     OW38608   3.342   1.503   6.046  0.4185  0.2469  0.0113
 8992SOL    HW138609   3.436   1.489   6.033  0.0148 -0.4505 -2.1288
 8992SOL    HW238610   3.312   1.416   6.021 -1.2250  0.3059  1.7567
 8993SOL     OW38611   0.656   2.686  17.401  0.2349 -0.4140  0.4916
 8993SOL    HW138612   0.744   2.706  17.369 -0.7127 -2.3562 -3.3898
 8993SOL    HW238613   0.601   2.709  17.326 -0.3221 -1.2522  0.6336
 8994SOL     OW38614   4.580   0.258   5.573  0.2181 -0.1424  0.0083
 8994SOL    HW138615   4.537   0.308   5.504  2.0849  0.7641 -0.5170
 8994SOL    HW238616   4.632   0.327   5.615 -0.4614  0.6919 -0.5263
 8995SOL     OW38617   0.934   3.097   9.121  0.6904  0.2708 -0.3467
 8995SOL    HW138618   0.949   3.150   9.044  0.7896  0.2529 -0.3405
 8995SOL    HW238619   0.937   3.012   9.077  0.9800  1.3275 -2.3739
 8996SOL     OW38620   2.637   3.569   9.981 -0.1310 -0.0179  0.2038
 8996SOL    HW138621   2.682   3.590   9.899  0.2900 -0.7631  0.2447
 8996SOL    HW238622   2.694   3.500  10.014  1.5857  1.1669 -0.3041
 8997SOL     OW38623   2.839   0.147  13.715  0.0180 -0.4569  0.2725
 8997SOL    HW138624   2.770   0.171  13.652 -0.3824 -2.2187  0.0199
 8997SOL    HW238625   2.806   0.070  13.762  1.8438 -2.1809 -1.2879
 8998SOL     OW38626   0.454   0.994   3.677  0.2557 -0.6796 -0.6616
 8998SOL    HW138627   0.433   1.079   3.637 -1.7623 -0.3681  1.0248
 8998SOL    HW238628   0.445   0.929   3.607 -0.9444  0.2195 -1.3470
 8999SOL     OW38629   3.426   3.333  10.877 -0.6996  1.0819 -0.3303
 8999SOL    HW138630   3.498   3.273  10.895 -1.9135  0.0569  1.1752
 8999SOL    HW238631   3.429   3.358  10.785 -0.9043 -2.0078 -1.1634
 9000SOL     OW38632   1.542   0.579   3.616  0.5936 -0.0661  0.6284
 9000SOL    HW138633   1.571   0.663   3.581 -1.4327  1.7457  3.3244
 9000SOL    HW238634   1.622   0.533   3.591  0.4196  0.3380 -0.6554
 9001SOL     OW38635   0.578   3.852   4.612 -0.2159  0.5310 -0.3520
 9001SOL    HW138636   0.538   3.816   4.691  2.0172  1.2057  1.0999
 9001SOL    HW238637   0.513   3.915   4.582 -0.4501 -0.1940 -1.3508
 9002SOL     OW38638   4.166   3.597   1.183 -0.0782 -0.1381  0.8934
 9002SOL    HW138639   4.079   3.608   1.222 -0.9883 -0.5663 -1.0158
 9002SOL    HW238640   4.142   3.592   1.090 -0.7215  1.2389  0.9980
 9003SOL     OW38641   0.385   0.731  11.893  0.2456  0.1725  0.0700
 9003SOL    HW138642   0.410   0.655  11.841 -0.3665  0.0720 -0.0845
 9003SOL    HW238643   0.387   0.800  11.826  2.6742 -1.4719 -1.5383
 9004SOL     OW38644   1.634   2.236   1.304 -0.2772  0.4111 -0.1178
 9004SOL    HW138645   1.637   2.144   1.330  0.2743  1.1299  2.4216
 9004SOL    HW238646   1.707   2.278   1.351 -2.1288  1.6294  1.7067
 9005SOL     OW38647   3.154   0.435   4.620  0.0024 -0.4688  0.1996
 9005SOL    HW138648   3.226   0.498   4.609  0.9014 -1.5409 -0.0857
 9005SOL    HW238649   3.204   0.355   4.635  0.8079 -0.2153 -1.1068
 9006SOL     OW38650   4.210   0.068   7.122  0.0121  0.3689 -0.4313
 9006SOL    HW138651   4.202   0.038   7.213 -1.5345  1.3646 -0.2350
 9006SOL    HW238652   4.125   0.043   7.084 -0.6822  0.3355  1.1104
 9007SOL     OW38653   2.530   3.363   6.003  0.0124  0.0466  0.3908
 9007SOL    HW138654   2.529   3.328   6.092  1.3018  0.7397  0.6661
 9007SOL    HW238655   2.623   3.381   5.993 -0.0086  0.4284  0.9029
 9008SOL     OW38656   3.311   4.244   6.417 -0.4839 -0.0167 -0.0643
 9008SOL    HW138657   3.235   4.193   6.387 -0.5454  0.7062 -1.1522
 9008SOL    HW238658   3.373   4.196   6.364 -0.8441  0.1989 -0.6815
 9009SOL     OW38659   4.345   2.111   8.368 -0.7233 -0.3965 -0.4501
 9009SOL    HW138660   4.367   2.070   8.285 -0.5900 -1.5815  0.1728
 9009SOL    HW238661   4.249   2.119   8.370 -0.6917 -0.4109  1.2609
 9010SOL     OW38662   3.267   2.507   4.465  0.0428 -0.2286  0.3378
 9010SOL    HW138663   3.271   2.474   4.555  1.1763  1.6359  0.9647
 9010SOL    HW238664   3.175   2.528   4.455 -0.0843 -0.8421  0.1979
 9011SOL     OW38665   0.733   1.698  12.057  0.6061 -0.7618  0.0041
 9011SOL    HW138666   0.761   1.752  12.132 -0.9980 -0.2212  0.2153
 9011SOL    HW238667   0.721   1.612  12.096 -0.8672 -0.5690 -0.0027
 9012SOL     OW38668   1.681   4.714  13.247 -0.4471  0.2197  0.1659
 9012SOL    HW138669   1.607   0.001  13.193 -1.2852 -1.4315  0.5390
 9012SOL    HW238670   1.656   4.625  13.271  2.9288 -0.6293  0.5773
 9013SOL     OW38671   4.096   1.637   8.028  0.6190 -0.0188  0.3382
 9013SOL    HW138672   4.094   1.566   8.093  3.3351  0.1087  0.5794
 9013SOL    HW238673   4.003   1.657   8.032  0.2338 -1.2122 -3.2584
 9014SOL     OW38674   3.938   2.341  17.337 -0.1752 -0.5090  0.2791
 9014SOL    HW138675   3.860   2.384  17.374 -0.7808 -1.4821  0.1175
 9014SOL    HW238676   3.990   2.407  17.290 -0.7654  0.0773  0.4301
 9015SOL     OW38677   2.186   0.930   5.884 -0.0131 -0.3659  0.0128
 9015SOL    HW138678   2.155   1.016   5.857  0.3812 -0.7471 -1.6238
 9015SOL    HW238679   2.281   0.937   5.879 -0.0412  1.6894  2.2055
 9016SOL     OW38680   0.073   0.129   6.217  0.2905  0.0583 -0.3374
 9016SOL    HW138681   0.162   0.114   6.249  0.1785 -0.0464 -0.0753
 9016SOL    HW238682   0.034   0.127   6.304 -1.4601  2.6336 -1.0651
 9017SOL     OW38683   3.319   1.685   2.812  0.6808 -0.5688 -0.4534
 9017SOL    HW138684   3.290   1.642   2.732  2.8641 -3.2028  0.2127
 9017SOL    HW238685   3.377   1.623   2.855  0.7903  0.6142  1.1265
 9018SOL     OW38686   2.565   4.679   2.151  0.2543 -0.5167  0.0382
 9018SOL    HW138687   2.619   4.722   2.085 -1.8586 -1.4024 -2.2652
 9018SOL    HW238688   2.501   0.007   2.175  0.1084  0.0198 -1.8309
 9019SOL     OW38689   3.626   0.327  11.691 -0.1371  0.2791  0.3042
 9019SOL    HW138690   3.635   0.248  11.744  1.7326 -1.1414 -2.1281
 9019SOL    HW238691   3.530   0.326  11.696 -0.1553  0.5070 -0.0206
 9020SOL     OW38692   2.792   3.555  13.396  0.2200  0.3487 -0.3547
 9020SOL    HW138693   2.817   3.472  13.355  0.4930 -0.1639  0.8424
 9020SOL    HW238694   2.825   3.541  13.485 -0.1289  0.4930 -0.2020
 9021SOL     OW38695   0.225   2.011  12.647  0.6070 -0.1949  0.8893
 9021SOL    HW138696   0.291   2.074  12.617  1.5310 -0.4045  2.5279
 9021SOL    HW238697   0.212   2.049  12.734 -0.8567  0.9911  0.1529
 9022SOL     OW38698   0.594   2.260   6.328  0.2832 -0.2086  0.0355
 9022SOL    HW138699   0.543   2.211   6.264  1.8308 -2.7674  0.7209
 9022SOL    HW238700   0.671   2.292   6.282  0.5227 -2.0661 -0.8744
 9023SOL     OW38701   2.852   0.823  12.087 -0.3433 -0.2295  0.4877
 9023SOL    HW138702   2.899   0.898  12.123 -0.7802  0.9070 -1.3525
 9023SOL    HW238703   2.916   0.751  12.089  1.3636  1.2219 -1.9635
 9024SOL     OW38704   3.902   4.581   8.245  0.1752  0.0940  0.1799
 9024SOL    HW138705   3.854   4.656   8.281 -0.9261 -0.1098 -0.8541
 9024SOL    HW238706   3.988   4.590   8.285  0.3269  3.2584 -0.7990
 9025SOL     OW38707   0.215   1.412   2.634  0.2439  0.3619 -0.0689
 9025SOL    HW138708   0.238   1.343   2.573  1.9687 -0.4088  1.4536
 9025SOL    HW238709   0.168   1.474   2.578 -1.1408 -2.0334 -1.5220
 9026SOL     OW38710   2.728   3.609   8.148  0.4693  0.2625  0.3466
 9026SOL    HW138711   2.771   3.557   8.216  1.1586 -1.3824 -1.3705
 9026SOL    HW238712   2.661   3.659   8.197 -1.0195 -0.7302 -0.6753
 9027SOL     OW38713   4.102   4.294   9.811 -1.1050  0.1382  0.0709
 9027SOL    HW138714   4.132   4.262   9.727  0.8016  0.1610  0.7492
 9027SOL    HW238715   4.155   4.248   9.876 -0.5969  0.2257 -0.2888
 9028SOL     OW38716   1.788   1.942   5.765  0.6621 -0.4520 -0.2838
 9028SOL    HW138717   1.835   2.013   5.808 -0.4419 -0.4699  0.9455
 9028SOL    HW238718   1.830   1.864   5.802  1.5586  0.6256  0.9791
 9029SOL     OW38719   1.263   1.527   9.145  0.4038  0.3467  0.5113
 9029SOL    HW138720   1.353   1.512   9.118 -1.1171 -1.0570 -3.9000
 9029SOL    HW238721   1.227   1.441   9.121  0.1658  0.9665 -1.3444
 9030SOL     OW38722   4.666   3.038   4.557  0.0856  0.7023 -0.4455
 9030SOL    HW138723   0.020   3.025   4.579  0.1794 -0.6873 -1.6333
 9030SOL    HW238724   4.623   3.028   4.642 -1.2149 -0.1908 -1.2009
 9031SOL     OW38725   3.515   2.701   7.084 -0.4110 -0.6100  0.2646
 9031SOL    HW138726   3.574   2.755   7.033  1.3974  0.4279  3.4797
 9031SOL    HW238727   3.488   2.635   7.019 -0.4342 -0.9631  0.6344
 9032SOL     OW38728   0.144   0.960   9.107 -0.2242  0.8848  0.0294
 9032SOL    HW138729   0.236   0.978   9.088 -0.0118 -1.2872 -0.9996
 9032SOL    HW238730   0.131   1.049   9.140  1.1248  0.9003  0.5192
 9033SOL     OW38731   2.558   1.056   8.081  0.3677 -0.4889 -0.1771
 9033SOL    HW138732   2.489   1.081   8.142 -0.4177  0.3464 -1.3800
 9033SOL    HW238733   2.540   0.963   8.068  2.5857 -0.7298 -1.6924
 9034SOL     OW38734   1.805   2.288  10.940 -0.4917 -0.1163 -0.5283
 9034SOL    HW138735   1.868   2.260  11.006 -0.6935  0.0642 -0.2626
 9034SOL    HW238736   1.775   2.377  10.958 -1.9176 -0.7826  0.3856
 9035SOL     OW38737   3.095   0.412   3.412  0.0911 -0.0961 -0.2007
 9035SOL    HW138738   3.146   0.488   3.440 -0.7382  0.5922 -0.5854
 9035SOL    HW238739   3.030   0.445   3.350  0.7128 -0.1244 -0.8735
 9036SOL     OW38740   2.722   0.657   2.008 -0.3781  1.0580  0.2449
 9036SOL    HW138741   2.683   0.670   1.921  0.0776  0.5799 -0.0281
 9036SOL    HW238742   2.812   0.686   1.995 -0.3907  1.5038  1.1684
 9037SOL     OW38743   2.410   3.927   4.283 -0.7636  0.2874  0.2949
 9037SOL    HW138744   2.483   3.925   4.220 -0.4461  0.7912  0.6509
 9037SOL    HW238745   2.453   3.964   4.360  0.2590 -0.4907  0.0974
 9038SOL     OW38746   0.405   2.389   4.277  0.0956 -0.9712 -0.7303
 9038SOL    HW138747   0.409   2.417   4.186 -2.0567  0.8779 -0.2482
 9038SOL    HW238748   0.377   2.299   4.259 -1.0761 -1.1127  1.7120
 9039SOL     OW38749   3.476   4.024   8.071  0.2682 -0.0748 -0.3082
 9039SOL    HW138750   3.399   3.977   8.039  1.9931 -2.0194 -1.5913
 9039SOL    HW238751   3.504   3.972   8.146 -0.2380  3.2966  2.2371
 9040SOL     OW38752   2.579   2.407   9.837  0.0546  0.5107  0.2270
 9040SOL    HW138753   2.498   2.378   9.877  1.2130 -3.7160 -0.4814
 9040SOL    HW238754   2.593   2.486   9.889  1.6392  2.1642 -2.7152
 9041SOL     OW38755   3.604   2.031   4.275  0.0486  0.2701  0.0150
 9041SOL    HW138756   3.698   2.021   4.268  1.0103  4.9064  6.1789
 9041SOL    HW238757   3.594   2.100   4.340 -0.4196 -1.0315  1.3166
 9042SOL     OW38758   0.008   2.992   7.567 -0.5058  0.2259  0.2060
 9042SOL    HW138759   4.716   3.070   7.612 -0.6612 -1.0757  2.3537
 9042SOL    HW238760   0.097   3.014   7.537 -0.7926  0.5141 -0.4342
 9043SOL     OW38761   4.549   3.559   5.363  0.0623 -0.0474 -0.3245
 9043SOL    HW138762   4.597   3.493   5.312  1.6471  0.9491 -0.0967
 9043SOL    HW238763   4.585   3.548   5.451  0.8186 -0.4892 -0.6882
 9044SOL     OW38764   3.822   2.906   5.845  0.4304  0.1375  0.0975
 9044SOL    HW138765   3.770   2.828   5.867  0.6280 -0.2563 -0.8640
 9044SOL    HW238766   3.826   2.910   5.750 -0.9221  1.9146  0.1255
 9045SOL     OW38767   4.005   0.159  11.314  0.5062 -0.1315 -0.1950
 9045SOL    HW138768   3.970   0.132  11.399 -0.0345  3.6917  0.8289
 9045SOL    HW238769   4.090   0.202  11.329  0.4077 -0.9011  2.5047
 9046SOL     OW38770   3.666   1.172  17.327  0.0176  0.1555  0.1328
 9046SOL    HW138771   3.574   1.185  17.350  0.1084  0.9837  0.0262
 9046SOL    HW238772   3.654   1.105  17.259 -0.2718  1.5311 -1.1522
 9047SOL     OW38773   2.391   2.840   6.662  0.5369 -0.2975  0.0612
 9047SOL    HW138774   2.374   2.778   6.733 -0.7085 -0.2606 -0.1940
 9047SOL    HW238775   2.365   2.925   6.697 -0.7389 -0.1507 -1.2239
 9048SOL     OW38776   0.990   0.090   3.947  0.1817  0.1126 -0.1147
 9048SOL    HW138777   0.914   0.091   4.006  0.8389 -0.8182  0.7540
 9048SOL    HW238778   0.948   0.113   3.864 -1.3624  0.1998  0.6828
 9049SOL     OW38779   3.371   2.687   4.831  0.3940  0.0754  0.0996
 9049SOL    HW138780   3.337   2.599   4.813  2.1700 -0.0378 -2.7782
 9049SOL    HW238781   3.301   2.727   4.881  1.4881 -0.9984  2.4856
 9050SOL     OW38782   2.836   1.338  15.551 -0.0194  0.1916  0.4856
 9050SOL    HW138783   2.887   1.277  15.604  0.7347 -1.3500 -2.0140
 9050SOL    HW238784   2.869   1.324  15.462 -2.4790 -1.9075 -0.1018
 9051SOL     OW38785   3.480   1.310   6.985 -0.1822  0.1555 -0.3407
 9051SOL    HW138786   3.531   1.284   6.908  1.0635  0.2631  0.4521
 9051SOL    HW238787   3.414   1.240   6.983 -0.4077  0.3750 -0.5964
 9052SOL     OW38788   3.411   1.328   0.166 -0.1045  0.4568  0.1109
 9052SOL    HW138789   3.368   1.347   0.250 -1.9184 -0.2522 -0.6645
 9052SOL    HW238790   3.344   1.279   0.119  1.0214 -0.5379 -0.4704
 9053SOL     OW38791   3.137   1.084   1.434 -0.0365 -0.4947 -0.4179
 9053SOL    HW138792   3.222   1.113   1.467  0.0256  0.3109 -1.2926
 9053SOL    HW238793   3.158   0.998   1.398 -0.8149 -1.0373  0.3919
 9054SOL     OW38794   0.958   1.735   4.643 -0.2341 -0.2943  0.1598
 9054SOL    HW138795   0.910   1.667   4.690 -1.0074  1.1186  1.4031
 9054SOL    HW238796   0.970   1.801   4.711  2.9061  0.3876 -1.0586
 9055SOL     OW38797   3.188   0.587   5.023 -0.0991 -0.4140 -0.4246
 9055SOL    HW138798   3.256   0.534   4.981 -0.1986 -1.2864  0.5012
 9055SOL    HW238799   3.197   0.578   5.118 -3.1262 -1.6184 -0.2433
 9056SOL     OW38800   4.137   2.283   8.184 -0.1644  0.0216 -0.3040
 9056SOL    HW138801   4.068   2.339   8.149 -1.9794 -0.8436  1.9508
 9056SOL    HW238802   4.212   2.326   8.142  0.6747  0.3941  1.5907
 9057SOL     OW38803   2.282   0.079   9.108  0.6488  0.4961 -0.2358
 9057SOL    HW138804   2.257   0.134   9.183  1.9448  0.0497  0.5341
 9057SOL    HW238805   2.364   0.120   9.082  0.0744  1.8498  0.1168
 9058SOL     OW38806   1.136   4.609   8.360  0.2466 -0.1966  0.9460
 9058SOL    HW138807   1.223   4.607   8.399  0.4080 -2.3939  0.5021
 9058SOL    HW238808   1.138   4.532   8.304  0.1223  0.9085 -0.5602
 9059SOL     OW38809   3.562   1.399   6.476  0.2332 -0.0679 -0.1336
 9059SOL    HW138810   3.548   1.494   6.475 -0.2245 -0.1352  0.1939
 9059SOL    HW238811   3.474   1.370   6.455  0.1399  0.7491 -0.8803
 9060SOL     OW38812   3.477   0.730   3.007  0.3133  0.0133 -0.1157
 9060SOL    HW138813   3.431   0.745   2.924  2.3286  1.3713 -0.9974
 9060SOL    HW238814   3.539   0.660   2.985 -2.0157 -2.5245  1.3482
 9061SOL     OW38815   3.392   1.064  11.625 -0.7957 -0.0763  0.0949
 9061SOL    HW138816   3.402   1.100  11.537 -0.1281  0.8930  0.5675
 9061SOL    HW238817   3.481   1.030  11.629 -0.5839  0.9258  4.0298
 9062SOL     OW38818   0.168   1.082   6.767  0.0960  0.2895  0.3105
 9062SOL    HW138819   0.152   1.001   6.815  0.8903  0.2295  0.4697
 9062SOL    HW238820   0.244   1.060   6.712  0.2184  0.3234  0.4658
 9063SOL     OW38821   2.187   0.839   3.302  0.2908 -0.1813  0.4557
 9063SOL    HW138822   2.184   0.861   3.209 -0.6350 -0.4507  0.4296
 9063SOL    HW238823   2.210   0.747   3.304  0.2054 -0.2338 -1.1421
 9064SOL     OW38824   3.634   3.163   1.581 -0.1748 -0.1736  0.1491
 9064SOL    HW138825   3.636   3.169   1.677  0.3730 -0.0730  0.1307
 9064SOL    HW238826   3.576   3.088   1.569 -0.7997  0.2826  0.3334
 9065SOL     OW38827   4.218   0.449   5.085 -0.0735 -0.5364  0.2935
 9065SOL    HW138828   4.272   0.506   5.140  2.2837 -0.3385 -2.2847
 9065SOL    HW238829   4.185   0.390   5.153 -0.8353  0.8054  1.0936
 9066SOL     OW38830   3.319   2.450  14.499 -0.5061 -0.1778  0.1749
 9066SOL    HW138831   3.364   2.459  14.414 -1.7184  0.3261 -0.4179
 9066SOL    HW238832   3.383   2.408  14.556  0.1500  3.1630  1.8496
 9067SOL     OW38833   2.913   0.041   4.585 -0.2879  0.5900  0.1142
 9067SOL    HW138834   2.850   4.710   4.567 -0.0903 -0.0724  1.9910
 9067SOL    HW238835   2.993   4.728   4.582 -1.6571 -1.6477  2.7438
 9068SOL     OW38836   2.062   2.343   1.484  0.1707 -0.0842 -0.1980
 9068SOL    HW138837   2.035   2.300   1.402  2.7860 -0.3255 -0.9117
 9068SOL    HW238838   2.002   2.416   1.501  1.5013  0.5620  1.7243
 9069SOL     OW38839   4.444   2.620   0.869 -0.0105  0.6963  0.3189
 9069SOL    HW138840   4.487   2.656   0.791 -0.4296 -1.5895 -0.9540
 9069SOL    HW238841   4.505   2.547   0.879  1.9944  2.3431  0.2474
 9070SOL     OW38842   3.525   3.255  11.349 -0.0203 -0.1712  0.1838
 9070SOL    HW138843   3.481   3.172  11.334 -0.0944  0.4534 -2.9821
 9070SOL    HW238844   3.481   3.291  11.426 -0.5022 -2.8174  1.1337
 9071SOL     OW38845   3.552   0.182   4.122  0.1822  0.0078 -0.2615
 9071SOL    HW138846   3.534   0.186   4.216  1.3481  3.0300 -0.1495
 9071SOL    HW238847   3.522   0.265   4.086  1.8828  1.4917  1.7213
 9072SOL     OW38848   2.520   0.747   8.093 -0.1362  0.1037  0.1412
 9072SOL    HW138849   2.435   0.777   8.125 -1.3479 -1.5430 -1.5349
 9072SOL    HW238850   2.486   0.686   8.027 -1.1290  0.0739  0.6927
 9073SOL     OW38851   4.693   2.205   5.488  0.2718  0.5306  0.4049
 9073SOL    HW138852   4.667   2.266   5.556 -0.1459 -0.2722  0.9595
 9073SOL    HW238853   0.042   2.233   5.464  1.1039 -1.5349  1.0275
 9074SOL     OW38854   1.155   4.333   7.786 -0.4844 -0.0730  0.1806
 9074SOL    HW138855   1.118   4.421   7.798  0.9090  0.7196 -1.3145
 9074SOL    HW238856   1.230   4.338   7.845  1.0265  2.7118 -1.9599
 9075SOL     OW38857   2.491   3.964  13.116 -0.6807  0.6001 -0.0838
 9075SOL    HW138858   2.569   3.933  13.161 -0.6155 -0.2479 -0.7877
 9075SOL    HW238859   2.520   3.988  13.028  0.4129  0.6727  0.3048
 9076SOL     OW38860   3.520   1.501  16.441  0.1453 -0.3093 -0.3061
 9076SOL    HW138861   3.461   1.436  16.403 -1.9896  0.0055  2.5248
 9076SOL    HW238862   3.516   1.563  16.368 -1.1927  0.2851  0.2815
 9077SOL     OW38863   1.355   0.282   4.487 -0.4211 -0.8168 -0.4911
 9077SOL    HW138864   1.368   0.309   4.396 -1.6620  1.3476 -0.0205
 9077SOL    HW238865   1.261   0.266   4.490 -0.4006 -0.5806  1.1162
 9078SOL     OW38866   2.833   4.608   9.885 -0.3514 -0.5185  0.2474
 9078SOL    HW138867   2.795   4.629   9.799  0.2097 -0.4776  0.0117
 9078SOL    HW238868   2.926   4.622   9.867 -1.3495  2.6953 -2.4477
 9079SOL     OW38869   4.274   1.009   3.808 -0.2656 -0.3038 -0.0251
 9079SOL    HW138870   4.357   1.019   3.762  0.7140 -0.8270  1.6251
 9079SOL    HW238871   4.231   0.936   3.762  1.7686 -0.9962 -0.8054
 9080SOL     OW38872   2.212   2.824   2.160  0.1126  0.7767 -0.3537
 9080SOL    HW138873   2.299   2.788   2.143 -0.1787  0.5169 -1.3063
 9080SOL    HW238874   2.160   2.772   2.098  1.1338 -2.0747  1.1770
 9081SOL     OW38875   4.344   1.461   4.915  0.0024  0.0715  0.4440
 9081SOL    HW138876   4.372   1.385   4.864 -1.4631  1.2630 -2.1634
 9081SOL    HW238877   4.340   1.409   4.995  0.0732  0.9789  1.0393
 9082SOL     OW38878   4.457   1.660   3.479 -0.3335  0.5404 -0.2092
 9082SOL    HW138879   4.397   1.608   3.532 -1.0048  1.0079 -0.5166
 9082SOL    HW238880   4.394   1.697   3.418  1.3512  0.1327 -2.1986
 9083SOL     OW38881   2.938   4.132   4.051 -0.1632  0.0316  0.3278
 9083SOL    HW138882   3.027   4.163   4.039  0.2764 -0.8391  1.2982
 9083SOL    HW238883   2.928   4.091   3.965 -0.4485 -2.5426  1.5751
 9084SOL     OW38884   2.663   2.361   6.256  0.3569 -0.2778  0.7583
 9084SOL    HW138885   2.632   2.446   6.223 -2.3408 -2.0123 -1.2263
 9084SOL    HW238886   2.689   2.320   6.174 -3.9147 -0.5759 -0.4659
 9085SOL     OW38887   4.441   2.814   3.778  0.2000  0.1301  0.4053
 9085SOL    HW138888   4.523   2.769   3.759  0.9112  1.2066  0.9514
 9085SOL    HW238889   4.476   2.897   3.809  0.2095  1.0821 -2.1322
 9086SOL     OW38890   3.714   1.622   5.815 -0.7488 -0.0800  0.0705
 9086SOL    HW138891   3.759   1.616   5.731  2.5121  1.2852  1.6961
 9086SOL    HW238892   3.622   1.611   5.790 -0.5982  0.0885 -0.5500
 9087SOL     OW38893   0.035   0.362   5.894 -0.2473 -0.1750 -0.2141
 9087SOL    HW138894   0.039   0.453   5.924  0.4080  0.2262 -1.5502
 9087SOL    HW238895   4.705   0.325   5.951  0.0060  1.7249  1.3336
 9088SOL     OW38896   1.018   2.930   1.353 -0.2604  0.2376 -0.4083
 9088SOL    HW138897   0.924   2.914   1.344 -0.2550  0.3132 -0.6140
 9088SOL    HW238898   1.018   3.026   1.362 -0.2251  0.3814 -1.9762
 9089SOL     OW38899   0.965   4.199   3.071 -0.1118 -0.2172  0.2279
 9089SOL    HW138900   0.901   4.229   3.007  0.5925  0.1794 -0.2953
 9089SOL    HW238901   0.922   4.159   3.147  0.7839  0.0687  0.8991
 9090SOL     OW38902   0.070   0.588   5.647 -0.1546 -0.8016 -0.0028
 9090SOL    HW138903   0.078   0.493   5.637  0.0741 -0.8905  0.9952
 9090SOL    HW238904   0.133   0.614   5.579  1.3150 -0.8689  1.3190
 9091SOL     OW38905   3.242   3.047  17.624  0.1087 -0.8019  0.4300
 9091SOL    HW138906   3.240   3.103  17.702 -0.0662 -0.3970  0.1384
 9091SOL    HW238907   3.286   3.113  17.571 -0.9648 -0.1178  0.3811
 9092SOL     OW38908   4.216   1.558   2.599  0.4512 -0.1259  0.1083
 9092SOL    HW138909   4.203   1.613   2.521 -0.4578 -1.0274 -0.3689
 9092SOL    HW238910   4.264   1.483   2.564 -1.0724 -1.0889  0.0669
 9093SOL     OW38911   3.858   4.438   3.170 -0.2630  0.3400 -0.6462
 9093SOL    HW138912   3.904   4.439   3.254  1.6703  2.6535 -1.7620
 9093SOL    HW238913   3.936   4.445   3.116 -0.5105  0.0475 -1.0482
 9094SOL     OW38914   3.529   2.919   4.785 -0.1284  0.5531  0.1886
 9094SOL    HW138915   3.456   2.967   4.746 -0.6071 -0.5270 -0.2327
 9094SOL    HW238916   3.491   2.835   4.810 -2.8677  1.6070 -0.5287
 9095SOL     OW38917   1.507   3.295   1.570 -0.9959  0.1708 -0.1559
 9095SOL    HW138918   1.574   3.340   1.622  0.1613 -2.1375  0.3567
 9095SOL    HW238919   1.552   3.280   1.487 -2.0724 -3.0477 -0.1723
 9096SOL     OW38920   0.382   1.090   7.353 -0.2892 -0.5244 -0.8517
 9096SOL    HW138921   0.381   1.018   7.415 -1.9789 -1.2554 -1.7484
 9096SOL    HW238922   0.352   1.165   7.404  0.6272 -0.4670 -0.3860
 9097SOL     OW38923   0.846   4.024   5.893 -0.2151  0.5877  0.3734
 9097SOL    HW138924   0.822   3.936   5.866  1.7177 -0.2539  1.4281
 9097SOL    HW238925   0.861   4.005   5.985  0.1319  0.5375  0.3063
 9098SOL     OW38926   2.607   2.442  11.120 -0.0634 -0.0919 -0.3922
 9098SOL    HW138927   2.553   2.432  11.198 -0.9111 -1.3584 -1.1509
 9098SOL    HW238928   2.626   2.349  11.105  0.9350  0.2869 -1.4253
 9099SOL     OW38929   4.384   4.625   6.571  0.3209  0.4008  0.0720
 9099SOL    HW138930   4.472   4.614   6.608  0.2269  1.8488  0.7307
 9099SOL    HW238931   4.368   4.708   6.616 -1.2859  0.0896  0.0642
 9100SOL     OW38932   0.978   4.407   5.983  0.5060 -0.0680  0.5232
 9100SOL    HW138933   0.929   4.379   6.061 -2.4807  1.9350 -0.6321
 9100SOL    HW238934   1.026   4.325   5.969  0.4295  0.1005 -0.7563
 9101SOL     OW38935   3.469   3.458   0.299  0.8645  0.3620  0.5979
 9101SOL    HW138936   3.490   3.525   0.235  1.1845 -1.1709 -0.8944
 9101SOL    HW238937   3.479   3.374   0.253 -0.8049  0.5491 -0.1004
 9102SOL     OW38938   0.810   3.316   5.184  0.4343  0.2343  0.3377
 9102SOL    HW138939   0.756   3.238   5.182  1.8147 -0.7536  1.4948
 9102SOL    HW238940   0.861   3.289   5.260  0.7521  0.8628  0.3551
 9103SOL     OW38941   4.194   4.038   2.858 -0.2511 -0.0265 -0.2029
 9103SOL    HW138942   4.280   4.081   2.855  0.3757 -1.3478 -1.4707
 9103SOL    HW238943   4.161   4.064   2.772  1.3781  0.5532 -0.6608
 9104SOL     OW38944   0.489   1.488   1.677  1.0930 -0.0326 -0.4022
 9104SOL    HW138945   0.424   1.548   1.715  1.1086  0.2853 -0.8768
 9104SOL    HW238946   0.547   1.477   1.752  0.5146  0.9031  0.1931
 9105SOL     OW38947   1.982   0.393   7.318 -0.4531  0.2035 -0.4106
 9105SOL    HW138948   1.987   0.479   7.276 -0.2446 -0.2158 -1.2411
 9105SOL    HW238949   1.962   0.424   7.406  2.2956  0.7437  0.0277
 9106SOL     OW38950   3.165   4.562   5.956 -1.2677  0.3697  0.1365
 9106SOL    HW138951   3.235   4.558   6.021 -1.0451 -1.6170 -0.2094
 9106SOL    HW238952   3.204   4.617   5.889  0.6944 -1.4238 -0.1996
 9107SOL     OW38953   3.706   3.907   7.407 -0.3013 -0.0167 -0.2314
 9107SOL    HW138954   3.773   3.846   7.438  1.2969  0.0194 -3.6216
 9107SOL    HW238955   3.666   3.934   7.490  0.0114  1.5455 -0.5795
 9108SOL     OW38956   3.767   0.801   3.311  0.3490  0.4775  0.2232
 9108SOL    HW138957   3.767   0.829   3.219 -1.2768 -2.3893 -0.6622
 9108SOL    HW238958   3.830   0.729   3.315  0.2084  0.3347 -0.0592
 9109SOL     OW38959   0.418   4.094   5.616 -0.4745 -0.1466 -0.2259
 9109SOL    HW138960   0.331   4.062   5.592 -0.9159 -0.7623  2.1647
 9109SOL    HW238961   0.435   4.159   5.548 -2.6822  0.7813  0.1189
 9110SOL     OW38962   2.724   1.222   5.011  0.1667  0.6791 -0.0737
 9110SOL    HW138963   2.690   1.185   5.092 -1.2069 -1.3258 -1.5384
 9110SOL    HW238964   2.722   1.151   4.946  2.9015 -0.5846  1.2164
 9111SOL     OW38965   1.223   3.567   9.765  0.5458 -0.1668  0.0043
 9111SOL    HW138966   1.301   3.608   9.727 -0.0872  0.9561 -0.0656
 9111SOL    HW238967   1.259   3.546   9.852 -2.4326 -1.6155  0.8885
 9112SOL     OW38968   2.128   1.206  17.157 -0.2634  0.2013 -0.0719
 9112SOL    HW138969   2.209   1.156  17.145 -0.1730  0.4112 -0.3234
 9112SOL    HW238970   2.114   1.210  17.251  1.4710  0.2193  0.1834
 9113SOL     OW38971   0.917   1.656  14.526  0.7503 -0.2071 -0.3166
 9113SOL    HW138972   0.907   1.675  14.433  0.9171  0.8064 -0.1224
 9113SOL    HW238973   0.999   1.608  14.531  0.3364 -0.8338  0.4852
 9114SOL     OW38974   2.310   3.623   6.452  0.0553  0.6728 -0.2163
 9114SOL    HW138975   2.267   3.571   6.384  2.3676  1.5291 -2.3230
 9114SOL    HW238976   2.364   3.676   6.395 -0.5200  1.7789  0.2521
 9115SOL     OW38977   2.522   0.039  15.923  0.3873  0.4179  0.9663
 9115SOL    HW138978   2.505   0.032  16.017  2.1364  0.6986  1.2951
 9115SOL    HW238979   2.501   0.131  15.909  1.4897  0.7633  1.6091
 9116SOL     OW38980   2.198   4.581   0.782 -0.2232  0.2129 -0.2063
 9116SOL    HW138981   2.288   4.614   0.775 -0.3659  0.3543 -1.3231
 9116SOL    HW238982   2.188   4.533   0.700  0.4278 -0.5443  0.1571
 9117SOL     OW38983   0.608   3.933   2.241  0.8627  0.6343 -0.2034
 9117SOL    HW138984   0.665   3.886   2.302  1.5802  0.7952 -0.7585
 9117SOL    HW238985   0.583   3.859   2.186  2.8481 -0.7791  0.8116
 9118SOL     OW38986   2.977   4.385   5.491 -0.3826  0.3258 -0.1404
 9118SOL    HW138987   2.939   4.303   5.460  0.6214  0.3717 -1.4931
 9118SOL    HW238988   2.947   4.389   5.582  0.3221  0.7512  0.0711
 9119SOL     OW38989   3.319   1.146   4.241 -0.2099  0.3960 -0.2101
 9119SOL    HW138990   3.231   1.127   4.209 -0.1844  0.5639 -0.3820
 9119SOL    HW238991   3.367   1.101   4.171 -1.1035 -1.1555  0.1700
 9120SOL     OW38992   2.244   2.093   4.848  0.5995 -0.2682  0.0943
 9120SOL    HW138993   2.234   2.187   4.833  1.1680 -0.3092 -0.5358
 9120SOL    HW238994   2.188   2.083   4.925  1.8309 -1.7674  0.8120
 9121SOL     OW38995   3.654   4.615  12.286  0.0151  0.0084 -0.4369
 9121SOL    HW138996   3.602   4.566  12.350  1.1250 -0.4677  0.1008
 9121SOL    HW238997   3.599   4.604  12.209  0.0856 -0.4989 -0.4156
 9122SOL     OW38998   1.984   3.754  12.978  0.0347  0.3560  0.7813
 9122SOL    HW138999   1.974   3.698  13.055  0.9415 -1.1982 -0.2226
 9122SOL    HW239000   2.077   3.779  12.984  0.7178 -1.8184 -0.8243
 9123SOL     OW39001   4.450   2.512   5.996 -0.4207  0.0475  0.1008
 9123SOL    HW139002   4.532   2.553   6.024  1.3220 -1.4492 -2.6999
 9123SOL    HW239003   4.414   2.575   5.933  2.5354  0.4357 -1.2014
 9124SOL     OW39004   0.863   2.392   2.767 -0.2544 -0.0136 -0.0268
 9124SOL    HW139005   0.781   2.354   2.799  0.2547  0.2824  1.6583
 9124SOL    HW239006   0.885   2.460   2.831 -0.2652  0.0510 -0.0924
 9125SOL     OW39007   3.477   3.511   6.047  0.8145 -0.6114  0.0899
 9125SOL    HW139008   3.431   3.594   6.063  1.6994  0.0450 -0.7770
 9125SOL    HW239009   3.566   3.539   6.070  0.7952 -0.1656 -0.3725
 9126SOL     OW39010   1.603   0.510   7.316 -0.0048 -0.0048 -0.1187
 9126SOL    HW139011   1.592   0.494   7.410  0.6446 -0.1051 -0.0551
 9126SOL    HW239012   1.529   0.560   7.281 -1.0560 -2.4138 -1.3375
 9127SOL     OW39013   1.278   0.572   3.567  0.2785 -0.1408 -0.0903
 9127SOL    HW139014   1.372   0.582   3.581  0.0916  0.1642  0.9086
 9127SOL    HW239015   1.240   0.529   3.643  0.0479 -2.7979 -1.6840
 9128SOL     OW39016   1.951   1.119   7.536 -0.2400 -0.2264 -0.5049
 9128SOL    HW139017   1.995   1.192   7.493 -0.0494 -0.2181 -0.2952
 9128SOL    HW239018   1.863   1.154   7.524  0.2156  1.1691  0.3042
 9129SOL     OW39019   2.984   1.292   3.023 -0.4706  0.6027  0.0634
 9129SOL    HW139020   2.994   1.302   2.928  0.5167  2.0208  0.3154
 9129SOL    HW239021   3.039   1.360   3.060  0.0536  0.8466 -1.1499
 9130SOL     OW39022   1.184   3.881   2.835 -0.1768 -0.0816  0.0536
 9130SOL    HW139023   1.114   3.825   2.801 -2.5080  1.8522  1.6934
 9130SOL    HW239024   1.158   3.972   2.845  0.5545  0.0308  0.8892
 9131SOL     OW39025   2.546   3.029   6.060 -0.2219  0.0423  0.0020
 9131SOL    HW139026   2.631   3.018   6.102  0.6288 -0.3882 -1.8685
 9131SOL    HW239027   2.576   3.029   5.969 -0.2047 -0.5593  0.0065
 9132SOL     OW39028   2.166   3.910  17.079 -0.2258 -0.1366 -0.2679
 9132SOL    HW139029   2.202   3.943  16.997  1.1982 -2.6339 -0.6425
 9132SOL    HW239030   2.072   3.924  17.067 -0.1758  0.7148  0.2562
 9133SOL     OW39031   1.468   2.622   7.753  0.4874  0.8231  0.6755
 9133SOL    HW139032   1.450   2.582   7.668  0.7822 -0.8856  1.4107
 9133SOL    HW239033   1.523   2.551   7.787  0.0514  0.9345  1.5842
 9134SOL     OW39034   3.957   0.664  14.721  0.3318  0.2410 -0.1442
 9134SOL    HW139035   3.930   0.736  14.777 -2.7096 -0.4226 -0.7647
 9134SOL    HW239036   4.010   0.608  14.779 -2.3794 -3.3161 -1.0745
 9135SOL     OW39037   4.034   0.310   3.234 -0.0920 -0.6339 -0.1318
 9135SOL    HW139038   4.110   0.258   3.206 -0.5492 -0.8595 -0.9520
 9135SOL    HW239039   3.976   0.246   3.274 -0.1414 -0.4827  0.0389
 9136SOL     OW39040   3.109   0.578   3.079  0.0472  0.7758 -0.0952
 9136SOL    HW139041   3.018   0.575   3.109  1.0670 -2.3744  2.6956
 9136SOL    HW239042   3.090   0.641   3.010  2.0997  0.2867 -1.1025
 9137SOL     OW39043   3.078   0.312   9.998 -0.0181  0.0029  0.3029
 9137SOL    HW139044   3.032   0.261  10.065  1.8258 -0.1890  1.4186
 9137SOL    HW239045   3.161   0.265   9.988 -0.1401  0.3718 -2.2530
 9138SOL     OW39046   0.690   0.059   6.459  0.6912 -0.1055 -0.0968
 9138SOL    HW139047   0.651   0.005   6.390  0.9488 -1.2744  0.6775
 9138SOL    HW239048   0.773   0.011   6.465  0.2802 -0.4214  3.1239
 9139SOL     OW39049   2.017   1.450   8.511  0.0662  0.2847  0.0567
 9139SOL    HW139050   2.031   1.527   8.565 -2.1777 -0.5789  1.8739
 9139SOL    HW239051   2.041   1.384   8.577  0.4199  2.3452  1.9824
 9140SOL     OW39052   1.891   2.536   0.425  0.1814 -0.2503  0.1992
 9140SOL    HW139053   1.902   2.605   0.360  0.7192 -1.5115 -1.0278
 9140SOL    HW239054   1.843   2.469   0.376  0.1326  0.3850 -0.6256
 9141SOL     OW39055   3.445   0.473   6.603 -0.0799 -0.0126 -0.4544
 9141SOL    HW139056   3.488   0.401   6.556 -0.4373 -0.0787 -0.6755
 9141SOL    HW239057   3.478   0.453   6.691  0.4355  3.3751  0.1346
 9142SOL     OW39058   1.169   2.635  11.362 -0.4192  0.3905  0.0862
 9142SOL    HW139059   1.233   2.673  11.422  0.8641 -0.6227 -0.6307
 9142SOL    HW239060   1.119   2.715  11.344  1.1365  1.8200  2.1539
 9143SOL     OW39061   1.193   4.650   7.573  0.1014 -0.2612  0.2122
 9143SOL    HW139062   1.152   4.618   7.653 -0.0431  0.4793  0.4360
 9143SOL    HW239063   1.158   4.595   7.502 -0.2045  0.4856 -0.2158
 9144SOL     OW39064   1.669   2.609   8.345 -0.0054 -0.2038 -0.1241
 9144SOL    HW139065   1.744   2.553   8.325 -1.0783 -2.0270  0.9680
 9144SOL    HW239066   1.714   2.694   8.350 -0.1457 -0.0336 -2.0558
 9145SOL     OW39067   3.296   4.331   9.456 -0.3129 -0.4386 -0.2047
 9145SOL    HW139068   3.343   4.414   9.461  0.1191 -0.7598  1.0768
 9145SOL    HW239069   3.226   4.355   9.517  1.8122  0.7805  1.7179
 9146SOL     OW39070   2.479   1.459   0.292  0.7925  0.3119 -0.5432
 9146SOL    HW139071   2.429   1.496   0.220 -0.2736 -1.0645 -0.5211
 9146SOL    HW239072   2.413   1.462   0.362  0.5470  2.6532 -0.8890
 9147SOL     OW39073   3.316   4.670   5.108  0.3867 -0.5615  0.2439
 9147SOL    HW139074   3.361   4.643   5.188  1.3464 -0.8401 -0.3804
 9147SOL    HW239075   3.234   4.620   5.111 -0.3451  0.7205  1.5014
 9148SOL     OW39076   3.826   0.004   5.819  0.1346 -0.3093  0.0186
 9148SOL    HW139077   3.750   0.032   5.768 -0.5653 -2.3555 -0.0657
 9148SOL    HW239078   3.866   0.089   5.839  1.6512 -0.7699 -1.0939
 9149SOL     OW39079   0.345   4.717  17.200 -0.0053  0.2929 -0.6863
 9149SOL    HW139080   0.264   4.671  17.181  0.4872 -0.2604 -1.4667
 9149SOL    HW239081   0.405   4.667  17.255  0.8450 -0.9270 -2.7354
 9150SOL     OW39082   1.259   0.723   0.976 -0.2661  0.4115  0.2785
 9150SOL    HW139083   1.267   0.815   0.950 -0.5216 -0.0093 -1.2873
 9150SOL    HW239084   1.319   0.684   0.913  1.2030  1.4854  1.0139
 9151SOL     OW39085   2.370   4.683   8.742 -0.0474  0.4985  0.3011
 9151SOL    HW139086   2.304   4.651   8.803 -2.3582  1.1352 -1.8570
 9151SOL    HW239087   2.323   4.674   8.659 -2.5980 -0.3476  1.8456
 9152SOL     OW39088   2.945   1.925   5.690 -0.3243 -0.0370 -0.1479
 9152SOL    HW139089   2.921   1.840   5.653  0.1807 -0.0042 -0.5417
 9152SOL    HW239090   2.981   1.900   5.775  0.8914 -0.0648 -0.6685
 9153SOL     OW39091   1.709   3.789  13.012 -0.5873 -0.1324  0.4416
 9153SOL    HW139092   1.664   3.706  13.028  0.0383 -0.1422  2.2036
 9153SOL    HW239093   1.802   3.766  13.014 -0.1898  1.2790 -1.2661
 9154SOL     OW39094   2.035   3.946   1.175  0.4224  0.6028  0.1747
 9154SOL    HW139095   2.108   3.929   1.236  0.4170  0.0737  0.0380
 9154SOL    HW239096   2.004   3.861   1.144 -2.8602  2.3485 -1.3025
 9155SOL     OW39097   3.277   3.835  10.406  0.0593 -0.2852 -0.2719
 9155SOL    HW139098   3.233   3.776  10.344  1.4420  0.8873 -2.3767
 9155SOL    HW239099   3.209   3.902  10.402 -1.5063 -1.8042  0.8884
 9156SOL     OW39100   0.224   0.771   7.720  0.1915  0.1071 -0.2334
 9156SOL    HW139101   0.153   0.829   7.693  0.2276  0.2632  0.0057
 9156SOL    HW239102   0.292   0.834   7.742 -0.0069  0.6339 -1.1511
 9157SOL     OW39103   4.029   2.750   6.577  0.8769  0.1750  0.5127
 9157SOL    HW139104   3.957   2.760   6.515 -0.5922 -0.1476  2.1598
 9157SOL    HW239105   4.107   2.752   6.522  0.2014 -0.5175 -0.4593
 9158SOL     OW39106   1.310   2.741  11.570  0.1244 -0.5579  0.1227
 9158SOL    HW139107   1.256   2.759  11.646  1.1917  1.4396  0.4074
 9158SOL    HW239108   1.393   2.715  11.611  1.0484 -2.5287 -2.9582
 9159SOL     OW39109   0.329   4.218  12.609 -0.0096 -0.0103  0.3461
 9159SOL    HW139110   0.420   4.249  12.614  0.1739 -0.5391  0.2690
 9159SOL    HW239111   0.332   4.189  12.518  0.6560 -0.4847  0.5105
 9160SOL     OW39112   1.782   0.481   9.727  0.4526 -0.5801 -0.4685
 9160SOL    HW139113   1.765   0.391   9.755  1.3650 -1.2031 -1.9534
 9160SOL    HW239114   1.710   0.531   9.766  0.1697  0.0141 -1.7745
 9161SOL     OW39115   0.730   1.058  11.638 -0.4170 -0.3034  0.2469
 9161SOL    HW139116   0.700   0.982  11.588 -0.9161 -1.1146  1.7936
 9161SOL    HW239117   0.745   1.118  11.565 -0.1052 -1.8744 -0.9900
 9162SOL     OW39118   0.428   4.507   9.381  0.0482  0.2641  0.5137
 9162SOL    HW139119   0.393   4.444   9.318  0.2724  1.8197 -1.1815
 9162SOL    HW239120   0.501   4.550   9.337 -1.1918  1.5635 -0.2751
 9163SOL     OW39121   1.733   3.145   3.692 -0.6612  0.0269  0.1360
 9163SOL    HW139122   1.828   3.142   3.704 -0.9115 -2.9833  1.4548
 9163SOL    HW239123   1.716   3.093   3.614 -1.8349 -0.6863  0.8506
 9164SOL     OW39124   2.811   4.533   4.383 -0.2397  0.4840  0.2977
 9164SOL    HW139125   2.778   4.541   4.472 -4.4123  0.9147 -1.2870
 9164SOL    HW239126   2.729   4.538   4.333 -0.0287 -1.0659 -0.2004
 9165SOL     OW39127   3.190   1.680   4.230 -0.8352 -0.0209 -0.3409
 9165SOL    HW139128   3.255   1.750   4.219  0.2869 -0.5999  2.5586
 9165SOL    HW239129   3.122   1.722   4.283  0.3643  0.6392  0.6876
 9166SOL     OW39130   3.700   2.496  15.240  0.2314  0.0843  0.8092
 9166SOL    HW139131   3.622   2.529  15.196  0.7661  0.0031 -0.2057
 9166SOL    HW239132   3.771   2.524  15.182 -0.4876  0.1131 -0.0501
 9167SOL     OW39133   4.171   4.037   5.441 -0.6862 -0.3243  0.2020
 9167SOL    HW139134   4.158   4.105   5.507 -1.1388  0.5336 -0.7647
 9167SOL    HW239135   4.085   3.999   5.426 -0.6250  0.1596 -1.4858
 9168SOL     OW39136   1.473   3.840   2.838  0.1906  0.5216  0.5890
 9168SOL    HW139137   1.384   3.867   2.864 -0.0985 -0.0823  0.2126
 9168SOL    HW239138   1.486   3.754   2.878  2.0143 -0.2140 -1.6128
 9169SOL     OW39139   1.153   0.488   8.814  0.4095 -0.1627  0.2007
 9169SOL    HW139140   1.156   0.578   8.783  0.5422 -1.0862 -2.5019
 9169SOL    HW239141   1.061   0.465   8.803  0.4244  0.2111 -0.6327
 9170SOL     OW39142   4.307   4.149   3.910  0.5032  0.3194  0.0023
 9170SOL    HW139143   4.356   4.231   3.914  0.7303  0.1521  0.6336
 9170SOL    HW239144   4.378   4.085   3.918 -0.1126 -0.0066  2.5723
 9171SOL     OW39145   3.067   0.250   2.550  0.3814 -0.1693  0.3732
 9171SOL    HW139146   2.993   0.223   2.496 -0.3350  2.9735 -0.2237
 9171SOL    HW239147   3.101   0.161   2.562  0.1593  0.0084  2.4109
 9172SOL     OW39148   4.105   1.356  15.024 -0.3075 -0.2111  0.2981
 9172SOL    HW139149   4.019   1.336  14.987  0.7920 -0.3525 -2.1471
 9172SOL    HW239150   4.153   1.379  14.945  0.8116  1.2312  1.3858
 9173SOL     OW39151   1.730   4.414   6.031  0.0221 -0.4793  0.1175
 9173SOL    HW139152   1.723   4.322   6.055 -1.6619 -0.2572  0.4738
 9173SOL    HW239153   1.810   4.434   6.079  0.2196  0.3811 -0.5650
 9174SOL     OW39154   4.667   2.787   5.751 -0.5118  0.0313  0.4139
 9174SOL    HW139155   4.737   2.781   5.817  2.0380  0.3919 -2.2403
 9174SOL    HW239156   4.584   2.798   5.796 -0.5650  1.6827 -0.0895
 9175SOL     OW39157   1.158   0.735   3.364 -0.2117 -0.5299 -0.1281
 9175SOL    HW139158   1.106   0.661   3.333  0.6394 -0.2537 -2.2248
 9175SOL    HW239159   1.216   0.685   3.421  1.5569 -0.4953 -1.9235
 9176SOL     OW39160   0.436   0.678   5.597  0.1389 -0.0313  0.0133
 9176SOL    HW139161   0.527   0.683   5.625 -0.0205 -1.0072  0.7097
 9176SOL    HW239162   0.443   0.619   5.521 -1.1416  1.2704 -1.1224
 9177SOL     OW39163   1.158   0.656   7.704 -0.4119 -0.0855 -0.1236
 9177SOL    HW139164   1.203   0.637   7.621 -0.1532  1.1453 -0.2790
 9177SOL    HW239165   1.146   0.577   7.755  1.5633  1.7249  3.1308
 9178SOL     OW39166   0.658   1.664   8.803  0.8359 -0.2127  0.1808
 9178SOL    HW139167   0.744   1.633   8.831  0.7231  0.3071  1.1220
 9178SOL    HW239168   0.668   1.752   8.841 -2.5840 -0.0609  0.7090
 9179SOL     OW39169   2.251   3.836  12.960  0.1302 -0.0257  0.4294
 9179SOL    HW139170   2.291   3.919  12.936 -1.2406  0.5591  0.1758
 9179SOL    HW239171   2.288   3.766  12.906  1.3481  0.2242  0.9473
 9180SOL     OW39172   2.771   1.355   2.204  0.3559 -0.0310 -0.1803
 9180SOL    HW139173   2.764   1.322   2.294 -0.1032  1.2897  0.2629
 9180SOL    HW239174   2.807   1.277   2.161  1.5526  0.4664 -0.0756
 9181SOL     OW39175   3.582   4.012   7.659 -0.0438 -0.8343 -0.1681
 9181SOL    HW139176   3.649   4.025   7.726  0.8409  0.7651 -1.3516
 9181SOL    HW239177   3.521   4.082   7.679  0.8227 -0.2470  0.4216
 9182SOL     OW39178   0.378   4.341   8.085 -0.0206 -0.0523 -0.3974
 9182SOL    HW139179   0.337   4.367   8.002 -0.9710  2.0688  0.7481
 9182SOL    HW239180   0.384   4.246   8.075  1.0157  0.0973 -1.1679
 9183SOL     OW39181   0.591   2.527   2.521  0.4261  0.4703 -0.2512
 9183SOL    HW139182   0.574   2.589   2.450  2.5174 -0.4892 -1.5991
 9183SOL    HW239183   0.508   2.522   2.568  1.3209  1.0103  1.3631
 9184SOL     OW39184   1.789   3.562   8.389  0.8887  0.1811  0.0574
 9184SOL    HW139185   1.794   3.510   8.309  1.0599 -0.3574  0.4201
 9184SOL    HW239186   1.695   3.579   8.396  0.8748 -0.3033  1.1628
 9185SOL     OW39187   4.020   0.662   7.422 -0.0505 -0.5051 -0.1141
 9185SOL    HW139188   3.950   0.640   7.482 -1.5240  2.0090 -0.9131
 9185SOL    HW239189   4.027   0.756   7.435 -0.0685 -0.6050  0.5817
 9186SOL     OW39190   1.342   2.073   1.428  0.0070 -0.2284 -0.1351
 9186SOL    HW139191   1.415   2.032   1.382  0.6426  2.3765 -1.4065
 9186SOL    HW239192   1.352   2.047   1.520  3.4630  1.2779 -0.0906
 9187SOL     OW39193   0.981   3.908   0.927 -0.0749 -0.1356  0.0609
 9187SOL    HW139194   0.945   3.981   0.877  0.6880  0.9540  1.1020
 9187SOL    HW239195   1.069   3.899   0.889  0.3421 -0.3602  1.0887
 9188SOL     OW39196   1.132   2.313   2.734 -0.3351  0.7020  0.1812
 9188SOL    HW139197   1.126   2.301   2.639 -0.1284  1.1263  0.1176
 9188SOL    HW239198   1.050   2.358   2.755 -0.1579  1.1048 -0.0154
 9189SOL     OW39199   2.470   0.693  17.000  0.4530 -0.0009  0.3061
 9189SOL    HW139200   2.457   0.614  16.948 -1.0028  0.8730 -0.6466
 9189SOL    HW239201   2.392   0.687  17.054  0.8535  3.3261  1.2587
 9190SOL     OW39202   3.543   4.683  14.620 -0.4644 -0.1241 -0.2143
 9190SOL    HW139203   3.595   4.654  14.546 -2.0694  0.2397 -1.4993
 9190SOL    HW239204   3.497   4.605  14.650 -0.2884 -0.4296 -0.7577
 9191SOL     OW39205   1.059   2.075   8.578  0.1832 -0.5149  0.0939
 9191SOL    HW139206   1.126   2.012   8.552  0.6897  0.1796 -0.3037
 9191SOL    HW239207   0.989   2.016   8.604 -0.3293  1.0817  2.3113
 9192SOL     OW39208   1.001   2.766  12.009 -0.3419  0.1839 -0.0994
 9192SOL    HW139209   1.072   2.727  12.060 -2.5259 -2.8874  0.5585
 9192SOL    HW239210   1.038   2.854  11.995  2.0429 -0.8196 -0.1518
 9193SOL     OW39211   2.419   2.484   2.189 -0.0887 -0.0093 -0.1235
 9193SOL    HW139212   2.514   2.478   2.194  0.0244  1.1060 -0.8739
 9193SOL    HW239213   2.403   2.389   2.183 -0.5320  0.0433  0.2121
 9194SOL     OW39214   0.748   2.703   6.782  0.3266  0.5249  0.2924
 9194SOL    HW139215   0.775   2.708   6.873 -0.4828  1.6717  0.4667
 9194SOL    HW239216   0.827   2.664   6.744 -0.6814 -0.7322 -0.5599
 9195SOL     OW39217   4.692   2.250   7.322 -0.2086 -0.2112  0.5024
 9195SOL    HW139218   4.633   2.215   7.388  0.2501 -2.0333 -0.0429
 9195SOL    HW239219   4.707   2.177   7.261  2.5841 -0.7332  1.7841
 9196SOL     OW39220   0.134   3.764   3.121  0.0483 -0.7232  0.1090
 9196SOL    HW139221   0.087   3.681   3.115  0.2086 -0.7582 -0.6528
 9196SOL    HW239222   0.212   3.742   3.173  1.0404 -1.9509 -1.9034
 9197SOL     OW39223   2.800   0.043   6.955  0.1079 -0.0387 -0.1060
 9197SOL    HW139224   2.894   0.054   6.970  0.2669  0.2544 -1.3088
 9197SOL    HW239225   2.778   0.121   6.903 -0.3400  0.0177  0.1712
 9198SOL     OW39226   4.162   3.072   9.492  0.2097  0.4073  0.1598
 9198SOL    HW139227   4.206   3.102   9.571 -1.5303  0.4487  1.1117
 9198SOL    HW239228   4.163   3.154   9.443 -0.8683 -0.3840 -1.1868
 9199SOL     OW39229   2.641   0.807   1.777 -0.3047  0.1615 -0.2454
 9199SOL    HW139230   2.695   0.872   1.733 -0.7951  1.3948  0.9773
 9199SOL    HW239231   2.630   0.744   1.706 -0.7351  0.1855 -0.2034
 9200SOL     OW39232   4.460   0.774   4.977  1.0164  0.5349  0.4098
 9200SOL    HW139233   4.457   0.865   5.008  0.2985 -0.2185  2.5805
 9200SOL    HW239234   4.504   0.801   4.896 -0.7339 -1.1441 -1.0893
 9201SOL     OW39235   2.120   1.924   9.261 -0.0606 -0.3471  0.2971
 9201SOL    HW139236   2.115   1.952   9.353  0.6714 -0.9212  0.5079
 9201SOL    HW239237   2.062   1.988   9.221 -2.3375 -1.9924  0.9158
 9202SOL     OW39238   3.462   0.311   2.786 -0.0429  0.2738 -0.3622
 9202SOL    HW139239   3.420   0.268   2.861  1.7973 -0.6140  0.1593
 9202SOL    HW239240   3.400   0.381   2.766 -1.1298 -0.4241  0.5520
 9203SOL     OW39241   2.488   0.082  12.393  0.1600 -0.4586  0.4151
 9203SOL    HW139242   2.424   0.125  12.449 -1.2299 -1.1038 -0.6968
 9203SOL    HW239243   2.542   0.156  12.364 -1.8797  1.2644  1.0384
 9204SOL     OW39244   3.059   0.120   3.266  0.7096  0.0666 -0.1559
 9204SOL    HW139245   3.001   0.195   3.255 -0.4934 -1.0975 -1.7103
 9204SOL    HW239246   3.032   0.067   3.191 -0.2481  0.1091  0.1577
 9205SOL     OW39247   2.249   0.591   7.340  0.0371  0.4014 -0.0879
 9205SOL    HW139248   2.264   0.649   7.265 -1.0331  2.6392  1.4405
 9205SOL    HW239249   2.185   0.644   7.386  0.5780 -0.0149  1.1425
 9206SOL     OW39250   2.752   0.299   8.674  0.1369 -0.4009  0.0262
 9206SOL    HW139251   2.659   0.279   8.688  0.0516  0.5553  0.8275
 9206SOL    HW239252   2.740   0.392   8.658  2.3746 -0.1869 -0.3199
 9207SOL     OW39253   4.060   3.968   4.824  0.5374  0.2379  0.2780
 9207SOL    HW139254   4.019   3.882   4.817 -0.1850  0.4296  1.9681
 9207SOL    HW239255   4.035   4.000   4.911 -3.0359  1.3449 -1.1509
 9208SOL     OW39256   0.991   1.041   8.626 -0.2029 -0.1963  0.2905
 9208SOL    HW139257   0.969   1.133   8.614 -0.2669 -0.5402 -2.2781
 9208SOL    HW239258   1.082   1.047   8.598 -0.6973 -0.6173 -1.4297
 9209SOL     OW39259   2.894   0.299   4.693  0.3446 -0.2239 -0.1339
 9209SOL    HW139260   2.901   0.206   4.672 -1.9291 -0.4428  0.0230
 9209SOL    HW239261   2.967   0.301   4.754 -0.5898 -0.5763  1.0011
 9210SOL     OW39262   1.400   3.189   8.376 -0.5263  0.1723  0.4242
 9210SOL    HW139263   1.434   3.255   8.436  2.0975  0.9446 -1.9164
 9210SOL    HW239264   1.477   3.168   8.323 -0.9606  1.1482 -0.5868
 9211SOL     OW39265   1.838   3.326  13.012 -0.1008  0.6136 -0.2958
 9211SOL    HW139266   1.835   3.322  13.108 -2.4292  2.4449 -0.2819
 9211SOL    HW239267   1.794   3.406  12.981  2.3781  1.4351 -1.7294
 9212SOL     OW39268   0.230   4.634   3.284 -0.2358 -0.5153 -0.0556
 9212SOL    HW139269   0.209   4.724   3.260 -0.0691 -0.5165 -0.2129
 9212SOL    HW239270   0.185   4.620   3.366 -0.8871  2.7811  0.1692
 9213SOL     OW39271   3.181   3.139   5.588 -0.2935  0.1927 -0.3486
 9213SOL    HW139272   3.137   3.097   5.513 -0.6609 -0.7161  0.3804
 9213SOL    HW239273   3.237   3.065   5.613 -0.6008 -0.3060 -1.1227
 9214SOL     OW39274   3.507   2.210  17.349  0.1542  0.3182  0.0946
 9214SOL    HW139275   3.537   2.224  17.439  1.2287  1.1571 -0.3930
 9214SOL    HW239276   3.419   2.247  17.348  0.9709  2.2953  0.5349
 9215SOL     OW39277   3.187   4.223   2.319  0.3231 -0.1873 -0.3246
 9215SOL    HW139278   3.184   4.298   2.379 -1.1374 -1.4732  1.2333
 9215SOL    HW239279   3.156   4.263   2.238  0.4039 -0.3003 -0.4121
 9216SOL     OW39280   1.136   1.306   9.024 -0.0058  0.3400  0.2210
 9216SOL    HW139281   1.224   1.314   8.987 -0.1590 -0.5999 -0.3409
 9216SOL    HW239282   1.111   1.214   9.016  0.6281  0.3925 -2.2494
 9217SOL     OW39283   2.205   4.430   2.503  0.0305  0.5186 -0.4942
 9217SOL    HW139284   2.299   4.430   2.490  0.5109 -0.8574  2.8102
 9217SOL    HW239285   2.200   4.427   2.599  0.1142  2.0134 -0.4474
 9218SOL     OW39286   2.822   2.844   3.672 -0.0558 -0.4711  0.2776
 9218SOL    HW139287   2.835   2.898   3.595  0.0302 -1.2891 -0.2824
 9218SOL    HW239288   2.909   2.849   3.711 -0.4564  0.1844  1.0912
 9219SOL     OW39289   0.074   4.271  17.676  0.2972  0.0651  0.0478
 9219SOL    HW139290   4.731   4.271  17.625  0.9540  1.2768 -1.0049
 9219SOL    HW239291   0.047   4.213  17.748 -1.5788  0.3855 -0.3902
 9220SOL     OW39292   2.921   0.624  15.772 -0.4919 -0.3655  0.1021
 9220SOL    HW139293   2.860   0.677  15.722 -0.1128 -1.5475 -1.6263
 9220SOL    HW239294   2.867   0.553  15.807  1.0882 -0.9381  1.3848
 9221SOL     OW39295   0.758   3.620  15.944 -0.0603 -0.2550 -0.5091
 9221SOL    HW139296   0.728   3.568  16.018 -0.8507 -1.0744 -1.4219
 9221SOL    HW239297   0.685   3.615  15.883 -0.2526  0.4378 -0.3329
 9222SOL     OW39298   2.988   0.019   2.997 -0.9515 -0.0651  0.4374
 9222SOL    HW139299   3.012   4.665   2.992  0.7100  0.5218 -2.3211
 9222SOL    HW239300   2.959   0.025   2.906 -0.4752 -0.4708  0.2610
 9223SOL     OW39301   2.854   3.153   5.064  0.4824 -0.6745  0.2200
 9223SOL    HW139302   2.865   3.210   5.140  2.2980 -1.0577  0.2293
 9223SOL    HW239303   2.764   3.121   5.075 -0.3599  1.6999  0.3615
 9224SOL     OW39304   1.860   3.444   5.937  0.2919  0.2533 -0.4366
 9224SOL    HW139305   1.772   3.459   5.902 -0.2341 -0.4486  0.5809
 9224SOL    HW239306   1.897   3.528   5.911 -0.3473  0.3363 -1.0645
 9225SOL     OW39307   1.612   3.002   5.926 -0.1451  0.0047 -0.5759
 9225SOL    HW139308   1.581   2.991   5.836 -2.6650 -2.5337  0.5740
 9225SOL    HW239309   1.650   2.914   5.933  1.3787  0.8730  1.9873
 9226SOL     OW39310   4.044   2.960   6.349 -0.3077  0.3618  1.2225
 9226SOL    HW139311   4.115   2.911   6.389 -0.4481  1.3726  2.7206
 9226SOL    HW239312   4.042   2.938   6.256 -1.6629 -2.1414  1.8550
 9227SOL     OW39313   3.366   4.645   4.002 -0.1141 -0.6221 -0.2633
 9227SOL    HW139314   3.382   4.629   3.909 -0.0445 -1.7691 -0.0496
 9227SOL    HW239315   3.299   4.712   4.013  0.4337 -0.1018 -0.0822
 9228SOL     OW39316   0.491   1.264  13.164 -0.2107  0.2233 -0.2541
 9228SOL    HW139317   0.552   1.195  13.138 -0.0970  0.9621 -1.9573
 9228SOL    HW239318   0.541   1.309  13.232 -1.0958  1.2723 -0.3023
 9229SOL     OW39319   3.514   3.630   8.024  0.2188  0.3152 -0.4601
 9229SOL    HW139320   3.462   3.616   7.945 -2.3631  0.4565  1.1831
 9229SOL    HW239321   3.490   3.555   8.079 -2.5461  1.6151  0.1161
 9230SOL     OW39322   0.427   2.062   1.325 -0.0507 -0.1771 -0.2369
 9230SOL    HW139323   0.517   2.066   1.292 -0.1720  2.4256 -0.2948
 9230SOL    HW239324   0.451   2.017   1.405 -0.4067  0.1050  0.0287
 9231SOL     OW39325   1.607   2.303   5.074 -0.6808 -0.2443 -0.1315
 9231SOL    HW139326   1.663   2.348   5.138 -0.8984  0.4239 -0.4071
 9231SOL    HW239327   1.604   2.212   5.105  0.1337 -0.0021  0.6783
 9232SOL     OW39328   1.701   2.450   1.674 -0.9660 -0.6113 -0.5055
 9232SOL    HW139329   1.777   2.488   1.629 -1.1727 -0.2933 -0.5851
 9232SOL    HW239330   1.627   2.473   1.619 -0.0206  2.5635 -0.4713
 9233SOL     OW39331   4.670   4.065   7.380  0.8126  0.4839  0.4542
 9233SOL    HW139332   4.633   4.143   7.338 -0.7573  1.3600  3.4737
 9233SOL    HW239333   4.657   4.082   7.473 -1.6070  0.4794  0.1246
 9234SOL     OW39334   0.537   2.662  14.458 -0.0202  0.5385  0.3069
 9234SOL    HW139335   0.598   2.629  14.391 -1.6913 -0.1225 -0.9116
 9234SOL    HW239336   0.466   2.695  14.402 -0.3891 -0.4149  0.1970
 9235SOL     OW39337   3.758   2.571   0.878  0.0863  0.5523 -0.7674
 9235SOL    HW139338   3.850   2.575   0.906 -0.2368 -1.7585  0.6086
 9235SOL    HW239339   3.768   2.534   0.790  1.0484 -0.8426 -0.0768
 9236SOL     OW39340   4.654   4.685  14.072  0.2355 -0.5056  0.1396
 9236SOL    HW139341   4.692   4.668  14.158  2.1458 -3.5466 -1.2960
 9236SOL    HW239342   4.648   4.598  14.031  0.4958  0.4990 -2.0443
 9237SOL     OW39343   1.815   4.197   6.389  0.4729 -0.4549  0.0949
 9237SOL    HW139344   1.772   4.277   6.420 -0.4517 -0.8995 -0.0474
 9237SOL    HW239345   1.893   4.201   6.445  0.6660  0.7267 -0.2620
 9238SOL     OW39346   2.162   0.332   4.405 -0.0430 -0.1572 -0.0622
 9238SOL    HW139347   2.131   0.370   4.322  1.0495  1.1443  0.1082
 9238SOL    HW239348   2.097   0.372   4.463  0.3154 -0.4034  0.5059
 9239SOL     OW39349   0.689   0.079   4.131  0.3465 -0.7296 -0.0322
 9239SOL    HW139350   0.653   0.078   4.042  1.3015  1.5916 -0.4436
 9239SOL    HW239351   0.653   0.160   4.164 -1.1719 -1.8865  1.1535
 9240SOL     OW39352   0.308   1.795   7.828  0.1681 -0.0004  0.1135
 9240SOL    HW139353   0.284   1.887   7.827  2.6854  0.6525 -1.6054
 9240SOL    HW239354   0.339   1.790   7.737  0.0198  0.9922  0.0170
 9241SOL     OW39355   2.355   0.435   5.609 -0.1113 -0.0006  0.3851
 9241SOL    HW139356   2.400   0.499   5.665 -1.2370 -0.1816  1.4980
 9241SOL    HW239357   2.265   0.465   5.623 -0.5139 -0.2643 -1.7433
 9242SOL     OW39358   2.148   1.961   2.554  0.4800 -0.4238  0.2814
 9242SOL    HW139359   2.124   1.971   2.462  1.5464  3.6541  0.4456
 9242SOL    HW239360   2.172   2.049   2.584 -0.6898  0.0672 -0.2275
 9243SOL     OW39361   1.034   1.013   1.106  0.6405  0.2584 -0.1701
 9243SOL    HW139362   1.090   1.009   1.183 -0.1767  0.3640  0.4346
 9243SOL    HW239363   1.034   1.107   1.084 -1.0976  0.7192  1.7977
 9244SOL     OW39364   0.013   4.031   5.044 -0.2154 -0.2574  0.5002
 9244SOL    HW139365   0.049   3.968   5.107  0.3199 -0.9950 -0.5343
 9244SOL    HW239366   0.018   4.115   5.088  0.2480  0.4270 -0.8537
 9245SOL     OW39367   1.576   4.207  16.967  0.0430  0.1606 -0.1878
 9245SOL    HW139368   1.636   4.141  16.931  0.6197 -0.0831  1.2301
 9245SOL    HW239369   1.542   4.168  17.048  1.6790 -1.5155 -0.3160
 9246SOL     OW39370   4.011   1.422   3.648 -0.5414  0.3534  0.0382
 9246SOL    HW139371   4.007   1.512   3.680  1.7819  0.0886  1.0452
 9246SOL    HW239372   3.921   1.410   3.618 -0.7268  1.2631  0.2209
 9247SOL     OW39373   1.675   2.529  11.016 -0.3236  0.0570  0.2965
 9247SOL    HW139374   1.597   2.506  11.067  0.1566  0.3107  1.1459
 9247SOL    HW239375   1.701   2.611  11.059  1.2126 -1.2356  1.8154
 9248SOL     OW39376   0.399   0.533   9.571 -0.7087  0.6116 -0.9914
 9248SOL    HW139377   0.343   0.520   9.648 -0.2895  0.6923 -0.6708
 9248SOL    HW239378   0.484   0.526   9.615 -1.0035 -0.0301 -0.5230
 9249SOL     OW39379   3.018   2.937   5.882 -0.1869  0.0233 -0.0432
 9249SOL    HW139380   3.106   2.970   5.865 -0.7329  2.6722  2.2748
 9249SOL    HW239381   2.983   2.930   5.793 -0.0978  1.2700 -0.1852
 9250SOL     OW39382   4.078   1.619   8.874  0.2194 -0.4166  0.1048
 9250SOL    HW139383   4.122   1.701   8.853  1.5913 -1.6043 -1.7362
 9250SOL    HW239384   4.067   1.595   8.782 -1.1664  0.7282 -0.0155
 9251SOL     OW39385   0.982   0.434   3.244  0.7153  0.3673 -0.4709
 9251SOL    HW139386   1.019   0.354   3.280 -0.7338 -0.0530  0.0960
 9251SOL    HW239387   0.906   0.396   3.200  0.9797 -0.9006  0.1837
 9252SOL     OW39388   1.926   0.412   6.399 -0.4955  0.6870  0.0911
 9252SOL    HW139389   2.021   0.412   6.402 -0.4532 -1.4079 -0.8731
 9252SOL    HW239390   1.905   0.324   6.432 -0.0077  0.2609 -0.7542
 9253SOL     OW39391   4.565   2.196  17.162 -0.4725 -0.5671  0.2657
 9253SOL    HW139392   4.601   2.256  17.227 -0.6540 -1.4896  1.2144
 9253SOL    HW239393   4.518   2.256  17.104  0.5496  1.3526  1.4460
 9254SOL     OW39394   2.335   2.724  12.208 -0.2653 -0.4596 -0.1253
 9254SOL    HW139395   2.426   2.711  12.182 -0.0734 -0.5989  0.6161
 9254SOL    HW239396   2.326   2.817  12.231 -0.3970 -0.3742 -0.5181
 9255SOL     OW39397   3.743   3.345   2.598 -0.1391 -0.3948 -0.5216
 9255SOL    HW139398   3.671   3.351   2.535 -0.4263  2.6487  0.0833
 9255SOL    HW239399   3.805   3.404   2.555 -0.3599  1.1233  1.2498
 9256SOL     OW39400   3.311   0.788   1.123 -0.2941  0.2656 -0.7133
 9256SOL    HW139401   3.390   0.737   1.141  0.6250  2.4777  1.4776
 9256SOL    HW239402   3.335   0.872   1.162 -1.6221  0.0602  0.5470
 9257SOL     OW39403   1.929   2.050   7.988 -0.4430  0.5644 -0.4887
 9257SOL    HW139404   1.863   2.053   8.057  1.5306 -1.6208  1.4913
 9257SOL    HW239405   1.985   1.983   8.026  0.1367  0.5215 -1.4225
 9258SOL     OW39406   3.224   0.884   5.149 -0.3798  0.1992 -0.0679
 9258SOL    HW139407   3.199   0.900   5.240 -1.4070  2.7352 -0.7882
 9258SOL    HW239408   3.190   0.797   5.128  0.7354 -0.1636 -0.3141
 9259SOL     OW39409   4.112   3.293   4.598 -0.2780  0.1096  0.0657
 9259SOL    HW139410   4.196   3.301   4.644  0.0497  1.0276 -0.7007
 9259SOL    HW239411   4.141   3.268   4.510 -0.6460  0.9037 -0.2771
 9260SOL     OW39412   3.790   0.148   5.261 -0.3475  0.2382 -0.2815
 9260SOL    HW139413   3.707   0.173   5.302  0.1784 -0.1604  1.0287
 9260SOL    HW239414   3.813   0.066   5.305  2.6940  1.4777  0.4828
 9261SOL     OW39415   4.220   4.188  10.051  0.1024 -0.3685 -0.1497
 9261SOL    HW139416   4.208   4.227  10.137 -1.3555  0.7167 -0.8441
 9261SOL    HW239417   4.306   4.148  10.064  0.1403 -0.0782  0.5059
 9262SOL     OW39418   3.911   4.577  10.303  0.3505 -0.3045  0.1033
 9262SOL    HW139419   3.964   4.648  10.339 -0.5094  0.9344 -1.0826
 9262SOL    HW239420   3.825   4.611  10.325  0.6225  0.2013  0.3758
 9263SOL     OW39421   2.496   0.505  16.031  0.3396 -0.1955  0.3538
 9263SOL    HW139422   2.516   0.535  16.119  0.9706  1.6813 -0.4246
 9263SOL    HW239423   2.410   0.547  16.027  1.0923  1.2519 -0.5123
 9264SOL     OW39424   1.918   1.586   4.780 -0.5579  0.2686  0.3394
 9264SOL    HW139425   1.973   1.663   4.792  0.1837  0.0449 -1.6362
 9264SOL    HW239426   1.910   1.553   4.869 -3.7862 -0.7116 -0.3124
 9265SOL     OW39427   3.115   1.773  15.520  0.4346  0.2049 -0.4046
 9265SOL    HW139428   3.092   1.746  15.609  0.0852  0.7470 -0.3320
 9265SOL    HW239429   3.146   1.689  15.485 -0.4766 -0.6135  0.7607
 9266SOL     OW39430   4.413   3.251  12.279 -0.1711  0.1582 -0.0343
 9266SOL    HW139431   4.399   3.171  12.329  1.2897  0.9156  1.5715
 9266SOL    HW239432   4.355   3.223  12.208  0.2492 -0.5149 -0.1185
 9267SOL     OW39433   3.365   3.415   4.235  0.7420  0.6008  0.4294
 9267SOL    HW139434   3.398   3.481   4.173  3.5252 -1.9671 -0.8561
 9267SOL    HW239435   3.294   3.372   4.187  2.3101  0.2751 -1.6067
 9268SOL     OW39436   2.269   0.588   2.980  0.2687 -0.0009  0.1266
 9268SOL    HW139437   2.188   0.537   2.984 -0.8001  1.5605 -1.5292
 9268SOL    HW239438   2.274   0.606   2.887 -1.4027  1.6059  0.3265
 9269SOL     OW39439   0.331   1.750   3.292  0.1056 -0.4940  0.2605
 9269SOL    HW139440   0.303   1.760   3.384  0.5276 -1.8464  0.5260
 9269SOL    HW239441   0.261   1.705   3.245  0.5872 -0.7768 -0.1770
 9270SOL     OW39442   1.268   3.974  11.792 -0.5146  0.2441 -1.0226
 9270SOL    HW139443   1.286   4.004  11.703  1.0666 -3.4217 -1.9270
 9270SOL    HW239444   1.335   3.906  11.803 -1.6871 -0.6859  0.2798
 9271SOL     OW39445   1.854   3.011  16.544  0.0435 -0.2337  0.3662
 9271SOL    HW139446   1.798   3.079  16.505  0.5326  0.6393  1.1865
 9271SOL    HW239447   1.789   2.943  16.561 -2.4137  1.5819 -1.7010
 9272SOL     OW39448   4.732   1.360  15.071 -0.5769  0.2446 -0.2775
 9272SOL    HW139449   4.652   1.366  15.123  0.7987 -1.5597  2.0704
 9272SOL    HW239450   4.725   1.433  15.010 -0.6106  0.4069 -0.0787
 9273SOL     OW39451   2.285   1.038   7.310 -0.5324  0.0002  0.1887
 9273SOL    HW139452   2.233   0.958   7.317 -0.1965 -0.0906  1.7026
 9273SOL    HW239453   2.358   1.026   7.371 -1.5921  0.0704  1.4579
 9274SOL     OW39454   4.237   4.257   7.500 -0.0071 -0.0586  0.1694
 9274SOL    HW139455   4.301   4.326   7.480 -0.4676  0.6381  1.1453
 9274SOL    HW239456   4.258   4.245   7.593 -1.3764  1.9240  0.7123
 9275SOL     OW39457   1.901   4.445  14.417  0.1170  0.1391 -0.1047
 9275SOL    HW139458   1.941   4.364  14.387 -0.4963 -0.4053  0.5438
 9275SOL    HW239459   1.919   4.453  14.511  1.5658  1.0393 -0.4587
 9276SOL     OW39460   2.105   4.283  13.352  0.1239 -0.5389  0.4721
 9276SOL    HW139461   2.163   4.233  13.294  0.7272  0.0610  0.5541
 9276SOL    HW239462   2.069   4.218  13.413 -0.2107 -1.8001 -1.0732
 9277SOL     OW39463   4.116   0.342   3.949  0.2645 -0.2656 -0.6744
 9277SOL    HW139464   4.126   0.370   4.040 -1.2420  1.6209 -1.0995
 9277SOL    HW239465   4.203   0.360   3.914  0.2099 -1.9648 -1.6898
 9278SOL     OW39466   3.043   2.705   0.554  0.0124 -0.4642  0.0850
 9278SOL    HW139467   3.134   2.726   0.531 -0.6136  2.6023  0.4872
 9278SOL    HW239468   3.025   2.635   0.491 -2.8701  1.2884 -1.0116
 9279SOL     OW39469   4.534   3.043  12.449 -0.3969  0.6075  0.1811
 9279SOL    HW139470   4.571   3.014  12.365 -1.5680 -1.2082  0.2949
 9279SOL    HW239471   4.482   2.966  12.471  0.8212 -0.9753 -2.4730
 9280SOL     OW39472   0.437   3.119   1.435 -0.0891  1.0499 -0.0830
 9280SOL    HW139473   0.519   3.128   1.385  0.7191 -0.0264  1.0520
 9280SOL    HW239474   0.463   3.051   1.497 -1.1606  1.0098  0.3163
 9281SOL     OW39475   2.192   4.428   4.683 -0.5241  0.7583 -0.3156
 9281SOL    HW139476   2.153   4.354   4.730  3.2813 -2.0272 -1.5899
 9281SOL    HW239477   2.148   4.502   4.725 -0.8152  2.0372 -2.8414
 9282SOL     OW39478   0.042   3.686   1.901 -0.4127 -0.2891  0.2302
 9282SOL    HW139479   4.686   3.698   1.913 -0.6663  0.6598 -2.6983
 9282SOL    HW239480   0.059   3.753   1.835  3.1544  0.2305  1.6602
 9283SOL     OW39481   3.561   3.857   9.605 -0.4762  0.5286 -0.3545
 9283SOL    HW139482   3.497   3.905   9.658  0.4169 -1.3778  2.4231
 9283SOL    HW239483   3.547   3.772   9.645 -0.4015  0.1393 -1.1648
 9284SOL     OW39484   2.448   3.153  17.171  0.7286 -0.2610  0.0830
 9284SOL    HW139485   2.438   3.072  17.220  1.1638 -0.7959 -0.7198
 9284SOL    HW239486   2.411   3.131  17.085  1.4308  4.2115 -1.3899
 9285SOL     OW39487   4.384   3.458   2.442  0.8460 -0.0187  0.2363
 9285SOL    HW139488   4.349   3.431   2.357  1.8051  0.9941 -0.4788
 9285SOL    HW239489   4.419   3.544   2.418  2.1766 -1.3726 -2.6498
 9286SOL     OW39490   0.631   1.661   8.513 -0.6744  0.1200  0.2562
 9286SOL    HW139491   0.616   1.751   8.485 -0.5988  0.0668  0.0487
 9286SOL    HW239492   0.654   1.673   8.605  1.5301  1.7583 -0.5240
 9287SOL     OW39493   1.751   1.562  16.713  0.3479 -0.8442  0.1035
 9287SOL    HW139494   1.770   1.555  16.806  0.6760 -1.6305 -0.0192
 9287SOL    HW239495   1.678   1.502  16.699  0.4642 -0.8284 -0.6194
 9288SOL     OW39496   0.563   2.964   1.096 -0.5585 -0.0866 -0.0791
 9288SOL    HW139497   0.481   3.010   1.111 -1.4901 -0.8145 -2.8640
 9288SOL    HW239498   0.622   2.980   1.169 -0.7251  0.7774 -0.1407
 9289SOL     OW39499   2.941   0.546  13.010  0.0833 -0.7716 -0.2826
 9289SOL    HW139500   3.006   0.611  13.037  1.1134 -1.4386 -1.1437
 9289SOL    HW239501   2.904   0.544  13.098 -0.1135 -2.2941 -0.3950
 9290SOL     OW39502   2.123   4.638   7.860 -0.4429 -0.8426  0.1425
 9290SOL    HW139503   2.214   4.668   7.867 -0.9418  1.0748 -1.4047
 9290SOL    HW239504   2.135   4.543   7.861 -0.8872 -0.8914  1.4922
 9291SOL     OW39505   0.538   1.795   2.682  0.7591  0.6949 -0.0021
 9291SOL    HW139506   0.457   1.831   2.647  0.2398  0.2563  0.7533
 9291SOL    HW239507   0.505   1.781   2.771  1.2581  0.5955  0.1708
 9292SOL     OW39508   1.243   2.404   4.497 -0.1323  0.0472 -0.3454
 9292SOL    HW139509   1.314   2.383   4.558 -0.1127  2.0429  0.3013
 9292SOL    HW239510   1.241   2.328   4.439 -0.5906  0.1579 -0.4779
 9293SOL     OW39511   4.703   2.389   5.171  0.2496  0.2387 -0.3886
 9293SOL    HW139512   4.710   2.481   5.143 -0.0147 -0.5032 -2.9650
 9293SOL    HW239513   4.647   2.398   5.248  1.0019  1.6006 -0.0039
 9294SOL     OW39514   4.706   1.300   6.990  0.1466 -0.4769 -0.5111
 9294SOL    HW139515   0.047   1.246   6.988 -1.4344 -2.8176 -0.6330
 9294SOL    HW239516   4.668   1.285   7.076  1.6333  0.1668  0.2567
 9295SOL     OW39517   3.626   4.672   5.001 -0.0030  0.0024  0.5134
 9295SOL    HW139518   3.687   4.706   5.066 -0.9934  2.1268  0.3431
 9295SOL    HW239519   3.543   4.677   5.048  0.0924  1.5000  0.5239
 9296SOL     OW39520   3.958   3.749   2.908  0.2509 -0.1526  0.7508
 9296SOL    HW139521   3.920   3.783   2.990 -1.0704 -0.9737  0.4799
 9296SOL    HW239522   4.033   3.698   2.937  0.8408 -0.1642 -0.7965
 9297SOL     OW39523   1.542   0.440   2.304 -0.1482  0.2472 -0.5034
 9297SOL    HW139524   1.580   0.527   2.321  1.6078 -0.9575  1.8100
 9297SOL    HW239525   1.606   0.399   2.247  1.5014  1.0847  0.7490
 9298SOL     OW39526   2.570   0.074   7.570 -0.1675  0.5841  0.6099
 9298SOL    HW139527   2.494   0.016   7.560  0.8542 -0.4830 -1.0204
 9298SOL    HW239528   2.585   0.094   7.477  1.4726  0.7641  0.9114
 9299SOL     OW39529   0.967   0.310   9.524  0.2688 -0.2964  0.3133
 9299SOL    HW139530   0.900   0.378   9.517  0.3091 -0.2891  0.0109
 9299SOL    HW239531   0.918   0.243   9.477  0.5275  0.7052 -1.4037
 9300SOL     OW39532   1.807   0.515  10.209  0.3052  0.1263 -0.3124
 9300SOL    HW139533   1.891   0.485  10.174 -0.0524 -1.7837  0.4513
 9300SOL    HW239534   1.771   0.561  10.133  2.6667  1.1427 -0.7940
 9301SOL     OW39535   1.840   1.561  16.967  0.3777  0.4679 -0.0991
 9301SOL    HW139536   1.924   1.571  17.013 -0.4659  1.0695  1.3413
 9301SOL    HW239537   1.788   1.595  17.041 -1.6128 -0.2220 -1.1743
 9302SOL     OW39538   2.360   1.111  14.927  0.1249  0.0632 -0.3021
 9302SOL    HW139539   2.409   1.052  14.984  1.1513  1.3530  0.1351
 9302SOL    HW239540   2.274   1.069  14.914 -0.0527  0.4604 -0.3985
 9303SOL     OW39541   4.196   2.846   9.016  0.0206 -0.0524  0.1047
 9303SOL    HW139542   4.270   2.798   9.055 -2.6029 -3.0129  1.3757
 9303SOL    HW239543   4.137   2.865   9.089  1.1605 -1.9871  1.5431
 9304SOL     OW39544   4.689   2.518   1.424 -0.2559 -0.3412 -0.0206
 9304SOL    HW139545   0.006   2.581   1.469  1.6851 -1.3414 -1.0580
 9304SOL    HW239546   4.600   2.554   1.427 -0.6748 -1.3095 -0.9415
 9305SOL     OW39547   1.542   0.750   1.574  0.2415  0.3193  0.4483
 9305SOL    HW139548   1.584   0.666   1.555 -0.7264 -0.0616 -0.0487
 9305SOL    HW239549   1.447   0.735   1.569 -0.0359  2.0340  0.7032
 9306SOL     OW39550   3.698   2.051  16.100  0.9427 -0.3605  0.5720
 9306SOL    HW139551   3.730   2.019  16.015  1.0729  1.1443  0.0619
 9306SOL    HW239552   3.634   2.117  16.073  0.5328 -1.9508 -2.3563
 9307SOL     OW39553   4.707   3.631   7.292  0.4829 -0.0951  0.3223
 9307SOL    HW139554   4.656   3.707   7.263  1.0197 -0.1126 -0.6983
 9307SOL    HW239555   4.649   3.567   7.251 -1.2985  1.4058  0.5107
 9308SOL     OW39556   4.250   1.569   4.388 -0.5070  0.0759  0.2940
 9308SOL    HW139557   4.270   1.510   4.316 -1.3679  0.6732 -0.4365
 9308SOL    HW239558   4.187   1.513   4.434 -3.0420  1.6360 -1.2826
 9309SOL     OW39559   2.062   0.436   1.358  0.6107  0.0728 -0.5058
 9309SOL    HW139560   2.070   0.478   1.273  3.2314 -1.7234 -1.1287
 9309SOL    HW239561   2.081   0.348   1.326 -0.6476 -0.6062  0.5637
 9310SOL     OW39562   2.457   4.645   3.597 -0.0353 -0.6531 -0.1162
 9310SOL    HW139563   2.548   4.626   3.573  0.0253  0.0272 -0.4237
 9310SOL    HW239564   2.471   4.651   3.691  1.1614 -3.9161 -0.0814
 9311SOL     OW39565   0.201   3.507   7.420 -0.0199 -0.2803  0.1157
 9311SOL    HW139566   0.111   3.523   7.392  0.3271  1.0933 -0.2487
 9311SOL    HW239567   0.197   3.544   7.508  1.7211 -1.4214  0.6742
 9312SOL     OW39568   1.204   0.941   4.981 -0.2053 -0.5411 -0.1556
 9312SOL    HW139569   1.277   0.951   4.921 -0.5137  2.4589 -0.0077
 9312SOL    HW239570   1.232   0.869   5.038  1.5449 -0.6852 -1.2202
 9313SOL     OW39571   4.543   1.135   5.433  0.1788 -0.5434 -0.7830
 9313SOL    HW139572   4.474   1.093   5.485 -0.1550 -0.1024 -0.8649
 9313SOL    HW239573   4.488   1.176   5.366  0.5216  0.2259 -0.5934
 9314SOL     OW39574   4.060   1.169   3.877  0.9187  0.3262 -0.1663
 9314SOL    HW139575   4.149   1.136   3.868  0.9341  1.0637 -2.8425
 9314SOL    HW239576   4.014   1.085   3.872 -0.6446  1.3320 -3.0611
 9315SOL     OW39577   1.710   0.644   4.016  0.2225 -0.3402 -0.8765
 9315SOL    HW139578   1.659   0.589   4.076 -0.3987  0.6050 -0.5339
 9315SOL    HW239579   1.649   0.662   3.945 -1.7848 -4.1112 -0.1651
 9316SOL     OW39580   0.733   0.636   6.198  0.2091  0.3087 -1.0855
 9316SOL    HW139581   0.695   0.653   6.285  1.0340 -1.5178 -0.3621
 9316SOL    HW239582   0.659   0.588   6.161 -1.9774  0.8345  2.5851
 9317SOL     OW39583   2.414   1.417  17.625  0.4212 -0.0288 -0.0154
 9317SOL    HW139584   2.350   1.451  17.687 -0.0844  0.4068 -0.7782
 9317SOL    HW239585   2.498   1.398  17.667  0.6817 -0.4202 -0.6980
 9318SOL     OW39586   0.465   3.482   7.421 -0.5937  0.4202 -0.1744
 9318SOL    HW139587   0.370   3.486   7.415 -0.8353 -0.4155  3.1775
 9318SOL    HW239588   0.474   3.462   7.514  1.3903 -1.6729 -0.8358
 9319SOL     OW39589   3.661   2.880  12.227 -0.1454  0.4754  0.5443
 9319SOL    HW139590   3.727   2.810  12.228  0.7978  1.3456 -1.2874
 9319SOL    HW239591   3.586   2.834  12.189  1.1748 -2.8466  1.8823
 9320SOL     OW39592   3.144   1.856   6.194  0.0891 -0.1520 -0.1233
 9320SOL    HW139593   3.076   1.800   6.231  1.8834  0.0142  3.3578
 9320SOL    HW239594   3.181   1.895   6.273 -0.0741  0.9962 -0.6077
 9321SOL     OW39595   1.747   4.669  12.127  0.1805  0.4753  0.4399
 9321SOL    HW139596   1.671   4.706  12.082  0.9621 -0.6066 -1.7535
 9321SOL    HW239597   1.716   4.686  12.216 -1.1588  1.6455 -0.2518
 9322SOL     OW39598   0.436   0.154   9.797  0.2779  0.3649 -0.3013
 9322SOL    HW139599   0.507   0.119   9.852 -0.3747  1.6008  1.3386
 9322SOL    HW239600   0.487   0.220   9.749  2.0271 -0.0409  0.9770
 9323SOL     OW39601   3.060   4.160   4.750  0.0091 -0.2886  0.5507
 9323SOL    HW139602   3.018   4.241   4.722  0.5715  0.2338  1.2191
 9323SOL    HW239603   3.107   4.132   4.671  1.6970  1.7266  0.8390
 9324SOL     OW39604   2.033   0.019   0.966  0.4847  0.0834  0.0990
 9324SOL    HW139605   2.002   4.668   0.983 -0.1358  0.4590  0.9045
 9324SOL    HW239606   2.117   4.723   0.935  0.9229  1.1965  0.0368
 9325SOL     OW39607   2.732   3.332   3.665  0.3494  0.0470  0.2183
 9325SOL    HW139608   2.706   3.368   3.750 -1.1563 -0.7602  0.1007
 9325SOL    HW239609   2.776   3.255   3.700  2.2938  0.4650 -1.3378
 9326SOL     OW39610   1.943   3.321   1.699  0.2047 -0.0576 -0.3504
 9326SOL    HW139611   1.965   3.344   1.790 -3.0729  1.5683  0.0547
 9326SOL    HW239612   1.862   3.371   1.692 -0.8256 -1.8868 -1.4073
 9327SOL     OW39613   3.598   4.209  16.987 -0.0818 -0.7840  0.8776
 9327SOL    HW139614   3.690   4.182  16.979 -0.0246 -0.8867  1.8697
 9327SOL    HW239615   3.595   4.290  17.038 -2.5293 -0.0920 -0.3900
 9328SOL     OW39616   2.834   1.082   4.125  0.0321 -0.0148  0.1682
 9328SOL    HW139617   2.923   1.050   4.140  1.0158  2.2425 -0.7406
 9328SOL    HW239618   2.856   1.123   4.042 -1.0861  3.3332  1.5042
 9329SOL     OW39619   4.226   1.019  17.713 -0.1260 -0.2179  0.5948
 9329SOL    HW139620   4.203   1.112  17.713  0.4359 -0.0768  0.8986
 9329SOL    HW239621   4.145   0.973  17.735  0.3841 -1.1220  0.5756
 9330SOL     OW39622   3.753   4.146  12.801  0.3966  0.0304  0.4629
 9330SOL    HW139623   3.781   4.209  12.735  2.0614  0.5686  1.6775
 9330SOL    HW239624   3.745   4.196  12.883 -1.1333  0.1583  0.2451
 9331SOL     OW39625   1.802   4.272   4.761  0.1430 -0.1729  0.2853
 9331SOL    HW139626   1.741   4.261   4.834  0.8286 -0.8024  0.7569
 9331SOL    HW239627   1.860   4.338   4.799 -1.1778  0.5278  1.0802
 9332SOL     OW39628   4.424   4.709   4.725 -0.0008  0.1144  0.4106
 9332SOL    HW139629   4.345   4.661   4.701  0.7537 -0.2140 -1.4103
 9332SOL    HW239630   4.475   4.647   4.777  1.5682  0.4668 -0.7349
 9333SOL     OW39631   1.772   1.914   9.469  0.3301  0.1185 -0.6982
 9333SOL    HW139632   1.767   1.834   9.521 -1.2130  0.5024 -0.2492
 9333SOL    HW239633   1.853   1.947   9.508  0.5535 -1.6140  0.2979
 9334SOL     OW39634   4.468   0.116  15.327 -0.4819 -0.0011  0.2913
 9334SOL    HW139635   4.381   0.076  15.327  0.3383 -1.7809  0.9209
 9334SOL    HW239636   4.447   0.209  15.318 -0.6598 -0.3113 -2.6564
 9335SOL     OW39637   4.067   1.179   9.546 -0.3426  0.0673 -0.0586
 9335SOL    HW139638   4.130   1.249   9.533 -0.7023  0.7375  1.8458
 9335SOL    HW239639   4.016   1.208   9.622  0.1937 -1.1461  0.7705
 9336SOL     OW39640   4.492   3.065   3.902  0.3387 -0.4651 -0.4764
 9336SOL    HW139641   4.538   3.091   3.982  0.4847  1.6889 -1.2514
 9336SOL    HW239642   4.399   3.086   3.917  0.5964 -0.5006  1.1184
 9337SOL     OW39643   4.512   0.812  10.920 -0.6399 -0.4813 -0.2486
 9337SOL    HW139644   4.497   0.722  10.893  0.6506 -1.0784  1.0032
 9337SOL    HW239645   4.586   0.829  10.862  0.0905 -0.0840  0.7906
 9338SOL     OW39646   0.906   2.103   7.368  1.0778  0.0738  0.0085
 9338SOL    HW139647   0.827   2.157   7.374  1.2632  0.0182  2.8828
 9338SOL    HW239648   0.914   2.077   7.460 -1.7551  0.9501  0.5022
 9339SOL     OW39649   3.965   3.629   7.082 -0.0013 -0.6249  0.7653
 9339SOL    HW139650   4.034   3.695   7.091  0.0728 -0.3196 -1.9513
 9339SOL    HW239651   4.004   3.554   7.127  1.9293 -1.7495 -2.7801
 9340SOL     OW39652   0.305   4.106  12.361  0.1338  0.0812 -0.0043
 9340SOL    HW139653   0.364   4.062  12.300 -0.9890  2.0240 -2.4889
 9340SOL    HW239654   0.258   4.161  12.298 -1.5023 -0.7541  0.4875
 9341SOL     OW39655   1.275   3.453   6.139 -0.0000  0.0139 -0.0394
 9341SOL    HW139656   1.274   3.401   6.219  3.8481  0.3656  0.2380
 9341SOL    HW239657   1.323   3.395   6.080  1.1667  1.2439 -0.2966
 9342SOL     OW39658   0.063   3.763   7.037 -0.5582  0.1513 -0.3874
 9342SOL    HW139659   0.044   3.713   6.957 -0.5498 -1.0126  0.3578
 9342SOL    HW239660   0.022   3.847   7.013 -1.0805  0.0417  0.1152
 9343SOL     OW39661   0.123   1.721   5.525  0.0720  0.0020  0.5247
 9343SOL    HW139662   0.052   1.780   5.551 -0.3981  0.1870 -1.2082
 9343SOL    HW239663   0.157   1.773   5.452  1.9971 -0.7232  0.9162
 9344SOL     OW39664   3.273   0.945   6.603  0.0836 -0.4725  0.1437
 9344SOL    HW139665   3.316   0.877   6.655  2.5899  1.0606  0.0477
 9344SOL    HW239666   3.288   0.910   6.515 -0.8348  1.1955 -0.6617
 9345SOL     OW39667   2.170   0.217   3.966  0.2746 -0.5049  0.3314
 9345SOL    HW139668   2.140   0.134   4.003 -1.2499  1.0038  2.4512
 9345SOL    HW239669   2.118   0.221   3.885  1.0980  0.0355 -0.1686
 9346SOL     OW39670   3.332   4.263  14.591  0.0378 -0.0577  0.1445
 9346SOL    HW139671   3.266   4.220  14.536 -0.9725 -2.1237  2.9281
 9346SOL    HW239672   3.394   4.190  14.596  1.7857  1.4237 -0.2115
 9347SOL     OW39673   4.689   2.978   9.684  0.0875  0.0286 -0.1926
 9347SOL    HW139674   0.042   3.006   9.677  0.5159 -1.3353  0.0873
 9347SOL    HW239675   4.652   3.061   9.654  1.0924  0.9556  1.1008
 9348SOL     OW39676   0.892   4.217   4.251  0.4789 -0.2316  0.4756
 9348SOL    HW139677   0.862   4.270   4.177 -0.5794 -3.0179 -1.1020
 9348SOL    HW239678   0.888   4.286   4.316  2.0946 -0.2116  0.5610
 9349SOL     OW39679   2.074   2.856   3.192  0.3871 -0.2000 -0.1048
 9349SOL    HW139680   2.098   2.769   3.225 -0.7503 -0.1855  0.7525
 9349SOL    HW239681   2.142   2.905   3.237  0.9844 -0.6892 -0.4624
 9350SOL     OW39682   1.500   3.315  12.989  0.4871 -0.3973  0.3732
 9350SOL    HW139683   1.431   3.322  12.922  0.6067  1.1983  0.4205
 9350SOL    HW239684   1.562   3.255  12.949 -0.2418 -0.0338 -1.3094
 9351SOL     OW39685   1.660   2.836  16.625 -0.1773  0.4872  0.1210
 9351SOL    HW139686   1.600   2.767  16.651 -0.7553  0.2892 -1.7294
 9351SOL    HW239687   1.619   2.915  16.660  0.2210 -0.3614  2.5116
 9352SOL     OW39688   3.158   0.367   2.096  0.0867  0.7854 -0.0332
 9352SOL    HW139689   3.151   0.280   2.135  0.8321  0.9012  0.3606
 9352SOL    HW239690   3.234   0.357   2.038 -1.9539  0.6424 -2.6795
 9353SOL     OW39691   1.996   4.414  14.680  0.3432  0.7740  0.0012
 9353SOL    HW139692   2.070   4.354  14.689  0.3888  0.4856 -2.4104
 9353SOL    HW239693   2.052   4.491  14.668  0.2623  0.9214  0.5775
 9354SOL     OW39694   2.164   3.872   4.374  0.1499  0.2357  0.1581
 9354SOL    HW139695   2.210   3.800   4.416  2.3192  0.0510 -2.5227
 9354SOL    HW239696   2.243   3.921   4.350  0.9958 -1.3854 -0.3600
 9355SOL     OW39697   0.293   4.484   7.082 -0.4444  0.3040  0.0572
 9355SOL    HW139698   0.198   4.491   7.095 -0.4749  0.8170 -0.4289
 9355SOL    HW239699   0.322   4.492   7.173 -0.5752 -1.2999  0.2356
 9356SOL     OW39700   0.198   3.204   1.497  0.0828  0.3230  0.2469
 9356SOL    HW139701   0.287   3.172   1.487 -0.1305  0.8564 -3.2005
 9356SOL    HW239702   0.151   3.200   1.414 -1.1728 -0.1244  0.9741
 9357SOL     OW39703   0.503   3.658   4.814  0.3544 -0.0696 -0.7143
 9357SOL    HW139704   0.538   3.623   4.896 -3.7497  1.9844  1.8714
 9357SOL    HW239705   0.429   3.600   4.797 -0.9968  0.9345  1.8020
 9358SOL     OW39706   2.013   3.167   3.634 -0.1658  0.5837  0.2795
 9358SOL    HW139707   2.089   3.108   3.641 -1.0247 -0.6887 -0.9946
 9358SOL    HW239708   2.043   3.241   3.582  0.3795  0.0794 -0.1277
 9359SOL     OW39709   0.065   1.971   4.402  0.2906  0.0459 -0.7018
 9359SOL    HW139710   0.119   1.893   4.393  1.1780  0.5832 -0.0120
 9359SOL    HW239711   0.114   2.018   4.469 -0.5328 -0.3673  0.1827
 9360SOL     OW39712   2.164   1.804   7.247  0.4080 -0.4738  0.7956
 9360SOL    HW139713   2.102   1.734   7.230 -0.5699  0.6727 -0.3676
 9360SOL    HW239714   2.234   1.763   7.298 -1.0124 -1.5031  1.9186
 9361SOL     OW39715   0.417   1.000   5.476  0.0635 -0.2758  0.3348
 9361SOL    HW139716   0.383   0.912   5.493  1.4448 -0.7852  0.4235
 9361SOL    HW239717   0.348   1.052   5.434 -1.0155 -0.5745  1.7553
 9362SOL     OW39718   2.087   2.065   7.270 -0.0046  0.4081  0.7041
 9362SOL    HW139719   2.128   2.123   7.206 -0.1623  1.4476  1.5303
 9362SOL    HW239720   2.125   1.978   7.257  0.7443  0.5005  2.1722
 9363SOL     OW39721   0.650   3.691   3.228 -0.1338 -0.0958 -0.1959
 9363SOL    HW139722   0.701   3.679   3.308 -1.0039  1.7348  0.6425
 9363SOL    HW239723   0.685   3.774   3.196 -1.3090 -0.0137 -1.2830
 9364SOL     OW39724   3.856   4.528   2.599 -0.0875  0.2019  0.7578
 9364SOL    HW139725   3.840   4.609   2.648 -0.6562  1.1968 -1.0799
 9364SOL    HW239726   3.838   4.569   2.515  0.9922 -2.0231 -0.5404
 9365SOL     OW39727   3.591   4.236   8.173  0.7123 -0.1421 -0.3934
 9365SOL    HW139728   3.562   4.152   8.137 -0.9548  0.2241  0.0509
 9365SOL    HW239729   3.664   4.205   8.226  1.3835  2.6821  0.3181
 9366SOL     OW39730   2.952   2.130  11.248  0.1714 -0.3195  1.0483
 9366SOL    HW139731   2.954   2.040  11.281 -1.4723  0.1642  2.4834
 9366SOL    HW239732   2.865   2.151  11.283 -0.3829  0.1740 -0.5893
 9367SOL     OW39733   0.036   3.522   4.150 -0.0555 -0.2237 -0.3558
 9367SOL    HW139734   0.099   3.573   4.201  0.5012 -1.5370  0.2531
 9367SOL    HW239735   4.687   3.555   4.167 -0.4801 -2.0282  0.9105
 9368SOL     OW39736   1.248   1.378   5.033  0.3727  0.8370  0.3649
 9368SOL    HW139737   1.318   1.373   4.968 -0.4430 -1.3906 -0.3549
 9368SOL    HW239738   1.193   1.451   5.006  0.6216  1.2638  1.0123
 9369SOL     OW39739   3.041   1.933  13.582  0.2997  0.0352 -0.2942
 9369SOL    HW139740   3.077   1.869  13.520  0.4715 -0.4676  0.3148
 9369SOL    HW239741   3.021   1.876  13.657 -1.9928  2.9148  1.2913
 9370SOL     OW39742   1.562   1.501  13.932 -0.2601 -0.1640 -0.4667
 9370SOL    HW139743   1.622   1.508  13.858 -0.8473 -0.6990 -0.9916
 9370SOL    HW239744   1.474   1.516  13.897 -1.0580  0.9803  2.0422
 9371SOL     OW39745   2.411   3.449   2.473  0.3110  1.3106  0.0812
 9371SOL    HW139746   2.472   3.409   2.535 -1.4320  0.6201  1.3627
 9371SOL    HW239747   2.472   3.473   2.403 -0.8832  1.6424 -0.8426
 9372SOL     OW39748   0.970   4.080   7.557  0.6307  0.1738  0.5094
 9372SOL    HW139749   0.942   4.170   7.572 -2.8795 -0.6191 -1.3322
 9372SOL    HW239750   0.884   4.041   7.539  0.0775  2.2009 -1.1526
 9373SOL     OW39751   2.804   4.283  16.765  0.1963  0.4459  0.5682
 9373SOL    HW139752   2.717   4.270  16.727 -0.4170  2.9065  1.1730
 9373SOL    HW239753   2.861   4.257  16.693  0.5926 -0.1139  1.0866
 9374SOL     OW39754   2.082   1.817   3.241  0.3855  0.8733  0.0077
 9374SOL    HW139755   2.118   1.899   3.273 -0.9034 -0.5028  4.9951
 9374SOL    HW239756   2.109   1.759   3.312  3.1690  1.0560 -0.9305
 9375SOL     OW39757   0.529   4.244   3.344  0.0318 -0.2310 -0.3134
 9375SOL    HW139758   0.477   4.214   3.269  0.8718 -0.5536 -0.7717
 9375SOL    HW239759   0.491   4.189   3.413  0.0479  0.1138 -0.0303
 9376SOL     OW39760   2.930   4.363   5.774 -0.6937  0.0193 -0.0814
 9376SOL    HW139761   2.945   4.269   5.789 -3.4943 -0.5877 -1.2205
 9376SOL    HW239762   2.873   4.383   5.848  0.3317  0.2627  0.6480
 9377SOL     OW39763   2.630   2.271   3.501  0.3591  0.2797 -0.0113
 9377SOL    HW139764   2.708   2.216   3.506 -0.9942 -1.5880  0.3214
 9377SOL    HW239765   2.596   2.252   3.589  0.6078  2.2217  0.5166
 9378SOL     OW39766   2.331   4.682   7.569  0.1273  0.0692 -0.5102
 9378SOL    HW139767   2.257   4.670   7.510 -1.1028  1.1601  0.8057
 9378SOL    HW239768   2.365   4.595   7.588  0.0938 -0.0896 -1.1851
 9379SOL     OW39769   4.269   2.542   7.038  0.2107 -0.5777  0.1467
 9379SOL    HW139770   4.356   2.546   6.999  1.2510 -0.8181  2.4567
 9379SOL    HW239771   4.285   2.490   7.117  0.6914 -2.2118 -1.0193
 9380SOL     OW39772   2.548   0.577  12.419 -1.2022 -0.1248 -0.3083
 9380SOL    HW139773   2.638   0.595  12.393 -0.4964 -0.6337  1.7745
 9380SOL    HW239774   2.508   0.663  12.401  0.6000  0.4864 -1.4487
 9381SOL     OW39775   2.634   2.989   5.797  0.3949  0.1453 -0.0984
 9381SOL    HW139776   2.661   3.053   5.731 -0.0021  0.8634  0.4333
 9381SOL    HW239777   2.602   2.921   5.737  2.2606 -1.1382  0.3690
 9382SOL     OW39778   3.772   2.226   7.830  0.0366 -0.1251 -0.1186
 9382SOL    HW139779   3.697   2.171   7.809 -0.6712  0.6138  0.4797
 9382SOL    HW239780   3.805   2.266   7.750 -0.4713 -0.2570 -0.3935
 9383SOL     OW39781   1.151   4.020  12.472  0.0516  0.2189  0.0201
 9383SOL    HW139782   1.218   4.069  12.424 -1.2337 -0.5407 -2.4880
 9383SOL    HW239783   1.094   4.003  12.397 -0.3337  0.2175  0.3113
 9384SOL     OW39784   3.342   3.433   9.684 -0.4873  0.1027  0.5730
 9384SOL    HW139785   3.385   3.495   9.625 -0.2834 -0.0733  0.5337
 9384SOL    HW239786   3.386   3.456   9.766 -1.9813  1.5627  0.9605
 9385SOL     OW39787   1.503   0.708   3.875  0.0757 -0.2009  0.4496
 9385SOL    HW139788   1.420   0.749   3.898  0.9417  0.3894  2.4687
 9385SOL    HW239789   1.494   0.692   3.781  0.8156  0.7432  0.2246
 9386SOL     OW39790   1.720   0.995   2.597 -0.6715 -0.2952  0.2960
 9386SOL    HW139791   1.682   1.002   2.685 -1.0515  3.4607 -0.1442
 9386SOL    HW239792   1.670   0.924   2.558 -1.6412  0.5367  0.0147
 9387SOL     OW39793   2.959   4.165   3.217  0.4938  0.5272 -0.3984
 9387SOL    HW139794   2.942   4.242   3.271  1.6429 -0.2398  1.0708
 9387SOL    HW239795   3.047   4.183   3.184  0.4759  1.1547 -0.1053
 9388SOL     OW39796   1.415   2.506  11.143 -0.2878  0.6293 -0.1821
 9388SOL    HW139797   1.444   2.576  11.201  0.1321  0.4094 -0.1255
 9388SOL    HW239798   1.334   2.544  11.109 -0.9423 -0.6491 -0.0597
 9389SOL     OW39799   2.106   3.165  16.472  0.3181 -0.2398 -0.0375
 9389SOL    HW139800   2.166   3.131  16.406  0.2779  0.8430 -0.6416
 9389SOL    HW239801   2.034   3.104  16.455  0.2419  0.3426 -1.7936
 9390SOL     OW39802   2.882   4.182   8.572 -0.3476  0.5906 -0.2293
 9390SOL    HW139803   2.928   4.266   8.583  1.2365 -0.5680  1.7664
 9390SOL    HW239804   2.798   4.229   8.569 -1.1530 -0.7799  0.7327
 9391SOL     OW39805   2.569   1.337   1.799  0.5165 -0.0457  0.2591
 9391SOL    HW139806   2.478   1.317   1.776  1.1353 -0.5912 -1.7378
 9391SOL    HW239807   2.605   1.252   1.827  1.4715 -1.0532 -4.0540
 9392SOL     OW39808   3.292   1.802  12.135 -0.2775  0.1381 -0.0694
 9392SOL    HW139809   3.344   1.732  12.095 -2.1640 -1.4257  0.2290
 9392SOL    HW239810   3.267   1.839  12.051  2.2986  0.4537 -0.7054
 9393SOL     OW39811   3.788   1.728   1.207  0.7811 -0.2528 -0.0678
 9393SOL    HW139812   3.879   1.751   1.227 -0.1485  1.5345  2.1007
 9393SOL    HW239813   3.744   1.711   1.290  2.0228  0.8210  0.8085
 9394SOL     OW39814   1.751   4.617   8.269  0.5527 -0.2673 -0.7294
 9394SOL    HW139815   1.840   4.637   8.242 -0.1017  2.3383 -1.0291
 9394SOL    HW239816   1.762   4.540   8.324 -0.9248  1.2747  1.7734
 9395SOL     OW39817   4.058   4.262  12.797  0.3565  0.2062 -0.0511
 9395SOL    HW139818   3.980   4.316  12.789  0.5884  0.5851  0.2763
 9395SOL    HW239819   4.103   4.298  12.720  0.8202  0.7660  0.4840
 9396SOL     OW39820   0.655   0.214  11.429 -0.3746  0.5494 -0.9310
 9396SOL    HW139821   0.674   0.295  11.381  0.0183  1.1910  0.3023
 9396SOL    HW239822   0.638   0.163  11.350  2.5126  0.1200 -1.2759
 9397SOL     OW39823   4.045   1.940   0.108 -0.1073  0.3673  0.3770
 9397SOL    HW139824   4.094   2.008   0.062  0.8184 -0.2994  0.3683
 9397SOL    HW239825   3.989   1.910   0.037  2.7610 -0.3264 -1.5861
 9398SOL     OW39826   0.796   4.566   2.297 -0.0508 -0.0383  0.3432
 9398SOL    HW139827   0.871   4.516   2.330 -0.2452 -1.3268 -1.1580
 9398SOL    HW239828   0.826   4.656   2.309 -1.3405  0.4649 -0.2289
 9399SOL     OW39829   3.132   2.763   4.934 -0.4329  0.3459 -0.4164
 9399SOL    HW139830   3.129   2.809   5.018  0.7041 -0.6416  0.1456
 9399SOL    HW239831   3.142   2.674   4.968 -0.5630  1.5505  2.7817
 9400SOL     OW39832   0.656   4.170  16.510  0.4467  0.3592 -0.2161
 9400SOL    HW139833   0.676   4.155  16.417 -0.7813  0.9199 -0.5731
 9400SOL    HW239834   0.582   4.109  16.519  2.2054 -1.5937  0.9761
 9401SOL     OW39835   1.334   0.084   3.411  0.0165  0.3244 -0.1630
 9401SOL    HW139836   1.297   0.054   3.328 -1.9572  0.5508  0.6182
 9401SOL    HW239837   1.392   0.012   3.435  0.9173  0.9139 -0.5978
 9402SOL     OW39838   1.147   4.565   8.674  0.1997 -0.3979 -0.4724
 9402SOL    HW139839   1.215   4.553   8.739  3.0010  1.7645 -3.0119
 9402SOL    HW239840   1.108   4.651   8.690 -2.1700 -1.4271 -0.6219
 9403SOL     OW39841   4.595   3.936  17.220 -0.4325  0.0549  0.2859
 9403SOL    HW139842   4.550   3.922  17.304  1.4093 -0.8104  1.1182
 9403SOL    HW239843   4.648   4.013  17.239 -0.1235 -0.3785  1.1723
 9404SOL     OW39844   0.968   2.225   7.846  0.0236 -0.6413  1.0509
 9404SOL    HW139845   1.040   2.220   7.909  1.5250 -0.5598 -0.6409
 9404SOL    HW239846   0.915   2.269   7.913 -0.0895  1.1740 -0.2210
 9405SOL     OW39847   0.596   0.900   9.683  0.2652  0.8047 -0.5186
 9405SOL    HW139848   0.576   0.818   9.729 -1.0445 -0.1854 -2.8600
 9405SOL    HW239849   0.520   0.908   9.625  0.0262  3.4108  0.1488
 9406SOL     OW39850   3.386   2.921   1.315  0.3476 -0.2828  1.3200
 9406SOL    HW139851   3.291   2.912   1.307  0.5790 -2.6705  1.3742
 9406SOL    HW239852   3.402   2.936   1.408 -0.0586  1.2447  1.1480
 9407SOL     OW39853   0.480   2.522   7.803 -0.2089  0.0446 -0.2920
 9407SOL    HW139854   0.462   2.438   7.845  0.3301 -0.3982 -0.9448
 9407SOL    HW239855   0.572   2.514   7.781 -0.3338  1.0795 -1.1758
 9408SOL     OW39856   4.585   1.271  11.386 -0.4285  0.0163 -0.1988
 9408SOL    HW139857   4.560   1.231  11.303  0.2393 -1.7914  0.4536
 9408SOL    HW239858   4.547   1.356  11.367 -1.2852 -0.4192 -0.4362
 9409SOL     OW39859   0.010   4.126  15.850 -0.5612  0.2944 -0.1466
 9409SOL    HW139860   4.691   4.081  15.788 -3.4072  1.8887  1.3137
 9409SOL    HW239861   4.696   4.205  15.866 -0.1674  0.4799  0.2168
 9410SOL     OW39862   2.704   0.442   1.821 -0.1416 -0.0141 -0.3355
 9410SOL    HW139863   2.727   0.466   1.911  0.4678 -0.3192 -0.4101
 9410SOL    HW239864   2.758   0.366   1.798  1.1857  1.3103 -1.5467
 9411SOL     OW39865   0.060   2.390   8.093  0.2014 -0.3031 -0.1712
 9411SOL    HW139866   0.009   2.336   8.153  1.4779 -1.4423 -0.1107
 9411SOL    HW239867   0.133   2.333   8.071  0.0191  0.0181 -1.6270
 9412SOL     OW39868   1.272   2.890   7.858 -0.1656 -0.1476 -0.5084
 9412SOL    HW139869   1.223   2.895   7.776 -2.0969 -1.4615  0.5613
 9412SOL    HW239870   1.357   2.858   7.828 -1.1880 -2.6612 -0.7547
 9413SOL     OW39871   4.368   4.188   6.207 -0.0414  0.4476 -0.2585
 9413SOL    HW139872   4.285   4.223   6.239 -0.7753 -0.2148 -1.4254
 9413SOL    HW239873   4.426   4.245   6.257 -0.0217 -0.1994  0.4636
 9414SOL     OW39874   0.696   0.115   4.707 -0.1164 -0.1871 -0.2017
 9414SOL    HW139875   0.792   0.117   4.704 -0.1582  0.0859 -1.4524
 9414SOL    HW239876   0.674   0.186   4.767 -0.2447  0.3435 -0.8813
 9415SOL     OW39877   4.357   2.573   1.762  0.1221  0.3936  0.1204
 9415SOL    HW139878   4.404   2.633   1.704 -0.2761 -0.9390 -1.5962
 9415SOL    HW239879   4.347   2.492   1.711  1.6579  0.1585  0.1727
 9416SOL     OW39880   0.600   3.492   5.005 -0.7005 -0.4204 -0.5291
 9416SOL    HW139881   0.652   3.436   5.063 -0.1372  0.1090 -0.5259
 9416SOL    HW239882   0.595   3.435   4.928  2.8578 -1.0884 -0.2798
 9417SOL     OW39883   3.648   0.287  12.462  0.0261 -0.1397  0.0329
 9417SOL    HW139884   3.649   0.200  12.501 -1.4962 -0.7354 -1.2569
 9417SOL    HW239885   3.608   0.342  12.529 -1.6089 -0.6578 -0.5140
 9418SOL     OW39886   1.042   3.110   9.411 -0.2271 -0.0063 -0.0297
 9418SOL    HW139887   1.048   3.168   9.335 -0.7604  1.1575  0.8221
 9418SOL    HW239888   0.995   3.168   9.471  0.3880  2.0530 -1.5266
 9419SOL     OW39889   0.278   2.624  14.866 -0.0552  0.4793  0.0296
 9419SOL    HW139890   0.370   2.646  14.852  0.5080 -1.4632  0.5576
 9419SOL    HW239891   0.280   2.544  14.919 -1.2972  1.7081  1.9125
 9420SOL     OW39892   0.080   0.603   9.026  0.0478 -0.1722  0.5219
 9420SOL    HW139893   0.075   0.559   8.941 -1.3779  0.8591  0.0727
 9420SOL    HW239894   0.016   0.554   9.077 -0.5198 -0.2951 -0.3054
 9421SOL     OW39895   4.053   1.111   5.123 -0.2185 -0.1610 -0.0101
 9421SOL    HW139896   4.101   1.118   5.041 -1.5140  0.0665 -0.7493
 9421SOL    HW239897   4.002   1.192   5.119 -0.3859 -0.2869 -0.3985
 9422SOL     OW39898   4.321   2.832  14.334 -0.3230 -0.3491 -0.6451
 9422SOL    HW139899   4.356   2.775  14.266  1.6165  1.9808 -1.6045
 9422SOL    HW239900   4.396   2.887  14.358  0.4531 -1.7991  0.2171
 9423SOL     OW39901   1.940   4.660  13.265  0.0205  0.1359  0.7606
 9423SOL    HW139902   1.934   4.594  13.334 -0.2434 -1.0014 -0.3491
 9423SOL    HW239903   1.855   4.705  13.270  1.6041  3.1106  1.0296
 9424SOL     OW39904   4.115   2.313   7.658 -0.0339 -0.9801 -0.0953
 9424SOL    HW139905   4.086   2.403   7.668  1.1388 -0.5387 -0.6911
 9424SOL    HW239906   4.125   2.305   7.563  0.8776  1.5810 -0.2111
 9425SOL     OW39907   1.977   1.390  10.727  0.2395  0.7228 -0.2558
 9425SOL    HW139908   2.008   1.364  10.640 -0.5320  1.3969 -0.7376
 9425SOL    HW239909   2.037   1.463  10.743  0.7060 -0.1687  2.0082
 9426SOL     OW39910   1.872   3.793   0.614 -0.3454  0.1604 -0.0094
 9426SOL    HW139911   1.880   3.698   0.625  0.2379  0.2745  0.5904
 9426SOL    HW239912   1.920   3.804   0.532  0.3423  0.7325  0.4683
 9427SOL     OW39913   1.548   0.469  15.330 -0.2845 -0.6005 -0.1469
 9427SOL    HW139914   1.602   0.406  15.379 -0.1279  0.9378  1.6444
 9427SOL    HW239915   1.463   0.426  15.334 -0.4056 -0.2971  0.4987
 9428SOL     OW39916   0.932   3.023   6.209 -0.4701  0.4758 -0.1248
 9428SOL    HW139917   0.968   2.963   6.144 -0.3352 -0.2557  0.6183
 9428SOL    HW239918   0.905   2.963   6.278  1.6977  0.3649  0.6533
 9429SOL     OW39919   3.160   2.209   5.896 -0.2466 -0.2414  0.2370
 9429SOL    HW139920   3.145   2.209   5.802  0.7457  0.7167  0.0744
 9429SOL    HW239921   3.128   2.123   5.921  2.5540 -1.7960 -1.5870
 9430SOL     OW39922   0.502   3.528   6.182 -0.7848  0.7276 -0.2098
 9430SOL    HW139923   0.540   3.452   6.139  0.1762  1.0011  0.1506
 9430SOL    HW239924   0.419   3.506   6.142  0.4613  0.0363 -2.3861
 9431SOL     OW39925   0.602   1.331   0.155 -0.1910  0.1284  0.4341
 9431SOL    HW139926   0.658   1.290   0.220  2.6170  0.1340 -1.9701
 9431SOL    HW239927   0.655   1.352   0.078  0.0356 -0.1047  0.5287
 9432SOL     OW39928   3.986   4.682  13.187 -0.1446 -0.5349  0.1909
 9432SOL    HW139929   3.931   4.670  13.264 -1.2539  0.4895 -0.4434
 9432SOL    HW239930   4.059   4.620  13.185 -0.2387 -0.6271 -0.4661
 9433SOL     OW39931   2.400   0.118   2.291  0.0096  0.0379 -0.5757
 9433SOL    HW139932   2.421   0.082   2.378  2.2155  2.0642 -0.2519
 9433SOL    HW239933   2.388   0.212   2.306 -2.3175 -0.6645  2.0165
 9434SOL     OW39934   0.733   2.318  15.612  0.4216 -0.4269  0.3580
 9434SOL    HW139935   0.721   2.244  15.552 -0.5426  0.1469 -0.1707
 9434SOL    HW239936   0.725   2.276  15.697 -0.5840 -0.4061  0.2793
 9435SOL     OW39937   3.921   3.013   7.291 -0.0048 -0.6502  1.1131
 9435SOL    HW139938   3.987   3.060   7.341  0.1355  1.4638 -1.0472
 9435SOL    HW239939   3.846   3.030   7.348 -0.3807  0.6730  0.2164
 9436SOL     OW39940   1.774   0.644   5.982 -0.2542 -0.2274  0.0579
 9436SOL    HW139941   1.736   0.731   5.982  0.9386  0.3099  1.0225
 9436SOL    HW239942   1.696   0.590   5.997 -0.4598  0.2802  0.7891
 9437SOL     OW39943   3.907   1.767   8.637 -0.4258 -0.3094 -0.1516
 9437SOL    HW139944   3.914   1.825   8.561  2.8471 -0.0179  0.3373
 9437SOL    HW239945   3.909   1.682   8.595 -2.3288 -0.5521  0.2693
 9438SOL     OW39946   1.727   0.966  12.585 -0.3307  0.3797 -0.0862
 9438SOL    HW139947   1.733   0.889  12.529 -2.5476 -1.3366  2.0191
 9438SOL    HW239948   1.713   1.037  12.523 -0.4821  1.5108  1.2375
 9439SOL     OW39949   2.373   3.347   3.116  0.4549  0.5179 -0.1595
 9439SOL    HW139950   2.431   3.339   3.191  0.9095 -3.7972 -0.9579
 9439SOL    HW239951   2.335   3.431   3.142  0.8362  0.6881 -0.1429
 9440SOL     OW39952   2.904   1.734   1.635 -0.1911  0.5496 -0.4075
 9440SOL    HW139953   2.921   1.820   1.598  1.5815 -0.5657 -2.1694
 9440SOL    HW239954   2.933   1.745   1.726 -0.8205  0.9414 -0.2491
 9441SOL     OW39955   3.618   2.146   6.312 -0.1038 -0.3037  0.3198
 9441SOL    HW139956   3.535   2.194   6.309 -1.1543 -2.1257 -0.0872
 9441SOL    HW239957   3.669   2.179   6.387  2.8046 -1.0949 -1.3107
 9442SOL     OW39958   4.107   1.591   2.061  0.2233  0.4671  0.3174
 9442SOL    HW139959   4.031   1.547   2.023  0.4584  0.8776 -0.6147
 9442SOL    HW239960   4.143   1.643   1.989  0.4914 -1.6633 -1.0825
 9443SOL     OW39961   2.923   0.296   6.217  0.5250  0.0078  0.5069
 9443SOL    HW139962   2.863   0.279   6.290 -1.6239  0.0846 -1.2205
 9443SOL    HW239963   2.951   0.205   6.206 -3.9650 -1.2718 -0.6175
 9444SOL     OW39964   1.559   1.533   6.111 -0.1543 -0.3124 -0.7966
 9444SOL    HW139965   1.493   1.467   6.091 -1.0927  1.2816 -2.8981
 9444SOL    HW239966   1.542   1.543   6.205 -0.5409  0.4960 -0.9520
 9445SOL     OW39967   1.305   3.344   6.410 -0.0117  0.6349 -0.3247
 9445SOL    HW139968   1.375   3.279   6.398  0.3339  0.7504  1.0143
 9445SOL    HW239969   1.251   3.277   6.452  2.0884 -0.9146 -0.0515
 9446SOL     OW39970   0.136   1.720   6.227  0.4105 -0.0143 -0.1516
 9446SOL    HW139971   0.217   1.747   6.184  0.1286 -1.2531 -1.4268
 9446SOL    HW239972   0.178   1.654   6.283  1.4148  0.2821 -0.5544
 9447SOL     OW39973   0.166   1.804   4.815 -0.4201  0.2133  0.3446
 9447SOL    HW139974   0.177   1.729   4.757 -0.5141  0.3403  0.1637
 9447SOL    HW239975   0.144   1.763   4.899  0.1493 -1.0699 -0.1393
 9448SOL     OW39976   1.265   2.690   4.432 -0.5419  0.1606  0.1558
 9448SOL    HW139977   1.244   2.599   4.451 -0.5810  0.7732  3.0300
 9448SOL    HW239978   1.353   2.678   4.397 -0.1196 -1.1810  1.6835
 9449SOL     OW39979   4.368   2.113  13.459  0.0643  0.8531 -0.1815
 9449SOL    HW139980   4.393   2.021  13.452 -0.2111  0.8102 -0.5781
 9449SOL    HW239981   4.444   2.142  13.409  0.7409  3.0766  2.1280
 9450SOL     OW39982   3.164   3.467   6.053 -0.1608  0.3169 -0.1331
 9450SOL    HW139983   3.246   3.502   6.017 -0.4571 -1.7307 -2.7988
 9450SOL    HW239984   3.169   3.505   6.141 -0.0538 -1.4875  0.6431
 9451SOL     OW39985   0.826   0.892   6.480  0.2394  0.0204  0.3804
 9451SOL    HW139986   0.742   0.907   6.437  0.2076  0.3946  0.5644
 9451SOL    HW239987   0.883   0.929   6.412  0.6920 -0.8438  0.2892
 9452SOL     OW39988   3.621   0.930   2.604  0.1321  0.1535 -0.1843
 9452SOL    HW139989   3.566   0.903   2.530  0.2268  0.0534 -0.2192
 9452SOL    HW239990   3.586   1.011   2.640  0.5203 -0.1934  0.9906
 9453SOL     OW39991   4.555   1.026   5.078 -0.5508  0.3500  0.4838
 9453SOL    HW139992   4.512   1.035   5.163 -2.0422 -0.8076 -0.1391
 9453SOL    HW239993   4.622   1.094   5.087  1.2048 -1.0980 -1.4673
 9454SOL     OW39994   1.656   1.687   5.392 -0.0813  0.2820 -0.1662
 9454SOL    HW139995   1.592   1.757   5.383  2.3601  2.6273  1.0953
 9454SOL    HW239996   1.623   1.621   5.330  0.3959  0.8984 -1.0655
 9455SOL     OW39997   1.273   0.381  10.698 -0.1025  0.2565 -0.1354
 9455SOL    HW139998   1.182   0.394  10.669 -0.0070  0.2693 -0.4219
 9455SOL    HW239999   1.325   0.446  10.652  0.3135 -0.2403 -0.3528
 9456SOL     OW40000   1.025   2.263  13.962  0.0419 -0.4453  0.0440
 9456SOL    HW140001   1.021   2.289  13.870  0.5305 -0.6524 -0.0398
 9456SOL    HW240002   1.107   2.304  13.988  1.1605 -2.0472 -0.9001
 9457SOL     OW40003   3.898   1.935   6.244  0.6639 -0.0002 -0.3090
 9457SOL    HW140004   3.900   1.953   6.338  0.1522 -0.0490 -0.2889
 9457SOL    HW240005   3.809   1.910   6.218  0.0595  0.9143  0.8934
 9458SOL     OW40006   0.630   2.951  11.545  0.4292  0.4888  0.4495
 9458SOL    HW140007   0.546   2.905  11.540 -0.4977  1.9515  2.1962
 9458SOL    HW240008   0.646   2.978  11.455 -3.2686  1.4692  0.0971
 9459SOL     OW40009   2.062   4.684   4.448  0.0894 -0.3967 -0.0707
 9459SOL    HW140010   2.080   4.617   4.382 -1.6240  0.3303 -1.2666
 9459SOL    HW240011   2.149   4.723   4.457  0.5150 -1.1172 -1.0137
 9460SOL     OW40012   2.366   0.419  10.583 -0.4805  0.4082  0.1906
 9460SOL    HW140013   2.357   0.369  10.664  1.0838 -1.9465 -1.0976
 9460SOL    HW240014   2.325   0.361  10.519 -2.0462  2.3349 -0.5603
 9461SOL     OW40015   0.459   1.202   8.848  0.4921  0.1460  0.0708
 9461SOL    HW140016   0.459   1.296   8.831 -3.6556 -0.3629 -2.6447
 9461SOL    HW240017   0.373   1.173   8.819  0.1189 -2.4689  3.8852
 9462SOL     OW40018   1.303   3.236   1.760 -0.4352 -0.2411  0.6571
 9462SOL    HW140019   1.274   3.313   1.810 -0.5639 -0.5493  1.0629
 9462SOL    HW240020   1.346   3.281   1.687 -0.5716 -0.5765  0.3709
 9463SOL     OW40021   2.979   4.705  14.849 -0.2186  0.5460 -0.0910
 9463SOL    HW140022   2.972   4.644  14.776  2.0527  0.2497 -0.0747
 9463SOL    HW240023   3.025   4.647  14.910 -1.8336 -0.0520  0.5508
 9464SOL     OW40024   4.551   4.589  14.434 -0.0024  0.0409 -0.6308
 9464SOL    HW140025   4.605   4.664  14.410 -0.6253 -0.3053 -3.1035
 9464SOL    HW240026   4.602   4.555  14.508 -0.4012  1.1574  0.1546
 9465SOL     OW40027   2.922   3.224  11.059  0.0371  0.0451 -0.0610
 9465SOL    HW140028   2.883   3.308  11.035 -1.6999 -1.0951 -1.3016
 9465SOL    HW240029   3.017   3.227  11.058 -0.0274  2.0965  0.0354
 9466SOL     OW40030   3.002   0.023   4.274 -0.4536  0.0535 -0.2117
 9466SOL    HW140031   2.945   4.685   4.273 -2.8656  1.8612  0.0634
 9466SOL    HW240032   3.083   4.722   4.306 -0.6041 -1.6072 -1.8925
 9467SOL     OW40033   0.796   0.339   1.024  0.0243  0.2780  0.3651
 9467SOL    HW140034   0.738   0.385   1.084 -0.9412  0.8727 -1.0102
 9467SOL    HW240035   0.757   0.354   0.938 -0.8739 -2.1206  0.3573
 9468SOL     OW40036   0.425   4.124   7.758  0.4352 -0.0121 -0.2716
 9468SOL    HW140037   0.369   4.103   7.682  0.8542 -2.2647  0.0298
 9468SOL    HW240038   0.453   4.213   7.738  2.0953 -0.8839 -1.8348
 9469SOL     OW40039   1.838   2.385   9.253 -0.2155  0.5176 -0.1922
 9469SOL    HW140040   1.821   2.382   9.347  0.7583 -0.3632 -0.0538
 9469SOL    HW240041   1.750   2.377   9.216  0.5760  0.8391 -2.1524
 9470SOL     OW40042   3.229   3.289  11.279 -0.6580  0.4434 -0.1136
 9470SOL    HW140043   3.276   3.363  11.240  1.1759 -0.5377  0.2547
 9470SOL    HW240044   3.286   3.214  11.263 -0.0667  0.8469  0.1103
 9471SOL     OW40045   0.309   0.088   6.338 -0.7511 -0.2012 -0.5713
 9471SOL    HW140046   0.308   0.141   6.418 -2.7883  2.2183 -2.2015
 9471SOL    HW240047   0.381   0.133   6.294  0.3637 -1.5106 -0.0677
 9472SOL     OW40048   4.265   1.104   6.059  0.1233 -0.4470  0.1834
 9472SOL    HW140049   4.289   1.131   5.970 -0.0870 -0.9970 -0.0431
 9472SOL    HW240050   4.219   1.180   6.094 -1.7689 -0.3579 -2.4937
 9473SOL     OW40051   4.732   2.648   7.391 -0.0237 -0.4064 -0.0857
 9473SOL    HW140052   0.029   2.606   7.312  2.1178 -0.2766  0.8204
 9473SOL    HW240053   4.643   2.614   7.379 -0.2822  0.2475  0.0022
 9474SOL     OW40054   3.955   4.253  16.608 -0.4316 -0.4464  0.3102
 9474SOL    HW140055   3.872   4.291  16.579  1.3841  2.1489 -1.4952
 9474SOL    HW240056   4.009   4.313  16.556  1.1456 -1.6420  0.5711
 9475SOL     OW40057   1.249   0.365   3.346  0.4879 -0.1000 -0.0458
 9475SOL    HW140058   1.264   0.280   3.387  1.3642 -0.0167 -0.1945
 9475SOL    HW240059   1.253   0.418   3.425  0.3560  1.1393 -0.8689
 9476SOL     OW40060   1.607   2.461   0.627 -0.5620 -0.1150 -0.3050
 9476SOL    HW140061   1.647   2.405   0.694 -1.5366  0.7512  0.9848
 9476SOL    HW240062   1.685   2.477   0.574  0.3373 -1.1566  0.7023
 9477SOL     OW40063   1.603   1.057   6.470  0.6749  0.4082 -0.2861
 9477SOL    HW140064   1.621   1.049   6.564  0.4063  2.8058 -0.0368
 9477SOL    HW240065   1.692   1.060   6.436  1.7857  0.3020  2.5750
 9478SOL     OW40066   4.637   3.946  14.040 -0.0994 -0.0021 -0.3883
 9478SOL    HW140067   4.589   4.021  14.076  1.1402  1.3744 -1.6087
 9478SOL    HW240068   4.707   3.935  14.105 -0.4303  1.2624  0.1837
 9479SOL     OW40069   1.896   0.752  11.126  0.0323 -0.0326  0.6196
 9479SOL    HW140070   1.908   0.715  11.039  0.2043 -3.5534  2.1429
 9479SOL    HW240071   1.940   0.837  11.128  1.1732 -0.5593 -2.1324
 9480SOL     OW40072   3.898   0.916   3.904 -0.1753 -0.7512  0.3153
 9480SOL    HW140073   3.906   0.844   3.967 -3.1977 -0.8337  0.5996
 9480SOL    HW240074   3.873   0.860   3.830  0.8673 -0.5323 -0.2045
 9481SOL     OW40075   0.069   0.466   6.843  0.2831 -0.3168 -0.6780
 9481SOL    HW140076   0.015   0.402   6.889 -0.0403  0.8100  0.5079
 9481SOL    HW240077   0.085   0.519   6.921  1.5454  0.7817 -1.6903
 9482SOL     OW40078   4.150   4.290   3.187  0.1661 -0.3101  0.0173
 9482SOL    HW140079   4.126   4.200   3.162  2.0896 -0.7302 -0.2928
 9482SOL    HW240080   4.139   4.341   3.107 -1.5393 -0.5349  0.1035
 9483SOL     OW40081   4.238   2.818   4.011 -0.4718 -0.5054 -0.1278
 9483SOL    HW140082   4.296   2.809   3.935  0.4316 -0.4676  0.5473
 9483SOL    HW240083   4.247   2.735   4.058  1.3590 -0.3622 -0.2259
 9484SOL     OW40084   4.042   1.241   1.822 -0.1382  0.5211 -0.5053
 9484SOL    HW140085   4.120   1.194   1.851 -1.4314 -0.6651  1.0189
 9484SOL    HW240086   4.004   1.181   1.758 -0.7239  1.8888 -1.4534
 9485SOL     OW40087   3.925   0.874  14.903  0.1643 -0.5474 -0.5931
 9485SOL    HW140088   3.910   0.968  14.893 -1.8576 -0.5267  2.5788
 9485SOL    HW240089   3.879   0.870  14.987  0.7143  2.8963 -0.1264
 9486SOL     OW40090   2.186   0.197   7.334 -0.1649  0.0529  0.6478
 9486SOL    HW140091   2.119   0.256   7.298 -2.4371 -3.5586 -1.0235
 9486SOL    HW240092   2.260   0.249   7.363  1.0593 -0.6426 -1.2194
 9487SOL     OW40093   1.702   4.080   4.428 -0.1318  0.0329 -0.0965
 9487SOL    HW140094   1.797   4.073   4.439 -0.1149  0.2189 -0.1417
 9487SOL    HW240095   1.702   4.062   4.334  0.6667  1.2154 -0.3151
 9488SOL     OW40096   3.059   1.021   4.479 -0.0521 -0.0644  0.1754
 9488SOL    HW140097   3.031   1.113   4.484  0.0447 -0.0074 -0.4270
 9488SOL    HW240098   3.118   1.023   4.555  1.4790 -0.9309 -0.9908
 9489SOL     OW40099   1.340   0.629  10.833 -0.2683 -0.0840  0.0935
 9489SOL    HW140100   1.400   0.661  10.901  0.4107  0.1985 -0.6442
 9489SOL    HW240101   1.388   0.655  10.755  3.6500 -1.2033  2.1674
 9490SOL     OW40102   1.899   1.686   7.310  0.3319 -0.1451 -0.1274
 9490SOL    HW140103   1.854   1.770   7.320  1.6413  0.3954  1.2257
 9490SOL    HW240104   1.888   1.654   7.400  1.2010  0.2560  0.1153
 9491SOL     OW40105   1.313   4.319   9.656  0.0556 -0.0504  0.2022
 9491SOL    HW140106   1.263   4.400   9.671 -1.9983 -1.3178  0.1258
 9491SOL    HW240107   1.236   4.267   9.634  0.0875 -1.4849  3.5633
 9492SOL     OW40108   0.667   2.074   6.101  0.0299 -0.0473 -0.1125
 9492SOL    HW140109   0.635   2.010   6.165 -2.4973 -2.0073 -3.2831
 9492SOL    HW240110   0.750   2.041   6.067 -0.1655 -1.2086  0.5376
 9493SOL     OW40111   3.179   0.897   5.482  0.1092 -0.2275  0.0311
 9493SOL    HW140112   3.141   0.985   5.480  0.8383  0.0921  0.3298
 9493SOL    HW240113   3.210   0.888   5.572 -0.3516  0.8541  0.3035
 9494SOL     OW40114   2.427   0.655  15.359  0.2304 -0.8186 -0.1405
 9494SOL    HW140115   2.447   0.574  15.405  0.1420 -1.2133 -0.7899
 9494SOL    HW240116   2.385   0.705  15.429  0.5180 -0.9520  0.1270
 9495SOL     OW40117   2.528   4.035   8.405 -0.5948  0.7187  0.6488
 9495SOL    HW140118   2.547   4.095   8.333 -0.5074  0.2860  0.3107
 9495SOL    HW240119   2.458   4.081   8.451 -0.0130 -1.1968  3.4271
 9496SOL     OW40120   0.148   1.280   3.341 -0.0199  0.4197 -0.2073
 9496SOL    HW140121   0.133   1.357   3.288  0.4628  0.8656  0.2997
 9496SOL    HW240122   0.168   1.214   3.275  1.9377  1.3736 -0.5766
 9497SOL     OW40123   2.235   1.961   1.852 -0.1856 -0.4495  0.1757
 9497SOL    HW140124   2.160   1.901   1.853 -1.9409  1.7333 -1.1139
 9497SOL    HW240125   2.200   2.038   1.807  0.7408  1.2646  2.3524
 9498SOL     OW40126   2.926   2.526   6.201 -0.1345  0.2292 -0.2702
 9498SOL    HW140127   2.976   2.607   6.194 -1.0346  0.7803 -0.4298
 9498SOL    HW240128   2.935   2.511   6.295  1.1492 -0.9194 -0.5734
 9499SOL     OW40129   0.986   1.237  10.263 -0.5365 -0.3222 -0.6563
 9499SOL    HW140130   0.915   1.208  10.320  0.0985  0.6998  0.6693
 9499SOL    HW240131   1.050   1.167  10.278 -0.1632 -0.2947 -2.1551
 9500SOL     OW40132   1.302   1.221   9.599 -0.4029  0.3684  0.4238
 9500SOL    HW140133   1.262   1.198   9.683 -0.2387  1.2878  0.7572
 9500SOL    HW240134   1.281   1.315   9.601 -1.9706  0.0614 -1.3977
 9501SOL     OW40135   1.584   1.170   9.600 -0.3868 -0.7353  0.0105
 9501SOL    HW140136   1.639   1.145   9.526 -2.5371  0.6725 -2.0456
 9501SOL    HW240137   1.501   1.167   9.552 -0.6660 -1.7528  0.5449
 9502SOL     OW40138   2.313   1.803   1.313  0.1353 -0.2278  0.1996
 9502SOL    HW140139   2.390   1.778   1.364  1.2237  2.5562 -0.0651
 9502SOL    HW240140   2.277   1.721   1.279  0.4103 -1.5248  3.0475
 9503SOL     OW40141   0.098   4.464  13.856 -0.0922  0.4182 -0.5247
 9503SOL    HW140142   0.042   4.448  13.931 -1.0382  1.6294 -0.9626
 9503SOL    HW240143   0.141   4.382  13.834 -1.9817 -0.7888  0.3124
 9504SOL     OW40144   0.777   3.419   2.362 -0.3701  0.0598 -0.0883
 9504SOL    HW140145   0.858   3.461   2.391  0.3630 -2.0536  0.9168
 9504SOL    HW240146   0.812   3.330   2.350  1.3151  0.4410  1.8693
 9505SOL     OW40147   0.978   1.003   3.591  0.2200 -0.0127 -0.0213
 9505SOL    HW140148   0.887   1.029   3.609 -0.0315 -1.6696  1.1433
 9505SOL    HW240149   0.978   0.983   3.497  2.5427  0.8759 -0.1905
 9506SOL     OW40150   1.358   2.058  14.835  0.0869  0.5761 -0.1294
 9506SOL    HW140151   1.449   2.039  14.812  0.7470  1.1206  2.0281
 9506SOL    HW240152   1.377   2.108  14.915 -0.0410  0.0910  0.2032
 9507SOL     OW40153   1.893   2.395   3.821  0.2688 -0.1738 -0.2949
 9507SOL    HW140154   1.938   2.461   3.874  0.4183  0.0504 -0.7002
 9507SOL    HW240155   1.874   2.442   3.740 -1.1777 -1.0220 -0.4524
 9508SOL     OW40156   3.007   2.788  12.798  0.4308 -0.5324  0.5182
 9508SOL    HW140157   2.974   2.708  12.759  0.5893  0.0794 -0.8902
 9508SOL    HW240158   2.943   2.803  12.867 -0.6995  0.5373 -0.7558
 9509SOL     OW40159   3.332   0.527   8.838 -0.1735  0.5620 -0.0380
 9509SOL    HW140160   3.237   0.536   8.841 -0.1403  1.3471 -1.0695
 9509SOL    HW240161   3.367   0.590   8.775  3.4932 -0.1319  1.3027
 9510SOL     OW40162   0.554   2.846   4.460 -0.4604  0.2597  0.1086
 9510SOL    HW140163   0.510   2.780   4.514  0.9927  0.1508  1.1290
 9510SOL    HW240164   0.595   2.779   4.405  1.9241  0.3464  1.8089
 9511SOL     OW40165   4.300   2.948   1.870  0.7314 -0.0403  0.3451
 9511SOL    HW140166   4.373   2.904   1.913 -0.0840  0.0249  1.7931
 9511SOL    HW240167   4.265   2.877   1.815  0.0150  0.1220  0.5903
 9512SOL     OW40168   2.332   4.147   8.565 -1.0249  0.1788 -0.0893
 9512SOL    HW140169   2.356   4.099   8.644 -1.6180 -3.1804 -1.9338
 9512SOL    HW240170   2.276   4.077   8.531  0.3208 -1.0117  0.1221
 9513SOL     OW40171   2.534   1.791   7.195 -0.6118 -0.0829  0.0019
 9513SOL    HW140172   2.494   1.754   7.274  0.2498  0.4151  0.6826
 9513SOL    HW240173   2.530   1.886   7.207  0.3467 -0.1615  0.9975
 9514SOL     OW40174   0.985   0.177   1.134 -0.0347  0.1326 -0.1323
 9514SOL    HW140175   0.906   0.220   1.102 -0.1072 -1.5834 -2.2494
 9514SOL    HW240176   0.979   0.213   1.223 -2.3586 -0.7981  0.1090
 9515SOL     OW40177   0.015   4.505  11.930 -0.2788  0.0211 -0.1049
 9515SOL    HW140178   0.060   4.421  11.930 -0.0368  0.1366 -2.7607
 9515SOL    HW240179   0.049   4.537  11.846  1.1467 -0.8807  0.1281
 9516SOL     OW40180   0.215   0.636   2.493  0.5708  0.3189 -0.0651
 9516SOL    HW140181   0.194   0.546   2.468  0.7966  0.4507 -0.7264
 9516SOL    HW240182   0.151   0.694   2.452  2.4581  1.5393 -1.2911
 9517SOL     OW40183   2.341   2.350   9.111 -0.9801 -0.3199  0.0474
 9517SOL    HW140184   2.346   2.256   9.093 -1.0491 -0.4994  0.9594
 9517SOL    HW240185   2.296   2.351   9.196  1.0151 -0.6092  1.0994
 9518SOL     OW40186   4.236   1.868   5.120 -0.3952  0.1832  0.1300
 9518SOL    HW140187   4.182   1.892   5.195 -1.4711 -0.4285 -0.4352
 9518SOL    HW240188   4.245   1.773   5.132 -2.4997  0.1011  1.0459
 9519SOL     OW40189   2.632   0.596   6.986  0.0585  0.0600 -0.0201
 9519SOL    HW140190   2.725   0.597   7.008 -0.0085  0.0394  0.2657
 9519SOL    HW240191   2.616   0.629   6.898 -0.6403  0.5708  0.2930
 9520SOL     OW40192   1.538   4.622   9.268  0.2869  1.0968  0.1467
 9520SOL    HW140193   1.502   4.681   9.202  0.4700 -0.1107 -1.0415
 9520SOL    HW240194   1.598   4.560   9.226 -1.4618  0.4334 -1.3484
 9521SOL     OW40195   3.853   2.908  17.465 -0.5412  0.3664  0.8024
 9521SOL    HW140196   3.903   2.849  17.408 -2.7740 -0.8250  0.1080
 9521SOL    HW240197   3.789   2.936  17.400 -1.0339  0.6532  1.4111
 9522SOL     OW40198   1.542   3.546   5.933  0.1871 -0.6632  0.3731
 9522SOL    HW140199   1.516   3.586   5.850 -0.8772 -0.5840  0.7371
 9522SOL    HW240200   1.522   3.456   5.908  2.2870 -0.5508 -1.7102
 9523SOL     OW40201   0.740   2.459   2.180 -0.6421  0.2947  0.1700
 9523SOL    HW140202   0.815   2.410   2.146 -0.8685 -1.2771  1.9628
 9523SOL    HW240203   0.700   2.391   2.233  1.1621 -0.8488  0.0551
 9524SOL     OW40204   2.801   3.997   8.171  0.2395  0.0661 -0.3344
 9524SOL    HW140205   2.725   4.055   8.173  1.3309  1.4679  0.1098
 9524SOL    HW240206   2.805   3.950   8.254  0.5399 -0.2043 -0.5030
 9525SOL     OW40207   4.467   3.466   7.984 -0.2249 -0.3079  0.5217
 9525SOL    HW140208   4.415   3.482   8.063  0.0276 -0.7886  0.7879
 9525SOL    HW240209   4.557   3.495   7.999  0.3258 -2.8362  2.0854
 9526SOL     OW40210   0.076   2.257   3.965 -0.6210 -0.4122 -0.5048
 9526SOL    HW140211   0.088   2.281   4.057  0.2279 -1.3924 -0.3623
 9526SOL    HW240212   0.132   2.325   3.927  0.0636 -0.8201 -0.2233
 9527SOL     OW40213   1.244   3.643   7.875  0.2720 -0.3624 -0.5335
 9527SOL    HW140214   1.303   3.707   7.915  1.9008 -1.3758 -1.3054
 9527SOL    HW240215   1.271   3.644   7.783 -1.4373 -1.8350 -1.0629
 9528SOL     OW40216   4.231   4.484   6.122  0.0451 -1.1959 -0.4972
 9528SOL    HW140217   4.193   4.543   6.188 -0.8116 -0.9744 -1.1952
 9528SOL    HW240218   4.314   4.527   6.103  0.6244 -3.5672 -3.3937
 9529SOL     OW40219   0.778   2.413  17.513  0.3492  0.0415  0.5387
 9529SOL    HW140220   0.812   2.412  17.602  3.1355 -1.6332 -0.5282
 9529SOL    HW240221   0.722   2.490  17.516  0.6780  0.2462  1.3617
 9530SOL     OW40222   0.394   4.507   8.806 -0.4086 -0.4616 -0.2411
 9530SOL    HW140223   0.385   4.453   8.727 -3.9089  0.4367 -0.4547
 9530SOL    HW240224   0.302   4.520   8.829 -0.3552 -1.1532  0.3838
 9531SOL     OW40225   4.004   4.524   5.684  0.5064 -0.0513 -0.2517
 9531SOL    HW140226   3.957   4.587   5.738  0.0530 -0.0238 -0.6839
 9531SOL    HW240227   3.998   4.442   5.733  1.3126 -0.5966 -1.0702
 9532SOL     OW40228   1.092   4.257  16.457  0.5669 -0.5738 -0.2937
 9532SOL    HW140229   1.151   4.330  16.473 -0.8022  0.2814  0.8933
 9532SOL    HW240230   1.021   4.269  16.520  1.6250  0.3926  0.7100
 9533SOL     OW40231   0.685   2.812   6.011  0.5446 -0.2214  0.1816
 9533SOL    HW140232   0.776   2.825   5.986  0.6503  1.2163  1.3750
 9533SOL    HW240233   0.664   2.899   6.044  1.3244  0.0512 -0.0451
 9534SOL     OW40234   4.427   2.045   8.636  0.2792 -0.4992 -0.4800
 9534SOL    HW140235   4.406   2.036   8.543  1.1952 -0.9244 -0.6491
 9534SOL    HW240236   4.462   2.134   8.629  1.1876 -0.8814 -0.7763
 9535SOL     OW40237   3.579   4.150   8.504 -0.0754 -0.4414 -0.3474
 9535SOL    HW140238   3.636   4.211   8.457  0.2291  0.0801  0.6937
 9535SOL    HW240239   3.581   4.185   8.593 -1.0906  1.5562 -1.1301
 9536SOL     OW40240   0.010   3.885   9.218 -0.1913 -0.2133  0.3226
 9536SOL    HW140241   0.056   3.828   9.280 -1.9906 -1.6870  0.3048
 9536SOL    HW240242   0.088   3.912   9.170  0.4571 -4.1241 -0.8038
 9537SOL     OW40243   0.740   3.321   2.683  0.0015 -0.2029  0.0781
 9537SOL    HW140244   0.755   3.317   2.778  0.1823  1.3288  0.1065
 9537SOL    HW240245   0.829   3.309   2.651  0.1757 -1.4539  1.0354
 9538SOL     OW40246   4.450   1.412   5.342 -0.3620 -0.4293 -0.5102
 9538SOL    HW140247   4.407   1.497   5.351  0.7038 -0.0865  1.2924
 9538SOL    HW240248   4.517   1.420   5.410  0.5684 -0.1306 -1.4669
 9539SOL     OW40249   0.239   0.027   8.729  0.1891 -0.3914 -0.0856
 9539SOL    HW140250   0.189   0.089   8.677  1.6541  0.6931 -0.1838
 9539SOL    HW240251   0.323   0.061   8.701 -0.8330  0.4649 -2.0698
 9540SOL     OW40252   1.656   4.202   8.309 -0.0393 -0.0541  0.3429
 9540SOL    HW140253   1.706   4.171   8.234 -0.9658 -2.1709  0.6005
 9540SOL    HW240254   1.704   4.281   8.335  1.4188 -1.8997  3.1490
 9541SOL     OW40255   2.394   2.631   7.295  0.1968  0.1334  0.1929
 9541SOL    HW140256   2.349   2.673   7.369  1.0657  0.3948  0.5718
 9541SOL    HW240257   2.336   2.557   7.279 -0.7837  0.6799  1.2104
 9542SOL     OW40258   4.558   3.304   2.619 -0.3822 -1.0143 -0.3066
 9542SOL    HW140259   4.497   3.366   2.579 -1.3449 -1.2561  0.7934
 9542SOL    HW240260   4.590   3.361   2.689 -2.6500 -0.6102  0.3922
 9543SOL     OW40261   1.205   3.583   6.500 -0.1951 -0.3240  0.2395
 9543SOL    HW140262   1.250   3.533   6.432 -0.4262 -0.5889  0.2817
 9543SOL    HW240263   1.184   3.509   6.556  0.8077 -0.0252  1.0111
 9544SOL     OW40264   2.101   3.077   7.865  0.4784 -0.3869 -0.2383
 9544SOL    HW140265   2.041   3.099   7.793  0.1918 -2.0982 -0.5058
 9544SOL    HW240266   2.168   3.030   7.816  1.3986 -0.9183  1.5330
 9545SOL     OW40267   3.223   2.617   7.140 -0.8501  0.6801  0.0744
 9545SOL    HW140268   3.186   2.683   7.198 -0.6432  2.0627 -1.3568
 9545SOL    HW240269   3.259   2.685   7.082  2.0062 -1.3249 -0.4614
 9546SOL     OW40270   4.204   2.580   8.775  0.5391  0.2587  0.1782
 9546SOL    HW140271   4.208   2.651   8.839  0.0777 -1.3892  2.0442
 9546SOL    HW240272   4.132   2.613   8.721  0.9713  1.4410  0.3281
 9547SOL     OW40273   3.650   0.459  13.232 -0.0271  0.1133  0.1373
 9547SOL    HW140274   3.620   0.549  13.239 -0.9684 -0.0412 -2.0251
 9547SOL    HW240275   3.740   0.477  13.261  0.7540  0.0323 -2.1679
 9548SOL     OW40276   1.504   3.997   4.066 -0.4627  0.7260  0.2790
 9548SOL    HW140277   1.595   3.991   4.095 -0.3471  0.5333 -0.1248
 9548SOL    HW240278   1.476   4.065   4.127  3.0832  0.1584  2.5772
 9549SOL     OW40279   4.228   0.930   4.659  0.1487 -0.1222  0.3104
 9549SOL    HW140280   4.282   0.979   4.597  0.8012 -0.4414  0.6241
 9549SOL    HW240281   4.232   0.842   4.621  1.3732 -0.2830  0.8068
 9550SOL     OW40282   3.116   0.246   6.450  0.4796  0.2451  0.3755
 9550SOL    HW140283   3.022   0.235   6.461  0.7572 -0.6128  1.8686
 9550SOL    HW240284   3.138   0.316   6.511 -2.5095  1.8239 -0.3499
 9551SOL     OW40285   4.237   3.571   6.444  0.1574  0.0220  0.0124
 9551SOL    HW140286   4.320   3.611   6.417  0.7238 -1.8676 -1.0754
 9551SOL    HW240287   4.240   3.600   6.535 -2.1280 -0.3984  0.2245
 9552SOL     OW40288   1.526   4.717   9.523 -0.1695 -0.8146  0.5575
 9552SOL    HW140289   1.610   0.015   9.498 -1.4647  1.8255  0.0847
 9552SOL    HW240290   1.491   4.714   9.433 -0.0861  0.0549  0.4985
 9553SOL     OW40291   1.716   0.822   6.236  0.2613  0.2847 -0.2446
 9553SOL    HW140292   1.741   0.808   6.327 -0.3167 -3.7084 -0.7085
 9553SOL    HW240293   1.799   0.824   6.189  0.7803 -0.7680  0.6368
 9554SOL     OW40294   4.057   3.131   4.847 -0.2580  0.4404  0.5591
 9554SOL    HW140295   4.053   3.214   4.895  2.5293  0.6694  0.3815
 9554SOL    HW240296   3.983   3.085   4.887 -0.0870 -0.0029  0.3584
 9555SOL     OW40297   4.548   2.778   6.406  0.2694 -0.0059 -0.3491
 9555SOL    HW140298   4.626   2.755   6.456  1.8988  0.9814 -2.4482
 9555SOL    HW240299   4.572   2.869   6.391 -2.4852  0.6844 -0.6382
 9556SOL     OW40300   3.888   4.654   7.329 -0.4762  0.0385  0.5911
 9556SOL    HW140301   3.838   4.651   7.247 -0.3170 -0.0842  0.4986
 9556SOL    HW240302   3.825   4.667   7.400 -0.6363 -0.4035  0.5359
 9557SOL     OW40303   2.072   2.201   8.855  0.2860 -0.3387 -0.1146
 9557SOL    HW140304   2.080   2.291   8.886  0.2183 -0.7401  1.0757
 9557SOL    HW240305   2.003   2.175   8.916  1.2569  0.7841  1.4581
 9558SOL     OW40306   0.540   1.658  13.161  0.0483  0.0346  0.0370
 9558SOL    HW140307   0.553   1.653  13.066 -0.1678  0.7369 -0.0317
 9558SOL    HW240308   0.448   1.679  13.173  0.1868 -0.4672  1.8592
 9559SOL     OW40309   0.193   4.599   6.379 -0.0511  0.0523  0.3328
 9559SOL    HW140310   0.247   4.675   6.359  0.7614 -0.2930  1.2055
 9559SOL    HW240311   0.255   4.529   6.356 -0.5631 -0.9295  1.9298
 9560SOL     OW40312   3.174   1.965  11.908  0.3965 -0.1776  0.2244
 9560SOL    HW140313   3.091   1.933  11.871  1.5104 -1.8867 -0.8309
 9560SOL    HW240314   3.186   2.048  11.864  0.2046 -0.7858 -0.9852
 9561SOL     OW40315   0.210   0.172  12.515 -0.1133  0.2397  0.7347
 9561SOL    HW140316   0.121   0.143  12.535  0.0954  0.2811  1.7365
 9561SOL    HW240317   0.184   0.239  12.452 -1.6432 -1.5087 -0.5140
 9562SOL     OW40318   0.061   3.365   4.893  0.0637 -0.1785  0.2519
 9562SOL    HW140319   4.713   3.386   4.929 -1.3035 -2.9427 -1.4384
 9562SOL    HW240320   0.085   3.291   4.948 -2.1210 -0.8949  0.2381
 9563SOL     OW40321   1.799   4.713   3.008 -0.3094  0.3777 -0.2264
 9563SOL    HW140322   1.758   4.711   3.095  1.6918 -0.2168  0.7180
 9563SOL    HW240323   1.864   0.042   3.024  0.2940  0.1044 -1.5277
 9564SOL     OW40324   1.053   4.304  15.713 -0.1733  0.0781 -0.1326
 9564SOL    HW140325   1.012   4.235  15.766  0.2772  1.2099  1.6903
 9564SOL    HW240326   1.083   4.368  15.778  1.3929 -1.1077  0.3242
 9565SOL     OW40327   3.990   3.713   8.502 -0.2975  0.4039  0.0127
 9565SOL    HW140328   3.897   3.700   8.523 -0.6320  0.4123 -1.4494
 9565SOL    HW240329   4.043   3.719   8.581  2.0596 -1.5020 -1.4261
 9566SOL     OW40330   3.449   4.031   4.588  0.4222  0.1238  0.2093
 9566SOL    HW140331   3.492   3.960   4.540  0.7422 -1.0108  2.1781
 9566SOL    HW240332   3.516   4.045   4.655 -0.4051 -3.7195  1.8776
 9567SOL     OW40333   3.280   3.232  15.800 -0.1769 -0.2220  0.1850
 9567SOL    HW140334   3.370   3.236  15.830 -0.0795 -1.2693  0.0569
 9567SOL    HW240335   3.282   3.300  15.733  0.3984  0.8418  1.2823
 9568SOL     OW40336   2.005   2.567   4.748 -0.1590  0.3942  0.0826
 9568SOL    HW140337   1.928   2.621   4.765  1.2000  2.9063 -1.7747
 9568SOL    HW240338   2.028   2.619   4.671 -1.1953  1.2525  0.3473
 9569SOL     OW40339   3.972   4.581   7.976  0.1323 -0.3863 -0.3266
 9569SOL    HW140340   4.047   4.525   7.995  1.7122  0.8910 -2.9577
 9569SOL    HW240341   3.938   4.596   8.064  2.4857  2.6652  0.0393
 9570SOL     OW40342   0.045   1.361   4.370 -0.8869 -0.6939  0.0592
 9570SOL    HW140343   0.002   1.320   4.444  0.2433  1.0035  1.6425
 9570SOL    HW240344   0.014   1.451   4.365 -0.9595 -0.6434  1.7056
 9571SOL     OW40345   0.064   2.045   7.615  0.3811  0.2495  0.8332
 9571SOL    HW140346   0.122   2.015   7.685 -0.5560  0.6661  1.7897
 9571SOL    HW240347   0.016   2.107   7.669  0.3605  2.5638 -1.8157
   4.73864   4.73864  17.75253
