Membrane in water
40347
    1TMC1    C1    1   2.369   3.267  12.065  0.3277  0.2720  0.0602
    1TMC1    C2    2   2.422   3.315  12.185 -0.1841  0.3024  0.2627
    1TMC1    C3    3   2.424   3.453  12.195  0.3127  0.6828 -0.0835
    1TMC1    C4    4   2.353   3.350  11.956  0.3890 -0.0037 -0.2378
    1TMC1    C5    5   2.373   3.485  11.975  0.5676 -0.1086  0.0129
    1TMC1    C6    6   2.393   3.538  12.095 -0.1614 -0.1824  0.2512
    1TMC1     C    7   2.356   3.127  12.038 -0.1050  0.7373  0.0511
    1TMC1     O    8   2.257   3.095  11.976 -0.5015 -0.6413  0.3048
    1TMC1     H    9   2.429   3.247  12.269  1.7493 -1.1598 -1.0907
    1TMC1    H1   10   2.320   3.302  11.864 -1.0108  0.9751 -0.2533
    1TMC1    H2   11   2.386   3.645  12.106 -0.6302 -0.2965  1.0813
    1TMC1    C7   12   2.409   3.562  11.858  0.4607 -0.7866  0.4731
    1TMC1    C8   13   2.429   3.508  12.335  0.6465 -1.0143  0.2948
    1TMC1    O1   14   2.453   3.507  11.756 -0.1182 -0.1830 -0.1580
    1TMC1    O2   15   2.425   3.432  12.434 -0.0729 -0.3784  0.0537
    1TMC1    O3   16   2.430   3.691  11.890  0.5173 -0.2254  1.0674
    1TMC1    H3   17   2.374   3.730  11.960  2.2490  0.5703  2.0044
    1TMC1    O5   18   2.451   3.637  12.329 -0.3394 -0.0469 -0.1610
    1TMC1    H5   19   2.470   3.686  12.412  0.2094 -2.3500  1.0726
    2MPD2     C   20   2.579   2.664  11.965  0.0798 -0.1366  0.0725
    2MPD2    C1   21   2.446   2.708  11.956 -0.3119 -0.1742  0.3315
    2MPD2    C2   22   2.415   2.838  11.984 -0.2968 -0.0960  0.4548
    2MPD2    C3   23   2.507   2.926  12.034  0.3364  0.5783 -0.3196
    2MPD2    C4   24   2.639   2.880  12.046  0.1736  0.1320  0.0670
    2MPD2    C5   25   2.675   2.750  12.009  0.2684  0.6091 -0.0191
    2MPD2     H   26   2.310   2.862  11.991 -0.5281 -1.6624  2.4829
    2MPD2    H1   27   2.730   2.934  12.071 -0.0475  1.0170 -1.0346
    2MPD2    H2   28   2.616   2.568  11.932 -0.1189  0.5131 -2.0181
    2MPD2    H3   29   2.779   2.724  11.996 -0.0062 -0.7350  0.5102
    2MPD2     N   30   2.477   3.060  12.063 -0.3562 -0.4190  0.6878
    2MPD2    H5   31   2.554   3.111  12.105  0.4231 -0.2499 -0.9416
    2MPD2    N1   32   2.336   2.629  11.919 -0.6586 -0.0752 -0.2920
    2MPD2    H7   33   2.246   2.675  11.912 -1.0301 -0.7769 -0.1760
    3TMC1    C1   34   1.548   0.937   9.842  0.1016 -0.0916  0.2086
    3TMC1    C2   35   1.569   1.022   9.946 -0.3723 -1.1891  1.1507
    3TMC1    C3   36   1.584   1.147   9.915  0.3281 -0.2135 -0.2862
    3TMC1    C4   37   1.549   0.980   9.713  0.1293  0.4565 -0.1700
    3TMC1    C5   38   1.556   1.115   9.689 -0.0823  0.3325  0.0562
    3TMC1    C6   39   1.582   1.201   9.791 -0.2557  1.0111  0.1002
    3TMC1     C   40   1.513   0.796   9.858  0.1324 -0.1991  0.8338
    3TMC1     O   41   1.483   0.730   9.760 -0.5590 -0.0540  0.2572
    3TMC1     H   42   1.588   0.986  10.047  3.0011  0.6131  1.1705
    3TMC1    H1   43   1.531   0.914   9.629  4.2617  1.0187 -1.4913
    3TMC1    H2   44   1.627   1.298   9.771  0.3816 -0.0783 -3.7985
    3TMC1    C7   45   1.598   1.155   9.550  0.3242 -0.2824 -0.2099
    3TMC1    C8   46   1.629   1.225  10.026  0.6625  0.1382  0.3436
    3TMC1    O1   47   1.601   1.067   9.468 -0.3350  0.1254 -0.2872
    3TMC1    O2   48   1.681   1.182  10.127  0.7396 -0.4484  0.1605
    3TMC1    O3   49   1.560   1.286   9.530  0.4445  0.2446 -0.2430
    3TMC1    H3   50   1.569   1.341   9.611 -1.6503 -1.1474  0.9486
    3TMC1    O5   51   1.621   1.358   9.997  0.6545 -0.2638 -0.6778
    3TMC1    H5   52   1.557   1.377   9.925 -0.9741 -0.2572  0.7709
    4MPD2     C   53   1.306   0.423  10.149  0.2118  0.1844 -0.1869
    4MPD2    C1   54   1.365   0.513  10.231 -0.6860  1.1484 -0.7818
    4MPD2    C2   55   1.437   0.612  10.174 -0.1156 -0.1845 -0.4664
    4MPD2    C3   56   1.442   0.631  10.036  0.2025 -0.6072  0.5756
    4MPD2    C4   57   1.367   0.549   9.951 -0.0292 -0.1282  0.2327
    4MPD2    C5   58   1.308   0.441  10.015 -0.0142 -0.2146  0.0111
    4MPD2     H   59   1.485   0.686  10.237  0.5678 -1.2952  0.3200
    4MPD2    H1   60   1.360   0.551   9.843 -0.8060 -2.5127  0.2623
    4MPD2    H2   61   1.243   0.340  10.180 -1.9972  1.4553 -1.2742
    4MPD2    H3   62   1.254   0.369   9.953  0.8800 -0.3776 -0.5823
    4MPD2     N   63   1.509   0.750   9.989 -0.0010 -0.4913 -0.6587
    4MPD2    H5   64   1.554   0.815  10.052  0.9818 -2.5888  0.8211
    4MPD2    N1   65   1.360   0.502  10.370  0.1648  0.7132 -0.8693
    4MPD2    H7   66   1.423   0.566  10.418  1.6309  0.0985 -1.9415
    5TCq1    O1   67   2.308   0.864  12.213 -0.2031 -0.3002  0.5820
    5TCq1    C1   68   2.282   0.764  12.126 -0.2398 -0.3355 -1.0033
    5TCq1    O2   69   2.369   0.698  12.074  0.3156 -0.2002 -0.0183
    5TCq1    C2   70   2.159   0.802  12.065  0.0554 -0.0207 -0.7282
    5TCq1    C3   71   2.058   0.830  12.152  0.4136  0.2129  0.5660
    5TCq1    C4   72   1.939   0.859  12.100  0.0121 -0.3017  0.3691
    5TCq1    C5   73   1.929   0.858  11.962 -0.1915  0.8350  1.4049
    5TCq1    C6   74   2.034   0.821  11.881  0.6176  0.6744  0.1599
    5TCq1    C7   75   2.151   0.791  11.930 -0.7045 -0.1325 -0.0362
    5TCq1    C8   76   2.023   0.819  11.738  0.3895 -0.1912 -0.7204
    5TCq1    O4   77   2.115   0.767  11.675 -0.3276 -0.7244 -0.1629
    5TCq1    C9   78   1.839   0.888  12.190 -0.2638 -0.3761  0.0171
    5TCq1    O5   79   1.735   0.939  12.140 -0.3714 -0.0098 -0.1361
    5TCq1    O6   80   1.862   0.867  12.312 -0.3869 -0.3691  0.3935
    5TCq1    H1   81   2.230   0.923  12.222  1.5778  1.6403  3.6716
    5TCq1    H2   82   2.070   0.824  12.260 -2.3520 -2.3713  0.7179
    5TCq1    H3   83   1.828   0.862  11.924  0.2158 -2.2281  0.0050
    5TCq1    H4   84   2.240   0.770  11.871  0.6880 -0.4193  2.1545
    6MPD2     C   85   1.743   0.971  11.541  0.5609  0.1011  0.6112
    6MPD2    C1   86   1.851   0.894  11.571  0.2030  0.3431  0.1765
    6MPD2    C2   87   1.907   0.824  11.464  0.0990 -0.2721 -0.0355
    6MPD2    C3   88   1.852   0.826  11.338 -0.0683 -0.7997 -0.1823
    6MPD2    C4   89   1.742   0.908  11.314 -0.1858  0.0277 -0.0532
    6MPD2    C5   90   1.693   0.982  11.420 -0.7838  0.1214 -0.1245
    6MPD2     H   91   1.993   0.761  11.483 -0.0167 -0.6160 -0.6544
    6MPD2    H1   92   1.710   0.922  11.212 -1.8883  0.3562  0.5248
    6MPD2    H2   93   1.700   1.023  11.626 -0.0264 -0.4330  0.6424
    6MPD2    H3   94   1.603   1.041  11.410 -1.5719 -1.2950 -1.4524
    6MPD2     N   95   1.916   0.739  11.243 -0.1348  0.0522  1.2242
    6MPD2    H5   96   2.003   0.693  11.266  1.0411  1.9002  0.4376
    6MPD2    N1   97   1.908   0.893  11.701 -0.8214 -0.3277 -0.0979
    6MPD2    H7   98   1.844   0.934  11.768 -1.6478 -1.3050 -0.2763
    7TCq1    O1   99   3.594   4.595  12.750  0.6972 -0.4373 -0.2863
    7TCq1    C1  100   3.693   4.499  12.741  0.1752 -1.4350 -0.1927
    7TCq1    O2  101   3.683   4.395  12.675  0.2210  0.1155  0.3626
    7TCq1    C2  102   3.800   4.533  12.825  0.2873  0.0149  0.6547
    7TCq1    C3  103   3.843   4.667  12.829 -0.6644 -0.7413  0.0915
    7TCq1    C4  104   3.951   4.701  12.905 -0.1317  0.4049  0.5034
    7TCq1    C5  105   4.021   4.607  12.973  0.8274  0.8608  0.1792
    7TCq1    C6  106   3.980   4.473  12.956 -0.0161 -0.0799  0.2375
    7TCq1    C7  107   3.871   4.432  12.885  0.1915 -0.3511  0.8918
    7TCq1    C8  108   4.050   4.363  13.025 -0.4002  0.0251  0.0220
    7TCq1    O4  109   4.004   4.254  13.006  1.1288 -0.3349 -0.0427
    7TCq1    C9  110   4.007   0.095  12.913 -0.3748  0.4161 -0.2885
    7TCq1    O5  111   4.069   0.113  13.021  0.0745  0.4419 -0.0679
    7TCq1    O6  112   3.945   0.179  12.838 -0.6283  1.3833 -0.5934
    7TCq1    H1  113   3.616   4.658  12.821  0.5553 -0.3408 -0.3273
    7TCq1    H2  114   3.804   0.003  12.760 -1.0162  0.3569  1.4659
    7TCq1    H3  115   4.124   4.625  12.998  1.1444 -1.1913  0.3302
    7TCq1    H4  116   3.844   4.328  12.869 -1.1042 -0.2227  2.2269
    8MPD2     C  117   4.477   4.151  13.248  0.4205 -0.0768  0.4300
    8MPD2    C1  118   4.363   4.084  13.201  0.1021 -0.1658 -0.1611
    8MPD2    C2  119   4.253   4.162  13.156 -1.1345 -0.0807  0.3505
    8MPD2    C3  120   4.261   4.306  13.148 -0.3738  0.1120 -0.1906
    8MPD2    C4  121   4.374   4.365  13.200  0.2769  0.5137 -0.3864
    8MPD2    C5  122   4.478   4.288  13.246 -0.3903 -0.0081  0.6862
    8MPD2     H  123   4.162   4.109  13.130  0.0816 -2.0909  0.2093
    8MPD2    H1  124   4.378   4.473  13.197 -1.2809  0.5795 -0.0002
    8MPD2    H2  125   4.563   4.093  13.277  1.1594  1.3517  1.0714
    8MPD2    H3  126   4.563   4.343  13.284  0.2297 -1.1490  0.9695
    8MPD2     N  127   4.165   4.396  13.089  0.2982 -0.2715  0.3270
    8MPD2    H5  128   4.189   4.495  13.092  3.2937 -0.9771  0.3336
    8MPD2    N1  129   4.370   3.941  13.207 -0.4700  0.2244 -0.3216
    8MPD2    H7  130   4.458   3.901  13.238  0.1268  0.9144 -1.1149
    9TMC1    C1  131   2.135   3.549  11.168 -0.4703 -0.4228 -0.2721
    9TMC1    C2  132   2.090   3.421  11.201 -0.0606 -0.3457  0.0150
    9TMC1    C3  133   2.057   3.345  11.091  0.4847 -0.1665  0.6556
    9TMC1    C4  134   2.137   3.597  11.039  0.4733 -0.0278  0.4292
    9TMC1    C5  135   2.085   3.518  10.937  0.1427 -0.0774 -0.0260
    9TMC1    C6  136   2.055   3.389  10.961  0.3689 -0.2324 -0.2041
    9TMC1     C  137   2.161   3.644  11.272  0.6326  0.0972 -0.2849
    9TMC1     O  138   2.245   3.730  11.244  0.6058  0.5179  0.3028
    9TMC1     H  139   2.093   3.374  11.299 -2.5604 -1.8690 -0.6200
    9TMC1    H1  140   2.197   3.683  11.009  0.1707 -0.4233 -1.3198
    9TMC1    H2  141   2.053   3.318  10.879 -2.2152  2.3481 -2.3737
    9TMC1    C7  142   2.103   3.573  10.805 -0.4525 -0.4221  0.4162
    9TMC1    C8  143   2.031   3.206  11.118 -0.0256  0.2325  0.1329
    9TMC1    O1  144   2.073   3.506  10.706  0.5987 -0.1698 -0.7209
    9TMC1    O2  145   2.066   3.155  11.224  0.1067  1.0233 -0.5711
    9TMC1    O3  146   2.071   3.708  10.805  0.0641  0.3201 -0.2256
    9TMC1    H3  147   2.090   3.754  10.890 -2.2880  1.1894 -0.1847
    9TMC1    O5  148   1.928   3.156  11.046 -0.3014  0.7533 -0.6014
    9TMC1    H5  149   1.906   3.214  10.970  0.2407  0.5139 -0.9419
   10MPD2     C  150   2.179   3.804  11.518 -0.0268 -0.2559 -0.2224
   10MPD2    C1  151   2.100   3.695  11.502 -0.9406 -0.2788  0.5983
   10MPD2    C2  152   2.030   3.647  11.604 -0.4815 -0.0801  0.2393
   10MPD2    C3  153   2.039   3.718  11.722 -1.3980  0.4349  0.1400
   10MPD2    C4  154   2.114   3.832  11.737  0.3785  0.0777  0.1326
   10MPD2    C5  155   2.172   3.885  11.628  0.2349 -0.4877 -0.1257
   10MPD2     H  156   1.967   3.561  11.586  0.2509 -0.7831  1.0608
   10MPD2    H1  157   2.111   3.891  11.828 -4.3848  0.5067 -0.3048
   10MPD2    H2  158   2.228   3.850  11.433 -1.1281 -1.3341 -1.4430
   10MPD2    H3  159   2.230   3.976  11.634 -3.4601  1.7835  0.8648
   10MPD2     N  160   1.978   3.666  11.841 -0.4766  0.2565 -0.2326
   10MPD2    H5  161   1.981   3.716  11.929  1.0645 -0.7096  0.2428
   10MPD2    N1  162   2.081   3.623  11.380  0.3404 -0.3394 -0.5573
   10MPD2    H7  163   2.012   3.549  11.385 -0.2690  0.2451 -0.2181
   11TCq1    O1  164   2.463   3.472  13.838 -0.3462 -0.2967 -0.0738
   11TCq1    C1  165   2.369   3.398  13.782  0.5439 -0.2570 -0.3622
   11TCq1    O2  166   2.256   3.439  13.769 -0.0346 -0.1016 -0.3285
   11TCq1    C2  167   2.394   3.252  13.789 -0.9063  0.2034 -0.1100
   11TCq1    C3  168   2.526   3.216  13.780  0.8024  0.7251  0.5999
   11TCq1    C4  169   2.551   3.082  13.790  0.0772  0.1600  0.1858
   11TCq1    C5  170   2.450   2.989  13.798 -0.1089  0.1106  1.0163
   11TCq1    C6  171   2.324   3.032  13.806 -0.1859 -1.3347  0.1563
   11TCq1    C7  172   2.291   3.164  13.799  1.0322  0.2328  0.1561
   11TCq1    C8  173   2.207   2.938  13.807 -0.5005  0.0473  0.3916
   11TCq1    O4  174   2.096   2.981  13.772 -0.1579 -0.1181  0.0719
   11TCq1    C9  175   2.688   3.041  13.774 -1.0183 -0.5384  0.2791
   11TCq1    O5  176   2.730   2.931  13.818 -0.2412 -0.3184 -0.1977
   11TCq1    O6  177   2.761   3.127  13.718  0.0459 -0.2836  0.0079
   11TCq1    H1  178   2.538   3.429  13.884  0.5831 -1.3897 -2.5842
   11TCq1    H2  179   2.604   3.288  13.759  0.9458  0.5770  0.6263
   11TCq1    H3  180   2.473   2.884  13.810  1.5029  0.1295 -1.9659
   11TCq1    H4  181   2.187   3.195  13.797  0.9903  0.1330  0.9909
   12MPD2     C  182   2.042   2.690  13.788  0.4591 -0.0588  0.6578
   12MPD2    C1  183   2.173   2.691  13.840  0.1994  0.1643  0.2539
   12MPD2    C2  184   2.228   2.574  13.886 -0.0932 -0.3692 -0.1927
   12MPD2    C3  185   2.172   2.452  13.856 -0.2225 -0.5179 -0.3866
   12MPD2    C4  186   2.049   2.451  13.797 -0.7171  0.2857  0.3467
   12MPD2    C5  187   1.984   2.567  13.767  0.0025 -0.2004 -0.1130
   12MPD2     H  188   2.327   2.576  13.931 -0.3405 -1.0857  0.3886
   12MPD2    H1  189   2.009   2.353  13.774 -1.0971  0.5461 -0.0982
   12MPD2    H2  190   1.989   2.780  13.759  0.5925  0.8440  3.1511
   12MPD2    H3  191   1.884   2.561  13.725  0.0320 -1.5032 -0.0095
   12MPD2     N  192   2.223   2.325  13.876 -0.8048  0.6164  0.3014
   12MPD2    H5  193   2.164   2.246  13.853  2.4382 -1.2138 -1.8335
   12MPD2    N1  194   2.241   2.812  13.854 -0.7266 -0.2910 -0.3056
   12MPD2    H7  195   2.324   2.805  13.911  0.4933  0.4873 -1.9823
   13TCq1    O1  196   0.977   3.629   9.921 -0.0863  0.0626  0.0381
   13TCq1    C1  197   1.044   3.736   9.892 -0.0660  0.0336 -0.4096
   13TCq1    O2  198   1.053   3.785   9.783 -0.0731  0.3970 -0.0761
   13TCq1    C2  199   1.142   3.759   9.999  0.1820  0.5826  0.1373
   13TCq1    C3  200   1.204   3.885   9.983 -0.6414  0.1579 -0.4737
   13TCq1    C4  201   1.271   3.933  10.094 -0.0833 -0.5632  0.5470
   13TCq1    C5  202   1.286   3.849  10.202 -0.0674  0.0911  0.5521
   13TCq1    C6  203   1.236   3.719  10.209 -0.5713 -0.0848  0.3845
   13TCq1    C7  204   1.164   3.671  10.102  0.0291  0.5476 -0.0874
   13TCq1    C8  205   1.233   3.661  10.341  0.8158  0.0376 -0.3143
   13TCq1    O4  206   1.309   3.708  10.427 -0.1091  0.4940 -1.0268
   13TCq1    C9  207   1.327   4.066  10.095 -0.2280 -0.4497 -0.2649
   13TCq1    O5  208   1.384   4.098  10.201  0.0019 -0.8157 -0.0398
   13TCq1    O6  209   1.319   4.137   9.991 -0.5543  0.3078 -0.2416
   13TCq1    H1  210   0.960   3.626  10.018 -0.4249 -1.5878 -0.0791
   13TCq1    H2  211   1.178   3.945   9.897 -3.2452 -0.9228 -0.4234
   13TCq1    H3  212   1.352   3.882  10.281  2.5098 -2.5802 -0.4684
   13TCq1    H4  213   1.123   3.571  10.092 -0.7624  0.7607  1.0852
   14MPD2     C  214   1.073   3.349  10.448  0.3017 -0.2832 -0.6172
   14MPD2    C1  215   1.144   3.468  10.467 -0.0866 -0.2826 -0.2979
   14MPD2    C2  216   1.189   3.505  10.589 -0.5882  0.3856 -0.0615
   14MPD2    C3  217   1.163   3.418  10.689 -0.3576 -0.1132 -0.0915
   14MPD2    C4  218   1.092   3.294  10.670  0.2342  0.2524 -0.5541
   14MPD2    C5  219   1.048   3.262  10.549 -0.0876  0.0337 -0.1751
   14MPD2     H  220   1.240   3.599  10.608 -1.0226  0.2936  1.5364
   14MPD2    H1  221   1.052   3.230  10.747  1.6014  0.0238 -0.0387
   14MPD2    H2  222   1.044   3.313  10.350 -0.6059 -0.1487 -0.4005
   14MPD2    H3  223   0.993   3.175  10.518 -1.3008  0.2342  1.4169
   14MPD2     N  224   1.219   3.450  10.815 -0.2170 -0.0369 -0.4298
   14MPD2    H5  225   1.272   3.535  10.829 -1.2026  0.6485 -0.8196
   14MPD2    N1  226   1.175   3.541  10.350 -0.1237 -0.6600 -0.6552
   14MPD2    H7  227   1.151   3.504  10.258  0.0717  0.4471 -1.1491
   15TCq1    O1  228   3.169   1.289   2.217  0.7036 -0.3084  0.6049
   15TCq1    C1  229   3.190   1.409   2.155  1.4923  0.3138 -0.4381
   15TCq1    O2  230   3.101   1.496   2.143 -0.1713  0.4419 -0.1398
   15TCq1    C2  231   3.321   1.403   2.083 -0.4174 -0.4148 -0.4593
   15TCq1    C3  232   3.422   1.354   2.150  0.3595  0.0638  0.3292
   15TCq1    C4  233   3.537   1.321   2.081  0.6662  0.0338  0.3065
   15TCq1    C5  234   3.546   1.320   1.944 -0.2399 -0.1771 -0.4158
   15TCq1    C6  235   3.437   1.372   1.876 -0.0530  0.5724  0.5001
   15TCq1    C7  236   3.325   1.418   1.947  0.1217  0.6946 -0.4497
   15TCq1    C8  237   3.426   1.370   1.730 -0.0625 -0.0611 -0.1820
   15TCq1    O4  238   3.516   1.312   1.679 -0.0436  0.4143 -0.2536
   15TCq1    C9  239   3.639   1.244   2.143 -0.8616 -0.0780 -0.4940
   15TCq1    O5  240   3.748   1.221   2.084 -0.5931  0.3956  0.2098
   15TCq1    O6  241   3.629   1.231   2.269  0.0263 -0.6192  0.1597
   15TCq1    H1  242   3.236   1.218   2.216 -2.1895 -3.0668  2.1062
   15TCq1    H2  243   3.414   1.334   2.256 -1.3676 -0.8070  0.0335
   15TCq1    H3  244   3.631   1.280   1.890  1.0600  0.9449  0.8131
   15TCq1    H4  245   3.235   1.445   1.893  0.2754 -0.1059 -1.1009
   16MPD2     C  246   3.184   1.528   1.510 -0.3328 -0.9075 -0.1946
   16MPD2    C1  247   3.301   1.463   1.533  0.6108 -0.9614  0.2614
   16MPD2    C2  248   3.384   1.416   1.436 -0.5342  0.1525  0.0387
   16MPD2    C3  249   3.352   1.441   1.309 -0.1452  0.4406 -0.0386
   16MPD2    C4  250   3.235   1.513   1.280 -0.3552  0.4746  0.1240
   16MPD2    C5  251   3.149   1.553   1.379 -0.3785  0.4629 -0.2213
   16MPD2     H  252   3.473   1.356   1.455 -1.5060 -0.4531  2.7062
   16MPD2    H1  253   3.202   1.524   1.177 -2.4952 -2.0339  0.5210
   16MPD2    H2  254   3.116   1.554   1.590 -1.2669 -0.8008 -1.0163
   16MPD2    H3  255   3.048   1.586   1.357 -0.7534  1.1169  2.4735
   16MPD2     N  256   3.439   1.395   1.208 -0.5626  0.0327  0.3539
   16MPD2    H5  257   3.532   1.374   1.241  0.3289 -1.2507 -3.0041
   16MPD2    N1  258   3.327   1.444   1.672 -0.6617 -0.1890 -0.3609
   16MPD2    H7  259   3.269   1.484   1.745  0.5281 -1.2851  1.1819
   17TMC1    C1  260   0.994   2.450  10.212 -0.1110 -0.2406 -0.4275
   17TMC1    C2  261   0.884   2.414  10.132  0.4025  0.1714 -0.4345
   17TMC1    C3  262   0.841   2.283  10.145 -0.1611  0.0214 -0.5587
   17TMC1    C4  263   1.074   2.366  10.286  0.2138 -0.1144  0.8370
   17TMC1    C5  264   1.021   2.244  10.307 -0.1835 -0.0056 -0.2704
   17TMC1    C6  265   0.911   2.205  10.234  0.5282 -0.5497 -0.5907
   17TMC1     C  266   1.035   2.591  10.202  0.5675 -0.8439 -0.5307
   17TMC1     O  267   0.985   2.650  10.106  0.2494 -0.0908  0.0255
   17TMC1     H  268   0.839   2.488  10.068  2.0299 -0.1375 -1.9374
   17TMC1    H1  269   1.161   2.398  10.341 -0.3971  1.0685  1.1355
   17TMC1    H2  270   0.872   2.106  10.251 -0.9820  0.0806 -0.4001
   17TMC1    C7  271   1.096   2.148  10.390 -0.5973  0.5631  0.0336
   17TMC1    C8  272   0.721   2.228  10.081 -0.2738 -0.2571  0.4110
   17TMC1    O1  273   1.052   2.036  10.396 -0.0065  0.6079  0.8841
   17TMC1    O2  274   0.644   2.154  10.141 -0.2588 -0.1922 -0.4625
   17TMC1    O3  275   1.122   2.214  10.503  0.4830  0.1040 -0.0136
   17TMC1    H3  276   1.132   2.311  10.493 -0.4357  0.2437  0.3681
   17TMC1    O5  277   0.680   2.314   9.989  0.4850 -0.0880  0.5139
   17TMC1    H5  278   0.756   2.365   9.952 -0.8298  0.2286 -1.7233
   18MPD2     C  279   1.119   2.871  10.245 -0.3933 -0.4842 -0.0933
   18MPD2    C1  280   1.121   2.778  10.343  0.5545 -0.3408  0.0593
   18MPD2    C2  281   1.187   2.803  10.459 -0.0146  0.6736  0.5920
   18MPD2    C3  282   1.237   2.928  10.485 -0.1506  0.4786 -0.4007
   18MPD2    C4  283   1.238   3.024  10.383  0.2873 -0.1213  0.4681
   18MPD2    C5  284   1.177   2.995  10.269  0.1864 -0.0201  0.1056
   18MPD2     H  285   1.176   2.722  10.530 -2.1379 -1.4609 -2.1969
   18MPD2    H1  286   1.284   3.121  10.392 -1.2886  0.8174 -1.7153
   18MPD2    H2  287   1.072   2.849  10.150  2.0927 -1.7466 -1.0437
   18MPD2    H3  288   1.167   3.066  10.188  2.1707  3.6203  3.0427
   18MPD2     N  289   1.293   2.961  10.611 -0.3823  0.5900  0.7067
   18MPD2    H5  290   1.317   3.058  10.632 -1.4233  0.9251  0.3758
   18MPD2    N1  291   1.092   2.641  10.319 -0.1759 -0.2947 -0.2332
   18MPD2    H7  292   1.101   2.583  10.402  0.1137 -0.2413 -0.2270
   19TMC2    C1  293   3.820   3.135  14.054 -0.2442 -0.0294 -0.7053
   19TMC2    C2  294   3.771   3.253  13.998  0.3248 -0.4584 -0.9907
   19TMC2    C3  295   3.639   3.257  13.981 -0.6075  0.4576  0.3547
   19TMC2    C4  296   3.740   3.025  14.071  0.1242  0.0165 -0.7726
   19TMC2    C5  297   3.608   3.038  14.050 -0.6347  0.4146 -0.0151
   19TMC2    C6  298   3.549   3.156  14.010 -0.9259  0.1543  0.3697
   19TMC2     C  299   3.966   3.131  14.059 -0.4651 -0.3723 -0.2048
   19TMC2     O  300   4.026   3.218  14.003 -0.0410 -0.5690 -0.3213
   19TMC2     H  301   3.839   3.333  13.973  1.1813 -1.1046 -0.7174
   19TMC2    H1  302   3.786   2.931  14.096  0.5216  0.8714  1.6738
   19TMC2    H2  303   3.444   3.181  13.997 -0.0596  2.4620 -2.2748
   19TMC2    C7  304   3.527   2.918  14.080 -0.5431  0.3960  0.2678
   19TMC2    C8  305   3.587   3.357  13.887  0.1033 -0.3628 -0.9135
   19TMC2    O1  306   3.582   2.836  14.153 -0.5056 -0.2088  0.2261
   19TMC2    O2  307   3.497   3.332  13.810 -0.3554 -0.2913  0.1877
   19TMC2    O5  308   3.628   3.476  13.921  0.3774  0.1123  0.2475
   19TMC2    H5  309   3.682   3.471  14.003  2.5682 -0.6822 -1.2311
   20MPD2     C  310   4.250   3.062  14.087  0.1096  0.4527  0.1614
   20MPD2    C1  311   4.151   2.992  14.147 -0.0220  0.2356  0.4572
   20MPD2    C2  312   4.175   2.879  14.219  0.0787  0.5276  0.7549
   20MPD2    C3  313   4.309   2.853  14.245  0.4553  0.0376  0.2806
   20MPD2    C4  314   4.414   2.920  14.185  0.0852  0.3025 -0.0738
   20MPD2    C5  315   4.375   3.033  14.119 -0.1310  0.1719 -0.4400
   20MPD2     H  316   4.096   2.825  14.270  0.6614 -0.4645  0.6099
   20MPD2    H1  317   4.511   2.879  14.210  0.5303  0.5903 -1.3851
   20MPD2    H2  318   4.239   3.151  14.026  0.2555  0.3253 -0.0542
   20MPD2    H3  319   4.457   3.091  14.079  1.2258  0.3377  2.5656
   20MPD2     N  320   4.346   2.754  14.329 -0.0123  1.0564  0.2315
   20MPD2    H5  321   4.441   2.763  14.363  0.0111  0.9761  0.1860
   20MPD2    N1  322   4.016   3.026  14.135 -0.7738  0.0651 -0.1063
   20MPD2    H7  323   3.951   2.962  14.178 -0.2555 -0.4784 -0.1343
   21TMC2    C1  324   1.556   3.414  14.148 -0.6002  0.3825 -0.1696
   21TMC2    C2  325   1.514   3.419  14.024 -0.6453  0.1653 -0.1659
   21TMC2    C3  326   1.389   3.382  14.001  0.1505  0.4021  0.5045
   21TMC2    C4  327   1.482   3.370  14.259  0.5482  0.1744  0.0995
   21TMC2    C5  328   1.357   3.340  14.228  0.5689 -0.0556  0.5078
   21TMC2    C6  329   1.309   3.341  14.101  0.7548  0.1108 -0.7412
   21TMC2     C  330   1.695   3.454  14.172  0.1745 -0.0673  0.1358
   21TMC2     O  331   1.782   3.437  14.089  0.5905  0.2197  0.1714
   21TMC2     H  332   1.575   3.463  13.946  0.0017  1.1983  0.9180
   21TMC2    H1  333   1.506   3.388  14.363 -1.5091 -0.0402  0.6157
   21TMC2    H2  334   1.207   3.316  14.076  0.2211  2.2316 -0.6601
   21TMC2    C7  335   1.265   3.328  14.341  0.0734 -0.0126 -0.0310
   21TMC2    C8  336   1.335   3.431  13.874  0.5306 -0.2718  0.1118
   21TMC2    O1  337   1.302   3.277  14.444 -0.5018  0.4280  0.3506
   21TMC2    O2  338   1.215   3.451  13.862 -0.1790 -0.0378 -0.0351
   21TMC2    O5  339   1.420   3.388  13.783 -0.3725  0.5662  0.3492
   21TMC2    H5  340   1.503   3.355  13.825 -0.1100 -1.5972 -1.9228
   22MPD2     C  341   2.009   3.764  14.428 -0.8296 -0.0851  0.0738
   22MPD2    C1  342   2.034   3.657  14.344  0.6188  0.7892 -1.5422
   22MPD2    C2  343   1.930   3.589  14.282 -0.8020  0.1761 -0.0683
   22MPD2    C3  344   1.794   3.621  14.310 -0.2586 -0.1345  0.3456
   22MPD2    C4  345   1.775   3.727  14.388 -0.1414  0.4897 -0.1809
   22MPD2    C5  346   1.878   3.798  14.445 -0.2877  0.0920 -0.4723
   22MPD2     H  347   1.960   3.501  14.226 -1.5805 -0.1408 -0.0019
   22MPD2    H1  348   1.680   3.780  14.389 -0.9401 -0.9040 -1.2786
   22MPD2    H2  349   2.081   3.835  14.467 -1.3094  0.1643  0.5027
   22MPD2    H3  350   1.859   3.891  14.497  1.8395 -0.3605  1.1776
   22MPD2     N  351   1.683   3.555  14.258 -0.3854  0.6699 -0.1926
   22MPD2    H5  352   1.593   3.581  14.298 -0.1145  0.3827  0.6020
   22MPD2    N1  353   2.162   3.622  14.310 -0.3050  0.1693  0.6385
   22MPD2    H7  354   2.172   3.548  14.241  0.6508  0.1450  0.7951
   23TMC2    C1  355   2.311   4.539  14.816  1.0694 -0.1638 -0.0504
   23TMC2    C2  356   2.251   4.635  14.734  0.2629  0.4969 -0.4130
   23TMC2    C3  357   2.115   4.617  14.722  0.6828  0.1341 -0.6756
   23TMC2    C4  358   2.239   4.442  14.879  0.2740 -0.4082 -0.2566
   23TMC2    C5  359   2.104   4.425  14.852  0.1558 -0.4540  0.4866
   23TMC2    C6  360   2.041   4.515  14.781  0.2960  0.2624  0.0609
   23TMC2     C  361   2.456   4.537  14.833  0.2402 -0.2747  0.6752
   23TMC2     O  362   2.491   4.447  14.909  0.2729  0.7179 -0.0747
   23TMC2     H  363   2.311   4.706  14.679  1.1721  0.2513  0.2667
   23TMC2    H1  364   2.287   4.358  14.928 -2.0479 -0.9115  1.1559
   23TMC2    H2  365   1.933   4.509  14.773  0.1421 -0.2024  2.5293
   23TMC2    C7  366   2.037   4.302  14.897  0.8828  0.3915 -0.4043
   23TMC2    C8  367   2.043   4.733  14.670 -0.5419 -0.0963  0.1019
   23TMC2    O1  368   2.111   4.216  14.941 -0.0468  0.0819 -0.8782
   23TMC2    O2  369   2.087   0.082  14.593  0.6058 -0.6419  0.1764
   23TMC2    O5  370   1.928   0.012  14.745  0.3866 -0.2430  0.6597
   23TMC2    H5  371   1.918   4.689  14.822  1.7085 -1.2842  0.0265
   24MPD2     C  372   2.953   4.581  14.695  0.2283 -0.1915  0.0218
   24MPD2    C1  373   2.890   4.497  14.783 -0.0104 -0.4893 -0.4768
   24MPD2    C2  374   2.748   4.493  14.786  0.6196 -0.2454 -0.2479
   24MPD2    C3  375   2.674   4.588  14.721 -0.7910  0.0836 -0.4538
   24MPD2    C4  376   2.742   4.672  14.633 -0.7088 -1.0809 -0.0621
   24MPD2    C5  377   2.872   4.654  14.611 -0.0961  0.2744  0.5525
   24MPD2     H  378   2.697   4.432  14.860 -0.5132  0.6584 -0.2975
   24MPD2    H1  379   2.683   4.737  14.569  0.4380  0.1776  0.1691
   24MPD2    H2  380   3.059   4.571  14.676  0.4810  2.2375  0.1708
   24MPD2    H3  381   2.916   4.707  14.527 -1.2195 -0.8331 -0.7484
   24MPD2     N  382   2.535   4.603  14.732  0.2195 -0.3418 -0.2747
   24MPD2    H5  383   2.490   4.671  14.672  1.5876 -0.4887 -1.4506
   24MPD2    N1  384   2.967   4.439  14.888 -0.1041  0.0416  0.2697
   24MPD2    H7  385   2.925   4.371  14.950  1.4324 -0.0327  1.2349
   25TMC2    C1  386   1.374   2.259  11.913 -0.2586 -0.2627  0.0053
   25TMC2    C2  387   1.372   2.388  11.877  0.6622 -0.1612 -0.1859
   25TMC2    C3  388   1.260   2.465  11.913 -0.2970 -0.0625 -0.4103
   25TMC2    C4  389   1.275   2.192  11.981  0.2909 -0.2435 -0.7641
   25TMC2    C5  390   1.183   2.280  12.034  0.1877  0.1542 -0.2733
   25TMC2    C6  391   1.173   2.413  12.005  0.2101  0.3415 -0.4521
   25TMC2     C  392   1.464   2.174  11.838  0.2201  0.3920  0.5167
   25TMC2     O  393   1.566   2.226  11.797  0.3075  0.4331 -0.4824
   25TMC2     H  394   1.443   2.425  11.804 -1.4526 -0.1084 -2.2070
   25TMC2    H1  395   1.290   2.091  12.018  0.7424  0.7803  1.8341
   25TMC2    H2  396   1.103   2.480  12.052 -1.1493 -1.2354 -0.2479
   25TMC2    C7  397   1.108   2.225  12.151 -0.6452 -0.1802 -0.0899
   25TMC2    C8  398   1.255   2.609  11.903  0.0389 -0.8483 -0.3056
   25TMC2    O1  399   1.146   2.119  12.198 -0.1174  0.0649 -0.2474
   25TMC2    O2  400   1.219   2.686  11.992  0.3256  0.2100  0.4099
   25TMC2    O5  401   1.335   2.640  11.799 -0.2111  0.0161 -0.9537
   25TMC2    H5  402   1.335   2.577  11.724 -4.0648 -1.9257  0.6880
   26MPD2     C  403   1.589   1.824  11.502  0.2356  0.4542  0.1829
   26MPD2    C1  404   1.462   1.795  11.541  0.5477 -0.5286  0.0560
   26MPD2    C2  405   1.408   1.866  11.650 -0.0698  0.3602 -0.1705
   26MPD2    C3  406   1.481   1.965  11.711 -0.2349 -0.3366  0.8561
   26MPD2    C4  407   1.615   1.977  11.681 -0.3003  0.6378  0.0116
   26MPD2    C5  408   1.662   1.919  11.570 -0.6842 -0.2090  0.1134
   26MPD2     H  409   1.304   1.850  11.674  0.2624  0.3561  1.2545
   26MPD2    H1  410   1.679   2.056  11.720 -1.7777  0.7594  2.1687
   26MPD2    H2  411   1.632   1.761  11.425 -0.3391 -0.1929  0.4012
   26MPD2    H3  412   1.761   1.941  11.531 -0.8399 -0.5598 -0.4880
   26MPD2     N  413   1.413   2.049  11.803  0.0307 -0.1922 -0.1825
   26MPD2    H5  414   1.317   2.026  11.827  0.5270  0.2435  2.2129
   26MPD2    N1  415   1.390   1.696  11.464  0.0783  0.2113 -0.0919
   26MPD2    H7  416   1.429   1.667  11.375  1.0418 -1.3247  0.8311
   27TMC2    C1  417   0.463   4.011  12.044  0.4668  0.2034 -0.5669
   27TMC2    C2  418   0.438   4.033  11.909  1.0721 -0.5593 -0.2322
   27TMC2    C3  419   0.450   4.160  11.873 -0.2152  0.1846  0.0437
   27TMC2    C4  420   0.493   4.110  12.134 -0.1141 -0.4266 -0.2818
   27TMC2    C5  421   0.494   4.240  12.088  0.0840  0.6485  0.1182
   27TMC2    C6  422   0.478   4.266  11.958  0.4099  0.0854 -0.4410
   27TMC2     C  423   0.427   3.892  12.108 -0.0096 -0.4549  0.8118
   27TMC2     O  424   0.467   3.785  12.064 -0.6248 -0.1769  0.4322
   27TMC2     H  425   0.390   3.961  11.844  0.2911  0.9288 -1.3015
   27TMC2    H1  426   0.518   4.092  12.238 -0.1918  0.5571 -0.0927
   27TMC2    H2  427   0.484   4.363  11.910  2.9714  0.8244  1.3533
   27TMC2    C7  428   0.464   4.356  12.173 -0.6925  0.5692  1.0751
   27TMC2    C8  429   0.397   4.198  11.745 -0.0228  0.2160  0.4924
   27TMC2    O1  430   0.421   4.453  12.108 -0.1441  0.7411 -0.7323
   27TMC2    O2  431   0.364   4.314  11.720 -0.3117 -0.1408 -0.0666
   27TMC2    O5  432   0.437   4.108  11.651 -0.1224 -0.1658  0.0376
   27TMC2    H5  433   0.485   4.037  11.699 -0.7886  0.2261  1.2938
   28MPD2     C  434   0.195   3.683  12.521  0.0836  0.3701  1.0705
   28MPD2    C1  435   0.181   3.820  12.528 -0.5288  0.2246  0.6199
   28MPD2    C2  436   0.241   3.902  12.434  0.2072 -0.7970 -0.4800
   28MPD2    C3  437   0.314   3.843  12.328 -0.7443 -0.5785  1.0157
   28MPD2    C4  438   0.322   3.704  12.322  0.6245 -0.5147 -0.1727
   28MPD2    C5  439   0.247   3.630  12.410 -1.1603  0.1789 -0.2888
   28MPD2     H  440   0.239   4.010  12.440 -1.0470 -0.8299 -0.3714
   28MPD2    H1  441   0.368   3.653  12.238 -2.0965 -0.1124 -1.9156
   28MPD2    H2  442   0.151   3.613  12.592 -1.4682 -1.3168 -1.5265
   28MPD2    H3  443   0.240   3.524  12.388  1.1165 -0.0948  0.2794
   28MPD2     N  444   0.361   3.926  12.215  0.1147 -0.0044 -0.9327
   28MPD2    H5  445   0.335   4.024  12.224  1.9637  0.3097  1.0199
   28MPD2    N1  446   0.097   3.867  12.626  0.0697  0.2083 -0.2217
   28MPD2    H7  447   0.046   3.797  12.679 -0.1924  0.2021 -0.4813
   29TMC2    C1  448   4.471   1.604  14.342 -0.0569 -0.7280 -0.3033
   29TMC2    C2  449   4.504   1.572  14.474  0.7391 -0.1267  0.1201
   29TMC2    C3  450   4.505   1.664  14.570  0.3935  0.3958  0.0396
   29TMC2    C4  451   4.447   1.737  14.302  0.1593  0.5433 -0.1336
   29TMC2    C5  452   4.461   1.830  14.409  0.1665 -0.3070 -0.1159
   29TMC2    C6  453   4.484   1.798  14.541  0.0434  0.4271 -1.1102
   29TMC2     C  454   4.483   1.488  14.248 -0.4904  0.6574  0.3827
   29TMC2     O  455   4.507   1.377  14.291  0.2881 -0.4737  0.2816
   29TMC2     H  456   4.535   1.469  14.491 -0.3414 -0.8052 -1.9950
   29TMC2    H1  457   4.433   1.769  14.199 -1.0826 -1.5290 -0.6179
   29TMC2    H2  458   4.478   1.879  14.613  3.8122 -1.3183  1.1505
   29TMC2    C7  459   4.448   1.971  14.368 -0.2518 -0.0985  0.4264
   29TMC2    C8  460   4.456   1.606  14.699  0.9315 -0.0350 -0.3067
   29TMC2    O1  461   4.354   1.997  14.292  0.3006  0.3946  0.2032
   29TMC2    O2  462   4.417   1.493  14.718 -0.0750 -0.4070 -0.0672
   29TMC2    O5  463   4.411   1.706  14.769  0.2810 -0.1008 -0.5212
   29TMC2    H5  464   4.467   1.786  14.766 -0.1341  0.1287 -1.9029
   30MPD2     C  465   4.375   1.245  13.813 -0.0131  0.0162 -0.4064
   30MPD2    C1  466   4.468   1.215  13.913  0.2863  0.6003  0.2418
   30MPD2    C2  467   4.498   1.307  14.012  0.3418  1.1169 -0.5074
   30MPD2    C3  468   4.438   1.433  14.008 -0.5860 -0.4540  0.3264
   30MPD2    C4  469   4.346   1.460  13.906  0.0379 -0.0353  0.1304
   30MPD2    C5  470   4.316   1.369  13.812 -0.0871  0.0569  0.2662
   30MPD2     H  471   4.576   1.280  14.083 -0.1608 -0.0677 -0.4092
   30MPD2    H1  472   4.277   1.543  13.904 -1.4768 -1.3411 -1.2982
   30MPD2    H2  473   4.353   1.188  13.723  0.2451  0.5532 -0.8084
   30MPD2    H3  474   4.243   1.380  13.732  0.3760 -1.5455 -0.3661
   30MPD2     N  475   4.441   1.522  14.119 -0.4472 -0.3886 -0.3889
   30MPD2    H5  476   4.393   1.611  14.118  0.9952  0.3743 -0.5644
   30MPD2    N1  477   4.544   1.096  13.914 -0.5039  0.1333 -0.0007
   30MPD2    H7  478   4.616   1.083  13.984 -0.8028 -0.5756  0.1714
   31TMC2    C1  479   2.430   0.311  15.243  0.6454 -0.5107  0.5612
   31TMC2    C2  480   2.300   0.339  15.250 -0.5538 -0.2271  0.0573
   31TMC2    C3  481   2.231   0.313  15.364  0.4138  0.3869 -0.0489
   31TMC2    C4  482   2.492   0.239  15.348  0.9055  0.7839 -0.5469
   31TMC2    C5  483   2.415   0.213  15.462 -0.1554 -0.3083  0.4460
   31TMC2    C6  484   2.291   0.259  15.474 -0.1139 -0.1750 -0.4745
   31TMC2     C  485   2.504   0.408  15.171  0.1213  0.3527 -0.4829
   31TMC2     O  486   2.440   0.463  15.083  0.0245 -0.6738  0.2119
   31TMC2     H  487   2.248   0.417  15.195 -0.4052  0.4294  0.8433
   31TMC2    H1  488   2.589   0.191  15.350 -0.2724 -1.5707  0.7858
   31TMC2    H2  489   2.233   0.242  15.564  1.4975  0.0734  0.6085
   31TMC2    C7  490   2.450   0.115  15.562  0.3662 -0.1546 -0.1612
   31TMC2    C8  491   2.094   0.352  15.380  0.8767 -0.4328 -0.4940
   31TMC2    O1  492   2.510   0.009  15.530  0.4584 -0.1129  0.0977
   31TMC2    O2  493   2.050   0.393  15.489  0.6195 -0.0952 -0.2213
   31TMC2    O5  494   2.028   0.298  15.278  0.3149 -0.3248  0.2395
   31TMC2    H5  495   2.082   0.272  15.200  1.0516 -2.2608  1.4053
   32MPD2     C  496   2.950   0.624  15.010  0.6921  0.2846  0.6912
   32MPD2    C1  497   2.825   0.629  14.947 -0.0904 -0.6340  0.8880
   32MPD2    C2  498   2.722   0.556  15.010  0.6461  0.3483 -0.1136
   32MPD2    C3  499   2.743   0.480  15.121  0.1404  0.2050 -1.4385
   32MPD2    C4  500   2.869   0.479  15.178  0.2690  0.0847 -0.6105
   32MPD2    C5  501   2.970   0.553  15.123  0.2266 -0.1125 -0.3646
   32MPD2     H  502   2.622   0.546  14.970  1.3665 -2.8344 -1.1523
   32MPD2    H1  503   2.897   0.409  15.256  3.9847  2.2980  0.0567
   32MPD2    H2  504   3.027   0.695  14.984  1.5818 -0.7208  0.5992
   32MPD2    H3  505   3.069   0.533  15.162 -0.0129  0.6749  0.6492
   32MPD2     N  506   2.642   0.403  15.188 -0.0678  0.8367  0.0655
   32MPD2    H5  507   2.673   0.354  15.272 -1.2766 -0.7745 -0.4278
   32MPD2    N1  508   2.803   0.716  14.835 -0.0067  0.3852  0.0762
   32MPD2    H7  509   2.887   0.762  14.802  0.0489  0.3233  0.1311
   33TMC2    C1  510   1.546   3.853  10.630  0.4268 -0.2981  0.1981
   33TMC2    C2  511   1.431   3.918  10.601 -0.2837  0.0139  0.1020
   33TMC2    C3  512   1.433   4.021  10.518  0.0135  0.0728 -0.4014
   33TMC2    C4  513   1.666   3.889  10.580 -0.4537 -0.7536 -0.3585
   33TMC2    C5  514   1.674   4.001  10.499 -0.1803  0.3231 -0.5620
   33TMC2    C6  515   1.556   4.063  10.462 -0.0511  0.2774  0.6433
   33TMC2     C  516   1.538   3.754  10.737  0.1981 -0.2365 -0.8062
   33TMC2     O  517   1.427   3.725  10.780 -0.1696  0.1245 -0.0805
   33TMC2     H  518   1.337   3.884  10.644 -1.6438  0.0945 -2.8262
   33TMC2    H1  519   1.754   3.832  10.609  0.1122  0.8881  1.2395
   33TMC2    H2  520   1.546   4.150  10.398  1.6447 -0.9564 -1.3086
   33TMC2    C7  521   1.810   4.058  10.465 -0.3653 -0.5061 -0.2298
   33TMC2    C8  522   1.330   4.116  10.556  0.3188  0.0159  0.4887
   33TMC2    O1  523   1.910   4.005  10.509 -0.3786  0.0701  0.2951
   33TMC2    O2  524   1.279   4.128  10.669 -0.3440 -0.1625  0.3110
   33TMC2    O5  525   1.271   4.153  10.449 -0.3457 -0.5271  0.3324
   33TMC2    H5  526   1.314   4.133  10.363 -0.2698  2.1707 -0.2716
   34MPD2     C  527   1.717   3.474  11.120  0.6968 -0.0884 -0.8074
   34MPD2    C1  528   1.630   3.438  11.020 -0.0667 -0.2510 -0.4441
   34MPD2    C2  529   1.602   3.526  10.912  0.4415  0.1561 -0.2031
   34MPD2    C3  530   1.670   3.652  10.913 -0.1633 -0.2115  1.9503
   34MPD2    C4  531   1.760   3.680  11.014  0.1511  0.1334  0.6101
   34MPD2    C5  532   1.783   3.599  11.117 -0.1083  0.0567 -0.4604
   34MPD2     H  533   1.535   3.506  10.828  2.6953 -2.5744 -1.3621
   34MPD2    H1  534   1.815   3.774  11.016 -1.2913  0.9671  1.3415
   34MPD2    H2  535   1.742   3.400  11.196  2.0737  1.2246  0.0046
   34MPD2    H3  536   1.860   3.615  11.192 -0.5838  1.1911 -0.2302
   34MPD2     N  537   1.659   3.741  10.809 -0.1323 -0.3849 -0.4388
   34MPD2    H5  538   1.728   3.813  10.790  0.2283 -0.7591 -0.5397
   34MPD2    N1  539   1.579   3.308  11.027 -0.2152 -0.0944 -0.2507
   34MPD2    H7  540   1.607   3.248  11.104  2.4325 -0.3899 -1.4450
   35TMC2    C1  541   2.902   4.273  11.500  0.5414 -0.1444 -0.0923
   35TMC2    C2  542   2.784   4.285  11.438  0.7003 -0.1754 -0.2265
   35TMC2    C3  543   2.676   4.213  11.482  0.5954  0.0198  0.6988
   35TMC2    C4  544   2.907   4.205  11.619 -0.2073 -0.2996  0.8002
   35TMC2    C5  545   2.792   4.161  11.679 -0.3144 -1.5363  0.0774
   35TMC2    C6  546   2.672   4.170  11.612  0.0337  1.1041 -0.2246
   35TMC2     C  547   3.020   4.300  11.425  0.0584 -0.6788 -0.1642
   35TMC2     O  548   3.013   4.321  11.301  0.1821  0.2142 -0.2330
   35TMC2     H  549   2.782   4.327  11.338  1.5587 -0.2168 -0.2574
   35TMC2    H1  550   3.004   4.170  11.651  0.3352  0.3427 -0.1356
   35TMC2    H2  551   2.578   4.135  11.652  0.0150  1.5405  0.1166
   35TMC2    C7  552   2.799   4.071  11.798  0.7218 -0.0846 -0.4601
   35TMC2    C8  553   2.551   4.276  11.442 -0.5318  0.8363  0.1803
   35TMC2    O1  554   2.710   3.988  11.819 -0.4683  0.4161  0.7105
   35TMC2    O2  555   2.539   4.398  11.422  0.1578 -0.1817 -0.2079
   35TMC2    O5  556   2.454   4.186  11.447  0.3265 -0.2049 -0.2758
   35TMC2    H5  557   2.493   4.096  11.442 -2.5009 -1.4535  0.3429
   36MPD2     C  558   3.521   4.386  11.399  0.1120  0.5968  0.0435
   36MPD2    C1  559   3.488   4.374  11.532 -0.4906 -0.7631  0.3589
   36MPD2    C2  560   3.354   4.364  11.568 -0.1377  0.8387  0.1676
   36MPD2    C3  561   3.266   4.343  11.466 -0.1557 -0.1517  0.0996
   36MPD2    C4  562   3.297   4.354  11.336  0.4994  0.5210  0.2955
   36MPD2    C5  563   3.425   4.389  11.301  0.0796 -0.5826 -0.4183
   36MPD2     H  564   3.327   4.355  11.673  0.4418  0.1663  0.2665
   36MPD2    H1  565   3.233   4.327  11.254 -0.0397  1.5740  0.3651
   36MPD2    H2  566   3.623   4.405  11.370  0.3352 -0.7513 -0.0712
   36MPD2    H3  567   3.450   4.402  11.196 -3.2748  3.4835 -0.7387
   36MPD2     N  568   3.137   4.306  11.504  0.1325  0.2469 -0.0409
   36MPD2    H5  569   3.114   4.296  11.602  2.1814 -2.0537  0.1921
   36MPD2    N1  570   3.596   4.379  11.619 -0.6468  0.0301  0.0843
   36MPD2    H7  571   3.690   4.384  11.580 -1.7488  2.0897 -2.2635
   37TMC2    C1  572   1.228   3.928  11.916 -0.3460  0.4419 -0.1762
   37TMC2    C2  573   1.125   3.921  11.824  0.4722 -0.1764 -0.8258
   37TMC2    C3  574   1.131   3.984  11.703  0.4715 -0.9934 -0.1659
   37TMC2    C4  575   1.344   3.984  11.873  0.1260 -0.1170 -0.0268
   37TMC2    C5  576   1.352   4.027  11.740 -0.1537 -0.4865 -0.3571
   37TMC2    C6  577   1.251   4.023  11.651 -0.0648  0.1604 -0.5437
   37TMC2     C  578   1.199   3.930  12.056 -0.3814 -0.1422 -0.1833
   37TMC2     O  579   1.121   3.856  12.111  0.4332  0.1809  0.5772
   37TMC2     H  580   1.034   3.874  11.859  0.9463  1.0132  2.0245
   37TMC2    H1  581   1.424   4.003  11.944  0.8331  0.7793 -1.0638
   37TMC2    H2  582   1.257   4.074  11.556  0.8253  0.3921 -0.3655
   37TMC2    C7  583   1.454   4.132  11.720 -0.2124 -0.1556  0.3232
   37TMC2    C8  584   1.027   3.952  11.614  0.4093  0.3813  0.3306
   37TMC2    O1  585   1.492   4.193  11.819 -0.4365  1.1058 -0.2170
   37TMC2    O2  586   0.994   3.840  11.593 -0.1797  0.6530  0.2923
   37TMC2    O5  587   1.031   4.045  11.516  0.1730  0.0630 -0.2110
   37TMC2    H5  588   1.061   4.136  11.534 -2.9037  1.2387 -0.9978
   38MPD2     C  589   1.232   4.207  12.501  0.1098 -0.0514 -0.1252
   38MPD2    C1  590   1.321   4.255  12.407  0.3496  0.3769  0.2995
   38MPD2    C2  591   1.323   4.199  12.283  0.0123  0.5283 -0.3652
   38MPD2    C3  592   1.242   4.089  12.245 -0.0812  0.1552 -0.0435
   38MPD2    C4  593   1.147   4.046  12.339 -0.1069  0.3541 -0.0777
   38MPD2    C5  594   1.148   4.104  12.461  0.6951  0.1110 -0.4798
   38MPD2     H  595   1.387   4.251  12.212  0.7344 -0.3787 -0.3861
   38MPD2    H1  596   1.080   3.962  12.324  1.3709 -0.6127 -1.1304
   38MPD2    H2  597   1.213   4.243  12.602  2.7705  0.8329  0.0664
   38MPD2    H3  598   1.094   4.050  12.538  1.4772  1.2389  0.8645
   38MPD2     N  599   1.262   4.038  12.116  0.2339  0.2237 -0.0866
   38MPD2    H5  600   1.342   4.076  12.066  0.8590 -1.2824 -0.2504
   38MPD2    N1  601   1.413   4.357  12.434 -0.6187  0.8287 -0.0760
   38MPD2    H7  602   1.481   4.370  12.360 -0.8833 -0.2655 -0.5117
   39TMC2    C1  603   3.856   1.361   1.496  0.0186 -0.1492  0.0127
   39TMC2    C2  604   3.774   1.457   1.555  0.0807  0.1245 -0.6256
   39TMC2    C3  605   3.831   1.545   1.640 -0.0958  0.8278 -0.3776
   39TMC2    C4  606   3.990   1.376   1.498 -0.5554 -0.2966 -0.0417
   39TMC2    C5  607   4.038   1.465   1.590  0.3479  0.4534  0.4936
   39TMC2    C6  608   3.964   1.559   1.660 -0.3059  0.0129 -0.5707
   39TMC2     C  609   3.791   1.268   1.402  0.3875 -0.6203  0.3999
   39TMC2     O  610   3.683   1.297   1.352 -0.0325 -0.1117 -0.6036
   39TMC2     H  611   3.667   1.440   1.544  0.1454 -0.2703 -0.6563
   39TMC2    H1  612   4.061   1.317   1.441 -2.5050 -1.5309 -1.1977
   39TMC2    H2  613   4.006   1.636   1.724  1.5199 -0.8205 -0.7788
   39TMC2    C7  614   4.180   1.450   1.611 -0.3956  0.1920 -0.1815
   39TMC2    C8  615   3.742   1.606   1.740  0.1631 -0.7471 -0.1721
   39TMC2    O1  616   4.215   1.338   1.645 -0.3152  0.4091  0.0913
   39TMC2    O2  617   3.784   1.653   1.846 -0.4573 -0.1177 -0.1500
   39TMC2    O5  618   3.619   1.628   1.691 -0.4366 -0.0096 -0.0679
   39TMC2    H5  619   3.620   1.632   1.593 -3.6044 -0.5838 -0.1130
   40MPD2     C  620   3.937   0.947   1.271 -0.2195  0.1629  0.3838
   40MPD2    C1  621   3.840   1.045   1.296 -0.4173 -1.0854  0.1534
   40MPD2    C2  622   3.715   1.022   1.234 -0.1977 -0.6206  0.2740
   40MPD2    C3  623   3.688   0.911   1.161 -0.0450 -0.2613 -0.4397
   40MPD2    C4  624   3.797   0.825   1.128 -0.8595  0.3256  0.0364
   40MPD2    C5  625   3.921   0.838   1.185  0.6066 -0.2179 -0.3704
   40MPD2     H  626   3.639   1.097   1.252 -0.2634 -0.3493 -1.1312
   40MPD2    H1  627   3.783   0.734   1.071 -1.1494 -0.1354  0.8427
   40MPD2    H2  628   4.037   0.945   1.314 -0.8200  0.5114  1.7853
   40MPD2    H3  629   3.996   0.762   1.169  2.2968  1.3832 -0.0648
   40MPD2     N  630   3.563   0.880   1.105  0.7235  0.0959 -0.0007
   40MPD2    H5  631   3.550   0.788   1.065 -1.7637  0.3935  0.1180
   40MPD2    N1  632   3.873   1.157   1.379 -0.6201 -0.0158 -0.0059
   40MPD2    H7  633   3.958   1.162   1.435  0.8397  0.6585 -2.2662
   41TMC2    C1  634   3.326   3.588  14.358  0.4528 -0.1765 -0.3382
   41TMC2    C2  635   3.449   3.646  14.352  0.6109  0.3576  0.1396
   41TMC2    C3  636   3.495   3.682  14.228  0.1763  0.9110  0.2492
   41TMC2    C4  637   3.244   3.579  14.243  0.3186  1.0611 -0.3344
   41TMC2    C5  638   3.285   3.640  14.122  0.0997  0.0385  0.2192
   41TMC2    C6  639   3.414   3.688  14.110  0.6259 -0.5105  0.8938
   41TMC2     C  640   3.280   3.526  14.484  0.9831 -0.1214  0.0318
   41TMC2     O  641   3.195   3.441  14.470 -0.5291 -0.5187  0.4304
   41TMC2     H  642   3.519   3.633  14.434  0.2934  1.6702  0.6188
   41TMC2    H1  643   3.145   3.536  14.251  0.0439  2.0463  1.6094
   41TMC2    H2  644   3.452   3.716  14.013 -0.6553 -1.5304  0.1023
   41TMC2    C7  645   3.192   3.651  14.009 -0.0053  0.3094 -0.6658
   41TMC2    C8  646   3.591   3.785  14.260  0.0063 -0.2147  0.4573
   41TMC2    O1  647   3.108   3.562  14.014  0.1215  0.4879  0.2387
   41TMC2    O2  648   3.659   3.788  14.364  0.4598 -0.0322  0.2967
   41TMC2    O5  649   3.593   3.887  14.171  0.6100  0.5961 -0.1923
   41TMC2    H5  650   3.533   3.882  14.093  3.9913 -1.8140 -2.6031
   42MPD2     C  651   3.276   3.392  14.749 -0.2064  0.7374  0.3741
   42MPD2    C1  652   3.340   3.518  14.725  0.6152 -0.0995  0.3693
   42MPD2    C2  653   3.377   3.591  14.837 -0.2242 -0.0729 -0.5489
   42MPD2    C3  654   3.357   3.556  14.968 -0.4958  0.2835  0.4933
   42MPD2    C4  655   3.282   3.443  14.988 -0.4550 -0.4782  0.6746
   42MPD2    C5  656   3.242   3.363  14.882 -0.3908 -0.0730  0.1677
   42MPD2     H  657   3.423   3.683  14.804  0.8866 -0.6538 -0.5823
   42MPD2    H1  658   3.245   3.413  15.086 -0.5244 -2.0037  0.1683
   42MPD2    H2  659   3.246   3.321  14.673  1.2473  0.7732 -0.2296
   42MPD2    H3  660   3.174   3.280  14.901  0.3985 -0.2605  2.2068
   42MPD2     N  661   3.399   3.638  15.075 -0.0047 -0.8837 -0.2505
   42MPD2    H5  662   3.377   3.609  15.170 -0.2364 -1.3527 -0.4446
   42MPD2    N1  663   3.349   3.570  14.595  0.5390 -0.2980  0.7283
   42MPD2    H7  664   3.386   3.663  14.579  0.4385 -0.5072 -0.7210
   43TMC2    C1  665   4.374   2.515   0.553 -0.2794  0.5822 -0.4052
   43TMC2    C2  666   4.260   2.552   0.485 -0.0509  0.2913 -0.8529
   43TMC2    C3  667   4.259   2.680   0.446  0.3818  0.0546  0.1567
   43TMC2    C4  668   4.481   2.601   0.581 -0.2646  0.2480 -0.0726
   43TMC2    C5  669   4.467   2.733   0.545  0.0133  0.1571  0.3730
   43TMC2    C6  670   4.358   2.773   0.475 -0.4966  0.3078  0.7510
   43TMC2     C  671   4.403   2.380   0.593 -0.2260  0.1746  0.5127
   43TMC2     O  672   4.517   2.335   0.596 -0.9000 -0.3672  0.1538
   43TMC2     H  673   4.187   2.480   0.449 -0.0941  1.1257 -2.4275
   43TMC2    H1  674   4.563   2.580   0.649 -0.2260  2.4059  0.5205
   43TMC2    H2  675   4.350   2.874   0.436  1.5186 -0.7866 -2.4531
   43TMC2    C7  676   4.583   2.817   0.543 -0.1762  0.2871 -0.5007
   43TMC2    C8  677   4.134   2.746   0.399  0.4002  0.7085 -0.9638
   43TMC2    O1  678   4.600   2.893   0.443 -0.0353  0.2179 -0.3860
   43TMC2    O2  679   4.102   2.863   0.432 -0.4458  0.5492  0.3031
   43TMC2    O5  680   4.043   2.655   0.365  0.0617 -0.2858  0.1473
   43TMC2    H5  681   4.071   2.569   0.326 -0.6969 -1.1006  1.3695
   44MPD2     C  682   4.246   1.912   0.742  0.5621  0.6189  0.2477
   44MPD2    C1  683   4.363   1.959   0.690 -0.1504  0.0094  0.2493
   44MPD2    C2  684   4.384   2.095   0.662  0.7619  0.5153  0.3767
   44MPD2    C3  685   4.284   2.186   0.698 -1.0254  0.0977  0.1358
   44MPD2    C4  686   4.165   2.143   0.751  0.0724 -0.2606  1.0561
   44MPD2    C5  687   4.146   2.004   0.765  0.3165  0.0875  0.2767
   44MPD2     H  688   4.464   2.114   0.592 -0.0486  2.0764 -0.1143
   44MPD2    H1  689   4.084   2.206   0.784 -0.1674 -0.8698  1.6334
   44MPD2    H2  690   4.231   1.805   0.751 -1.0078  1.0204  2.2285
   44MPD2    H3  691   4.054   1.968   0.809 -0.2001  0.9261 -0.1167
   44MPD2     N  692   4.290   2.320   0.639  0.5635 -0.3575  0.2347
   44MPD2    H5  693   4.209   2.380   0.652  0.9965  0.1127  0.7918
   44MPD2    N1  694   4.473   1.877   0.642  0.1850 -0.2206  0.3825
   44MPD2    H7  695   4.556   1.923   0.605  1.1629 -2.4464 -0.1548
   45TMC2    C1  696   4.706   0.433   9.860  0.0058 -0.4590 -0.3526
   45TMC2    C2  697   4.601   0.508   9.912  0.2081  0.8481 -0.0221
   45TMC2    C3  698   4.635   0.600  10.010  0.3954 -0.3729  0.7522
   45TMC2    C4  699   0.099   0.462   9.886  0.6616  0.5475 -0.0846
   45TMC2    C5  700   0.125   0.575   9.959 -0.2051 -0.0146 -0.1829
   45TMC2    C6  701   0.031   0.638  10.029 -1.5535  0.3867  0.1404
   45TMC2     C  702   4.676   0.331   9.764 -1.4735  0.5105  0.9544
   45TMC2     O  703   0.022   0.303   9.680 -0.0498 -0.2600 -0.3139
   45TMC2     H  704   4.500   0.491   9.878  0.9088  2.2469 -2.8525
   45TMC2    H1  705   0.185   0.416   9.840  2.2961 -0.1619  3.6210
   45TMC2    H2  706   0.063   0.711  10.102  0.3152  0.9438 -1.2439
   45TMC2    C7  707   0.265   0.610   9.988 -0.0576  0.0331  1.2058
   45TMC2    C8  708   4.533   0.681  10.066 -0.6485 -0.0219 -0.8762
   45TMC2    O1  709   0.279   0.660  10.094 -0.1189  0.5369  0.1697
   45TMC2    O2  710   4.433   0.715  10.004  0.0684 -0.5119 -0.3727
   45TMC2    O5  711   4.551   0.674  10.198  0.3139 -0.2064 -0.1726
   45TMC2    H5  712   4.628   0.617  10.221  0.4267  0.0170  0.0063
   46MPD2     C  713   4.536   0.117   9.602  0.1047 -0.4709 -0.2184
   46MPD2    C1  714   4.483   0.179   9.706 -0.0178 -0.3463  0.1119
   46MPD2    C2  715   4.357   0.162   9.745 -1.1508  0.0010  0.9999
   46MPD2    C3  716   4.279   0.063   9.689 -0.1707 -0.2056 -0.3308
   46MPD2    C4  717   4.338   4.725   9.590 -0.9397 -0.3942 -0.9234
   46MPD2    C5  718   4.463   0.015   9.549  0.3493 -0.0830 -0.0664
   46MPD2     H  719   4.322   0.218   9.831 -0.7816  0.2469  0.9884
   46MPD2    H1  720   4.296   4.635   9.547 -1.3003 -1.4728  1.6531
   46MPD2    H2  721   4.641   0.123   9.578  0.2149 -1.9379 -0.0655
   46MPD2    H3  722   4.505   4.680   9.479  1.1277 -1.0059  1.3463
   46MPD2     N  723   4.145   0.046   9.718  0.0449  0.4877 -0.3106
   46MPD2    H5  724   4.111   0.119   9.781 -0.9687  0.0793 -0.3755
   46MPD2    N1  725   4.550   0.271   9.790  0.2092 -0.2315  0.2503
   46MPD2    H7  726   4.494   0.297   9.870  0.0048 -2.4896  0.8377
   47TMC2    C1  727   2.490   0.055   9.671 -0.0176  0.5050 -0.8129
   47TMC2    C2  728   2.499   4.661   9.712  0.3281 -0.3966  0.2367
   47TMC2    C3  729   2.385   4.582   9.694  0.1699  0.9370  0.3470
   47TMC2    C4  730   2.378   0.109   9.622  0.8244  0.3336  0.1200
   47TMC2    C5  731   2.269   0.025   9.597  0.3727  0.5412 -0.3314
   47TMC2    C6  732   2.277   4.628   9.625 -0.4454  0.3536 -0.0189
   47TMC2     C  733   2.609   0.120   9.623 -0.6088 -0.3278  0.3071
   47TMC2     O  734   2.602   0.191   9.524  0.5286 -0.1292 -0.0635
   47TMC2     H  735   2.595   4.621   9.743  0.8103  1.7781  1.5629
   47TMC2    H1  736   2.368   0.213   9.596 -0.5930 -0.7093 -3.4830
   47TMC2    H2  737   2.188   4.570   9.604 -0.6341  1.0080 -1.0041
   47TMC2    C7  738   2.148   0.092   9.556 -0.6947 -0.0103  0.7472
   47TMC2    C8  739   2.388   4.439   9.706 -0.3292 -0.1239 -0.6489
   47TMC2    O1  740   2.129   0.206   9.589  0.2054  0.2002  0.0073
   47TMC2    O2  741   2.307   4.374   9.653 -0.5884  0.6434 -0.3734
   47TMC2    O5  742   2.432   4.409   9.829  0.1512  0.5775 -0.1546
   47TMC2    H5  743   2.450   4.490   9.880  2.5936  1.1139 -1.9130
   48MPD2     C  744   2.843   0.292   9.618 -0.2411  0.2217  1.0943
   48MPD2    C1  745   2.832   0.180   9.695  0.2414  0.0381 -0.2366
   48MPD2    C2  746   2.940   0.138   9.774  0.4639  0.1641  0.4829
   48MPD2    C3  747   3.054   0.217   9.771 -0.7508 -0.1790 -0.5099
   48MPD2    C4  748   3.057   0.331   9.696 -0.1448  0.8442 -0.3923
   48MPD2    C5  749   2.961   0.367   9.612  0.3523 -0.5691 -0.8952
   48MPD2     H  750   2.927   0.057   9.845 -0.3350  1.7728  2.1843
   48MPD2    H1  751   3.153   0.380   9.682 -0.0893  0.5237 -1.1170
   48MPD2    H2  752   2.755   0.332   9.569  0.1977 -1.0228 -0.7395
   48MPD2    H3  753   2.968   0.448   9.539  2.3525  1.3989  1.4716
   48MPD2     N  754   3.147   0.186   9.869  0.2255 -0.1061  0.1183
   48MPD2    H5  755   3.129   0.112   9.936  1.2904 -1.0283 -0.6251
   48MPD2    N1  756   2.708   0.110   9.712 -0.3312  0.7127 -0.1799
   48MPD2    H7  757   2.696   0.047   9.791  1.0238  0.3520 -0.2708
   49TMC2    C1  758   0.284   2.444   9.987 -0.1400  0.2860  0.1958
   49TMC2    C2  759   0.193   2.509   9.908 -0.2333  0.3730 -0.0164
   49TMC2    C3  760   0.088   2.434   9.863  0.0656  0.0794  0.4387
   49TMC2    C4  761   0.263   2.323  10.043 -0.0116 -0.3595 -0.3190
   49TMC2    C5  762   0.157   2.258  10.002  0.1892 -0.2898  0.1201
   49TMC2    C6  763   0.076   2.303   9.902 -0.0846  0.2103  0.3259
   49TMC2     C  764   0.400   2.523  10.031  0.1424 -0.1179  0.0769
   49TMC2     O  765   0.423   2.621   9.961 -0.3290  0.3156 -0.5565
   49TMC2     H  766   0.196   2.615   9.883 -1.3720  0.7452  1.4647
   49TMC2    H1  767   0.339   2.278  10.105  2.3564 -0.1891 -3.0836
   49TMC2    H2  768   0.005   2.247   9.842  1.6330 -1.5545 -0.0074
   49TMC2    C7  769   0.140   2.122  10.055  0.3959 -0.5214 -0.1283
   49TMC2    C8  770   4.728   2.477   9.772  0.8537 -0.6756 -0.3697
   49TMC2    O1  771   0.241   2.074  10.112  0.3001  0.6474  0.5009
   49TMC2    O2  772   4.613   2.433   9.771  0.1802  0.1329 -0.1188
   49TMC2    O5  773   0.034   2.567   9.686 -0.5910 -0.3641 -1.0223
   49TMC2    H5  774   0.130   2.586   9.685 -0.9226  1.2847 -1.1488
   50MPD2     C  775   0.607   2.658  10.197  0.5385 -0.6017  0.7591
   50MPD2    C1  776   0.564   2.528  10.218  0.1525 -0.7570 -0.2747
   50MPD2    C2  777   0.611   2.459  10.335  0.2416  0.1433 -0.1079
   50MPD2    C3  778   0.699   2.523  10.426  1.3968  0.8466 -0.4214
   50MPD2    C4  779   0.730   2.653  10.404 -0.7199  0.3506 -0.8515
   50MPD2    C5  780   0.678   2.718  10.294 -0.0877 -0.3254  0.0990
   50MPD2     H  781   0.582   2.355  10.344  0.7531 -0.0935 -1.1675
   50MPD2    H1  782   0.770   2.709  10.488 -1.5395  0.2318 -0.3821
   50MPD2    H2  783   0.571   2.715  10.113 -0.2720 -0.3308  1.2871
   50MPD2    H3  784   0.698   2.825  10.293  1.8770 -0.6592  3.9433
   50MPD2     N  785   0.736   2.450  10.545  0.7985  0.4184 -0.7515
   50MPD2    H5  786   0.785   2.501  10.618  0.5803  0.0548 -0.3446
   50MPD2    N1  787   0.461   2.467  10.138  0.5000  0.6051  0.2930
   50MPD2    H7  788   0.437   2.371  10.161  1.2197  1.1755  3.4190
   51TMC2    C1  789   0.626   2.161   0.931  0.2096 -0.1937  0.0735
   51TMC2    C2  790   0.542   2.223   0.842 -0.1639  0.0294 -0.0133
   51TMC2    C3  791   0.602   2.297   0.740 -0.2562  0.0554  0.6375
   51TMC2    C4  792   0.760   2.180   0.925  0.4868  0.3595 -0.2060
   51TMC2    C5  793   0.812   2.263   0.827 -0.1627 -0.0922  0.2662
   51TMC2    C6  794   0.737   2.320   0.736  0.5648  0.1602 -0.0598
   51TMC2     C  795   0.573   2.051   1.012  0.3412 -0.0227 -0.1822
   51TMC2     O  796   0.659   1.983   1.065  0.1014  0.1939 -0.4927
   51TMC2     H  797   0.437   2.196   0.834  0.0350 -1.5598  2.7910
   51TMC2    H1  798   0.818   2.142   1.008  1.1100 -2.2522 -1.8034
   51TMC2    H2  799   0.789   2.390   0.672  1.8186  0.4115  1.2487
   51TMC2    C7  800   0.957   2.253   0.790 -0.4137  0.0837  0.4818
   51TMC2    C8  801   0.510   2.345   0.638  0.1217 -0.8811 -0.1986
   51TMC2    O1  802   0.981   2.252   0.668 -0.4850  0.0513 -0.8332
   51TMC2    O2  803   0.390   2.345   0.641 -0.7405  0.0817  0.1138
   51TMC2    O5  804   0.582   2.385   0.538  0.3913  0.1061 -0.1927
   51TMC2    H5  805   0.679   2.370   0.550  0.2839  1.6287  2.6919
   52MPD2     C  806   0.204   1.815   1.270 -0.4466 -0.5846 -0.4643
   52MPD2    C1  807   0.338   1.794   1.271 -0.5300  0.5949  0.2428
   52MPD2    C2  808   0.425   1.870   1.188 -0.1704 -0.6490  0.0825
   52MPD2    C3  809   0.367   1.971   1.113 -0.6851 -1.0760 -0.0556
   52MPD2    C4  810   0.229   1.993   1.118  0.1182  0.0241  0.1115
   52MPD2    C5  811   0.145   1.911   1.187 -0.1153  0.6276  0.8655
   52MPD2     H  812   0.531   1.848   1.185  0.0526  0.4591 -0.1396
   52MPD2    H1  813   0.184   2.079   1.070  0.4130  0.7274  1.1021
   52MPD2    H2  814   0.148   1.755   1.341 -1.2909 -0.5309 -1.0819
   52MPD2    H3  815   0.040   1.930   1.205 -0.8113 -0.1408 -2.4821
   52MPD2     N  816   0.438   2.054   1.026  0.0299  0.5376  0.2573
   52MPD2    H5  817   0.385   2.124   0.974  1.6467  0.2465 -1.7390
   52MPD2    N1  818   0.384   1.700   1.363  0.6391  0.0738  0.4171
   52MPD2    H7  819   0.320   1.644   1.419 -0.9525  1.0550 -0.4355
   53TMC2    C1  820   1.908   4.723  11.725 -0.5891 -0.6789  0.2575
   53TMC2    C2  821   2.043   0.004  11.743  0.0152  0.2232  0.3296
   53TMC2    C3  822   2.084   0.065  11.853 -0.5121  0.1689  0.1747
   53TMC2    C4  823   1.814   0.028  11.816  0.3621 -0.3223 -0.9742
   53TMC2    C5  824   1.861   0.085  11.931  0.6239 -0.0511 -0.3095
   53TMC2    C6  825   1.994   0.102  11.951 -0.9464 -0.6242  0.1195
   53TMC2     C  826   1.866   4.637  11.615  0.7852  0.6935 -0.2986
   53TMC2     O  827   1.926   4.664  11.512  0.0780  0.2566  0.1721
   53TMC2     H  828   2.101   4.704  11.660 -2.9069  1.9552 -2.5090
   53TMC2    H1  829   1.708   0.006  11.806  0.1300  0.7187 -0.8161
   53TMC2    H2  830   2.030   0.162  12.035  1.9660 -2.2631  0.0282
   53TMC2    C7  831   1.770   0.101  12.044  0.7171  0.2185  0.1504
   53TMC2    C8  832   2.218   0.108  11.851  0.5878 -0.0487  0.4131
   53TMC2    O1  833   1.653   0.090  12.011 -0.7915  0.1940 -0.4294
   53TMC2    O2  834   2.283   0.090  11.753 -0.2209  0.4185 -0.3356
   53TMC2    O5  835   2.256   0.089  11.977  0.2498 -0.7306  0.0518
   53TMC2    H5  836   2.186   0.081  12.045  0.3937  0.1911  0.3142
   54MPD2     C  837   1.762   4.434  11.425 -0.7591 -0.0639  0.7494
   54MPD2    C1  838   1.716   4.451  11.557  0.0561 -0.2599  0.0338
   54MPD2    C2  839   1.629   4.360  11.615  0.3969  0.7051  0.1915
   54MPD2    C3  840   1.573   4.256  11.545 -0.3432 -0.2422 -0.2582
   54MPD2    C4  841   1.611   4.255  11.411 -0.0061 -0.3709 -0.4292
   54MPD2    C5  842   1.702   4.333  11.352  0.0506 -0.1907 -0.9758
   54MPD2     H  843   1.589   4.379  11.715  2.7410 -0.2956  1.3139
   54MPD2    H1  844   1.577   4.176  11.344  1.2230 -1.2835  0.0205
   54MPD2    H2  845   1.833   4.501  11.378 -1.3093 -0.8272 -1.1765
   54MPD2    H3  846   1.730   4.321  11.248 -0.5113 -0.5902 -1.0813
   54MPD2     N  847   1.482   4.158  11.587 -0.0366 -0.5399  0.3932
   54MPD2    H5  848   1.446   4.091  11.520 -0.3354 -0.8861  0.8971
   54MPD2    N1  849   1.761   4.549  11.646 -0.0918 -0.4666  1.2624
   54MPD2    H7  850   1.727   4.540  11.741  0.2960 -0.1968  1.4272
   55TMC2    C1  851   3.056   2.533  17.744  0.1993 -0.4422  0.0220
   55TMC2    C2  852   3.181   2.554  17.691 -0.6016  0.2182  0.1466
   55TMC2    C3  853   3.259   2.445  17.683 -0.2695 -0.3420  0.0968
   55TMC2    C4  854   3.018   2.410   0.037 -0.2111  0.6267  0.6648
   55TMC2    C5  855   3.102   2.307   0.012  0.3071  0.3736  0.1707
   55TMC2    C6  856   3.220   2.318  17.702  0.0045  0.0758 -0.2755
   55TMC2     C  857   2.955   2.639   0.031 -0.3592  0.5069  0.0088
   55TMC2     O  858   2.871   2.605   0.112  0.4038 -0.2326  0.0994
   55TMC2     H  859   3.203   2.649  17.645  1.4099 -0.8683 -1.1440
   55TMC2    H1  860   2.919   2.389   0.076 -0.6507  1.5249  0.0224
   55TMC2    H2  861   3.287   2.234  17.710  1.8946  1.4265 -2.0055
   55TMC2    C7  862   3.046   2.171   0.021  0.4805 -0.0227 -0.4941
   55TMC2    C8  863   3.390   2.451  17.619  0.2362 -0.0320 -0.2747
   55TMC2    O1  864   3.105   2.083  17.709  0.0500  0.2325 -0.1782
   55TMC2    O2  865   3.457   2.350  17.593 -0.2970  0.1046 -0.5484
   55TMC2    O5  866   3.434   2.579  17.626 -0.1011 -0.2554  0.1191
   55TMC2    H5  867   3.379   2.648  17.669  1.4663  0.9303  0.2400
   56MPD2     C  868   2.935   2.988  17.681  0.3014  0.6880 -0.2178
   56MPD2    C1  869   2.902   2.878   0.002 -0.9045 -0.6624 -0.0303
   56MPD2    C2  870   2.808   2.880   0.110  0.6494  0.1103  0.2957
   56MPD2    C3  871   2.730   2.996   0.128 -0.5575 -0.8681 -0.1742
   56MPD2    C4  872   2.768   3.116   0.062 -0.4316  0.0772 -0.6579
   56MPD2    C5  873   2.867   3.103  17.715  0.1826  0.1669  0.0245
   56MPD2     H  874   2.781   2.793   0.167  1.7780 -1.5336 -1.6841
   56MPD2    H1  875   2.729   3.216   0.073  0.8420  0.4102  0.7821
   56MPD2    H2  876   3.008   2.989  17.601  0.2128 -1.9184 -0.3384
   56MPD2    H3  877   2.884   3.197  17.663 -1.1147  0.9959  1.0928
   56MPD2     N  878   2.632   2.987   0.233  0.9019  0.1603  0.0271
   56MPD2    H5  879   2.615   2.889   0.253  0.4282 -0.3260 -2.7074
   56MPD2    N1  880   2.976   2.763  17.719 -0.0089 -0.6086  0.5441
   56MPD2    H7  881   3.045   2.763  17.644  0.7205 -0.2453  1.2149
   57TMC2    C1  882   1.311   2.900  13.657 -0.5779 -0.1834 -0.4693
   57TMC2    C2  883   1.183   2.877  13.701 -0.0137  0.3286  0.4317
   57TMC2    C3  884   1.155   2.753  13.742 -0.6162  0.4523  0.0032
   57TMC2    C4  885   1.411   2.797  13.652  0.4146 -0.2539  0.4334
   57TMC2    C5  886   1.360   2.676  13.676  0.2470 -0.1740 -0.1799
   57TMC2    C6  887   1.233   2.649  13.720  0.7289 -0.3494  0.5613
   57TMC2     C  888   1.322   3.030  13.588  0.4043  0.0570  0.3430
   57TMC2     O  889   1.232   3.108  13.598 -0.3603  0.2994 -0.1515
   57TMC2     H  890   1.105   2.952  13.700 -1.6951 -1.4243  1.7052
   57TMC2    H1  891   1.512   2.808  13.614  0.0495 -2.8845 -1.3569
   57TMC2    H2  892   1.208   2.545  13.735 -1.3793  0.3415  1.9162
   57TMC2    C7  893   1.445   2.560  13.655 -0.3988 -0.3300 -0.1349
   57TMC2    C8  894   1.017   2.726  13.773  0.0851  0.6778  0.4569
   57TMC2    O1  895   1.422   2.468  13.734  0.3188 -0.0210 -0.4257
   57TMC2    O2  896   0.931   2.810  13.737 -0.0920 -0.1242  0.0084
   57TMC2    O5  897   1.026   2.696  13.904 -0.1436  0.6144  0.0676
   57TMC2    H5  898   1.105   2.643  13.927  0.4691  0.5941 -2.0542
   58MPD2     C  899   1.651   3.391  13.393 -0.4480  0.7924  0.5835
   58MPD2    C1  900   1.520   3.402  13.436 -0.3778 -0.7078 -0.9852
   58MPD2    C2  901   1.445   3.293  13.479 -0.2866  0.2685  0.3363
   58MPD2    C3  902   1.504   3.168  13.484  0.2346 -0.3606  0.1505
   58MPD2    C4  903   1.633   3.157  13.439 -0.2196 -0.1914  0.6196
   58MPD2    C5  904   1.709   3.262  13.393 -0.0458  0.6288  0.4648
   58MPD2     H  905   1.340   3.307  13.501  0.2957  2.6736  1.5584
   58MPD2    H1  906   1.683   3.061  13.449 -1.2460 -0.6596  1.2369
   58MPD2    H2  907   1.706   3.476  13.355 -1.6640  2.0472  1.6175
   58MPD2    H3  908   1.815   3.249  13.375 -0.2839  0.6215 -0.8742
   58MPD2     N  909   1.444   3.045  13.530 -0.1463  0.2729 -0.4647
   58MPD2    H5  910   1.497   2.958  13.537  2.1346  1.5059 -2.3137
   58MPD2    N1  911   1.469   3.537  13.444  0.4882 -0.2921  0.2586
   58MPD2    H7  912   1.535   3.607  13.412  0.7768 -0.7699 -0.2004
   59TMC2    C1  913   4.371   3.432  12.561 -0.9729  0.6126 -1.6961
   59TMC2    C2  914   4.470   3.525  12.536  0.3573  0.0725 -0.4782
   59TMC2    C3  915   4.445   3.624  12.443  0.3737 -0.1591  0.2490
   59TMC2    C4  916   4.257   3.427  12.490  0.9102 -0.4009 -0.2585
   59TMC2    C5  917   4.239   3.523  12.394 -0.1344 -0.0473  0.4062
   59TMC2    C6  918   4.327   3.625  12.372  0.1706 -0.5677  0.0707
   59TMC2     C  919   4.366   3.372  12.693 -0.3104  0.2940  0.0285
   59TMC2     O  920   4.271   3.296  12.706  0.0357 -0.3494  0.3701
   59TMC2     H  921   4.574   3.517  12.566  0.5850 -1.8623 -1.8208
   59TMC2    H1  922   4.190   3.342  12.490 -0.8958  0.9997  1.5748
   59TMC2    H2  923   4.320   3.699  12.294  1.7697  0.5316  0.9747
   59TMC2    C7  924   4.109   3.527  12.338  0.2894 -0.6188 -0.7082
   59TMC2    C8  925   4.533   3.736  12.440 -0.4439  0.4557 -0.3818
   59TMC2    O1  926   4.026   3.440  12.370  0.1171  0.4109  0.1192
   59TMC2    O2  927   4.488   3.848  12.416  0.3067  0.2671 -0.1319
   59TMC2    O5  928   4.639   3.687  12.382 -0.2821 -0.3222 -0.7857
   59TMC2    H5  929   4.622   3.594  12.355 -0.0516 -0.2429 -1.2157
   60MPD2     C  930   4.381   3.315  12.982  0.0741 -0.5614 -0.8264
   60MPD2    C1  931   4.426   3.436  12.931  0.0020 -0.0130 -0.1257
   60MPD2    C2  932   4.496   3.522  13.011 -0.7799 -0.1434  0.0519
   60MPD2    C3  933   4.526   3.480  13.141 -0.1635  0.3161 -0.5563
   60MPD2    C4  934   4.491   3.360  13.187 -0.7865 -0.5562  0.2759
   60MPD2    C5  935   4.419   3.280  13.112 -0.3712  0.6337 -0.7329
   60MPD2     H  936   4.534   3.616  12.971  1.5661 -0.0599  2.4849
   60MPD2    H1  937   4.540   3.310  13.269  1.4723 -1.5075 -1.6500
   60MPD2    H2  938   4.330   3.242  12.921  0.3566 -0.4297 -1.2155
   60MPD2    H3  939   4.394   3.180  13.143 -0.5989  0.7567 -0.5199
   60MPD2     N  940   4.631   3.543  13.209 -0.0332 -0.5483  0.3424
   60MPD2    H5  941   4.678   3.491  13.282  2.0205 -0.0503 -0.6439
   60MPD2    N1  942   4.431   3.452  12.794 -0.3053  0.2420  0.3418
   60MPD2    H7  943   4.470   3.540  12.763  1.8605 -0.5013  0.9439
   61TMC2    C1  944   3.776   4.295  15.527 -0.2861 -0.7538 -0.5436
   61TMC2    C2  945   3.758   4.237  15.645 -0.1201  0.2819  0.4950
   61TMC2    C3  946   3.732   4.313  15.751 -0.3551 -0.5521 -0.8202
   61TMC2    C4  947   3.745   4.427  15.508  0.9306  0.4069 -0.2230
   61TMC2    C5  948   3.712   4.498  15.622 -0.5579 -0.0452 -0.4559
   61TMC2    C6  949   3.709   4.443  15.746  0.2982  0.0649  0.0785
   61TMC2     C  950   3.813   4.213  15.417  0.6031 -0.3647 -0.4810
   61TMC2     O  951   3.784   4.091  15.423 -0.1153  0.2168 -0.3973
   61TMC2     H  952   3.774   4.130  15.661  0.4649  0.0122 -1.9754
   61TMC2    H1  953   3.738   4.470  15.408 -0.8025  0.8866  0.1176
   61TMC2    H2  954   3.657   4.491  15.829 -2.6511  1.2045 -2.4256
   61TMC2    C7  955   3.733   4.640  15.605  0.0146  0.6066  0.0839
   61TMC2    C8  956   3.737   4.254  15.877  0.1238 -0.2559 -1.2714
   61TMC2    O1  957   3.771   4.682  15.495  0.4402  0.0958 -0.3311
   61TMC2    O2  958   3.704   4.143  15.902 -0.0302 -0.9867 -0.1497
   61TMC2    O5  959   3.818   4.332  15.956 -0.1930  0.1313 -0.3684
   61TMC2    H5  960   3.844   4.418  15.919  1.3589  0.3735  1.2321
   62MPD2     C  961   3.870   4.106  15.147 -0.0996  0.2843 -0.4535
   62MPD2    C1  962   3.882   4.240  15.178  0.5104 -1.3243  0.9415
   62MPD2    C2  963   3.922   4.332  15.084 -0.0435 -0.1727 -0.0034
   62MPD2    C3  964   3.959   4.291  14.953 -0.2298 -0.0703 -0.0797
   62MPD2    C4  965   3.964   4.156  14.929  0.2482  0.0920 -0.7212
   62MPD2    C5  966   3.912   4.068  15.023  0.1356  0.1023 -0.1302
   62MPD2     H  967   3.924   4.432  15.128 -2.6867 -1.4386  2.9881
   62MPD2    H1  968   3.995   4.116  14.833  1.4849 -1.2491  0.2383
   62MPD2    H2  969   3.841   4.028  15.217 -0.5757  0.3147 -0.6173
   62MPD2    H3  970   3.908   3.963  14.997  0.6818  0.1380 -0.3668
   62MPD2     N  971   3.971   4.382  14.841  0.1425 -0.3949  0.0661
   62MPD2    H5  972   3.972   4.351  14.745 -0.2375 -1.7623  0.4941
   62MPD2    N1  973   3.858   4.288  15.309  0.9695 -0.3846  0.4658
   62MPD2    H7  974   3.865   4.390  15.314  0.5089 -0.2063 -2.4833
   63TMC2    C1  975   2.803   0.661  10.330  0.1177 -0.3181  0.4579
   63TMC2    C2  976   2.895   0.678  10.435  0.2087 -0.4044 -0.0518
   63TMC2    C3  977   2.993   0.776  10.423 -0.3137  0.0555 -0.4514
   63TMC2    C4  978   2.809   0.742  10.221  0.0444  0.3799 -0.1954
   63TMC2    C5  979   2.912   0.834  10.210 -1.1214 -0.3463 -0.2639
   63TMC2    C6  980   3.013   0.851  10.307 -0.7906  0.1666  1.0472
   63TMC2     C  981   2.696   0.569  10.339  0.3630  0.8070  0.4589
   63TMC2     O  982   2.586   0.584  10.282  0.1719  0.1935  0.0370
   63TMC2     H  983   2.894   0.611  10.520 -0.0664 -1.5379 -0.9324
   63TMC2    H1  984   2.738   0.729  10.139 -1.2516  2.0745  0.6482
   63TMC2    H2  985   3.101   0.910  10.288  0.6667 -2.9133 -1.7339
   63TMC2    C7  986   2.891   0.934  10.111 -0.6892  0.4784  0.0709
   63TMC2    C8  987   3.076   0.798  10.541 -0.4468 -0.2309 -0.2295
   63TMC2    O1  988   2.793   0.911  10.036 -0.1871  0.0505  0.1548
   63TMC2    O2  989   3.110   0.708  10.610  0.3730  0.4447  0.5604
   63TMC2    O5  990   3.137   0.922  10.531 -0.0541 -0.1337 -0.1326
   63TMC2    H5  991   3.097   0.978  10.460  3.7978  1.0262 -1.3993
   64MPD2     C  992   2.594   0.064  10.431 -0.7414 -0.1481 -0.5905
   64MPD2    C1  993   2.730   0.084  10.466  0.2870 -0.0657  0.1733
   64MPD2    C2  994   2.769   0.222  10.453  0.0628 -0.1432 -0.0377
   64MPD2    C3  995   2.685   0.320  10.404 -0.1434 -0.6299  0.5504
   64MPD2    C4  996   2.562   0.284  10.361 -0.3217 -0.1983 -0.3132
   64MPD2    C5  997   2.514   0.160  10.382 -0.2896  0.3386  0.2203
   64MPD2     H  998   2.870   0.249  10.483  0.2431 -3.5484  2.4838
   64MPD2    H1  999   2.512   0.364  10.307 -1.2636  0.0438  0.9252
   64MPD2    H2 1000   2.538   4.711  10.453 -1.0729  0.1236 -0.2998
   64MPD2    H3 1001   2.413   0.139  10.347 -0.4421 -0.2631  1.0198
   64MPD2     N 1002   2.746   0.448  10.388  0.0749 -0.2586  0.2654
   64MPD2    H5 1003   2.846   0.446  10.406  0.1157  0.3819  0.1390
   64MPD2    N1 1004   2.803   4.720  10.528  0.4704  0.1201  0.2033
   64MPD2    H7 1005   2.772   4.624  10.528  1.6707 -0.2702  0.3886
   65TMC2    C1 1006   4.533   4.425  15.537  0.4370  0.7511  0.5655
   65TMC2    C2 1007   4.534   4.405  15.402  0.0907  0.3325  0.1784
   65TMC2    C3 1008   4.541   4.520  15.330  0.0442 -0.0875 -0.3981
   65TMC2    C4 1009   4.532   4.549  15.598  0.0855  0.3236 -0.1653
   65TMC2    C5 1010   4.542   4.658  15.520  0.2121 -0.3936 -0.0520
   65TMC2    C6 1011   4.549   4.644  15.384 -0.1351 -0.0488 -0.7335
   65TMC2     C 1012   4.520   4.309  15.622 -0.6770 -0.7694  0.6239
   65TMC2     O 1013   4.502   4.331  15.740  0.3127 -0.4942 -0.3596
   65TMC2     H 1014   4.503   4.313  15.354  2.4244 -0.4923  0.2703
   65TMC2    H1 1015   4.543   4.550  15.706  1.0111  2.7820 -0.2928
   65TMC2    H2 1016   4.541   4.734  15.325  0.3158 -0.3192 -1.2064
   65TMC2    C7 1017   4.497   0.049  15.571 -0.1067 -0.4023 -0.1079
   65TMC2    C8 1018   4.533   4.500  15.180 -0.5597  0.3465  0.4659
   65TMC2    O1 1019   4.558   0.150  15.532 -0.2762  0.3203 -0.8372
   65TMC2    O2 1020   4.522   4.383  15.138  0.4242 -0.3136  0.0400
   65TMC2    O5 1021   4.596   4.594  15.122 -0.2055 -0.8961 -0.3660
   65TMC2    H5 1022   4.597   4.677  15.174 -1.5317 -0.5132 -0.9655
   66MPD2     C 1023   4.505   4.041  15.763 -0.7733 -0.1701 -0.8689
   66MPD2    C1 1024   4.526   4.064  15.624 -1.1617 -0.4472  0.2847
   66MPD2    C2 1025   4.541   3.956  15.543  0.1206  0.0318 -0.3352
   66MPD2    C3 1026   4.526   3.824  15.590 -0.2350  0.7641 -0.0687
   66MPD2    C4 1027   4.504   3.806  15.725 -0.7745  0.3243 -0.1799
   66MPD2    C5 1028   4.506   3.916  15.812 -0.3336  0.0100 -0.0333
   66MPD2     H 1029   4.555   3.971  15.437 -2.1545  2.0849 -0.3409
   66MPD2    H1 1030   4.503   3.704  15.762 -1.2250 -0.2072 -1.6874
   66MPD2    H2 1031   4.496   4.122  15.834 -1.4919 -1.1905  0.1969
   66MPD2    H3 1032   4.485   3.893  15.916 -0.0051  1.4608  0.3479
   66MPD2     N 1033   4.534   3.712  15.504 -0.5549  0.1907 -0.3306
   66MPD2    H5 1034   4.508   3.619  15.536 -0.1956  0.7865  1.6862
   66MPD2    N1 1035   4.534   4.186  15.558 -0.1902  0.0855  0.0367
   66MPD2    H7 1036   4.573   4.174  15.465 -0.8708 -0.2026 -0.2152
   67TMC2    C1 1037   0.137   3.523  14.299 -0.0586 -0.6728  0.3108
   67TMC2    C2 1038   0.076   3.646  14.274 -0.7097  0.2378 -0.4512
   67TMC2    C3 1039   0.107   3.758  14.352  0.2392 -1.2399 -0.5866
   67TMC2    C4 1040   0.229   3.509  14.400 -0.8514  0.2720  0.7570
   67TMC2    C5 1041   0.267   3.623  14.466  0.0521  0.4400 -0.0002
   67TMC2    C6 1042   0.208   3.746  14.448 -0.6852  0.3825 -0.0786
   67TMC2     C 1043   0.096   3.395  14.228  0.1620  0.2793  0.2061
   67TMC2     O 1044   0.172   3.300  14.239  0.4647 -0.0000 -1.1032
   67TMC2     H 1045   0.014   3.670  14.189 -2.3284 -0.8847  0.4192
   67TMC2    H1 1046   0.276   3.412  14.417 -0.3411  0.5059  0.6973
   67TMC2    H2 1047   0.238   3.830  14.509  0.2516 -0.7656  1.0377
   67TMC2    C7 1048   0.368   3.609  14.570  0.6835  0.8587 -0.1545
   67TMC2    C8 1049   0.090   3.893  14.294  0.6792  0.6130  0.4750
   67TMC2    O1 1050   0.458   3.533  14.552  0.1389 -0.3232 -0.3497
   67TMC2    O2 1051   0.058   3.911  14.180  0.4615  0.1224 -0.4905
   67TMC2    O5 1052   0.038   3.959  14.399 -0.2965 -0.5734  0.3484
   67TMC2    H5 1053   0.053   3.931  14.492  1.1088  1.2161  0.6541
   68MPD2     C 1054   4.736   3.226  14.015  0.0391 -0.8702  0.7683
   68MPD2    C1 1055   4.670   3.341  14.047 -0.7006  0.4659  0.4582
   68MPD2    C2 1056   4.555   3.367  13.977 -0.2087 -0.3453  0.5932
   68MPD2    C3 1057   4.508   3.290  13.873 -0.7234  0.8849 -0.3501
   68MPD2    C4 1058   4.596   3.185  13.833 -0.3177 -0.3376 -0.8561
   68MPD2    C5 1059   4.697   3.147  13.910  0.4858 -0.5524  0.4674
   68MPD2     H 1060   4.492   3.448  14.010 -0.0166 -0.0216  0.1662
   68MPD2    H1 1061   4.563   3.120  13.753  3.0152  0.0120 -2.4844
   68MPD2    H2 1062   0.085   3.182  14.064 -0.2545  0.3426  2.3740
   68MPD2    H3 1063   0.014   3.054  13.895  1.7074 -0.1156  2.1347
   68MPD2     N 1064   4.388   3.303  13.804 -0.3967 -0.0953  0.3796
   68MPD2    H5 1065   4.378   3.247  13.719 -0.8360  1.1512 -0.3915
   68MPD2    N1 1066   4.723   3.425  14.147 -0.4954  0.6829 -0.4130
   68MPD2    H7 1067   4.671   3.511  14.161 -2.8280 -0.8531  0.4278
   69TMC2    C1 1068   1.749   0.572  12.616  0.3716 -0.6693  0.1455
   69TMC2    C2 1069   1.665   0.679  12.585  0.1244 -0.3206  0.3675
   69TMC2    C3 1070   1.645   0.704  12.452  0.1028  0.1806 -0.6675
   69TMC2    C4 1071   1.806   0.499  12.509 -0.1707 -0.1377  0.0750
   69TMC2    C5 1072   1.777   0.529  12.381 -0.6253 -0.3638 -0.2021
   69TMC2    C6 1073   1.692   0.633  12.347 -0.0018  0.3397 -0.4661
   69TMC2     C 1074   1.704   0.502  12.733  0.0773 -0.0000 -0.5187
   69TMC2     O 1075   1.588   0.514  12.768  0.1692 -0.4194 -0.1439
   69TMC2     H 1076   1.610   0.730  12.664  2.4385  1.9886  0.4628
   69TMC2    H1 1077   1.863   0.410  12.532 -1.5170 -1.2232 -0.7853
   69TMC2    H2 1078   1.671   0.669  12.247 -0.6711  0.6956 -0.1939
   69TMC2    C7 1079   1.860   0.469  12.269 -0.7435 -0.3258 -1.0366
   69TMC2    C8 1080   1.538   0.799  12.428  0.3359  0.8182  0.3720
   69TMC2    O1 1081   1.964   0.412  12.306  0.1938 -0.3345  0.4433
   69TMC2    O2 1082   1.434   0.812  12.494 -0.4001 -0.1966  0.4086
   69TMC2    O5 1083   1.609   0.905  12.383 -0.2686 -0.3138  0.3443
   69TMC2    H5 1084   1.701   0.883  12.356 -0.0602  0.5242  0.3512
   70MPD2     C 1085   1.902   0.249  12.911 -0.1264  0.0950 -0.0854
   70MPD2    C1 1086   1.788   0.312  12.865 -0.4757  0.7046 -0.0631
   70MPD2    C2 1087   1.663   0.250  12.893  0.5473 -0.0061 -0.9947
   70MPD2    C3 1088   1.651   0.127  12.953  0.3771  0.3989 -0.3124
   70MPD2    C4 1089   1.763   0.068  13.004  0.5468 -0.4121 -0.1320
   70MPD2    C5 1090   1.882   0.127  12.976 -0.9850 -0.4083  0.0427
   70MPD2     H 1091   1.578   0.293  12.842  0.4373  1.2423  0.2307
   70MPD2    H1 1092   1.749   4.709  13.053  1.9583  0.1678  1.4179
   70MPD2    H2 1093   2.003   0.283  12.889  0.6544 -1.8883  0.4434
   70MPD2    H3 1094   1.973   0.081  13.013 -0.8667 -0.7941 -0.7273
   70MPD2     N 1095   1.533   0.056  12.959  0.3220  0.1796  0.2510
   70MPD2    H5 1096   1.531   4.696  12.988 -1.4725  0.6489  1.7302
   70MPD2    N1 1097   1.803   0.422  12.780 -0.1213  0.0783 -0.6565
   70MPD2    H7 1098   1.895   0.450  12.748  0.3077  0.7403  1.1650
   71TMC2    C1 1099   2.620   0.699   0.875  0.1939  0.5083  0.2377
   71TMC2    C2 1100   2.635   0.703   1.008  0.8966  0.3158 -0.9202
   71TMC2    C3 1101   2.533   0.759   1.080 -0.7992  0.2560  0.5214
   71TMC2    C4 1102   2.506   0.747   0.812  0.1545  0.1115  0.2316
   71TMC2    C5 1103   2.401   0.786   0.895 -0.2576 -0.4529  0.1001
   71TMC2    C6 1104   2.420   0.798   1.030  0.2224  0.2290 -0.0428
   71TMC2     C 1105   2.727   0.636   0.799  0.2708  0.1624 -0.1602
   71TMC2     O 1106   2.811   0.575   0.860  0.2453 -0.2570  0.0828
   71TMC2     H 1107   2.726   0.673   1.058  1.0352 -1.4690 -2.2599
   71TMC2    H1 1108   2.499   0.737   0.704  1.8859  0.8906  0.0498
   71TMC2    H2 1109   2.346   0.842   1.096 -0.6486  0.5249 -1.2263
   71TMC2    C7 1110   2.294   0.861   0.833  0.1256 -0.3847 -0.3449
   71TMC2    C8 1111   2.537   0.722   1.218 -0.1517  0.2191 -0.1204
   71TMC2    O1 1112   2.231   0.943   0.904 -0.4252  0.0994  0.2737
   71TMC2    O2 1113   2.639   0.712   1.283 -0.0151  0.0102 -0.1106
   71TMC2    O5 1114   2.430   0.647   1.249  0.5240  0.0415  0.3965
   71TMC2    H5 1115   2.382   0.623   1.167  1.3292 -0.6781  0.1281
   72MPD2     C 1116   2.967   0.553   0.348 -0.0362  1.2470 -0.4194
   72MPD2    C1 1117   3.000   0.519   0.473 -0.7738 -0.4922  0.3186
   72MPD2    C2 1118   2.916   0.543   0.575  0.2955  0.4156 -0.5316
   72MPD2    C3 1119   2.803   0.625   0.558  0.7046  0.2229  0.5358
   72MPD2    C4 1120   2.772   0.670   0.433  0.6996 -0.0059  0.6980
   72MPD2    C5 1121   2.858   0.630   0.330 -0.1277 -0.8958 -0.3771
   72MPD2     H 1122   2.955   0.517   0.672 -0.0317  0.1754 -0.4652
   72MPD2    H1 1123   2.694   0.743   0.411  0.0301 -0.7616  0.5887
   72MPD2    H2 1124   3.044   0.547   0.272 -0.9705 -0.9737 -1.1911
   72MPD2    H3 1125   2.840   0.661   0.228 -0.2212 -3.2355 -1.0699
   72MPD2     N 1126   2.720   0.665   0.666 -0.1363  0.2650  0.0552
   72MPD2    H5 1127   2.640   0.721   0.637 -0.4250 -0.8258 -1.2709
   72MPD2    N1 1128   3.118   0.452   0.500 -0.5090  0.5805 -0.2649
   72MPD2    H7 1129   3.153   0.449   0.596  1.3235  0.3263 -0.9527
   73TMC2    C1 1130   3.687   2.234  13.949  0.2752  0.6268  0.0535
   73TMC2    C2 1131   3.635   2.250  14.077 -0.3622  0.0985  0.1686
   73TMC2    C3 1132   3.693   2.187  14.181  0.3284  0.1000 -0.2053
   73TMC2    C4 1133   3.784   2.143  13.931  0.2943 -0.6275 -0.2639
   73TMC2    C5 1134   3.836   2.071  14.033 -0.0035 -0.3339 -0.1718
   73TMC2    C6 1135   3.785   2.093  14.158 -0.9186  1.1877 -0.1467
   73TMC2     C 1136   3.732   2.357  13.887  0.8694  1.2766  0.0009
   73TMC2     O 1137   3.852   2.358  13.865 -0.1102 -0.2940  0.3716
   73TMC2     H 1138   3.565   2.329  14.102  1.9164  1.8467  1.1243
   73TMC2    H1 1139   3.816   2.137  13.828  1.0749 -0.5040 -0.0358
   73TMC2    H2 1140   3.830   2.052  14.248 -3.1645  1.7768  1.2414
   73TMC2    C7 1141   3.972   2.048  14.022  0.1439 -0.0110  0.7658
   73TMC2    C8 1142   3.650   2.199  14.319  0.0364 -0.5575 -0.3513
   73TMC2    O1 1143   4.033   1.961  14.085  0.2064 -0.4000  0.0191
   73TMC2    O2 1144   3.653   2.117  14.411  0.3739 -0.1541  0.7270
   73TMC2    O5 1145   3.638   2.338  14.333 -0.2762 -0.0431 -0.0487
   73TMC2    H5 1146   3.672   2.396  14.262 -2.2688  0.4897 -0.5570
   74MPD2     C 1147   3.716   2.841  13.707  0.1380  0.0060 -0.1607
   74MPD2    C1 1148   3.815   2.761  13.756 -0.0908  0.0216  0.5732
   74MPD2    C2 1149   3.789   2.635  13.803  0.3702 -0.1062 -0.0274
   74MPD2    C3 1150   3.662   2.582  13.808 -0.0369  0.3133 -0.4714
   74MPD2    C4 1151   3.559   2.669  13.771  0.2014 -0.3013 -0.0523
   74MPD2    C5 1152   3.587   2.792  13.716  0.5878 -0.6236  0.2313
   74MPD2     H 1153   3.872   2.571  13.831  0.6582 -0.2201 -1.1381
   74MPD2    H1 1154   3.454   2.650  13.787 -0.2277  2.3242  0.2440
   74MPD2    H2 1155   3.744   2.935  13.659  2.3257  0.6329  2.3791
   74MPD2    H3 1156   3.508   2.850  13.671  0.3684 -2.3829 -1.6149
   74MPD2     N 1157   3.631   2.449  13.860 -0.4038 -0.3528 -0.3702
   74MPD2    H5 1158   3.535   2.424  13.877 -1.1225  2.5965 -0.0914
   74MPD2    N1 1159   3.951   2.816  13.749 -0.3626 -0.8794  0.6898
   74MPD2    H7 1160   3.970   2.903  13.701  0.3216 -1.7491 -0.6141
   75TMC2    C1 1161   4.174   3.395  13.763 -0.4485  0.2269  0.0949
   75TMC2    C2 1162   4.131   3.287  13.691 -0.3457 -0.1508  0.3326
   75TMC2    C3 1163   4.000   3.279  13.655  0.0403  0.1978 -0.9471
   75TMC2    C4 1164   4.088   3.502  13.782  0.2415 -1.3329  0.6661
   75TMC2    C5 1165   3.958   3.491  13.743  1.1287 -0.0741  0.0754
   75TMC2    C6 1166   3.907   3.378  13.682  0.2671  0.0096  0.2739
   75TMC2     C 1167   4.288   3.385  13.850  0.3048 -0.3682  0.1096
   75TMC2     O 1168   4.274   3.443  13.956 -1.1225 -0.4308  0.3391
   75TMC2     H 1169   4.192   3.197  13.695  0.2590  0.2552  0.2444
   75TMC2    H1 1170   4.122   3.594  13.827  1.6831  0.3626 -3.9398
   75TMC2    H2 1171   3.803   3.355  13.662  0.5419 -0.0669 -1.0716
   75TMC2    C7 1172   3.867   3.607  13.744  0.4365 -0.9913  0.2895
   75TMC2    C8 1173   3.955   3.153  13.598 -0.4550 -0.5261  0.0201
   75TMC2    O1 1174   3.882   3.677  13.841  0.2352 -0.3821 -0.0423
   75TMC2    O2 1175   4.015   3.052  13.628 -0.6476  0.1315  0.2389
   75TMC2    O5 1176   3.841   3.163  13.524 -0.1186  0.5167 -0.2868
   75TMC2    H5 1177   3.796   3.249  13.508  0.4696  1.5340  3.4059
   76TMC2    C1 1178   2.859   4.273  12.268  0.4124 -0.3863  0.2291
   76TMC2    C2 1179   2.748   4.238  12.343 -0.0544  0.0043  0.4495
   76TMC2    C3 1180   2.768   4.202  12.469  0.1031 -0.3439  0.1587
   76TMC2    C4 1181   2.980   4.262  12.324 -0.5695 -0.6432  0.2382
   76TMC2    C5 1182   2.996   4.200  12.445 -0.6543 -0.1194  0.2119
   76TMC2    C6 1183   2.891   4.176  12.524  0.6038  0.4873  0.6111
   76TMC2     C 1184   2.830   4.353  12.154  0.1961  0.7718  0.1603
   76TMC2     O 1185   2.905   4.448  12.128  0.6808  0.4745 -0.6283
   76TMC2     H 1186   2.652   4.281  12.316 -0.7633 -1.3019  0.9103
   76TMC2    H1 1187   3.064   4.287  12.259  0.2911  1.1291  2.0204
   76TMC2    H2 1188   2.907   4.123  12.617  1.1543  0.8415  0.7174
   76TMC2    C7 1189   3.125   4.177  12.499  0.5543  0.1705  0.0349
   76TMC2    C8 1190   2.655   4.148  12.541 -0.2259  0.4206 -0.0710
   76TMC2    O1 1191   3.221   4.195  12.426 -0.7780  0.0395  0.7664
   76TMC2    O2 1192   2.640   4.159  12.659 -0.2301  0.7885  0.1187
   76TMC2    O5 1193   2.557   4.093  12.461 -0.2490 -0.0493 -0.3073
   76TMC2    H5 1194   2.583   4.094  12.366 -1.7270 -1.1932 -0.7045
   77MPD2     C 1195   2.514   4.495  11.790  0.6282  0.8504  0.1488
   77MPD2    C1 1196   2.591   4.572  11.864  0.0736  0.8202  0.1155
   77MPD2    C2 1197   2.663   4.511  11.968  0.6518  0.1607  0.6233
   77MPD2    C3 1198   2.655   4.374  11.988 -0.2965 -0.6661 -0.0403
   77MPD2    C4 1199   2.570   4.298  11.913 -0.2991  0.4988  0.1693
   77MPD2    C5 1200   2.506   4.356  11.807  0.6136 -0.9641  0.1019
   77MPD2     H 1201   2.734   4.573  12.022 -3.2316  2.4546  3.0228
   77MPD2    H1 1202   2.553   4.192  11.927  2.0486  0.2794  1.2185
   77MPD2    H2 1203   2.443   4.547  11.727  0.0674  0.2496  0.2829
   77MPD2    H3 1204   2.431   4.303  11.750  0.6668 -1.0112  0.0746
   77MPD2     N 1205   2.722   4.308  12.091 -0.6275  0.3114 -0.1265
   77MPD2    H5 1206   2.688   4.217  12.117 -0.2479  0.1720 -0.1110
   77MPD2    N1 1207   2.594   4.716  11.847  0.2606  0.4778 -0.0843
   77MPD2    H7 1208   2.559   0.016  11.760 -1.5423 -1.0999 -0.0101
   78TMC2    C1 1209   3.404   0.742   1.423 -0.3203 -0.2153 -0.5754
   78TMC2    C2 1210   3.353   0.650   1.335 -0.6051 -0.5138 -0.6068
   78TMC2    C3 1211   3.435   0.548   1.294  0.3113  0.1984 -0.4954
   78TMC2    C4 1212   3.530   0.746   1.469  0.7749  0.0218 -0.3951
   78TMC2    C5 1213   3.608   0.647   1.416  0.2978  0.3147  0.2065
   78TMC2    C6 1214   3.568   0.550   1.330 -0.4297 -0.5580  0.5223
   78TMC2     C 1215   3.305   0.824   1.482 -0.0598  0.3334 -0.8360
   78TMC2     O 1216   3.192   0.813   1.438 -0.2331 -0.1778 -0.1719
   78TMC2     H 1217   3.247   0.646   1.312 -0.9704 -3.4657  1.6150
   78TMC2    H1 1218   3.570   0.836   1.515  1.3709 -0.3276 -0.2379
   78TMC2    H2 1219   3.641   0.489   1.278 -0.8705 -2.2528  1.8904
   78TMC2    C7 1220   3.751   0.661   1.428  1.0025  0.4332 -0.4152
   78TMC2    C8 1221   3.383   0.467   1.190 -0.0748  0.3124 -0.7750
   78TMC2    O1 1222   3.828   0.587   1.371  0.0200  0.4387  0.0839
   78TMC2    O2 1223   3.279   0.492   1.124 -0.5398 -0.4305  0.1655
   78TMC2    O5 1224   3.475   0.373   1.164  0.4834  0.1979  0.9459
   78TMC2    H5 1225   3.536   0.366   1.239  0.2704  0.9499  1.1917
   79MPD1     C 1226   3.107   1.141   1.838  0.3829  0.2639 -0.1327
   79MPD1    C1 1227   3.054   1.107   1.714 -0.1496  0.1355 -0.2032
   79MPD1    C2 1228   3.136   1.034   1.623  0.1386 -0.5234 -0.4636
   79MPD1    C3 1229   3.261   0.986   1.665 -0.2398 -0.3172 -0.1696
   79MPD1    C4 1230   3.311   1.037   1.781 -0.4048 -0.2366  0.1019
   79MPD1    C5 1231   3.236   1.111   1.871 -0.2653  0.7881  0.2895
   79MPD1     H 1232   3.095   1.016   1.524 -2.4204  1.5597  0.2001
   79MPD1    H1 1233   3.412   1.011   1.811 -0.6099  0.5363  1.4740
   79MPD1    H2 1234   3.055   1.200   1.913  1.8160  0.6046  0.5943
   79MPD1    H3 1235   3.280   1.147   1.963  2.0154 -0.5275 -0.2828
   79MPD1     N 1236   3.346   0.903   1.587 -0.0096  0.4703  0.4192
   79MPD1    H5 1237   3.438   0.885   1.626 -0.4542 -3.8172 -0.5298
   79MPD1    N1 1238   2.916   1.119   1.679 -0.4473  0.0624  0.4593
   79MPD1    H6 1239   2.868   1.193   1.732 -0.1420  0.6580 -0.0963
   79MPD1    H7 1240   2.913   1.151   1.583 -3.4676 -1.6297 -0.0128
   80TMC2    C1 1241   1.934   4.178  11.586 -0.1463  0.0309  0.0693
   80TMC2    C2 1242   1.983   4.176  11.460  0.6467 -0.0602  0.2064
   80TMC2    C3 1243   1.941   4.080  11.371  0.3516  0.4761  0.7253
   80TMC2    C4 1244   1.843   4.088  11.636  0.4134 -0.2226 -0.0304
   80TMC2    C5 1245   1.820   3.982  11.555 -0.0002  0.4469  0.4565
   80TMC2    C6 1246   1.857   3.983  11.421 -0.2209 -0.1416 -0.4844
   80TMC2     C 1247   2.017   4.254  11.675  0.8032 -0.2730 -0.6506
   80TMC2     O 1248   2.130   4.290  11.638  0.2766 -0.3991  0.4483
   80TMC2     H 1249   2.034   4.261  11.416  1.8557  0.7353  3.1960
   80TMC2    H1 1250   1.804   4.097  11.737 -0.1503  1.2948 -0.3880
   80TMC2    H2 1251   1.853   3.894  11.360  1.9109  0.2916 -1.2641
   80TMC2    C7 1252   1.751   3.863  11.597 -0.5200 -0.4405  0.5379
   80TMC2    C8 1253   1.987   4.075  11.232  0.5904 -0.0180  0.0991
   80TMC2    O1 1254   1.738   3.773  11.513 -0.1921  0.0553 -0.4505
   80TMC2    O2 1255   2.096   4.115  11.187  0.0297 -0.7706 -0.2106
   80TMC2    O5 1256   1.869   4.095  11.157 -0.2537  0.1552  0.2405
   80TMC2    H5 1257   1.781   4.068  11.191  0.6174 -0.6919  1.8600
   81MPD2     C 1258   2.146   4.401  11.895 -0.5619  0.4792  0.4185
   81MPD2    C1 1259   2.017   4.354  11.904 -0.4494 -0.0240 -0.4554
   81MPD2    C2 1260   1.944   4.374  12.014  0.3765  0.1013 -0.3274
   81MPD2    C3 1261   1.999   4.444  12.119 -0.1705 -0.4128 -0.0762
   81MPD2    C4 1262   2.124   4.501  12.111 -0.5681 -0.2719  0.3008
   81MPD2    C5 1263   2.198   4.472  12.003  0.2237 -0.3757  0.2622
   81MPD2     H 1264   1.845   4.332  12.026  0.6510 -0.0941  1.3283
   81MPD2    H1 1265   2.179   4.555  12.187  0.9977 -1.6120  0.1438
   81MPD2    H2 1266   2.204   4.407  11.803 -0.2472  1.2923  0.6624
   81MPD2    H3 1267   2.302   4.503  12.002  0.0791  0.1046 -0.0321
   81MPD2     N 1268   1.928   4.468  12.237  0.5141 -0.7998  0.1672
   81MPD2    H5 1269   1.987   4.513  12.305 -0.1220  0.3980 -0.0803
   81MPD2    N1 1270   1.964   4.275  11.798 -0.5071  0.4218  0.4414
   81MPD2    H7 1271   1.883   4.219  11.824 -0.5531  0.6482  0.7811
   82TMC2    C1 1272   0.004   3.374  11.815  0.3093 -0.0057 -0.1948
   82TMC2    C2 1273   0.066   3.396  11.936  0.0510 -0.1044  0.5665
   82TMC2    C3 1274   0.185   3.327  11.945 -0.0096 -0.3715 -0.3151
   82TMC2    C4 1275   0.058   3.315  11.706 -0.3415  0.4262 -0.1109
   82TMC2    C5 1276   0.171   3.247  11.729  0.8398 -0.0187 -0.4765
   82TMC2    C6 1277   0.242   3.259  11.840 -0.5844 -0.0238 -0.7969
   82TMC2     C 1278   4.603   3.412  11.800  0.1576 -0.1602  0.4118
   82TMC2     O 1279   4.581   3.455  11.690  0.1757  0.5617  0.0832
   82TMC2     H 1280   0.031   3.463  12.014 -0.0221 -1.4392  1.6894
   82TMC2    H1 1281   0.016   3.319  11.606  1.5121  1.3366 -0.8597
   82TMC2    H2 1282   0.331   3.199  11.855 -0.7039 -0.7002 -2.8827
   82TMC2    C7 1283   0.135   3.111  11.707  0.0458  1.2325 -0.1459
   82TMC2    C8 1284   0.220   3.277  12.079 -0.5569 -0.3384  0.4002
   82TMC2    O1 1285   0.151   3.032  11.801  0.0107  0.2701 -0.3908
   82TMC2    O2 1286   0.298   3.186  12.096  0.2988 -0.8127  0.0117
   82TMC2    O5 1287   0.211   3.391  12.157 -0.0739  0.3354 -0.5197
   82TMC2    H5 1288   0.186   3.471  12.108 -0.2769 -1.2873 -3.0460
   83MPD2     C 1289   4.102   3.424  11.948  0.7036  0.5789 -0.1737
   83MPD2    C1 1290   4.168   3.488  11.841  0.1281  0.2113 -0.2595
   83MPD2    C2 1291   4.307   3.468  11.824 -0.4437 -0.0442 -1.0860
   83MPD2    C3 1292   4.379   3.394  11.917 -0.6439  0.0029  0.4573
   83MPD2    C4 1293   4.315   3.338  12.033  0.0725 -0.0082 -0.0397
   83MPD2    C5 1294   4.179   3.348  12.040  0.1880  0.5309  0.4061
   83MPD2     H 1295   4.359   3.501  11.735  1.1784  2.0596  0.6450
   83MPD2    H1 1296   4.355   3.276  12.112  0.0570  0.2837  0.1982
   83MPD2    H2 1297   3.993   3.417  11.952  0.7327  1.4804  1.9242
   83MPD2    H3 1298   4.127   3.300  12.123  1.0657 -2.6656 -0.8792
   83MPD2     N 1299   4.521   3.381  11.905  0.1969 -0.0194 -0.5758
   83MPD2    H5 1300   4.570   3.330  11.977  1.7453  0.9776 -0.9068
   83MPD2    N1 1301   4.090   3.554  11.745  0.7339  0.2730  0.6308
   83MPD2    H7 1302   3.994   3.577  11.769  0.0969  2.5512 -4.1203
   84TMC2    C1 1303   0.913   2.274  10.889 -0.5199 -0.5026 -0.6443
   84TMC2    C2 1304   0.965   2.146  10.877 -0.5269 -0.8507 -0.3408
   84TMC2    C3 1305   0.918   2.076  10.768 -0.2223 -0.7184  0.4940
   84TMC2    C4 1306   0.842   2.329  10.780  0.3333  0.2142 -0.1460
   84TMC2    C5 1307   0.813   2.261  10.669 -0.4648  0.1360  0.2117
   84TMC2    C6 1308   0.854   2.136  10.661 -0.3185 -0.2655  0.0428
   84TMC2     C 1309   0.898   2.327  11.020 -0.5395  0.5483  0.0621
   84TMC2     O 1310   0.863   2.445  11.029  0.5523 -0.0640 -0.2989
   84TMC2     H 1311   1.041   2.111  10.946 -0.0818  3.9116  1.5804
   84TMC2    H1 1312   0.805   2.429  10.798 -1.8976 -1.0284  2.0883
   84TMC2    H2 1313   0.827   2.081  10.572  1.6747  1.5047 -1.6644
   84TMC2    C7 1314   0.723   2.311  10.562 -0.0072  0.5793 -0.0048
   84TMC2    C8 1315   0.962   1.936  10.768 -0.0316 -0.4522  0.1142
   84TMC2    O1 1316   0.668   2.222  10.493  0.0999 -0.5045 -0.0919
   84TMC2    O2 1317   1.009   1.886  10.868  0.3746  0.1241 -0.0756
   84TMC2    O5 1318   1.003   1.904  10.640 -0.5525  0.2623  0.3614
   84TMC2    H5 1319   0.991   1.973  10.571  0.4836  0.0975  0.0224
   85TMC2    C1 1320   2.098   0.832  16.127  0.0183 -0.3626  0.7690
   85TMC2    C2 1321   2.010   0.921  16.182  0.5348 -0.1588  0.2111
   85TMC2    C3 1322   2.013   1.044  16.118 -0.8323 -0.0069 -0.4046
   85TMC2    C4 1323   2.202   0.865  16.044 -0.3007  1.1310  0.6151
   85TMC2    C5 1324   2.208   0.988  15.991 -0.0471 -0.4750  0.2850
   85TMC2    C6 1325   2.111   1.079  16.026  0.3635 -0.1172 -0.2524
   85TMC2     C 1326   2.127   0.711  16.201  0.1831 -0.1673  0.0172
   85TMC2     O 1327   2.245   0.693  16.230 -0.1213 -0.3241 -0.3963
   85TMC2     H 1328   1.936   0.895  16.257  0.6623 -0.9567  0.0653
   85TMC2    H1 1329   2.276   0.789  16.024  0.2336  1.7605  0.1783
   85TMC2    H2 1330   2.091   1.171  15.972 -0.0478 -0.2677 -0.3621
   85TMC2    C7 1331   2.257   0.989  15.853 -0.1626 -0.0090 -0.1423
   85TMC2    C8 1332   1.924   1.142  16.182  0.3965  1.1270 -0.0317
   85TMC2    O1 1333   2.313   0.893  15.818 -0.1604  0.1185 -0.0406
   85TMC2    O2 1334   1.838   1.115  16.265  0.3864  0.1501 -0.1784
   85TMC2    O5 1335   1.999   1.253  16.203 -0.5387  0.3293 -0.6086
   85TMC2    H5 1336   2.094   1.255  16.178 -0.1850 -0.0755  0.7002
   86MPD2     C 1337   1.993   0.303  16.475  0.6298  0.2207 -0.9138
   86MPD2    C1 1338   1.892   0.333  16.387  0.4373 -1.0682 -0.9060
   86MPD2    C2 1339   1.900   0.446  16.313  0.0717 -0.0009  0.1882
   86MPD2    C3 1340   2.012   0.525  16.313 -0.9914 -0.7564 -0.0879
   86MPD2    C4 1341   2.117   0.489  16.398  1.0742 -0.3746  0.0031
   86MPD2    C5 1342   2.109   0.376  16.473 -0.6379 -0.5953  0.5366
   86MPD2     H 1343   1.830   0.467  16.234 -0.4063  0.8189  0.8264
   86MPD2    H1 1344   2.209   0.545  16.408  1.9061 -1.5063 -1.2277
   86MPD2    H2 1345   1.996   0.222  16.546 -1.8595  1.4748  0.6120
   86MPD2    H3 1346   2.196   0.341  16.527 -0.1425  0.6364  0.5514
   86MPD2     N 1347   2.018   0.638  16.221 -0.3810 -0.6454 -0.7402
   86MPD2    H5 1348   1.929   0.663  16.178  1.3436 -1.5634 -4.8733
   86MPD2    N1 1349   1.778   0.254  16.368  0.0242 -0.3017 -0.3279
   86MPD2    H7 1350   1.718   0.282  16.290 -1.4073 -0.0103  0.8878
   87TMC2    C1 1351   3.856   3.723   0.864  0.4748 -1.0524  0.1583
   87TMC2    C2 1352   3.785   3.641   0.946  0.9567 -0.2275  0.0402
   87TMC2    C3 1353   3.759   3.681   1.074  0.1824  0.1433  0.8044
   87TMC2    C4 1354   3.915   3.832   0.923 -0.3301 -0.2293 -0.6008
   87TMC2    C5 1355   3.900   3.860   1.056  0.0195 -0.5533 -0.3556
   87TMC2    C6 1356   3.822   3.791   1.137 -0.2179 -0.2397  0.6340
   87TMC2     C 1357   3.868   3.705   0.721  0.3213  0.6788  0.9838
   87TMC2     O 1358   3.907   3.800   0.660  0.2084  0.0044 -0.2280
   87TMC2     H 1359   3.739   3.554   0.900 -1.3571  0.6876  0.6404
   87TMC2    H1 1360   3.987   3.887   0.862 -0.8630 -1.7369 -2.5992
   87TMC2    H2 1361   3.808   3.830   1.237 -0.5125  0.7030  0.2255
   87TMC2    C7 1362   4.000   3.954   1.097  0.1541 -0.8686  0.0556
   87TMC2    C8 1363   3.710   3.580   1.156  0.0178 -0.2029 -0.4223
   87TMC2    O1 1364   4.012   4.053   1.028  0.1431 -0.2592 -0.7192
   87TMC2    O2 1365   3.696   3.461   1.126  0.3293 -0.1266  0.6647
   87TMC2    O5 1366   3.640   3.651   1.248  0.4872  0.1836 -0.2705
   87TMC2    H5 1367   3.642   3.748   1.233  2.2917 -0.0911 -1.9348
   88MPD2     C 1368   4.171   3.961   1.429  0.5218 -0.0585  0.5377
   88MPD2    C1 1369   4.132   4.003   1.305 -0.0368  0.4278 -0.1421
   88MPD2    C2 1370   4.182   4.124   1.260 -0.2667  0.4688 -0.4245
   88MPD2    C3 1371   4.264   4.200   1.339 -0.6476  0.4761  0.6859
   88MPD2    C4 1372   4.302   4.160   1.467 -0.4917 -0.4260  0.4881
   88MPD2    C5 1373   4.252   4.035   1.512  0.1452 -0.2811  0.0829
   88MPD2     H 1374   4.151   4.153   1.161  1.0041  0.1822 -0.9108
   88MPD2    H1 1375   4.357   4.224   1.534  0.2170 -0.0394 -0.4636
   88MPD2    H2 1376   4.163   3.856   1.456  0.9126  0.4634  2.6505
   88MPD2    H3 1377   4.284   4.002   1.610  0.9659 -2.5692 -0.9568
   88MPD2     N 1378   4.304   4.331   1.305  0.1155 -0.0617  0.5401
   88MPD2    H5 1379   4.319   4.401   1.377  0.4165  0.1722  0.2451
   88MPD2    N1 1380   4.045   3.919   1.224  0.7839  0.6526  0.7006
   88MPD2    H7 1381   4.021   3.827   1.259  0.7464  1.5601  3.0423
   89TMC2    C1 1382   0.091   1.986   1.609  1.0542  0.1315 -0.0849
   89TMC2    C2 1383   0.171   2.078   1.668  0.0809  0.4628  0.1889
   89TMC2    C3 1384   0.169   2.206   1.615 -0.1784  0.1170 -0.4993
   89TMC2    C4 1385   0.016   2.009   1.499  0.5438  0.3562 -0.7656
   89TMC2    C5 1386   0.031   2.136   1.443 -0.1423 -0.0375  0.0344
   89TMC2    C6 1387   0.095   2.241   1.509 -0.0686  0.1092 -0.5692
   89TMC2     C 1388   0.054   1.873   1.680 -0.0421 -0.1470 -0.7005
   89TMC2     O 1389   0.136   1.813   1.753 -0.4671  0.1694  0.4605
   89TMC2     H 1390   0.228   2.053   1.757 -1.7127 -0.9481  0.9371
   89TMC2    H1 1391   4.722   1.929   1.433  2.8648 -1.2131  0.0409
   89TMC2    H2 1392   0.107   2.338   1.461 -1.1838  0.9803  0.9179
   89TMC2    C7 1393   4.712   2.158   1.313  0.2916 -0.0892  0.0960
   89TMC2    C8 1394   0.265   2.306   1.658  0.3311 -0.3794  1.1683
   89TMC2    O1 1395   4.613   2.087   1.282 -0.3666 -0.1960  0.4520
   89TMC2    O2 1396   0.246   2.425   1.640  0.3144 -0.4632  0.0040
   89TMC2    O5 1397   0.387   2.249   1.673  0.0852 -0.5717  0.7340
   89TMC2    H5 1398   0.366   2.153   1.661  0.3477 -0.4078 -1.0993
   90MPD2     C 1399   4.447   1.471   1.740 -0.6072 -0.1127  0.2448
   90MPD2    C1 1400   4.392   1.575   1.670  0.9511  0.0760 -0.3235
   90MPD2    C2 1401   4.469   1.690   1.645 -0.3612  1.1016  0.7486
   90MPD2    C3 1402   4.595   1.706   1.682  0.2030  0.6080 -0.0039
   90MPD2    C4 1403   4.657   1.603   1.748 -0.3452  0.4083  0.3459
   90MPD2    C5 1404   4.583   1.491   1.774 -0.1955 -0.7806 -0.1498
   90MPD2     H 1405   4.418   1.768   1.591 -0.3821  1.1727  0.8710
   90MPD2    H1 1406   0.021   1.614   1.784 -0.0091  1.7391 -1.0455
   90MPD2    H2 1407   4.397   1.377   1.759  2.5225 -1.8786 -0.2607
   90MPD2    H3 1408   4.630   1.418   1.838 -0.0860 -0.7680 -0.2164
   90MPD2     N 1409   4.661   1.832   1.644  0.0457  0.5311  0.1306
   90MPD2    H5 1410   4.598   1.900   1.603 -1.1112 -0.0599  0.9065
   90MPD2    N1 1411   4.262   1.569   1.613  0.4051 -0.0704  0.0688
   90MPD2    H7 1412   4.225   1.658   1.580  0.0281 -0.7024 -1.1764
   91TMC2    C1 1413   1.689   1.436  16.307 -0.3490 -0.4100  0.4149
   91TMC2    C2 1414   1.702   1.506  16.429  0.6828 -0.0070  0.8096
   91TMC2    C3 1415   1.639   1.454  16.539  0.1156  0.5934  0.4250
   91TMC2    C4 1416   1.617   1.320  16.307 -0.5643 -0.5204 -0.2526
   91TMC2    C5 1417   1.566   1.265  16.420 -0.1006  0.2281  0.8773
   91TMC2    C6 1418   1.579   1.333  16.538  0.2440  0.0229  0.1643
   91TMC2     C 1419   1.744   1.499  16.186  0.0783  0.0008 -0.2390
   91TMC2     O 1420   1.686   1.476  16.077 -0.1691  0.3942 -0.2158
   91TMC2     H 1421   1.744   1.606  16.424  0.7731 -0.0580  0.5475
   91TMC2    H1 1422   1.598   1.284  16.206  1.8970 -0.7041 -0.6567
   91TMC2    H2 1423   1.540   1.291  16.630 -0.2662  0.5468  0.1874
   91TMC2    C7 1424   1.460   1.168  16.415  0.0131  0.4274 -0.6169
   91TMC2    C8 1425   1.664   1.520  16.663 -0.5214  0.4547  0.0078
   91TMC2    O1 1426   1.436   1.109  16.519 -0.4858 -0.6486 -0.0411
   91TMC2    O2 1427   1.747   1.608  16.673 -0.4819 -0.2175  0.4938
   91TMC2    O5 1428   1.551   1.513  16.737  0.2150  0.0786 -0.4195
   91TMC2    H5 1429   1.480   1.461  16.693  0.5160 -0.8933  0.2319
   92MPD2     C 1430   1.921   1.660  16.023 -0.2908  0.2820  0.5856
   92MPD2    C1 1431   1.968   1.580  16.118 -0.2682 -0.1319  0.1948
   92MPD2    C2 1432   2.106   1.585  16.143 -0.8946  0.7403  0.1108
   92MPD2    C3 1433   2.198   1.643  16.062  0.6023  0.7007  0.0464
   92MPD2    C4 1434   2.154   1.720  15.951  0.5786 -0.0801  0.3250
   92MPD2    C5 1435   2.014   1.726  15.942 -0.0599 -0.0663 -0.0871
   92MPD2     H 1436   2.135   1.528  16.230 -0.9290  0.3777 -0.1158
   92MPD2    H1 1437   2.223   1.775  15.888 -0.2507  0.4528 -0.1169
   92MPD2    H2 1438   1.817   1.674  15.995 -0.5044 -4.3574 -1.0317
   92MPD2    H3 1439   1.977   1.793  15.865  3.0552  2.7338  0.8627
   92MPD2     N 1440   2.332   1.636  16.095  0.0700 -0.6055 -0.3999
   92MPD2    H5 1441   2.359   1.569  16.166  2.9750 -0.7615 -1.6616
   92MPD2    N1 1442   1.881   1.516  16.209  0.4515 -0.1084  0.3710
   92MPD2    H7 1443   1.913   1.474  16.295  0.3838 -0.8130  0.0559
   93TMC2    C1 1444   4.007   1.760  13.746 -0.1695 -0.3731 -0.1320
   93TMC2    C2 1445   3.934   1.871  13.705 -0.1613 -0.3956  0.0522
   93TMC2    C3 1446   4.003   1.974  13.648  0.6070  0.1215 -0.1982
   93TMC2    C4 1447   4.142   1.756  13.715 -0.6632  0.0379 -0.2444
   93TMC2    C5 1448   4.210   1.862  13.656  0.1231 -0.7197  0.5698
   93TMC2    C6 1449   4.138   1.973  13.618  0.0510  0.0364  0.5552
   93TMC2     C 1450   3.955   1.634  13.780  0.7715  0.1146 -0.3042
   93TMC2     O 1451   4.032   1.542  13.802  0.7185 -0.6735  0.1728
   93TMC2     H 1452   3.826   1.877  13.709 -0.2211 -1.4871  0.0639
   93TMC2    H1 1453   4.191   1.660  13.729  0.0797  0.7084  1.7508
   93TMC2    H2 1454   4.177   2.049  13.551 -0.9803 -0.6532 -0.8237
   93TMC2    C7 1455   4.358   1.864  13.675 -0.1683  0.9399 -0.2489
   93TMC2    C8 1456   3.920   2.078  13.591  0.1883 -0.0386  0.0226
   93TMC2    O1 1457   4.427   1.765  13.701  0.0603  0.2569  0.0919
   93TMC2    O2 1458   3.797   2.066  13.600 -0.2175 -0.5978 -0.0246
   93TMC2    O5 1459   3.990   2.191  13.596  0.3466  0.1436 -0.7253
   93TMC2    H5 1460   4.083   2.179  13.623 -0.4279 -1.1926  1.3108
   94MPD2     C 1461   3.793   1.381  13.770  0.2732 -0.8616 -0.3362
   94MPD2    C1 1462   3.740   1.507  13.786  0.6531 -0.6530  0.1270
   94MPD2    C2 1463   3.605   1.518  13.790 -0.0861 -0.1512  0.6621
   94MPD2    C3 1464   3.517   1.410  13.786  0.3149 -0.2166  0.0752
   94MPD2    C4 1465   3.569   1.284  13.772 -0.2408  0.0736  0.5389
   94MPD2    C5 1466   3.704   1.274  13.767 -0.0235 -0.0450 -0.0379
   94MPD2     H 1467   3.575   1.622  13.795  2.8407  0.8388 -1.9933
   94MPD2    H1 1468   3.508   1.194  13.772  0.8810 -0.6785 -2.6539
   94MPD2    H2 1469   3.900   1.368  13.753  0.7989  2.6096  0.4436
   94MPD2    H3 1470   3.748   1.177  13.748 -0.4483 -0.2979  0.2861
   94MPD2     N 1471   3.377   1.421  13.786 -0.3700 -0.2895 -0.6982
   94MPD2    H5 1472   3.326   1.338  13.758 -1.5934  0.2329 -0.0152
   94MPD2    N1 1473   3.819   1.627  13.776  0.0290  0.2910 -0.3402
   94MPD2    H7 1474   3.771   1.717  13.782 -0.5566 -0.0502  0.1181
   95TMC2    C1 1475   3.942   2.935  15.812  0.6745  0.6307  0.3034
   95TMC2    C2 1476   4.015   2.835  15.872 -0.1729  0.2368  0.5497
   95TMC2    C3 1477   3.952   2.762  15.968  0.5262  0.0174  0.3994
   95TMC2    C4 1478   3.809   2.959  15.841  0.0025 -0.4846 -0.2863
   95TMC2    C5 1479   3.754   2.879  15.940  0.1908 -0.2895 -0.2963
   95TMC2    C6 1480   3.826   2.784  16.001  0.3492 -0.0474  0.6474
   95TMC2     C 1481   4.013   3.017  15.718  0.4815 -0.4649  0.3946
   95TMC2     O 1482   4.116   2.981  15.666 -0.0733  0.3913  0.0853
   95TMC2     H 1483   4.119   2.819  15.844 -0.4994  2.7893 -2.1998
   95TMC2    H1 1484   3.758   3.046  15.799  0.7911 -0.2510 -0.7638
   95TMC2    H2 1485   3.780   2.723  16.078 -2.2089  0.7331 -0.2466
   95TMC2    C7 1486   3.608   2.892  15.966  0.3464  0.0246  0.3630
   95TMC2    C8 1487   4.016   2.657  16.047  0.0291 -0.3090 -0.4710
   95TMC2    O1 1488   3.569   2.831  16.064 -1.0352  0.0364  0.5887
   95TMC2    O2 1489   3.949   2.596  16.126 -0.7432 -0.2018 -0.0594
   95TMC2    O5 1490   4.093   2.591  15.956 -0.2606  0.5777  0.1628
   95TMC2    H5 1491   4.161   2.645  15.911 -1.6167  2.8898  0.8671
   96MPD2     C 1492   4.054   3.500  15.514  0.2291  0.0448 -0.1768
   96MPD2    C1 1493   4.123   3.389  15.484  0.0594 -0.2010  0.2226
   96MPD2    C2 1494   4.097   3.266  15.549 -0.6890 -0.2199 -0.1608
   96MPD2    C3 1495   4.002   3.265  15.655  0.6027 -0.4174  0.0263
   96MPD2    C4 1496   3.934   3.379  15.678 -0.9367 -0.1747 -0.3957
   96MPD2    C5 1497   3.957   3.493  15.602  0.7112 -0.6842 -0.2433
   96MPD2     H 1498   4.169   3.187  15.532 -0.4611  0.0275 -0.3483
   96MPD2    H1 1499   3.854   3.385  15.750 -2.5880 -2.2193 -2.0790
   96MPD2    H2 1500   4.072   3.597  15.470  0.1550 -0.1750 -0.6978
   96MPD2    H3 1501   3.912   3.586  15.637  0.6546  0.6208 -3.7567
   96MPD2     N 1502   3.971   3.147  15.730  0.2103 -0.2000 -0.5506
   96MPD2    H5 1503   3.908   3.167  15.808  0.4015  0.6421 -0.6096
   96MPD2    N1 1504   4.231   3.412  15.397 -0.0444 -0.0123 -0.1244
   96MPD2    H7 1505   4.255   3.509  15.379 -0.9099  0.2348  0.0514
   97TMC2    C1 1506   0.906   1.615   0.239 -0.8777  0.5048 -0.1661
   97TMC2    C2 1507   0.810   1.559   0.164  0.1016 -0.4474  0.3093
   97TMC2    C3 1508   0.787   1.611   0.043 -0.1439  1.0465  0.6524
   97TMC2    C4 1509   0.986   1.715   0.187  0.0106 -0.1318  0.1223
   97TMC2    C5 1510   0.945   1.774   0.066 -0.3367  0.0047  0.0481
   97TMC2    C6 1511   0.859   1.712  17.733 -0.3185  0.1784 -0.6325
   97TMC2     C 1512   0.917   1.572   0.375 -0.1332  0.2251  0.1035
   97TMC2     O 1513   0.848   1.477   0.413 -0.1552  0.7228 -0.0049
   97TMC2     H 1514   0.750   1.476   0.200  1.9434 -0.6742  2.8928
   97TMC2    H1 1515   1.047   1.771   0.258 -2.3780  1.0099  1.2781
   97TMC2    H2 1516   0.837   1.757  17.637 -1.8159  3.2639  1.1283
   97TMC2    C7 1517   1.039   1.869   0.014  0.0339 -0.3844  0.0155
   97TMC2    C8 1518   0.707   1.532  17.693 -0.7582 -1.0015 -0.1330
   97TMC2    O1 1519   1.156   1.862   0.047 -0.2188  0.3169 -0.4016
   97TMC2    O2 1520   0.645   1.581  17.600  0.2482  0.1840  0.4541
   97TMC2    O5 1521   0.770   1.413  17.688  0.0904 -0.6218 -0.7182
   97TMC2    H5 1522   0.829   1.403   0.019  0.6957  2.1984 -0.8275
   98MPD2     C 1523   1.026   1.641   0.869 -0.1513 -0.2514  0.1556
   98MPD2    C1 1524   0.988   1.526   0.803 -0.4627 -0.2297  0.4519
   98MPD2    C2 1525   0.981   1.525   0.662 -0.7536  0.2854 -0.6576
   98MPD2    C3 1526   1.008   1.649   0.596 -0.2790  0.1089  0.4302
   98MPD2    C4 1527   1.047   1.766   0.667  0.1450 -0.2568 -0.3662
   98MPD2    C5 1528   1.050   1.762   0.803  0.5677  0.5940  0.5184
   98MPD2     H 1529   0.956   1.439   0.600  0.1000 -0.2904 -0.2062
   98MPD2    H1 1530   1.062   1.855   0.607 -1.5707  0.9862  1.0533
   98MPD2    H2 1531   1.018   1.659   0.975  1.2065 -1.6131  0.4929
   98MPD2    H3 1532   1.060   1.849   0.866  3.5584 -0.1051  0.9983
   98MPD2     N 1533   0.985   1.668   0.457  0.6367  0.1210  0.5522
   98MPD2    H5 1534   1.008   1.761   0.424 -0.6857 -0.2017 -1.3198
   98MPD2    N1 1535   0.932   1.429   0.885 -0.1227  0.1495 -0.0530
   98MPD2    H7 1536   0.931   1.453   0.984 -0.1880 -0.3710  0.0690
   99TMC2    C1 1537   0.305   2.938   1.239  0.5080  0.2195  0.1965
   99TMC2    C2 1538   0.420   2.969   1.312  0.5640 -0.3837 -0.2068
   99TMC2    C3 1539   0.424   2.941   1.447 -0.2233 -1.1776 -0.4969
   99TMC2    C4 1540   0.190   2.901   1.308 -0.4553  0.1180  0.2008
   99TMC2    C5 1541   0.204   2.869   1.443  0.1808 -0.2002  0.5650
   99TMC2    C6 1542   0.318   2.883   1.516 -0.1572  0.7905 -0.2171
   99TMC2     C 1543   0.312   2.959   1.094 -0.3657 -0.5719 -0.1873
   99TMC2     O 1544   0.414   3.011   1.050  0.3172 -0.2735 -0.7497
   99TMC2     H 1545   0.501   3.012   1.254 -0.8501  2.5663  0.0078
   99TMC2    H1 1546   0.095   2.886   1.259 -0.3618 -0.5613  0.2342
   99TMC2    H2 1547   0.324   2.853   1.620 -0.0407 -1.0823 -0.7666
   99TMC2    C7 1548   0.097   2.795   1.509 -0.4317 -0.1117  0.0286
   99TMC2    C8 1549   0.555   2.934   1.513  0.3316 -0.1991  0.5378
   99TMC2    O1 1550   0.119   2.771   1.625 -0.8526  0.4003 -0.6528
   99TMC2    O2 1551   0.660   2.930   1.451 -0.7374  0.2058 -0.1935
   99TMC2    O5 1552   0.535   2.959   1.647  0.2139 -0.3175 -0.0643
   99TMC2    H5 1553   0.448   2.991   1.678 -0.1996 -2.5139  1.0057
  100MPD2     C 1554   0.263   3.002   0.797  0.1030 -0.2932 -0.1608
  100MPD2    C1 1555   0.179   2.934   0.888  0.6742  0.0571 -0.4652
  100MPD2    C2 1556   0.068   2.872   0.839  0.2340 -0.1115  0.2547
  100MPD2    C3 1557   0.031   2.884   0.706  0.1906  0.1228 -0.7475
  100MPD2    C4 1558   0.113   2.951   0.610 -0.0008  0.1980  0.4089
  100MPD2    C5 1559   0.229   3.006   0.660 -0.4577 -0.1617  0.3046
  100MPD2     H 1560   0.003   2.817   0.906 -0.0322  0.0200  0.1054
  100MPD2    H1 1561   0.087   2.962   0.506  2.2866  0.4193 -0.1277
  100MPD2    H2 1562   0.363   3.036   0.823  0.1437 -0.8749  0.4367
  100MPD2    H3 1563   0.299   3.053   0.592  0.8146 -1.0623  0.9975
  100MPD2     N 1564   4.648   2.813   0.667  0.0662  0.4160  0.1395
  100MPD2    H5 1565   4.612   2.747   0.735  0.5041 -1.2092 -1.2133
  100MPD2    N1 1566   0.203   2.920   1.024 -0.0697 -0.7236  0.8910
  100MPD2    H7 1567   0.125   2.872   1.067 -1.1386 -0.6203 -0.9231
  101TMC2    C1 1568   0.521   4.411  13.270  0.4888 -0.4404  0.4731
  101TMC2    C2 1569   0.426   4.471  13.349 -0.1378 -0.1024 -1.2823
  101TMC2    C3 1570   0.379   4.588  13.308 -0.2314  0.3372  0.3956
  101TMC2    C4 1571   0.570   4.469  13.157  0.3056 -0.9768 -0.2013
  101TMC2    C5 1572   0.519   4.595  13.126  1.2678 -0.5766 -0.1372
  101TMC2    C6 1573   0.422   4.665  13.203  1.0411  0.0628 -0.3275
  101TMC2     C 1574   0.518   4.271  13.276  0.1861  0.0265  0.9784
  101TMC2     O 1575   0.436   4.223  13.346 -0.8259  0.3112 -0.5149
  101TMC2     H 1576   0.379   4.417  13.430 -0.2307 -1.0079 -1.9407
  101TMC2    H1 1577   0.649   4.430  13.094 -0.0800 -0.3652 -1.0810
  101TMC2    H2 1578   0.385   0.025  13.173 -2.1053 -1.6129 -1.8128
  101TMC2    C7 1579   0.570   4.656  13.006 -0.5652  0.1972  0.4761
  101TMC2    C8 1580   0.265   4.636  13.383  0.3840  0.3668 -1.1601
  101TMC2    O1 1581   0.682   4.621  12.964  0.3180 -0.2101  0.2657
  101TMC2    O2 1582   0.169   4.700  13.332  0.3034  0.3875  0.2614
  101TMC2    O5 1583   0.295   4.626  13.509  0.3955 -0.1002  0.0641
  101TMC2    H5 1584   0.382   4.586  13.527 -0.1688 -1.6562 -0.6594
  102MPD2     C 1585   0.711   4.013  13.079 -1.0750 -0.4575 -0.0045
  102MPD2    C1 1586   0.615   4.069  13.167  0.1791 -0.0424  0.1580
  102MPD2    C2 1587   0.515   3.980  13.213  0.0134 -0.3829 -0.7877
  102MPD2    C3 1588   0.517   3.850  13.179  0.0969 -0.1571 -0.5048
  102MPD2    C4 1589   0.607   3.804  13.093  0.7644 -0.3118  0.6649
  102MPD2    C5 1590   0.698   3.884  13.038  0.9942  0.2740  0.1156
  102MPD2     H 1591   0.437   4.016  13.280 -0.0715  1.0298 -1.6567
  102MPD2    H1 1592   0.606   3.701  13.061 -2.0261  0.1009 -0.5326
  102MPD2    H2 1593   0.791   4.072  13.037 -0.5245 -1.1113  0.1276
  102MPD2    H3 1594   0.774   3.851  12.968  1.2301  0.0119  0.5015
  102MPD2     N 1595   0.414   3.764  13.240 -0.1531 -0.0237 -0.2695
  102MPD2    H5 1596   0.346   3.813  13.296 -0.4789  1.0136 -1.5775
  102MPD2    N1 1597   0.615   4.206  13.202  0.5623 -1.0011 -0.1258
  102MPD2    H7 1598   0.692   4.266  13.173  0.3899 -1.0560 -0.6899
  103TMC2    C1 1599   3.234   4.295  13.267 -0.3442 -0.1349 -0.0484
  103TMC2    C2 1600   3.284   4.418  13.297 -0.0284 -0.2073  0.5302
  103TMC2    C3 1601   3.287   4.457  13.429 -1.0283 -0.0033 -1.0564
  103TMC2    C4 1602   3.172   4.213  13.359 -0.0051  0.7190 -0.2359
  103TMC2    C5 1603   3.182   4.260  13.490  0.1324  0.2365  0.2300
  103TMC2    C6 1604   3.236   4.387  13.531 -0.3352  0.8447 -0.5996
  103TMC2     C 1605   3.214   4.252  13.135  0.9552 -0.3196 -0.2867
  103TMC2     O 1606   3.118   4.175  13.114  0.4645 -0.6085 -0.3396
  103TMC2     H 1607   3.317   4.483  13.217  2.5092 -4.0474 -1.5889
  103TMC2    H1 1608   3.124   4.118  13.339 -0.3153  0.6132  1.0055
  103TMC2    H2 1609   3.248   4.431  13.629  1.1629  2.4032 -1.4609
  103TMC2    C7 1610   3.173   4.159  13.599  1.3135  0.1755 -0.0125
  103TMC2    C8 1611   3.357   4.581  13.463 -0.7761 -0.2806 -0.3887
  103TMC2    O1 1612   3.235   4.174  13.699 -0.3681 -0.0429  0.4708
  103TMC2    O2 1613   3.350   4.630  13.577  0.1284 -0.2605  0.6037
  103TMC2    O5 1614   3.469   4.584  13.389  0.1603  0.2370  0.3061
  103TMC2    H5 1615   3.472   4.516  13.318 -1.2645 -0.1496  0.6280
  104MPD2     C 1616   3.468   4.211  12.882 -0.4415 -0.4343  0.1379
  104MPD2    C1 1617   3.344   4.237  12.929  0.2150 -0.0107  0.2266
  104MPD2    C2 1618   3.240   4.222  12.847  0.0272  0.5195  0.3092
  104MPD2    C3 1619   3.246   4.182  12.714 -0.2614 -0.3184  0.2476
  104MPD2    C4 1620   3.372   4.155  12.669 -0.3598 -0.1136  0.5472
  104MPD2    C5 1621   3.479   4.170  12.751 -0.0256  0.7790 -0.3823
  104MPD2     H 1622   3.138   4.244  12.878  0.9921  1.2851  2.9146
  104MPD2    H1 1623   3.392   4.130  12.566  0.6919 -0.7270  0.8989
  104MPD2    H2 1624   3.558   4.203  12.942  0.4914 -0.4060 -1.2579
  104MPD2    H3 1625   3.576   4.148  12.707  0.1113 -2.9469  1.7424
  104MPD2     N 1626   3.130   4.175  12.637  0.0321 -0.0963  0.7079
  104MPD2    H5 1627   3.037   4.178  12.678  0.5319  0.7654  1.7937
  104MPD2    N1 1628   3.326   4.280  13.063 -0.5224  0.4914 -0.4697
  104MPD2    H7 1629   3.414   4.311  13.103 -0.4956  2.2805 -1.8677
  105TMC2    C1 1630   4.271   3.744  17.670  0.0930 -1.4551 -0.9004
  105TMC2    C2 1631   4.237   3.755  17.535  0.5297  0.1167  0.2058
  105TMC2    C3 1632   4.121   3.697  17.499 -0.1401 -0.2256 -0.0858
  105TMC2    C4 1633   4.190   3.688   0.018  0.3829 -0.3814  1.0687
  105TMC2    C5 1634   4.068   3.636  17.727  0.0085 -0.8248 -0.2857
  105TMC2    C6 1635   4.043   3.627  17.591  0.5734  0.3291 -0.0860
  105TMC2     C 1636   4.410   3.714  17.704 -0.5779  0.7957 -0.5333
  105TMC2     O 1637   4.413   3.614   0.029 -0.3663 -0.1906  0.7682
  105TMC2     H 1638   4.305   3.803  17.465 -0.2614 -0.1856 -0.7668
  105TMC2    H1 1639   4.225   3.684   0.120  1.6600 -0.2054  0.6341
  105TMC2    H2 1640   3.955   3.574  17.557  0.1151  1.7878 -1.1816
  105TMC2    C7 1641   3.993   3.548   0.076  0.0689 -0.4645 -0.2925
  105TMC2    C8 1642   4.072   3.714  17.363 -0.5015  0.0595  0.0337
  105TMC2    O1 1643   3.920   3.460   0.031  0.2730 -0.2250 -0.2107
  105TMC2    O2 1644   3.976   3.650  17.322 -0.5078  0.4622 -0.0069
  105TMC2    O5 1645   4.086   3.843  17.345  0.0559  0.1711  0.1810
  105TMC2    H5 1646   4.156   3.890  17.395 -0.0732 -1.0769  1.5081
  106MPD2     C 1647   0.133   3.540  17.578  0.2621  0.3433 -0.4673
  106MPD2    C1 1648   0.100   3.638  17.489 -0.2336 -0.1203  0.5376
  106MPD2    C2 1649   4.724   3.711  17.510  0.5277 -0.4052  0.4763
  106MPD2    C3 1650   4.639   3.689  17.617  0.0614 -0.2672 -0.3381
  106MPD2    C4 1651   4.683   3.598  17.711 -0.3899 -0.2659  0.6181
  106MPD2    C5 1652   0.057   3.525  17.688 -0.0269 -0.1820  0.2161
  106MPD2     H 1653   4.700   3.778  17.428  0.0697  0.0505  0.9884
  106MPD2    H1 1654   4.629   3.583   0.057  0.7675 -1.3905  1.1069
  106MPD2    H2 1655   0.207   3.465  17.557  1.5665  1.8080 -1.1397
  106MPD2    H3 1656   0.073   3.434  17.745 -0.4179  0.2284  0.9803
  106MPD2     N 1657   4.511   3.752  17.619  0.7236 -0.5546 -0.2038
  106MPD2    H5 1658   4.499   3.835  17.562  2.2855  0.1670  0.5059
  106MPD2    N1 1659   0.157   3.659  17.363 -0.3726  0.5920  0.2405
  106MPD2    H7 1660   0.126   3.743  17.315 -1.3089  0.5243  0.7243
  107TMC2    C1 1661   0.923   2.914  11.757 -0.2040 -0.0761  0.2956
  107TMC2    C2 1662   1.017   2.969  11.678 -0.2808  0.3533 -0.1176
  107TMC2    C3 1663   1.074   2.890  11.582  0.6153 -0.6379  0.1152
  107TMC2    C4 1664   0.885   2.783  11.737  0.2992  1.0327  0.1409
  107TMC2    C5 1665   0.939   2.709  11.636 -0.4127  0.0061  0.3048
  107TMC2    C6 1666   1.035   2.761  11.556 -0.0955 -0.0979  0.1477
  107TMC2     C 1667   0.882   2.973  11.878 -0.0637  0.7775 -0.9204
  107TMC2     O 1668   0.768   2.947  11.915  0.1891  0.5999  0.0290
  107TMC2     H 1669   1.037   3.075  11.668 -0.2963  0.2780 -0.9687
  107TMC2    H1 1670   0.814   2.731  11.801  1.0197 -0.9780 -0.6730
  107TMC2    H2 1671   1.093   2.706  11.483 -2.6012 -0.2193 -1.7606
  107TMC2    C7 1672   0.908   2.572  11.624  0.2390  0.8189  0.6631
  107TMC2    C8 1673   1.178   2.935  11.499 -0.0661  0.0363  0.2292
  107TMC2    O1 1674   0.847   2.515  11.716 -0.0044 -0.2623  0.3723
  107TMC2    O2 1675   1.186   2.919  11.380  0.2492 -0.5794  0.0404
  107TMC2    O5 1676   1.277   2.955  11.590 -0.4786 -0.3236 -0.3176
  107TMC2    H5 1677   1.252   2.935  11.682 -0.2413 -0.4438 -0.2801
  108MPD2     C 1678   1.093   3.079  12.147 -0.1489  0.4353 -0.3617
  108MPD2    C1 1679   0.977   3.064  12.081  0.1179 -0.1277  0.4634
  108MPD2    C2 1680   0.849   3.093  12.147 -0.7864 -0.3129 -0.0957
  108MPD2    C3 1681   0.851   3.134  12.276 -0.5695 -0.0197 -0.0234
  108MPD2    C4 1682   0.967   3.147  12.346  0.3267 -1.0871  0.0005
  108MPD2    C5 1683   1.082   3.118  12.283 -0.3128  0.1907 -0.0964
  108MPD2     H 1684   0.753   3.080  12.099  0.6753  2.0374 -3.6826
  108MPD2    H1 1685   0.976   3.180  12.449  2.8469 -1.9337  0.0736
  108MPD2    H2 1686   1.190   3.064  12.103  1.2499  2.5654  1.9827
  108MPD2    H3 1687   1.175   3.123  12.339  0.2349  1.6746 -1.1364
  108MPD2     N 1688   0.737   3.146  12.361 -0.2462  0.4740 -0.5050
  108MPD2    H5 1689   0.749   3.171  12.458 -0.1824  0.3860 -0.4902
  108MPD2    N1 1690   0.985   3.023  11.949  0.5437 -0.1958  0.0146
  108MPD2    H7 1691   1.068   3.028  11.892 -0.0457  1.3795 -0.7321
  109TMC2    C1 1692   0.101   0.510   0.361 -0.1552  0.1311  0.0152
  109TMC2    C2 1693   0.153   0.476   0.240 -0.1912 -0.7100 -0.0320
  109TMC2    C3 1694   0.290   0.495   0.236  0.3397  0.2354 -0.0686
  109TMC2    C4 1695   0.173   0.558   0.467 -0.1747  0.2169 -0.4747
  109TMC2    C5 1696   0.307   0.557   0.459  0.0513 -0.0496  0.2866
  109TMC2    C6 1697   0.367   0.531   0.342  0.2225 -0.3368 -0.5395
  109TMC2     C 1698   4.693   0.486   0.366  0.0038  0.2376 -0.2373
  109TMC2     O 1699   4.625   0.508   0.266  0.2942 -0.2390  0.5403
  109TMC2     H 1700   0.097   0.422   0.164  0.4562  0.3847 -1.2812
  109TMC2    H1 1701   0.133   0.559   0.568 -0.7017 -1.1612 -0.6660
  109TMC2    H2 1702   0.473   0.551   0.328  0.2474 -1.7064 -2.4282
  109TMC2    C7 1703   0.385   0.614   0.566 -0.2654 -0.3387  0.4696
  109TMC2    C8 1704   0.362   0.456   0.113  0.1580 -0.2478 -0.3567
  109TMC2    O1 1705   0.504   0.642   0.546 -0.7795 -0.2181 -0.1174
  109TMC2    O2 1706   0.460   0.385   0.108 -0.3564 -0.0831 -0.1371
  109TMC2    O5 1707   0.285   0.500   0.012  0.0616 -0.2100 -0.2479
  109TMC2    H5 1708   0.236   0.579   0.044  0.3322 -0.4952  0.8893
  110MPD2     C 1709   4.378   0.621   0.729  0.3010  0.3180 -0.6549
  110MPD2    C1 1710   4.486   0.563   0.792 -0.0922  1.4078 -0.1705
  110MPD2    C2 1711   4.576   0.496   0.709  1.2166 -0.1575 -0.5472
  110MPD2    C3 1712   4.559   0.507   0.570 -0.0453 -0.2660 -0.9538
  110MPD2    C4 1713   4.453   0.567   0.509  0.3955 -0.0541  0.6818
  110MPD2    C5 1714   4.362   0.624   0.591  0.3238  0.0175  0.1909
  110MPD2     H 1715   4.672   0.465   0.748  0.8199  1.5947  1.8259
  110MPD2    H1 1716   4.438   0.572   0.402  0.7746  0.1841  0.6381
  110MPD2    H2 1717   4.303   0.665   0.795 -0.9886  0.5051 -2.2453
  110MPD2    H3 1718   4.269   0.660   0.548 -0.2070  0.7031  1.9107
  110MPD2     N 1719   4.662   0.448   0.495 -0.8375  0.5689 -0.6521
  110MPD2    H5 1720   4.724   0.401   0.560  0.4489  0.6891 -1.7835
  110MPD2    N1 1721   4.490   0.576   0.934 -0.3590 -0.0492 -0.0257
  110MPD2    H7 1722   4.422   0.633   0.983  0.9232  1.1143  0.3918
  111TMC2    C1 1723   0.379   0.150  11.700  0.0228  0.5384 -0.0673
  111TMC2    C2 1724   0.278   0.080  11.760  0.0593  0.5936  0.0370
  111TMC2    C3 1725   0.304   4.687  11.799  0.1619 -0.5533 -0.2868
  111TMC2    C4 1726   0.497   0.089  11.675 -0.4530 -0.9913  0.1027
  111TMC2    C5 1727   0.515   4.692  11.707 -0.0840  0.5538 -0.4335
  111TMC2    C6 1728   0.417   4.619  11.762  0.1276 -0.1051 -1.0313
  111TMC2     C 1729   0.367   0.284  11.644 -0.1636 -0.0879  0.0953
  111TMC2     O 1730   0.449   0.311  11.557 -0.7769  0.0878 -0.5066
  111TMC2     H 1731   0.178   0.118  11.770 -0.3001  0.2456 -2.2287
  111TMC2    H1 1732   0.579   0.149  11.635 -0.1191 -0.1066  2.1488
  111TMC2    H2 1733   0.442   4.525  11.811 -1.3363  0.3547  0.5966
  111TMC2    C7 1734   0.647   4.663  11.763  0.1638  0.2502 -0.5885
  111TMC2    C8 1735   0.199   4.617  11.877 -0.0138 -0.2283  0.1845
  111TMC2    O1 1736   0.650   4.597  11.866  0.2369  0.1470  0.0910
  111TMC2    O2 1737   0.115   4.676  11.939 -0.6024  0.7255  0.4500
  111TMC2    O5 1738   0.188   4.492  11.825 -0.1076  0.4862  0.5065
  111TMC2    H5 1739   0.238   4.482  11.742  0.6258  0.7993  0.9047
  112MPD2     C 1740   0.256   0.787  11.710 -0.4598 -0.0956 -0.2681
  112MPD2    C1 1741   0.329   0.717  11.615 -0.0884 -0.1135  0.0737
  112MPD2    C2 1742   0.342   0.582  11.615 -0.2066  0.1850  0.0403
  112MPD2    C3 1743   0.286   0.507  11.721 -0.0946 -0.3254  0.3535
  112MPD2    C4 1744   0.229   0.571  11.825  0.0313  0.7742 -0.6382
  112MPD2    C5 1745   0.212   0.712  11.816 -0.1593  0.4037  0.0853
  112MPD2     H 1746   0.401   0.533  11.539  0.4403 -0.4510  0.9417
  112MPD2    H1 1747   0.210   0.518  11.917  1.2214 -0.1633 -0.9339
  112MPD2    H2 1748   0.242   0.894  11.712  4.1213  0.4550  2.1011
  112MPD2    H3 1749   0.170   0.766  11.900 -1.1733 -0.8730  0.3960
  112MPD2     N 1750   0.292   0.371  11.722 -0.2370 -0.2920  0.2909
  112MPD2    H5 1751   0.261   0.322  11.805 -2.3185  0.0054 -0.3319
  112MPD2    N1 1752   0.385   0.787  11.505  0.0021  0.4887  0.4714
  112MPD2    H7 1753   0.455   0.743  11.446  0.4738  1.1579  0.5240
  113TMC2    C1 1754   3.217   1.987   0.703 -0.0637 -0.3434 -0.7043
  113TMC2    C2 1755   3.291   1.910   0.790 -0.3736  0.1436  0.2714
  113TMC2    C3 1756   3.228   1.870   0.906 -0.0320  0.5710 -0.9261
  113TMC2    C4 1757   3.089   2.011   0.732  0.0066  0.7113  0.4265
  113TMC2    C5 1758   3.028   1.956   0.842  0.1426  0.0054  1.2238
  113TMC2    C6 1759   3.097   1.894   0.936  0.4453 -0.1233  0.2905
  113TMC2     C 1760   3.291   2.105   0.637 -0.2243  0.1620  0.5934
  113TMC2     O 1761   3.243   2.214   0.666  0.0792 -0.2307 -0.2714
  113TMC2     H 1762   3.398   1.898   0.775 -0.2913  0.1007  0.8975
  113TMC2    H1 1763   3.035   2.077   0.664 -2.2941 -3.4346 -1.7985
  113TMC2    H2 1764   3.045   1.862   1.025 -1.5441  1.1517 -0.4145
  113TMC2    C7 1765   2.906   1.889   0.827 -0.5179  0.1538 -0.2783
  113TMC2    C8 1766   3.308   1.789   0.994  0.1150 -0.5512 -0.3780
  113TMC2    O1 1767   2.839   1.866   0.926 -0.0625 -0.1083 -0.0044
  113TMC2    O2 1768   3.407   1.733   0.947  0.1500 -0.1314  0.4014
  113TMC2    O5 1769   3.282   1.818   1.123 -0.0899 -0.0006  0.5008
  113TMC2    H5 1770   3.234   1.903   1.120  0.1763  0.0724 -1.4484
  114MPD2     C 1771   3.756   2.276   0.511 -1.1983  0.3524 -0.0712
  114MPD2    C1 1772   3.649   2.344   0.565 -0.4182  0.1727 -0.3123
  114MPD2    C2 1773   3.529   2.278   0.591  0.2901 -0.4843 -0.4158
  114MPD2    C3 1774   3.518   2.145   0.554  0.3886 -0.4126  0.3879
  114MPD2    C4 1775   3.619   2.083   0.485  0.2318  0.3427  1.3608
  114MPD2    C5 1776   3.736   2.154   0.461  0.2166 -0.5673 -0.0410
  114MPD2     H 1777   3.445   2.328   0.638 -0.2364 -1.6909 -0.0550
  114MPD2    H1 1778   3.619   1.986   0.437 -1.6986  0.0674  1.9036
  114MPD2    H2 1779   3.853   2.318   0.484 -0.2392 -1.4854  0.5083
  114MPD2    H3 1780   3.820   2.109   0.409  1.5596  0.5327  1.1969
  114MPD2     N 1781   3.416   2.063   0.593 -1.0788 -0.0241  0.2566
  114MPD2    H5 1782   3.428   1.964   0.573  0.9167  0.5015 -1.1036
  114MPD2    N1 1783   3.660   2.481   0.594 -0.1729  0.0211 -0.3792
  114MPD2    H7 1784   3.576   2.531   0.622 -0.9521 -0.2374 -2.2729
  115TMC2    C1 1785   3.863   0.103  17.356 -0.0789  0.1152 -0.3389
  115TMC2    C2 1786   3.977   0.035  17.399  0.0891  0.3609  0.4668
  115TMC2    C3 1787   4.075   0.109  17.460 -0.5288 -0.0399 -0.8130
  115TMC2    C4 1788   3.845   0.240  17.365 -0.3105 -0.3953  0.0223
  115TMC2    C5 1789   3.940   0.308  17.425 -0.0319  0.4083  0.4103
  115TMC2    C6 1790   4.051   0.245  17.481  0.0782 -0.7498  0.0085
  115TMC2     C 1791   3.776   0.023  17.273  0.0199  0.8297 -0.4313
  115TMC2     O 1792   3.830   4.677  17.207 -0.1901 -0.6510  0.5916
  115TMC2     H 1793   3.983   4.665  17.386 -2.1048  0.3270 -0.3687
  115TMC2    H1 1794   3.764   0.299  17.324 -1.1179 -0.7578  1.1179
  115TMC2    H2 1795   4.116   0.299  17.549 -1.6045 -0.3892  1.3171
  115TMC2    C7 1796   3.909   0.447  17.455 -0.1143 -0.5228 -0.0791
  115TMC2    C8 1797   4.153   0.039  17.565 -0.3765 -0.6784  0.1869
  115TMC2    O1 1798   3.794   0.467  17.485  0.3331  0.4707  0.0070
  115TMC2    O2 1799   4.108   0.036  17.674  0.0710  0.0229 -0.2181
  115TMC2    O5 1800   4.183   4.662  17.500  0.0495 -0.6058 -0.0117
  115TMC2    H5 1801   4.243   4.674  17.423 -1.4239  1.3287 -0.8433
  116MPD2     C 1802   3.310   4.612  17.122  0.0970  0.2738 -0.0431
  116MPD2    C1 1803   3.432   4.551  17.090 -0.9271  0.3465 -0.3171
  116MPD2    C2 1804   3.550   4.618  17.137 -0.6268  0.4429 -0.1823
  116MPD2    C3 1805   3.534   0.003  17.190  0.0011  0.3553 -0.2856
  116MPD2    C4 1806   3.413   0.070  17.204 -0.1397  0.3581  0.1959
  116MPD2    C5 1807   3.297   0.006  17.169 -0.0225  0.4820 -0.3677
  116MPD2     H 1808   3.643   4.564  17.140 -0.8209  0.0773 -0.7212
  116MPD2    H1 1809   3.411   0.165  17.257 -0.7348  0.5856 -0.2333
  116MPD2    H2 1810   3.223   4.555  17.092 -0.1874  1.0736 -0.7191
  116MPD2    H3 1811   3.199   0.051  17.184  0.0861  1.5824 -2.8674
  116MPD2     N 1812   3.643   0.065  17.264 -0.1805 -0.0259 -0.4608
  116MPD2    H5 1813   3.603   0.134  17.327 -1.0329 -1.2444  0.3289
  116MPD2    N1 1814   3.423   4.423  17.019  0.1371 -0.2858 -0.1090
  116MPD2    H7 1815   3.326   4.394  17.009 -0.2335  0.7375  0.4265
  117TMC2    C1 1816   3.322   2.099  14.330 -0.6255 -0.4678  0.7050
  117TMC2    C2 1817   3.367   2.084  14.460  0.0326 -0.0225  0.4993
  117TMC2    C3 1818   3.380   2.196  14.537 -0.9424  0.2885  0.0986
  117TMC2    C4 1819   3.301   2.226  14.276 -0.6784  0.0964  0.0630
  117TMC2    C5 1820   3.305   2.331  14.365  0.0998 -0.1665 -0.4548
  117TMC2    C6 1821   3.339   2.315  14.497  0.4528  0.2567  0.0967
  117TMC2     C 1822   3.277   1.974  14.258  0.0334 -0.4329 -0.2049
  117TMC2     O 1823   3.343   1.872  14.286 -0.3514 -0.3804  0.2193
  117TMC2     H 1824   3.361   1.988  14.510 -2.2545  0.5754  1.3748
  117TMC2    H1 1825   3.273   2.228  14.171 -0.9618  0.2036  0.1395
  117TMC2    H2 1826   3.340   2.401  14.564 -0.7341  2.1754 -2.3516
  117TMC2    C7 1827   3.321   2.462  14.305  0.0442 -0.1782 -0.5617
  117TMC2    C8 1828   3.423   2.177  14.667  0.9489 -0.6270 -0.2670
  117TMC2    O1 1829   3.403   2.539  14.357 -0.1433  1.0463 -0.0980
  117TMC2    O2 1830   3.380   2.238  14.764 -0.0408  0.0648 -0.2785
  117TMC2    O5 1831   3.549   2.134  14.657  0.0693 -0.2144 -0.0632
  117TMC2    H5 1832   3.577   2.130  14.563 -2.2990 -0.0248 -0.7914
  118MPD2     C 1833   3.105   2.621  14.067 -0.2251 -0.5577  0.6477
  118MPD2    C1 1834   3.233   2.601  14.122 -1.0043  0.4588  0.1796
  118MPD2    C2 1835   3.336   2.689  14.105 -0.6462 -0.1127 -0.3268
  118MPD2    C3 1836   3.318   2.806  14.033  0.6866  0.9876  0.1047
  118MPD2    C4 1837   3.190   2.827  13.978  0.1866 -0.0468  0.0833
  118MPD2    C5 1838   3.089   2.736  13.997  0.0567  0.1518 -0.9072
  118MPD2     H 1839   3.435   2.658  14.136 -0.0905  1.4749 -0.4757
  118MPD2    H1 1840   3.184   2.902  13.901  2.5945  0.0076 -0.0718
  118MPD2    H2 1841   3.029   2.543  14.067 -1.2882  0.4758 -0.6046
  118MPD2    H3 1842   2.998   2.747  13.938  0.8291  0.1230 -2.1093
  118MPD2     N 1843   3.405   2.909  14.018 -1.0488  1.2009  0.5882
  118MPD2    H5 1844   3.380   2.988  13.959 -1.1904  1.2762  0.7476
  118MPD2    N1 1845   3.243   2.475  14.193  0.3424  0.4089 -0.6774
  118MPD2    H7 1846   3.177   2.403  14.167 -1.3402  0.9093  2.1879
  119TMC2    C1 1847   1.351   3.489  13.060 -0.6046 -0.6111 -0.1275
  119TMC2    C2 1848   1.412   3.378  13.106 -0.2617 -0.5705 -0.0778
  119TMC2    C3 1849   1.333   3.269  13.144  0.0805 -1.3009 -0.4801
  119TMC2    C4 1850   1.213   3.494  13.065  0.6617  0.1685  0.0316
  119TMC2    C5 1851   1.144   3.394  13.118  0.3963 -0.6336  0.8328
  119TMC2    C6 1852   1.199   3.275  13.152  0.3352 -0.6334 -0.3760
  119TMC2     C 1853   1.416   3.609  13.103  0.0101  0.2651 -0.4739
  119TMC2     O 1854   1.335   3.691  13.158  0.0715  0.0043 -0.2960
  119TMC2     H 1855   1.519   3.359  13.105 -0.6020 -2.4411 -0.2053
  119TMC2    H1 1856   1.166   3.584  13.029  1.7426  0.5168 -0.5064
  119TMC2    H2 1857   1.130   3.192  13.161 -1.7568  0.9277 -1.6993
  119TMC2    C7 1858   1.006   3.425  13.166  0.1140  0.9145  0.9729
  119TMC2    C8 1859   1.397   3.143  13.157 -0.2961 -0.7846  0.2481
  119TMC2    O1 1860   0.944   3.512  13.111  0.5780 -0.2410  0.5125
  119TMC2    O2 1861   1.508   3.114  13.117 -0.0722  0.0144  0.1588
  119TMC2    O5 1862   1.312   3.049  13.205  0.0382  0.3628 -0.5118
  119TMC2    H5 1863   1.233   3.077  13.256 -0.3852 -1.2845 -0.2418
  120MPD2     C 1864   1.818   3.844  13.298  0.5627 -0.8201  0.2724
  120MPD2    C1 1865   1.681   3.880  13.310  0.3701 -0.3103  0.3779
  120MPD2    C2 1866   1.590   3.811  13.230 -0.7588  0.0740 -0.5269
  120MPD2    C3 1867   1.629   3.707  13.151 -0.2949  0.6644  0.4444
  120MPD2    C4 1868   1.760   3.678  13.145  0.6664 -0.4492  0.4019
  120MPD2    C5 1869   1.856   3.742  13.217  0.1887 -0.0099 -0.0622
  120MPD2     H 1870   1.486   3.842  13.229 -1.4869 -2.4546 -2.2055
  120MPD2    H1 1871   1.789   3.588  13.090 -0.1706 -1.1819  1.1693
  120MPD2    H2 1872   1.896   3.903  13.343  0.2248 -0.7386  0.7440
  120MPD2    H3 1873   1.959   3.715  13.197  0.4798  0.0134  1.4184
  120MPD2     N 1874   1.547   3.619  13.085 -0.0804  0.0596 -0.1076
  120MPD2    H5 1875   1.595   3.560  13.018  1.3244 -0.5120  1.4139
  120MPD2    N1 1876   1.649   3.991  13.398 -0.0698 -0.1736  0.2905
  120MPD2    H7 1877   1.728   4.046  13.430  0.1189 -1.4584  1.9784
  121TMC2    C1 1878   2.987   0.408  14.276  0.0641 -0.3011 -0.0944
  121TMC2    C2 1879   2.936   0.315  14.366 -0.1538  0.0981  0.4760
  121TMC2    C3 1880   2.799   0.299  14.363 -0.2693  0.1885  0.7466
  121TMC2    C4 1881   2.913   0.491  14.199  0.0663  0.0724  0.4319
  121TMC2    C5 1882   2.775   0.473  14.209  0.1788 -0.0085  0.6537
  121TMC2    C6 1883   2.720   0.389  14.296 -0.0555 -0.0133  0.0939
  121TMC2     C 1884   3.129   0.438  14.288 -0.1446  0.0239  0.8200
  121TMC2     O 1885   3.178   0.395  14.393  0.6880 -0.0583 -0.2333
  121TMC2     H 1886   2.999   0.244  14.419  1.8632 -0.3427 -2.5436
  121TMC2    H1 1887   2.954   0.572  14.139  0.1620 -0.8436 -0.7359
  121TMC2    H2 1888   2.614   0.371  14.309 -0.1785  0.2111 -0.5848
  121TMC2    C7 1889   2.710   0.599  14.181 -0.1771 -0.0695 -0.4908
  121TMC2    C8 1890   2.759   0.157  14.370  0.2567 -0.3046 -0.0433
  121TMC2    O1 1891   2.768   0.703  14.188  0.0181  0.2756 -0.3232
  121TMC2    O2 1892   2.644   0.120  14.398 -0.1870  0.2907  0.4898
  121TMC2    O5 1893   2.824   0.109  14.266  0.4305  0.0964  0.6455
  121TMC2    H5 1894   2.920   0.127  14.278  0.1344  0.7764  2.0012
  122MPD2     C 1895   3.386   0.600  14.264 -0.5500  0.8603 -0.1530
  122MPD2    C1 1896   3.298   0.569  14.158 -0.0354 -0.4977 -0.5410
  122MPD2    C2 1897   3.319   0.615  14.030  0.2948 -0.2927  0.0542
  122MPD2    C3 1898   3.433   0.695  13.999 -0.4913 -0.3205 -0.2647
  122MPD2    C4 1899   3.525   0.715  14.097  0.1663  0.1463 -0.0367
  122MPD2    C5 1900   3.495   0.672  14.226  0.2738 -1.0567  0.1575
  122MPD2     H 1901   3.234   0.592  13.966 -1.7172  0.0802  2.5650
  122MPD2    H1 1902   3.622   0.756  14.072  1.5271 -1.6281  2.2713
  122MPD2    H2 1903   3.369   0.576  14.369 -1.5386 -4.1409 -1.4284
  122MPD2    H3 1904   3.579   0.678  14.296 -0.8204  1.6590  1.2432
  122MPD2     N 1905   3.453   0.757  13.877  0.4534 -0.1368  0.1950
  122MPD2    H5 1906   3.538   0.810  13.862 -0.3039  0.7422 -1.0080
  122MPD2    N1 1907   3.172   0.508  14.180 -0.0552 -0.5530 -0.5829
  122MPD2    H7 1908   3.112   0.501  14.097  0.2096 -1.2151 -0.7163
  123TMC2    C1 1909   1.053   3.865  10.703  0.1178  0.1291  0.5076
  123TMC2    C2 1910   1.036   3.981  10.764 -0.1465  0.9785  0.2634
  123TMC2    C3 1911   0.970   4.082  10.695  0.1269 -0.4387  0.2296
  123TMC2    C4 1912   1.044   3.864  10.565 -0.5714  0.5887 -0.1490
  123TMC2    C5 1913   0.996   3.967  10.495 -0.1451  0.2593  0.1652
  123TMC2    C6 1914   0.961   4.082  10.561 -0.2034  0.2216 -0.6279
  123TMC2     C 1915   0.989   3.752  10.765  0.0413 -0.6562  0.2301
  123TMC2     O 1916   1.001   3.741  10.888  0.0901 -0.4325  0.0138
  123TMC2     H 1917   1.041   3.999  10.871 -1.9462 -3.6521  1.1099
  123TMC2    H1 1918   1.064   3.769  10.518 -0.0781  0.5403  0.1614
  123TMC2    H2 1919   0.911   4.164  10.512  1.1127  1.3617 -0.0617
  123TMC2    C7 1920   0.949   3.944  10.359 -0.2130 -0.0747  0.4793
  123TMC2    C8 1921   0.955   4.214  10.752 -0.2641  0.3609  0.4466
  123TMC2    O1 1922   0.915   3.829  10.335  0.2309  0.1293  0.4501
  123TMC2    O2 1923   0.873   4.297  10.717 -0.3070 -0.6470 -0.0133
  123TMC2    O5 1924   1.073   4.232  10.811 -0.2503  0.0111  0.3576
  123TMC2    H5 1925   1.135   4.181  10.755  1.8097  0.6735  2.0222
  124MPD2     C 1926   0.689   3.337  10.687  0.4550 -0.3233 -0.3253
  124MPD2    C1 1927   0.675   3.426  10.581 -0.2594  0.3393 -0.0344
  124MPD2    C2 1928   0.756   3.543  10.578  0.1259 -0.1638 -0.2051
  124MPD2    C3 1929   0.832   3.575  10.687 -0.0042 -0.0463 -0.0004
  124MPD2    C4 1930   0.834   3.493  10.798 -0.0181 -0.4231 -0.1088
  124MPD2    C5 1931   0.762   3.374  10.792 -0.1605  0.4094 -0.1924
  124MPD2     H 1932   0.756   3.611  10.493 -2.1564  2.8099  2.1469
  124MPD2    H1 1933   0.900   3.517  10.881 -0.2905 -1.2508  0.3467
  124MPD2    H2 1934   0.631   3.247  10.703 -0.9033  0.2563 -1.9894
  124MPD2    H3 1935   0.774   3.300  10.870  0.6426  0.5744 -0.1549
  124MPD2     N 1936   0.904   3.695  10.675  0.1402  0.0839 -0.4273
  124MPD2    H5 1937   0.889   3.750  10.591  0.6448 -1.7050 -1.6794
  124MPD2    N1 1938   0.578   3.397  10.482 -0.0488 -0.0100  0.0958
  124MPD2    H7 1939   0.511   3.324  10.505  0.6408 -0.5746  0.2737
  125TMC2    C1 1940   1.815   0.781   9.378 -0.6564 -0.2895  0.1046
  125TMC2    C2 1941   1.741   0.869   9.300 -0.1797  0.3974  0.0373
  125TMC2    C3 1942   1.658   0.817   9.208 -0.7750  0.7288 -0.2644
  125TMC2    C4 1943   1.801   0.645   9.364  0.0887  0.6073 -0.5709
  125TMC2    C5 1944   1.721   0.597   9.260  0.4025  0.3981  0.6383
  125TMC2    C6 1945   1.642   0.682   9.193  0.7739 -0.6315  0.7352
  125TMC2     C 1946   1.850   0.814   9.518 -0.3247  0.3073 -0.0294
  125TMC2     O 1947   1.850   0.721   9.598  0.2159  0.2050 -0.4743
  125TMC2     H 1948   1.758   0.976   9.306 -1.8412  0.5645  1.8270
  125TMC2    H1 1949   1.866   0.587   9.428 -0.5604 -0.8467 -1.2286
  125TMC2    H2 1950   1.564   0.643   9.128  0.8524 -0.3552  0.4777
  125TMC2    C7 1951   1.718   0.458   9.223 -0.1339 -0.1662 -0.1197
  125TMC2    C8 1952   1.570   0.908   9.132  0.0401 -0.1503  0.4789
  125TMC2    O1 1953   1.717   0.436   9.102 -0.2317  0.0805  0.0800
  125TMC2    O2 1954   1.498   0.871   9.038  0.2546 -0.4788  0.6508
  125TMC2    O5 1955   1.548   1.019   9.207 -0.3150 -0.3758  0.6392
  125TMC2    H5 1956   1.572   1.014   9.302  4.1473  0.0126 -0.4589
  126MPD1     C 1957   1.929   1.164   9.892 -0.0823 -0.0242 -0.0703
  126MPD1    C1 1958   1.914   1.234   9.774  0.4510  0.9034 -0.9532
  126MPD1    C2 1959   1.899   1.161   9.656 -0.0419  0.1935 -0.6462
  126MPD1    C3 1960   1.903   1.021   9.658  0.2202  1.0113 -0.3165
  126MPD1    C4 1961   1.924   0.948   9.778 -0.2179 -0.5126 -0.1048
  126MPD1    C5 1962   1.926   1.024   9.894  0.3411 -0.1936  0.3626
  126MPD1     H 1963   1.894   1.213   9.561  0.1470  0.3535 -0.5686
  126MPD1    H1 1964   1.930   0.840   9.783 -1.0102 -0.5669 -0.2266
  126MPD1    H2 1965   1.921   1.214   9.988 -0.6700  1.0709 -0.6899
  126MPD1    H3 1966   1.934   0.972   9.989  0.2505 -0.5641  0.1699
  126MPD1     N 1967   1.882   0.950   9.538  0.3735 -0.0916 -0.1376
  126MPD1    H5 1968   1.902   1.001   9.452 -2.9146 -0.1016 -0.9263
  126MPD1    N1 1969   1.899   1.381   9.777  0.5462 -0.2018 -0.4035
  126MPD1    H6 1970   1.939   1.424   9.694 -0.8977  0.1829 -0.8952
  126MPD1    H7 1971   1.958   1.417   9.852 -1.8693  1.0109  0.9261
  127TMC2    C1 1972   2.744   4.269  10.343  0.2923  0.1508  0.5500
  127TMC2    C2 1973   2.752   4.137  10.387  0.5466  0.0918  0.2367
  127TMC2    C3 1974   2.637   4.073  10.426 -0.0296 -0.2809 -0.0030
  127TMC2    C4 1975   2.620   4.334  10.334 -0.2744  0.5281  0.5824
  127TMC2    C5 1976   2.511   4.257  10.349 -0.0089  0.9145  0.6338
  127TMC2    C6 1977   2.515   4.121  10.390 -0.3607 -0.2648  0.1257
  127TMC2     C 1978   2.861   4.352  10.331 -0.3730  0.1021 -0.3553
  127TMC2     O 1979   2.843   4.464  10.285 -0.5458 -0.1577  0.0279
  127TMC2     H 1980   2.849   4.089  10.377 -0.0297 -0.8324 -0.9559
  127TMC2    H1 1981   2.613   4.439  10.308 -1.6816  0.9644  2.7178
  127TMC2    H2 1982   2.433   4.050  10.390 -0.1994 -0.4525  1.9651
  127TMC2    C7 1983   2.386   4.320  10.306  0.2634  0.2730 -0.2456
  127TMC2    C8 1984   2.648   3.938  10.473  0.1510 -0.0577  0.1806
  127TMC2    O1 1985   2.389   4.402  10.213  0.4867  0.4335  0.1675
  127TMC2    O2 1986   2.563   3.855  10.486  0.4201 -0.5318  0.3625
  127TMC2    O5 1987   2.768   3.922  10.524 -0.1095  0.4795 -0.2536
  127TMC2    H5 1988   2.822   4.004  10.527  1.3860 -0.4317 -1.9461
  128MPD2     C 1989   3.208   4.280  10.433 -0.0124 -0.4235 -0.1154
  128MPD2    C1 1990   3.101   4.355  10.380  0.1198 -0.5473  0.3399
  128MPD2    C2 1991   3.128   4.483  10.332 -0.6093  0.3310 -0.3136
  128MPD2    C3 1992   3.248   4.548  10.343  0.0201  0.1032 -0.2248
  128MPD2    C4 1993   3.351   4.474  10.392 -0.2673 -0.2640  1.0829
  128MPD2    C5 1994   3.333   4.336  10.444 -0.2776  0.8802 -0.3943
  128MPD2     H 1995   3.051   4.544  10.286 -0.2185  0.9020 -0.2107
  128MPD2    H1 1996   3.454   4.509  10.394 -0.8393  1.2763  3.4508
  128MPD2    H2 1997   3.201   4.185  10.484 -0.4722 -1.8203 -2.7619
  128MPD2    H3 1998   3.416   4.287  10.495 -0.2907  1.1836 -0.0773
  128MPD2     N 1999   3.267   4.674  10.274  0.9316  0.0972  0.7541
  128MPD2    H5 2000   3.188   4.717  10.227  0.7366 -0.5680  0.4734
  128MPD2    N1 2001   2.972   4.293  10.382 -0.7556 -0.4056  0.2255
  128MPD2    H7 2002   2.965   4.201  10.424 -0.3822 -0.4738  0.1446
  129TMC2    C1 2003   0.426   0.517   1.945  0.0808 -0.4773 -0.4987
  129TMC2    C2 2004   0.555   0.569   1.944 -0.2129  0.4410 -0.0071
  129TMC2    C3 2005   0.657   0.487   1.906  0.3331  0.3076  0.4392
  129TMC2    C4 2006   0.393   0.395   1.911 -0.9651 -0.7364  0.8809
  129TMC2    C5 2007   0.500   0.317   1.879 -0.4125  0.4196 -0.5217
  129TMC2    C6 2008   0.630   0.360   1.878 -0.1697  0.5326  0.1177
  129TMC2     C 2009   0.316   0.614   1.932  0.1069  0.1184  0.2780
  129TMC2     O 2010   0.200   0.577   1.954  0.1713  1.1296 -0.1203
  129TMC2     H 2011   0.588   0.664   1.983 -1.2853  0.4920  0.7741
  129TMC2    H1 2012   0.290   0.362   1.902 -0.9081 -0.7043  0.0782
  129TMC2    H2 2013   0.711   0.291   1.859 -1.0399 -0.3450 -0.3884
  129TMC2    C7 2014   0.461   0.188   1.813  1.0940  0.1686 -0.2710
  129TMC2    C8 2015   0.793   0.540   1.882 -0.6670 -0.8482  0.1842
  129TMC2    O1 2016   0.343   0.157   1.819  0.4882 -0.1274  0.4203
  129TMC2    O2 2017   0.842   0.556   1.771 -0.5716  0.0943 -0.0255
  129TMC2    O5 2018   0.806   0.625   1.984  0.2459 -0.4410 -0.1031
  129TMC2    H5 2019   0.754   0.597   2.062 -0.3178  0.5738 -0.1168
  130MPD2     C 2020   0.151   0.836   1.817 -0.1357 -0.3067  0.6291
  130MPD2    C1 2021   0.288   0.837   1.825  0.3229 -0.2130  0.1045
  130MPD2    C2 2022   0.352   0.949   1.783 -0.0882  0.4018 -0.3186
  130MPD2    C3 2023   0.286   1.063   1.729 -0.5559  0.9239  0.0244
  130MPD2    C4 2024   0.153   1.062   1.726  0.1187 -0.2119  0.0131
  130MPD2    C5 2025   0.087   0.953   1.777  0.2529 -0.1459 -0.5832
  130MPD2     H 2026   0.460   0.955   1.781 -0.0697  0.3422  0.6473
  130MPD2    H1 2027   0.103   1.153   1.696 -0.5141 -0.7599 -0.6119
  130MPD2    H2 2028   0.096   0.749   1.849  0.3023 -1.5042 -1.8655
  130MPD2    H3 2029   4.716   0.965   1.783  0.2548  0.3241 -1.5445
  130MPD2     N 2030   0.362   1.163   1.680 -0.4130  0.3933 -0.5247
  130MPD2    H5 2031   0.460   1.137   1.671 -0.4444  0.3615 -0.7702
  130MPD2    N1 2032   0.362   0.728   1.873  0.6136 -0.3028  0.8103
  130MPD2    H7 2033   0.463   0.745   1.871  0.6081 -0.3109  0.3719
  131TMC2    C1 2034   0.628   4.306  10.062 -0.2230 -0.4309 -0.4240
  131TMC2    C2 2035   0.714   4.312  10.169 -0.1528 -0.8077 -0.2059
  131TMC2    C3 2036   0.773   4.435  10.191  0.5444 -0.2788 -0.1658
  131TMC2    C4 2037   0.608   4.412   9.981 -0.2561  1.3001  0.3890
  131TMC2    C5 2038   0.681   4.523   9.999  0.3358  0.7552 -0.6418
  131TMC2    C6 2039   0.769   4.537  10.099  0.4998 -0.0613 -0.2740
  131TMC2     C 2040   0.542   4.184  10.058  0.1326 -0.1418  1.0883
  131TMC2     O 2041   0.547   4.125  10.166  0.1582 -0.0360  0.0978
  131TMC2     H 2042   0.739   4.232  10.237  0.7466 -0.3507  0.0010
  131TMC2    H1 2043   0.515   4.417   9.926  0.5320 -0.4331 -1.1405
  131TMC2    H2 2044   0.825   4.629  10.113  0.9219 -0.3886  0.1776
  131TMC2    C7 2045   0.626   4.639   9.924  0.1194  0.2264 -0.1465
  131TMC2    C8 2046   0.881   4.427  10.283 -0.4848 -0.2014 -0.6581
  131TMC2    O1 2047   0.528   4.616   9.852 -0.1713  0.0669  0.4702
  131TMC2    O2 2048   0.907   4.331  10.353 -0.3168 -0.1383 -0.5697
  131TMC2    O5 2049   0.919   4.552  10.320 -0.4173 -0.8438  0.0749
  131TMC2    H5 2050   0.867   4.621  10.274 -0.0164 -0.0122  0.8659
  132MPD2     C 2051   0.307   4.043   9.796 -0.3837 -0.2819  0.4902
  132MPD2    C1 2052   0.378   4.053   9.917  0.5210  0.2447 -0.0563
  132MPD2    C2 2053   0.368   3.948  10.002 -0.3377  0.6269  0.1697
  132MPD2    C3 2054   0.299   3.835   9.967  0.1097 -0.0596  0.1755
  132MPD2    C4 2055   0.211   3.840   9.858  0.3924  0.7777 -0.6708
  132MPD2    C5 2056   0.210   3.953   9.783  0.3999 -0.2301 -0.1129
  132MPD2     H 2057   0.422   3.938  10.096 -0.7149  0.7717  0.4023
  132MPD2    H1 2058   0.140   3.760   9.839  0.1982  0.5600  1.0058
  132MPD2    H2 2059   0.309   4.118   9.718 -2.1825  0.7257  1.4108
  132MPD2    H3 2060   0.143   3.975   9.701  2.2382  0.2355 -1.4934
  132MPD2     N 2061   0.312   3.717  10.051 -0.2757  0.2494 -0.2166
  132MPD2    H5 2062   0.387   3.718  10.119  2.1106  1.4705 -2.8626
  132MPD2    N1 2063   0.466   4.166   9.942 -0.0367 -0.0078 -0.1191
  132MPD2    H7 2064   0.483   4.231   9.867  2.2206 -1.3345 -0.7518
  133TMC2    C1 2065   3.538   3.733   9.894  0.1165 -0.9195 -0.6755
  133TMC2    C2 2066   3.649   3.656   9.897 -0.6950 -0.4346 -0.6230
  133TMC2    C3 2067   3.638   3.552   9.985 -0.0118  0.4911 -0.4146
  133TMC2    C4 2068   3.418   3.698   9.953  0.1828 -0.0199 -0.1323
  133TMC2    C5 2069   3.413   3.587  10.033 -0.5656  0.2062 -0.1351
  133TMC2    C6 2070   3.525   3.517  10.045 -0.1311 -0.2708 -0.0229
  133TMC2     C 2071   3.556   3.865   9.831  0.3107 -0.0036  0.0394
  133TMC2     O 2072   3.674   3.895   9.811  0.3572  0.1333  0.7772
  133TMC2     H 2073   3.737   3.672   9.836 -0.1574 -0.2621  0.2132
  133TMC2    H1 2074   3.336   3.769   9.946  2.9382  3.2738  0.6991
  133TMC2    H2 2075   3.522   3.430  10.109 -3.0109  0.7514  1.2444
  133TMC2    C7 2076   3.288   3.550  10.094  0.0225  0.0047 -0.6636
  133TMC2    C8 2077   3.728   3.441   9.965  0.4028  0.1637 -0.9492
  133TMC2    O1 2078   3.190   3.621  10.081 -0.4205 -0.4983 -0.1284
  133TMC2    O2 2079   3.686   3.327   9.968  0.1011 -0.0479  0.1515
  133TMC2    O5 2080   3.843   3.487  10.009 -0.1221 -0.1767 -0.7856
  133TMC2    H5 2081   3.844   3.582  10.030  3.1899 -0.4880  0.5916
  134MPD2     C 2082   3.328   4.102   9.665  0.0595 -0.0141 -0.0499
  134MPD2    C1 2083   3.439   4.063   9.745 -0.8004 -0.2633  0.2684
  134MPD2    C2 2084   3.541   4.161   9.766  0.4138  0.3543  0.6504
  134MPD2    C3 2085   3.534   4.288   9.719  0.0653  0.3550 -0.3283
  134MPD2    C4 2086   3.420   4.322   9.649 -0.8992 -0.0969 -0.5165
  134MPD2    C5 2087   3.320   4.231   9.626  0.1354 -0.1342  0.1401
  134MPD2     H 2088   3.627   4.132   9.825  1.6486  1.1068 -0.7726
  134MPD2    H1 2089   3.397   4.425   9.626 -0.0071  0.2100 -0.0039
  134MPD2    H2 2090   3.235   4.046   9.659  0.8161 -1.2299 -0.5471
  134MPD2    H3 2091   3.229   4.253   9.571  0.7606  0.9486 -0.4615
  134MPD2     N 2092   3.637   4.385   9.753 -0.0655  0.5502 -0.4800
  134MPD2    H5 2093   3.621   4.476   9.712 -1.5807  0.3964 -0.2318
  134MPD2    N1 2094   3.440   3.931   9.790  0.2609 -0.3422 -0.1021
  134MPD2    H7 2095   3.359   3.872   9.775 -1.7487  2.7402 -1.4357
  135TMC2    C1 2096   1.926   2.235  10.107 -0.1318 -0.0177  0.7969
  135TMC2    C2 2097   1.849   2.186  10.002 -0.3301 -0.9685 -0.7495
  135TMC2    C3 2098   1.743   2.103  10.028  0.2895 -0.2836 -0.1081
  135TMC2    C4 2099   1.892   2.203  10.238  0.1678  0.2938  0.4942
  135TMC2    C5 2100   1.785   2.123  10.258 -0.0183 -0.0960  0.0679
  135TMC2    C6 2101   1.712   2.058  10.158  0.7508 -0.5378 -0.6225
  135TMC2     C 2102   2.066   2.263  10.070  0.2939 -0.3998  0.0292
  135TMC2     O 2103   2.127   2.334  10.149  0.1826  0.1965  0.1157
  135TMC2     H 2104   1.859   2.224   9.901  2.3228 -0.3714 -0.2684
  135TMC2    H1 2105   1.960   2.240  10.314  2.4700 -0.5396 -1.1618
  135TMC2    H2 2106   1.623   1.998  10.175  1.0170 -1.6107 -3.0223
  135TMC2    C7 2107   1.789   2.051  10.383  0.7650 -0.4303 -0.1569
  135TMC2    C8 2108   1.692   2.018   9.921  0.1801 -0.0905  0.5938
  135TMC2    O1 2109   1.864   2.103  10.466  0.1970  0.1711  0.5106
  135TMC2    O2 2110   1.662   1.901   9.951  0.0243  0.7655  0.5182
  135TMC2    O5 2111   1.689   2.085   9.801  0.2366 -0.0595 -0.0863
  135TMC2    H5 2112   1.689   2.183   9.810  2.1987 -0.1251  0.6124
  136MPD2     C 2113   2.352   2.221   9.978 -0.2240 -0.2311 -0.5708
  136MPD2    C1 2114   2.247   2.156   9.919  0.1960  0.0396  0.2676
  136MPD2    C2 2115   2.277   2.073   9.814 -0.2918 -0.1461 -0.5841
  136MPD2    C3 2116   2.409   2.056   9.772  0.0665  0.2268  0.8775
  136MPD2    C4 2117   2.512   2.117   9.832  0.5088  0.3425  0.4252
  136MPD2    C5 2118   2.485   2.196   9.940  0.2111  0.0743 -0.1686
  136MPD2     H 2119   2.194   2.017   9.770 -0.7584  1.5899 -1.9058
  136MPD2    H1 2120   2.618   2.113   9.812  0.1321 -0.1753 -1.4824
  136MPD2    H2 2121   2.346   2.304  10.048  1.4619 -0.0610 -0.6281
  136MPD2    H3 2122   2.560   2.261   9.983 -0.3270 -0.3770  1.4559
  136MPD2     N 2123   2.442   1.967   9.664  0.0236 -0.0514  0.6477
  136MPD2    H5 2124   2.538   1.942   9.644 -0.2303 -0.5851  0.0562
  136MPD2    N1 2125   2.112   2.187   9.960  0.1874  0.6225  0.5689
  136MPD2    H7 2126   2.040   2.123   9.928 -0.4076  0.8376  1.4614
  137TMC2    C1 2127   1.555   4.675   9.335  0.7014  0.1873  0.1792
  137TMC2    C2 2128   1.566   4.575   9.239 -0.1548 -0.5533 -0.2754
  137TMC2    C3 2129   1.538   4.616   9.110  0.5407  0.2247  0.0628
  137TMC2    C4 2130   1.499   0.059   9.306  0.2037 -1.0831  0.0928
  137TMC2    C5 2131   1.465   0.088   9.178  0.3838 -0.5365  0.0755
  137TMC2    C6 2132   1.486   4.737   9.079 -0.4448 -0.7220  0.2883
  137TMC2     C 2133   1.622   4.671   9.467 -0.1492  0.3986  0.0204
  137TMC2     O 2134   1.595   0.022   9.546  0.4132  0.3105 -0.0450
  137TMC2     H 2135   1.614   4.480   9.257  1.8462  0.6681  0.7862
  137TMC2    H1 2136   1.490   0.132   9.386 -2.3983 -1.8929  0.5310
  137TMC2    H2 2137   1.479   0.032   8.975  0.8892 -0.1309  0.3772
  137TMC2    C7 2138   1.423   0.221   9.148  0.7281  0.0070 -0.1226
  137TMC2    C8 2139   1.601   4.543   9.007 -0.4656 -0.0373 -0.1248
  137TMC2    O1 2140   1.408   0.253   9.035  0.1761 -0.4383  0.3388
  137TMC2    O2 2141   1.632   4.587   8.899  0.3693 -0.0726 -0.3746
  137TMC2    O5 2142   1.599   4.410   9.027 -0.6939  0.2050  0.1378
  137TMC2    H5 2143   1.547   4.372   9.101  0.6641 -1.2992  0.3151
  138MPD2     C 2144   1.876   4.436   9.619  0.9952  0.1528 -0.2018
  138MPD2    C1 2145   1.801   4.554   9.601  0.6548  0.4277  0.7731
  138MPD2    C2 2146   1.829   4.666   9.689 -0.4181  0.2902 -0.4410
  138MPD2    C3 2147   1.921   4.651   9.785 -0.4691  0.1188  0.3941
  138MPD2    C4 2148   1.976   4.529   9.820  0.3822 -0.2304  0.2448
  138MPD2    C5 2149   1.958   4.430   9.734 -1.0726  0.4042 -0.1099
  138MPD2     H 2150   1.780   0.024   9.675 -1.9702 -0.6269 -1.2110
  138MPD2    H1 2151   2.050   4.515   9.897 -1.5478 -2.8149  1.6284
  138MPD2    H2 2152   1.862   4.351   9.553  1.2939  1.3543 -1.8306
  138MPD2    H3 2153   2.016   4.339   9.745  0.7417  1.2385 -2.7844
  138MPD2     N 2154   1.956   0.031   9.864  0.6622  0.4984  0.1815
  138MPD2    H5 2155   1.902   0.115   9.843  2.0355  0.7875 -2.0997
  138MPD2    N1 2156   1.711   4.560   9.491 -0.4543 -0.2463 -0.5889
  138MPD2    H7 2157   1.708   4.486   9.422  2.7205 -0.6998 -0.2270
  139TMC2    C1 2158   2.332   3.406  13.391 -0.7108  0.0709 -0.4235
  139TMC2    C2 2159   2.457   3.464  13.389  0.0079  0.1778  0.5097
  139TMC2    C3 2160   2.458   3.593  13.423  0.5937 -0.0723  0.1540
  139TMC2    C4 2161   2.212   3.472  13.421  0.0156  0.0082  0.8921
  139TMC2    C5 2162   2.222   3.603  13.444 -0.0618  0.7141  0.1021
  139TMC2    C6 2163   2.345   3.668  13.449 -0.2667 -0.8408  0.2310
  139TMC2     C 2164   2.331   3.263  13.408  0.1200 -0.0628 -0.2275
  139TMC2     O 2165   2.434   3.218  13.454 -0.5605  0.4999  0.4684
  139TMC2     H 2166   2.545   3.407  13.362  0.4492  1.1832 -0.1478
  139TMC2    H1 2167   2.117   3.421  13.430 -0.5068  1.0581  1.2472
  139TMC2    H2 2168   2.355   3.776  13.452 -0.1602 -0.8085 -1.1258
  139TMC2    C7 2169   2.110   3.682  13.489 -0.5144  0.1055  0.1845
  139TMC2    C8 2170   2.574   3.672  13.443  0.2976  0.4402  0.8982
  139TMC2    O1 2171   2.144   3.802  13.493  0.5298 -0.1567  0.5819
  139TMC2    O2 2172   2.585   3.775  13.504 -0.1963 -0.3654  0.0603
  139TMC2    O5 2173   2.648   3.649  13.330  1.1875 -0.0083  0.2958
  139TMC2    H5 2174   2.606   3.592  13.263  0.0762  2.1931 -0.8618
  140MPD2     C 2175   2.047   3.047  13.355  0.1252  0.6534 -0.1328
  140MPD2    C1 2176   2.174   3.071  13.395 -0.0088  0.3352  0.3472
  140MPD2    C2 2177   2.253   2.971  13.451  0.0759 -0.7069 -0.4598
  140MPD2    C3 2178   2.212   2.844  13.466  0.3232  0.0037 -1.0836
  140MPD2    C4 2179   2.087   2.808  13.420  0.2060  0.0831 -0.8345
  140MPD2    C5 2180   2.013   2.909  13.368  0.1456 -0.1066  0.2873
  140MPD2     H 2181   2.360   2.986  13.464  0.0719 -0.6471 -0.4956
  140MPD2    H1 2182   2.061   2.703  13.427 -1.2338  0.3869 -1.7557
  140MPD2    H2 2183   1.994   3.120  13.294 -1.0389  0.0656  0.1890
  140MPD2    H3 2184   1.918   2.878  13.327 -0.1420  0.8233  0.2427
  140MPD2     N 2185   2.305   2.747  13.515  0.3363  0.1184  0.2065
  140MPD2    H5 2186   2.384   2.787  13.566  0.0271  1.5351 -0.4366
  140MPD2    N1 2187   2.217   3.207  13.370  0.7390 -0.3999  0.5655
  140MPD2    H7 2188   2.154   3.276  13.329  1.9652 -0.1818 -0.9656
  141TMC2    C1 2189   3.510   3.806  15.194  0.4021  0.1371  0.7144
  141TMC2    C2 2190   3.502   3.728  15.307 -0.4758  0.3861 -0.0144
  141TMC2    C3 2191   3.471   3.794  15.415  0.1635 -0.3594  0.4938
  141TMC2    C4 2192   3.501   3.944  15.198 -0.2160 -0.0057  0.3394
  141TMC2    C5 2193   3.457   4.001  15.313 -0.2892 -0.6275 -0.1928
  141TMC2    C6 2194   3.450   3.932  15.431  0.1364  0.7963 -0.2560
  141TMC2     C 2195   3.487   3.742  15.067  0.6052 -0.4448  0.0440
  141TMC2     O 2196   3.517   3.811  14.972  0.2078 -0.3193  0.1293
  141TMC2     H 2197   3.518   3.621  15.306 -0.4428  0.4163 -2.2864
  141TMC2    H1 2198   3.494   3.994  15.102  0.9013  2.4263  1.5197
  141TMC2    H2 2199   3.414   3.973  15.524 -2.3428  0.8947 -1.2553
  141TMC2    C7 2200   3.457   4.148  15.319  0.2530 -0.2778 -0.2067
  141TMC2    C8 2201   3.520   3.731  15.537  0.2742 -1.2415 -0.1575
  141TMC2    O1 2202   3.420   4.193  15.426  0.1120  0.0240 -0.3404
  141TMC2    O2 2203   3.532   3.610  15.550 -0.7629 -0.3491  0.8033
  141TMC2    O5 2204   3.625   3.819  15.557 -0.0020 -0.2837  0.0087
  141TMC2    H5 2205   3.603   3.904  15.512  0.4778  0.2807  0.8558
  142TMC2    C1 2206   0.511   3.465   9.835 -0.3315 -0.3262  0.3845
  142TMC2    C2 2207   0.426   3.499   9.737  0.1534  0.4594 -0.6404
  142TMC2    C3 2208   0.425   3.627   9.694  0.3612  0.2174  0.2746
  142TMC2    C4 2209   0.597   3.557   9.887 -0.3017 -0.4359 -0.1952
  142TMC2    C5 2210   0.583   3.689   9.865  0.2501 -0.3668  0.2936
  142TMC2    C6 2211   0.501   3.728   9.755 -0.0347  0.0524  0.4101
  142TMC2     C 2212   0.498   3.345   9.910  0.5593  0.0580  0.2664
  142TMC2     O 2213   0.386   3.302   9.930 -0.2974  0.5665  0.3456
  142TMC2     H 2214   0.374   3.417   9.688 -2.2716  2.6698 -1.8095
  142TMC2    H1 2215   0.668   3.537   9.966 -0.1894 -0.9927 -0.4340
  142TMC2    H2 2216   0.496   3.832   9.723  3.1794  0.4796  1.2499
  142TMC2    C7 2217   0.656   3.779   9.954 -0.2223 -0.9637 -0.6905
  142TMC2    C8 2218   0.367   3.657   9.566 -0.0203  0.5933 -0.2703
  142TMC2    O1 2219   0.643   3.746  10.072  0.1710  0.3194  0.4407
  142TMC2    O2 2220   0.376   3.771   9.532 -0.2225 -0.4833 -0.4124
  142TMC2    O5 2221   0.265   3.581   9.541  0.1310 -0.3863  0.5883
  142TMC2    H5 2222   0.262   3.502   9.599 -1.7912 -1.0136 -0.3740
  143MPD2     C 2223   0.679   3.084  10.311 -0.1419  0.6150  0.3508
  143MPD2    C1 2224   0.558   3.064  10.252 -0.3861 -0.1462  0.3630
  143MPD2    C2 2225   0.533   3.134  10.134 -0.2238  0.3916 -0.7842
  143MPD2    C3 2226   0.629   3.228  10.084  0.9436 -0.7228 -0.2547
  143MPD2    C4 2227   0.755   3.227  10.145 -0.4894  0.2549  0.0759
  143MPD2    C5 2228   0.772   3.165  10.263  0.2466 -0.5685 -0.0348
  143MPD2     H 2229   0.437   3.130  10.084 -1.0515  3.1255  0.6035
  143MPD2    H1 2230   0.831   3.299  10.117  0.3303 -0.5975  0.1096
  143MPD2    H2 2231   0.692   3.029  10.404 -0.7805 -1.5231 -0.8369
  143MPD2    H3 2232   0.871   3.185  10.302  0.1874 -0.5362  0.0999
  143MPD2     N 2233   0.613   3.310   9.973 -0.6442  0.8413 -0.6703
  143MPD2    H5 2234   0.699   3.357   9.948 -0.8758  0.4623 -2.1906
  143MPD2    N1 2235   0.466   2.982  10.318  0.1967 -0.1360 -0.1076
  143MPD2    H7 2236   0.487   2.944  10.410 -1.0845 -0.1219  0.1826
  144TMC2    C1 2237   4.140   1.311   0.742  0.0461  0.3524  0.1001
  144TMC2    C2 2238   4.148   1.176   0.742 -0.7430 -1.4820  0.5720
  144TMC2    C3 2239   4.265   1.117   0.781  0.4006  0.9026 -0.0566
  144TMC2    C4 2240   4.241   1.388   0.804  0.4070  0.4088 -0.3739
  144TMC2    C5 2241   4.333   1.316   0.872  0.0660 -0.4768  0.5914
  144TMC2    C6 2242   4.354   1.183   0.854  0.5115 -0.6332 -0.5975
  144TMC2     C 2243   4.020   1.367   0.686  0.4866 -0.0165 -0.3166
  144TMC2     O 2244   3.942   1.284   0.635  0.0286  0.3266 -0.3142
  144TMC2     H 2245   4.073   1.111   0.697 -0.9962 -1.3840  0.8511
  144TMC2    H1 2246   4.222   1.493   0.822  0.1823  0.3809 -0.4464
  144TMC2    H2 2247   4.440   1.132   0.895  0.9876  2.5016  2.3357
  144TMC2    C7 2248   4.424   1.380   0.970 -0.7688 -0.0789  0.5142
  144TMC2    C8 2249   4.284   0.976   0.761  0.7116  0.2926 -0.7507
  144TMC2    O1 2250   4.512   1.310   1.019  0.6666 -0.2236  0.1769
  144TMC2    O2 2251   4.269   0.897   0.853  0.1931  0.0251 -0.0413
  144TMC2    O5 2252   4.233   0.958   0.633  0.1765  0.1020 -0.3906
  144TMC2    H5 2253   4.240   1.030   0.566 -1.3189 -0.3018 -0.9701
  145MPD2     C 2254   3.713   1.780   0.611 -0.2580  0.5276  0.1246
  145MPD2    C1 2255   3.688   1.642   0.599 -0.5964  0.2590 -0.0582
  145MPD2    C2 2256   3.783   1.549   0.617 -0.2302 -0.0339  0.2026
  145MPD2    C3 2257   3.905   1.590   0.664  0.5451 -1.0160 -0.4412
  145MPD2    C4 2258   3.917   1.722   0.698  0.3843  0.1293 -0.2711
  145MPD2    C5 2259   3.828   1.820   0.673 -0.0598  0.6294  0.5767
  145MPD2     H 2260   3.765   1.446   0.588 -0.1442 -0.1396  0.5279
  145MPD2    H1 2261   4.005   1.759   0.748  1.3097 -2.4898  0.0255
  145MPD2    H2 2262   3.639   1.857   0.594 -0.7829  0.3480  1.6358
  145MPD2    H3 2263   3.850   1.923   0.699 -1.5358  1.0945 -0.0345
  145MPD2     N 2264   4.022   1.504   0.689  0.3426  0.1847 -0.0145
  145MPD2    H5 2265   4.107   1.547   0.724  0.4150 -1.1096  1.4048
  145MPD2    N1 2266   3.574   1.604   0.528 -0.5115  0.2151 -0.2853
  145MPD2    H7 2267   3.561   1.506   0.504  1.8181 -0.1703  0.0298
  146TMC2    C1 2268   0.683   0.681  12.237 -0.2518  0.8460 -0.9683
  146TMC2    C2 2269   0.610   0.640  12.131 -0.6105  0.5963  0.1601
  146TMC2    C3 2270   0.668   0.552  12.036 -0.7294 -0.2938 -0.5340
  146TMC2    C4 2271   0.804   0.621  12.266  0.3976 -0.2183 -0.0058
  146TMC2    C5 2272   0.856   0.529  12.172 -0.3225 -0.2046 -0.1283
  146TMC2    C6 2273   0.790   0.496  12.054  0.1009  0.0799  0.2736
  146TMC2     C 2274   0.634   0.796  12.308 -0.5447 -0.4834 -0.0577
  146TMC2     O 2275   0.534   0.855  12.264  0.6836 -0.5431 -0.5002
  146TMC2     H 2276   0.522   0.695  12.099 -1.7345 -1.0629  0.3933
  146TMC2    H1 2277   0.869   0.661  12.344 -0.1632  1.4531 -0.3852
  146TMC2    H2 2278   0.832   0.421  11.988  0.5452  0.2378  0.3699
  146TMC2    C7 2279   0.995   0.499  12.178  0.1816 -0.1056  0.5831
  146TMC2    C8 2280   0.604   0.546  11.904  0.3192  0.7534 -0.3879
  146TMC2    O1 2281   1.050   0.477  12.071  0.4124  0.6193 -0.6499
  146TMC2    O2 2282   0.598   0.651  11.845  0.2100  0.1119  0.3066
  146TMC2    O5 2283   0.627   0.421  11.850  0.1660 -0.0513  0.4990
  146TMC2    H5 2284   0.633   0.349  11.916 -1.1602 -0.9860 -0.3816
  147MPD2     C 2285   1.412   0.403  12.459  0.5173 -0.6238  0.1175
  147MPD2    C1 2286   1.308   0.422  12.543 -0.0686 -0.6308 -0.6044
  147MPD2    C2 2287   1.185   0.451  12.493  0.2940  0.6766 -0.7854
  147MPD2    C3 2288   1.167   0.456  12.352 -0.5903  0.4345  0.4258
  147MPD2    C4 2289   1.274   0.431  12.265 -0.1055  0.8159  0.0765
  147MPD2    C5 2290   1.396   0.407  12.321  0.6862  0.4657  1.2359
  147MPD2     H 2291   1.101   0.465  12.560  1.3217  2.7200  0.0747
  147MPD2    H1 2292   1.261   0.421  12.158 -0.4066  0.1404  0.1821
  147MPD2    H2 2293   1.504   0.367  12.503 -1.0298 -0.6147  3.3800
  147MPD2    H3 2294   1.474   0.380  12.251 -0.2630  1.1593 -0.0926
  147MPD2     N 2295   1.035   0.484  12.312 -0.1064 -0.3246  0.2082
  147MPD2    H5 2296   0.962   0.489  12.381 -2.8424  0.0541 -2.6914
  147MPD2    N1 2297   1.328   0.432  12.685 -0.3990  0.4856 -0.3629
  147MPD2    H7 2298   1.419   0.457  12.723 -0.3378  0.5426 -0.5454
  148TMC2    C1 2299   0.313   4.629  10.616  0.0198  0.4552  0.6391
  148TMC2    C2 2300   0.384   0.009  10.640  0.8255 -0.4790 -0.6445
  148TMC2    C3 2301   0.501   4.731  10.713  0.1705  0.4006 -0.5184
  148TMC2    C4 2302   0.349   4.512  10.686 -0.5013  0.4860  0.4499
  148TMC2    C5 2303   0.462   4.506  10.759  0.2709  0.4255  0.3709
  148TMC2    C6 2304   0.542   4.618  10.779 -0.0282  0.2180  1.1121
  148TMC2     C 2305   0.202   4.634  10.526  0.1009 -0.3826 -0.1826
  148TMC2     O 2306   0.190   0.006  10.469 -0.6025  0.3014 -0.0744
  148TMC2     H 2307   0.374   0.104  10.588 -1.2957 -0.7467 -0.7414
  148TMC2    H1 2308   0.288   4.422  10.693 -0.1547  0.1783 -0.5783
  148TMC2    H2 2309   0.639   4.621  10.828  0.1621 -1.1007  0.7984
  148TMC2    C7 2310   0.506   4.372  10.784  0.6545  0.0324  0.2278
  148TMC2    C8 2311   0.587   0.110  10.726 -0.7609 -0.2743 -0.1097
  148TMC2    O1 2312   0.481   4.286  10.701  0.7974  0.3320 -0.5018
  148TMC2    O2 2313   0.547   0.226  10.705 -0.0300 -0.0400  0.0158
  148TMC2    O5 2314   0.710   0.064  10.687  0.5039  0.3129  0.6328
  148TMC2    H5 2315   0.707   4.705  10.668  1.4329  0.7158 -1.6223
  149MPD2     C 2316   4.682   4.594  10.376 -0.1325 -0.4086 -0.3814
  149MPD2    C1 2317   0.013   4.497  10.450  0.4549 -0.9547 -0.1550
  149MPD2    C2 2318   4.704   4.372  10.456  0.4321 -0.4316 -0.4179
  149MPD2    C3 2319   4.581   4.334  10.406  0.9919 -0.2305 -0.0536
  149MPD2    C4 2320   4.507   4.434  10.341  0.1503  0.0449  0.1684
  149MPD2    C5 2321   4.559   4.558  10.324 -0.3217 -0.1728  0.3137
  149MPD2     H 2322   0.033   4.304  10.508 -0.0896  2.5158  4.0941
  149MPD2    H1 2323   4.406   4.409  10.309  0.0476  1.9752 -1.0249
  149MPD2    H2 2324   4.703   4.701  10.372 -0.1496 -0.2442  3.7197
  149MPD2    H3 2325   4.506   4.636  10.270 -1.6620 -0.1290  1.7084
  149MPD2     N 2326   4.524   4.206  10.414  0.2611  0.7952 -0.2035
  149MPD2    H5 2327   4.434   4.186  10.372  0.3656 -1.3823  0.5761
  149MPD2    N1 2328   0.126   4.523  10.525  0.3720  0.2644  0.1765
  149MPD2    H7 2329   0.168   4.441  10.567 -1.9218 -0.5686  0.8180
  150TMC2    C1 2330   2.603   3.223  12.688 -0.3858 -0.7722  0.2706
  150TMC2    C2 2331   2.651   3.294  12.580 -0.2546  0.7282  0.6828
  150TMC2    C3 2332   2.775   3.357  12.582 -0.3901  0.3712  0.0706
  150TMC2    C4 2333   2.685   3.209  12.798  0.3926  0.1763 -0.6415
  150TMC2    C5 2334   2.805   3.278  12.799  0.1380 -0.3540  0.0597
  150TMC2    C6 2335   2.847   3.365  12.699 -0.8107 -0.8704 -0.5184
  150TMC2     C 2336   2.485   3.136  12.671 -0.0834 -0.2089 -0.3601
  150TMC2     O 2337   2.474   3.046  12.758 -0.7104 -0.0652 -0.3661
  150TMC2     H 2338   2.604   3.297  12.482 -0.9674 -0.6731  0.9789
  150TMC2    H1 2339   2.652   3.145  12.879  1.0823  1.3214  0.5610
  150TMC2    H2 2340   2.928   3.436  12.704 -0.3863 -1.3926  0.0403
  150TMC2    C7 2341   2.892   3.273  12.916 -0.3975  0.0670 -0.0213
  150TMC2    C8 2342   2.814   3.447  12.479 -0.3358 -0.1997  0.4522
  150TMC2    O1 2343   2.957   3.375  12.937  0.1744  0.3347 -0.1152
  150TMC2    O2 2344   2.735   3.479  12.391 -0.3157 -0.0044  0.3136
  150TMC2    O5 2345   2.943   3.425  12.457  0.3885  0.3106 -0.0696
  150TMC2    H5 2346   2.997   3.378  12.524  1.8318  0.8980 -0.8103
  151MPD2     C 2347   2.002   3.039  12.475 -1.0746  0.6834  0.1238
  151MPD2    C1 2348   2.057   3.153  12.417 -0.1067 -0.1623 -0.6709
  151MPD2    C2 2349   2.187   3.191  12.454  0.1898 -0.0480  0.3035
  151MPD2    C3 2350   2.258   3.140  12.558  0.0162  0.0617 -0.0223
  151MPD2    C4 2351   2.201   3.029  12.617 -0.1010 -0.5578 -0.1395
  151MPD2    C5 2352   2.078   2.979  12.578 -0.0147  0.3027  0.6549
  151MPD2     H 2353   2.226   3.282  12.410 -0.1690 -0.0016  0.0758
  151MPD2    H1 2354   2.253   2.975  12.695 -0.9504 -1.4146 -0.1653
  151MPD2    H2 2355   1.912   2.991  12.438 -0.9665  1.5270 -1.2253
  151MPD2    H3 2356   2.044   2.889  12.627 -0.3475 -0.0706 -0.2615
  151MPD2     N 2357   2.387   3.191  12.589  0.1086  0.4731  0.5776
  151MPD2    H5 2358   2.421   3.264  12.527 -1.9785  2.4366  1.7428
  151MPD2    N1 2359   1.984   3.217  12.310 -0.6717  0.3551 -0.0581
  151MPD2    H7 2360   1.896   3.169  12.292  0.1407  0.1066 -3.4000
  152TMC2    C1 2361   2.275   3.513  12.758  0.4925  1.0283 -0.5440
  152TMC2    C2 2362   2.320   3.440  12.863  0.3680 -0.0713 -0.4492
  152TMC2    C3 2363   2.449   3.461  12.915 -0.4060  0.1864 -0.3362
  152TMC2    C4 2364   2.360   3.588  12.689 -0.4072 -0.1390  0.3921
  152TMC2    C5 2365   2.479   3.625  12.750  0.4469 -0.0714  0.4347
  152TMC2    C6 2366   2.534   3.551  12.853  0.3366  0.5638 -0.3417
  152TMC2     C 2367   2.152   3.490  12.693  0.3289 -0.0068  0.1780
  152TMC2     O 2368   2.109   3.560  12.607  0.3608  0.1239 -0.8040
  152TMC2     H 2369   2.250   3.389  12.929 -0.4745  0.5696 -0.8443
  152TMC2    H1 2370   2.335   3.637  12.596 -1.2534  1.5301  1.5048
  152TMC2    H2 2371   2.630   3.566  12.900  0.1401 -1.3410  0.6782
  152TMC2    C7 2372   2.572   3.701  12.666  0.7471 -0.2998 -0.5252
  152TMC2    C8 2373   2.490   3.410  13.049 -0.0378  0.5198 -0.6866
  152TMC2    O1 2374   2.521   3.743  12.563 -0.2138  0.4329 -0.1895
  152TMC2    O2 2375   2.578   3.466  13.120 -0.0576 -0.6048  0.1168
  152TMC2    O5 2376   2.486   3.280  13.025 -0.5784 -0.3867  0.8181
  152TMC2    H5 2377   2.413   3.243  12.971 -2.2734  0.2149  2.6890
  153MPD2     C 2378   1.930   3.211  12.781  0.2567 -0.2818 -0.2206
  153MPD2    C1 2379   1.973   3.318  12.710  0.2814  0.0435  0.5396
  153MPD2    C2 2380   1.881   3.372  12.617 -1.3883 -0.0565  0.0673
  153MPD2    C3 2381   1.753   3.319  12.610 -0.6697 -0.7462  0.0739
  153MPD2    C4 2382   1.720   3.212  12.682 -0.3714 -0.8543 -0.5624
  153MPD2    C5 2383   1.806   3.162  12.761  0.3553  0.2476  0.3774
  153MPD2     H 2384   1.922   3.451  12.554 -1.9425  0.8715  0.8646
  153MPD2    H1 2385   1.622   3.164  12.680 -0.0776 -1.4265 -1.1573
  153MPD2    H2 2386   1.991   3.164  12.858  1.1784  1.1662 -0.0655
  153MPD2    H3 2387   1.773   3.070  12.809  0.6189 -0.5900 -1.0466
  153MPD2     N 2388   1.658   3.404  12.541 -0.3520  0.2125  0.4714
  153MPD2    H5 2389   1.682   3.502  12.526 -0.4135  0.1433 -0.0785
  153MPD2    N1 2390   2.104   3.366  12.734 -0.0021  0.8982 -0.2090
  153MPD2    H7 2391   2.167   3.317  12.797 -0.1007  1.5647  0.4069
  154TMC2    C1 2392   3.666   3.672  17.373  0.4564 -0.3210  0.2172
  154TMC2    C2 2393   3.586   3.748  17.295 -0.9300  0.3984  0.5856
  154TMC2    C3 2394   3.565   3.696  17.171 -0.1200 -0.2441 -0.1487
  154TMC2    C4 2395   3.710   3.544  17.343  0.1148  0.3449 -0.4741
  154TMC2    C5 2396   3.677   3.489  17.219  0.3771  0.0913  0.9057
  154TMC2    C6 2397   3.602   3.567  17.131  0.3193 -0.5120  0.0959
  154TMC2     C 2398   3.686   3.722  17.507 -1.3321 -0.1681  0.8875
  154TMC2     O 2399   3.692   3.636  17.600 -0.1514 -0.0030  0.6194
  154TMC2     H 2400   3.546   3.841  17.334 -0.0115  0.9393  0.2303
  154TMC2    H1 2401   3.785   3.497  17.406 -1.1735 -0.9599  0.0904
  154TMC2    H2 2402   3.563   3.527  17.038  2.0789  0.5192 -1.0810
  154TMC2    C7 2403   3.753   3.385  17.162 -0.0857  0.7479 -0.1079
  154TMC2    C8 2404   3.461   3.757  17.100  0.0343 -0.5431 -0.4384
  154TMC2    O1 2405   3.694   3.314  17.082  0.5935  0.7873  0.2508
  154TMC2    O2 2406   3.392   3.688  17.028  0.0755 -0.1438  0.4330
  154TMC2    O5 2407   3.486   3.887  17.093 -0.1358  0.1173 -0.2476
  154TMC2    H5 2408   3.569   3.910  17.141 -0.2562 -0.9208  0.4450
  155MPD2     C 2409   3.836   4.037  17.613 -0.1459 -0.9111  0.1032
  155MPD2    C1 2410   3.762   3.926  17.626 -0.4501 -0.4013 -0.1517
  155MPD2    C2 2411   3.723   3.889   0.003 -0.7954 -0.0911  0.4898
  155MPD2    C3 2412   3.748   3.970   0.115  0.0164 -0.0572  0.0471
  155MPD2    C4 2413   3.800   4.091   0.093 -0.1745  0.4508  0.3383
  155MPD2    C5 2414   3.849   4.126  17.717  0.1381 -0.1361  1.0878
  155MPD2     H 2415   3.671   3.794   0.012 -1.1477  0.0167 -0.3986
  155MPD2    H1 2416   3.815   4.165   0.171 -1.2368  0.8757  0.1527
  155MPD2    H2 2417   3.890   4.043  17.519 -1.2100  2.1008 -0.3154
  155MPD2    H3 2418   3.904   4.219  17.709 -1.3049  0.5290 -1.2222
  155MPD2     N 2419   3.700   3.929   0.242  0.7075 -0.8461  0.2801
  155MPD2    H5 2420   3.650   3.841   0.237  0.6863 -0.7983 -0.3142
  155MPD2    N1 2421   3.733   3.854  17.506  1.0482 -0.0957  0.0085
  155MPD2    H7 2422   3.759   3.901  17.419 -0.4902  1.9548  0.6496
  156TMC2    C1 2423   2.659   0.734  11.587  0.2006  0.7049 -0.0505
  156TMC2    C2 2424   2.737   0.696  11.485 -0.2388 -0.2769  0.0126
  156TMC2    C3 2425   2.681   0.673  11.365 -0.8520 -0.1290 -0.0056
  156TMC2    C4 2426   2.528   0.770  11.568  0.0649 -0.3933  0.8818
  156TMC2    C5 2427   2.481   0.762  11.438 -0.0501 -0.2930 -0.5123
  156TMC2    C6 2428   2.557   0.723  11.333 -1.0750 -0.3929 -0.0326
  156TMC2     C 2429   2.707   0.717  11.726 -0.3252 -0.1793 -0.1239
  156TMC2     O 2430   2.657   0.793  11.806  0.0570 -0.1915  0.1535
  156TMC2     H 2431   2.843   0.682  11.502 -0.4058  0.6118  1.8468
  156TMC2    H1 2432   2.474   0.807  11.653 -0.8042  0.3413 -0.0007
  156TMC2    H2 2433   2.512   0.709  11.235 -1.3670 -3.1724  0.4949
  156TMC2    C7 2434   2.357   0.826  11.394 -0.4337  0.2969  0.1545
  156TMC2    C8 2435   2.766   0.621  11.262 -0.0031 -0.2437 -0.2526
  156TMC2    O1 2436   2.296   0.781  11.297  0.4149  0.5268 -0.0810
  156TMC2    O2 2437   2.767   0.667  11.149  0.2129  0.2655 -0.2977
  156TMC2    O5 2438   2.846   0.528  11.318  0.7823 -0.7801 -0.6228
  156TMC2    H5 2439   2.823   0.505  11.411 -1.7240  1.8707 -0.5605
  157MPD2     C 2440   2.867   0.445  11.892  0.7547  0.2768 -0.0804
  157MPD2    C1 2441   2.834   0.578  11.875  0.4083 -0.2645 -0.0175
  157MPD2    C2 2442   2.868   0.675  11.967  0.1506  0.0930  0.5229
  157MPD2    C3 2443   2.939   0.634  12.080 -0.1712 -0.0923 -0.2276
  157MPD2    C4 2444   2.970   0.504  12.100 -0.2578  0.7091 -0.2877
  157MPD2    C5 2445   2.934   0.409  12.008 -0.3515  0.1818 -0.0641
  157MPD2     H 2446   2.845   0.779  11.948  2.4274  0.3797 -0.6952
  157MPD2    H1 2447   3.035   0.482  12.184  1.7292 -2.2816 -2.6086
  157MPD2    H2 2448   2.829   0.368  11.826 -2.4540  0.0730  2.0032
  157MPD2    H3 2449   2.967   0.307  12.022  0.6503  0.3404 -1.2849
  157MPD2     N 2450   2.981   0.745  12.161  0.2709  0.3541 -0.3053
  157MPD2    H5 2451   2.956   0.839  12.134 -2.1421 -1.0698 -2.9720
  157MPD2    N1 2452   2.779   0.608  11.754 -0.4073  0.0023 -0.7272
  157MPD2    H7 2453   2.809   0.535  11.690  0.8182  0.2818 -0.4587
  158TMC2    C1 2454   2.633   0.040  13.274 -0.1994  0.3830  0.5757
  158TMC2    C2 2455   2.687   0.032  13.147 -0.3251 -0.7412  0.4399
  158TMC2    C3 2456   2.594   0.020  13.051  0.1603  0.0743  0.2885
  158TMC2    C4 2457   2.497   0.043  13.305 -0.1124  0.2513  0.2973
  158TMC2    C5 2458   2.413   0.021  13.201 -0.4495  0.1521  0.2815
  158TMC2    C6 2459   2.462   0.014  13.072 -0.2352 -0.4962  0.4572
  158TMC2     C 2460   2.723   0.082  13.378 -0.5701 -0.2805 -0.2056
  158TMC2     O 2461   2.834   0.124  13.340 -0.0715 -0.4224  0.2208
  158TMC2     H 2462   2.795   0.034  13.135 -0.3671 -0.8602  0.0176
  158TMC2    H1 2463   2.453   0.072  13.399 -2.5252  0.5002 -0.8993
  158TMC2    H2 2464   2.399   4.727  12.988  1.3454  3.3299 -1.8052
  158TMC2    C7 2465   2.268   0.030  13.220  0.0091 -0.3215 -0.1192
  158TMC2    C8 2466   2.647   4.701  12.927  0.0258  0.1596  0.4688
  158TMC2    O1 2467   2.204   0.102  13.145 -0.6908  0.1414 -0.1434
  158TMC2    O2 2468   2.587   4.620  12.858  0.2593  0.1531  0.3566
  158TMC2    O5 2469   2.713   0.071  12.872 -0.0645 -0.2433 -0.1717
  158TMC2    H5 2470   2.749   0.126  12.945  1.0756 -1.4391  0.1561
  159MPD2     C 2471   2.883   0.113  13.875 -0.3374  0.6789  0.7130
  159MPD2    C1 2472   2.750   0.071  13.871 -0.0940  0.2085  0.1779
  159MPD2    C2 2473   2.680   0.048  13.754 -0.1192 -0.3561  0.9460
  159MPD2    C3 2474   2.748   0.069  13.635  0.1635 -0.2738  0.3416
  159MPD2    C4 2475   2.876   0.115  13.631  0.8253  0.3753 -0.0013
  159MPD2    C5 2476   2.941   0.134  13.752 -0.5986 -0.3566  0.6206
  159MPD2     H 2477   2.577   0.015  13.753  0.2459 -1.5006  1.1100
  159MPD2    H1 2478   2.942   0.124  13.545 -2.2920  1.0917 -2.2872
  159MPD2    H2 2479   2.940   0.119  13.967 -2.8220 -0.8401  2.3356
  159MPD2    H3 2480   3.038   0.182  13.748  0.2064 -2.1135 -0.9160
  159MPD2     N 2481   2.683   0.045  13.508  0.2516 -0.2036  0.3760
  159MPD2    H5 2482   2.593   0.001  13.526 -0.7011  1.6934  0.2916
  159MPD2    N1 2483   2.701   0.046  14.003  0.1113 -0.4989 -0.1131
  159MPD2    H7 2484   2.756   0.068  14.085  1.3534  0.3382 -1.1811
  160TMC2    C1 2485   2.213   2.432   0.975  0.2386  0.2307 -0.0301
  160TMC2    C2 2486   2.247   2.310   1.019  0.0993 -0.3175  0.4521
  160TMC2    C3 2487   2.305   2.308   1.140 -0.2660 -0.6545  0.8259
  160TMC2    C4 2488   2.232   2.544   1.041 -0.0754 -0.1937  0.1349
  160TMC2    C5 2489   2.306   2.540   1.157  0.4162 -0.2561 -0.4761
  160TMC2    C6 2490   2.334   2.422   1.216 -1.1289  0.2094 -0.5511
  160TMC2     C 2491   2.134   2.450   0.852 -0.0855  0.4731 -0.1801
  160TMC2     O 2492   2.165   2.380   0.757 -0.6512  0.4540 -0.2627
  160TMC2     H 2493   2.238   2.223   0.954 -0.3592  1.4727 -1.8828
  160TMC2    H1 2494   2.200   2.640   1.004  1.7387  0.9317  1.4379
  160TMC2    H2 2495   2.386   2.415   1.311  0.0476 -2.7076 -1.3969
  160TMC2    C7 2496   2.366   2.665   1.214  0.1142  0.1593 -0.2953
  160TMC2    C8 2497   2.351   2.181   1.196 -0.4032  0.2491  0.4392
  160TMC2    O1 2498   2.318   2.768   1.169 -0.2855 -0.1760 -0.3957
  160TMC2    O2 2499   2.453   2.179   1.262  0.1223  0.5676  0.1990
  160TMC2    O5 2500   2.295   2.071   1.135 -0.0613 -0.1940  0.1692
  160TMC2    H5 2501   2.203   2.089   1.104 -0.0353  0.0284  0.2262
  161MPD2     C 2502   1.947   2.562   0.636 -0.2068  0.2148 -0.8417
  161MPD2    C1 2503   1.936   2.586   0.771  0.2389  0.1330 -0.3083
  161MPD2    C2 2504   1.835   2.667   0.821  0.1615  0.6889 -0.3016
  161MPD2    C3 2505   1.739   2.717   0.738  0.0274  0.2960 -0.4505
  161MPD2    C4 2506   1.752   2.695   0.599  0.4694  0.6262  0.1833
  161MPD2    C5 2507   1.857   2.621   0.557  0.5167  0.3117  0.2101
  161MPD2     H 2508   1.833   2.681   0.929  1.6391 -0.2092 -0.1419
  161MPD2    H1 2509   1.678   2.728   0.527 -0.5727  1.2260  1.5241
  161MPD2    H2 2510   2.036   2.520   0.590 -0.0583  0.8909 -1.1691
  161MPD2    H3 2511   1.871   2.611   0.450  0.5460  1.6689  0.0910
  161MPD2     N 2512   1.625   2.780   0.788  0.6228  0.0752  0.2153
  161MPD2    H5 2513   1.568   2.821   0.715  0.8697  0.3141  0.1573
  161MPD2    N1 2514   2.017   2.522   0.874  0.4390 -0.5059 -0.0282
  161MPD2    H7 2515   2.000   2.545   0.972 -0.2200  0.2613 -0.3317
  162TMC2    C1 2516   4.332   0.192   0.622 -0.6612 -0.3171  0.1178
  162TMC2    C2 2517   4.201   0.196   0.571  0.3766  1.3930  0.1498
  162TMC2    C3 2518   4.113   0.260   0.654  0.4009  0.6835 -0.5923
  162TMC2    C4 2519   4.364   0.233   0.746  0.4474 -0.5391 -0.5432
  162TMC2    C5 2520   4.260   0.275   0.826  1.1116 -0.2540 -0.2366
  162TMC2    C6 2521   4.131   0.289   0.789  0.2316  0.4496 -0.5415
  162TMC2     C 2522   4.429   0.118   0.544  0.2525  0.3282 -0.3597
  162TMC2     O 2523   4.526   0.071   0.596  0.0832  0.1346  0.3345
  162TMC2     H 2524   4.184   0.185   0.465  1.5195 -0.5724  0.1763
  162TMC2    H1 2525   4.469   0.234   0.772  0.7581 -0.6321 -1.8116
  162TMC2    H2 2526   4.059   0.330   0.860  0.0169 -0.0488 -0.4684
  162TMC2    C7 2527   4.282   0.301   0.969  0.6266 -0.2475  0.9782
  162TMC2    C8 2528   3.990   0.312   0.593  0.4735  0.1122 -0.1998
  162TMC2    O1 2529   4.217   0.387   1.029  1.0461 -0.0147  0.1038
  162TMC2    O2 2530   3.927   0.406   0.645  0.1391  0.9917  0.0338
  162TMC2    O5 2531   3.944   0.237   0.487  0.3547 -0.6474  0.1123
  162TMC2    H5 2532   3.999   0.159   0.462  1.4991  0.2413 -0.1435
  163MPD2     C 2533   4.623   4.710   0.096  0.7939 -0.2632  0.3049
  163MPD2    C1 2534   4.646   4.651   0.221 -0.5255  0.0681  0.8275
  163MPD2    C2 2535   4.584   4.722   0.326 -0.4102 -0.5683 -0.4851
  163MPD2    C3 2536   4.493   0.086   0.312  0.8823  0.7019 -0.4153
  163MPD2    C4 2537   4.476   0.137   0.184  0.3895  0.2558  0.2102
  163MPD2    C5 2538   4.550   0.079   0.083 -0.0468 -0.6974  0.3134
  163MPD2     H 2539   4.588   4.676   0.424 -0.3986  0.5141  0.0228
  163MPD2    H1 2540   4.403   0.212   0.154 -1.1954 -0.4497  2.2982
  163MPD2    H2 2541   4.679   4.680   0.008  2.2850  0.6616  0.9409
  163MPD2    H3 2542   4.533   0.122  17.732  2.0890 -2.0359 -0.6368
  163MPD2     N 2543   4.405   0.136   0.411 -0.1942 -0.1155  0.3361
  163MPD2    H5 2544   4.335   0.207   0.393  1.3034  1.5015  0.9195
  163MPD2    N1 2545   0.001   4.549   0.226 -0.1455 -0.2022 -1.2851
  163MPD2    H7 2546   0.041   4.508   0.142  3.4457  1.2778 -0.3204
  164TMC2    C1 2547   1.271   0.458  10.578  0.3290  1.0125  0.0813
  164TMC2    C2 2548   1.384   0.506  10.637 -0.5087  0.4410 -0.2502
  164TMC2    C3 2549   1.393   0.506  10.770 -0.2760 -0.7760  0.5129
  164TMC2    C4 2550   1.172   0.397  10.649  0.0345  0.6846  0.3198
  164TMC2    C5 2551   1.174   0.409  10.787 -0.6773  0.6360 -0.5431
  164TMC2    C6 2552   1.286   0.468  10.845 -0.1137  0.2385  0.5612
  164TMC2     C 2553   1.262   0.439  10.440  0.2286  0.2144 -0.0232
  164TMC2     O 2554   1.175   0.364  10.406 -0.2902 -0.3655  0.6993
  164TMC2     H 2555   1.457   0.565  10.583  0.3102 -0.0582  0.3063
  164TMC2    H1 2556   1.076   0.363  10.612  0.4720  1.3584 -1.4749
  164TMC2    H2 2557   1.305   0.449  10.951  0.3254  2.4873  0.8941
  164TMC2    C7 2558   1.055   0.367  10.862  0.3140  0.5387  0.6380
  164TMC2    C8 2559   1.480   0.607  10.824 -0.2433  0.8069 -0.2192
  164TMC2    O1 2560   0.973   0.290  10.811 -0.1071 -0.1495  0.3104
  164TMC2    O2 2561   1.463   0.724  10.789 -0.8657 -0.2327 -0.2213
  164TMC2    O5 2562   1.504   0.569  10.952  0.0369  0.0653  0.5782
  164TMC2    H5 2563   1.504   0.473  10.974  1.3112  0.2419  1.3860
  165TMC2    C1 2564   1.551   2.001   0.507  0.1357 -0.0509  0.1237
  165TMC2    C2 2565   1.590   2.063   0.390 -0.6565  0.4679  0.2783
  165TMC2    C3 2566   1.699   2.021   0.321  0.4311 -0.2564 -0.2647
  165TMC2    C4 2567   1.610   1.888   0.551  0.0377 -0.2916  0.5408
  165TMC2    C5 2568   1.716   1.845   0.483  0.3393  0.2331  1.2247
  165TMC2    C6 2569   1.770   1.910   0.370  0.0286 -0.2791 -0.7889
  165TMC2     C 2570   1.431   2.047   0.575  0.4307 -0.2745 -0.0644
  165TMC2     O 2571   1.371   2.141   0.529 -0.1151 -0.1032  0.1024
  165TMC2     H 2572   1.542   2.159   0.373  0.5442  0.5693 -2.6464
  165TMC2    H1 2573   1.577   1.838   0.641  0.6661 -1.4974  0.1055
  165TMC2    H2 2574   1.864   1.876   0.327  0.4234 -0.6504  0.3870
  165TMC2    C7 2575   1.789   1.734   0.532  0.3348  0.4152  0.0402
  165TMC2    C8 2576   1.715   2.079   0.188  0.0311  0.1652  0.3531
  165TMC2    O1 2577   1.909   1.724   0.514 -0.6438 -0.4716  0.0693
  165TMC2    O2 2578   1.797   2.168   0.165 -0.0429 -0.1139  0.3675
  165TMC2    O5 2579   1.708   1.962   0.123  0.4101 -0.0512 -0.1974
  165TMC2    H5 2580   1.633   1.905   0.151  1.6016 -1.3837  0.2368
  166MPD2     C 2581   1.204   2.141   1.035 -0.5039  0.4074 -0.6615
  166MPD2    C1 2582   1.157   2.160   0.906  0.5744  0.5011  0.9180
  166MPD2    C2 2583   1.229   2.123   0.792  0.4400  0.2967 -0.4970
  166MPD2    C3 2584   1.349   2.053   0.810 -0.5562  0.5945  0.4416
  166MPD2    C4 2585   1.388   2.021   0.937  0.0551  0.6131  0.4688
  166MPD2    C5 2586   1.322   2.070   1.045 -0.4484 -0.1800  0.6182
  166MPD2     H 2587   1.197   2.150   0.692  0.2421 -2.3769 -1.1536
  166MPD2    H1 2588   1.474   1.959   0.959  0.7290  1.7413  0.9736
  166MPD2    H2 2589   1.158   2.182   1.124 -0.0562 -1.3624  0.3808
  166MPD2    H3 2590   1.353   2.039   1.144  0.0800  0.9869  0.8057
  166MPD2     N 2591   1.438   2.015   0.708 -0.0216  0.0265 -0.4065
  166MPD2    H5 2592   1.511   1.953   0.741  0.1543  0.4589  0.0121
  166MPD2    N1 2593   1.036   2.224   0.900  0.3166  0.4552  0.0658
  166MPD2    H7 2594   1.002   2.252   0.991 -1.7326 -0.0882 -0.5272
  167TMC2    C1 2595   0.278   4.236  12.974 -0.0728 -0.2421 -0.1195
  167TMC2    C2 2596   0.203   4.254  13.082 -0.4111  0.3383  0.4622
  167TMC2    C3 2597   0.146   4.154  13.149 -0.1143  0.4850  1.2502
  167TMC2    C4 2598   0.290   4.105  12.932  0.1430  0.1129  0.0869
  167TMC2    C5 2599   0.226   4.005  12.996  0.1511  0.1227 -0.3761
  167TMC2    C6 2600   0.145   4.026  13.103 -0.0961 -0.5027 -0.1873
  167TMC2     C 2601   0.320   4.349  12.892 -0.3182  0.2421  0.8149
  167TMC2     O 2602   0.289   4.459  12.942  0.0298 -0.3895  0.4229
  167TMC2     H 2603   0.207   4.353  13.127  1.1018  0.2700  0.4928
  167TMC2    H1 2604   0.341   4.080  12.839  0.3478  0.7890  0.0120
  167TMC2    H2 2605   0.092   3.944  13.150  0.4818 -0.1623  1.0530
  167TMC2    C7 2606   0.242   3.862  12.954  0.1470 -0.1349 -0.2675
  167TMC2    C8 2607   0.105   4.180  13.287 -0.2565 -0.2798 -0.4269
  167TMC2    O1 2608   0.140   3.797  12.976 -0.0139 -0.2177  0.3418
  167TMC2    O2 2609   0.094   4.085  13.366 -0.0726 -0.2726 -0.3575
  167TMC2    O5 2610   0.069   4.307  13.311  0.0471 -0.2807  0.5363
  167TMC2    H5 2611   0.080   4.362  13.231 -1.1388  0.1895  0.6996
  168MPD2     C 2612   0.335   4.532  12.659  0.7202  0.0820  1.4102
  168MPD2    C1 2613   0.383   4.407  12.656 -0.2514  1.2813  0.3718
  168MPD2    C2 2614   0.424   4.350  12.541 -0.1900  0.0103  0.1974
  168MPD2    C3 2615   0.419   4.407  12.422  0.2075 -0.5054  0.0472
  168MPD2    C4 2616   0.366   4.536  12.412  0.3385 -0.9928  0.2122
  168MPD2    C5 2617   0.332   4.591  12.536 -0.2308  0.2382  1.4676
  168MPD2     H 2618   0.458   4.247  12.542 -0.6748 -0.1351  1.8283
  168MPD2    H1 2619   0.354   4.598  12.324 -0.5848 -1.3614  0.0752
  168MPD2    H2 2620   0.286   4.581  12.743  0.5226  0.6466  0.9675
  168MPD2    H3 2621   0.285   4.688  12.526 -1.9343 -0.9765 -2.3452
  168MPD2     N 2622   0.468   4.332  12.310  0.2772  0.2777  0.1987
  168MPD2    H5 2623   0.518   4.247  12.333 -0.2696 -0.8292 -2.7528
  168MPD2    N1 2624   0.380   4.322  12.765  0.2875 -0.1239  0.2354
  168MPD2    H7 2625   0.422   4.231  12.750 -1.9444 -1.0482 -0.3789
  169MPD1     C 2626   3.747   0.175   9.939  0.5131  0.4061 -0.1062
  169MPD1    C1 2627   3.744   0.120  10.066 -0.7437  0.0614 -0.0416
  169MPD1    C2 2628   3.674   0.007  10.089  0.0808  0.0113  0.1333
  169MPD1    C3 2629   3.585   4.701   9.990 -0.1517  0.0625  0.6254
  169MPD1    C4 2630   3.578   0.030   9.869 -0.3623  0.4046 -0.3044
  169MPD1    C5 2631   3.662   0.132   9.846 -0.3870  0.0254 -0.5850
  169MPD1     H 2632   3.679   4.681  10.177 -0.1293  0.4785  0.4855
  169MPD1    H1 2633   3.490   0.018   9.807  0.1901  0.4616 -1.1026
  169MPD1    H2 2634   3.814   0.254   9.908  2.3272 -1.7368 -1.6633
  169MPD1    H3 2635   3.650   0.181   9.749 -1.3980  0.5618 -0.1960
  169MPD1     N 2636   3.512   4.585  10.023  0.1433  0.6668 -0.8151
  169MPD1    H5 2637   3.553   4.530  10.098 -1.0536  1.5132  0.4629
  169MPD1    N1 2638   3.829   0.174  10.162 -0.7739  0.4644 -0.3852
  169MPD1    H6 2639   3.858   0.270  10.146  1.1261 -0.1196 -0.5366
  169MPD1    H7 2640   3.778   0.172  10.250 -0.1669  0.5596 -0.0319
  170MPD1     C 2641   1.868   1.451  13.072  0.5029  0.0157 -0.5791
  170MPD1    C1 2642   1.883   1.368  13.182 -0.0548  0.5612 -0.8531
  170MPD1    C2 2643   1.822   1.410  13.297 -1.3762 -0.0291 -0.8637
  170MPD1    C3 2644   1.736   1.519  13.299 -0.2571 -0.3653  0.1942
  170MPD1    C4 2645   1.717   1.591  13.180  0.0233  0.4207  0.1218
  170MPD1    C5 2646   1.776   1.554  13.065  0.2442  0.2437 -0.3293
  170MPD1     H 2647   1.837   1.348  13.385  0.0072  1.2271 -0.2127
  170MPD1    H1 2648   1.637   1.664  13.180  0.2657  0.6823 -0.8044
  170MPD1    H2 2649   1.911   1.429  12.975 -0.9214  0.0392 -1.2241
  170MPD1    H3 2650   1.760   1.596  12.967  0.4420  1.2411  0.0674
  170MPD1     N 2651   1.655   1.545  13.408 -0.6663  0.0117 -0.2500
  170MPD1    H5 2652   1.575   1.607  13.395 -1.1826 -0.5431  0.2886
  170MPD1    N1 2653   1.972   1.267  13.174  0.3209 -0.2494 -0.2401
  170MPD1    H6 2654   1.969   1.220  13.084  0.4262 -1.6437  0.4858
  170MPD1    H7 2655   1.952   1.192  13.240 -1.3219 -0.0816 -0.5447
  171MPD1     C 2656   4.621   2.494  15.267  0.0526 -0.0550 -0.4646
  171MPD1    C1 2657   4.715   2.409  15.198  0.3816 -0.2097  0.2342
  171MPD1    C2 2658   0.083   2.354  15.269 -0.5302 -0.1416 -0.0973
  171MPD1    C3 2659   0.102   2.380  15.405  0.1593 -0.3689  0.2042
  171MPD1    C4 2660   0.011   2.458  15.467 -1.0593  0.3871  0.2345
  171MPD1    C5 2661   4.639   2.510  15.402 -0.2824  0.6028 -0.9524
  171MPD1     H 2662   0.153   2.284  15.224 -1.0650  0.5487 -2.0060
  171MPD1    H1 2663   0.020   2.482  15.573 -2.3670  0.3376  0.3618
  171MPD1    H2 2664   4.530   2.541  15.231  0.5431  1.1756 -0.1177
  171MPD1    H3 2665   4.574   2.567  15.468  1.1870  0.5661  0.5278
  171MPD1     N 2666   0.206   2.328  15.489  0.3745  0.2881 -0.2047
  171MPD1    H5 2667   0.212   2.377  15.578  1.7485  0.9200 -0.6508
  171MPD1    N1 2668   4.691   2.364  15.066 -0.4895  0.1640 -0.2915
  171MPD1    H6 2669   0.030   2.393  15.005  0.6594 -0.8760  0.6644
  171MPD1    H7 2670   4.609   2.410  15.027 -0.2851 -1.2448 -2.3723
  172MPD1     C 2671   3.522   1.204  17.736 -0.4854  0.3305  0.6003
  172MPD1    C1 2672   3.510   1.287   0.099 -0.0844  0.2779 -0.2993
  172MPD1    C2 2673   3.624   1.321   0.170 -0.3409 -0.3946  0.4475
  172MPD1    C3 2674   3.746   1.266   0.142  0.1128  0.1294  0.6007
  172MPD1    C4 2675   3.754   1.187   0.027 -0.1001 -0.1229  0.4978
  172MPD1    C5 2676   3.645   1.157  17.703  0.3292 -0.2785  0.1321
  172MPD1     H 2677   3.610   1.398   0.244 -0.6034  0.3820 -0.4156
  172MPD1    H1 2678   3.853   1.155  17.745 -1.1524  0.3308 -3.6735
  172MPD1    H2 2679   3.444   1.168  17.670  1.2341 -1.5899 -0.3663
  172MPD1    H3 2680   3.643   1.084  17.623 -0.7273  1.8602 -1.7696
  172MPD1     N 2681   3.872   1.304   0.199  0.7485 -0.4674  0.2946
  172MPD1    H5 2682   3.956   1.259   0.165  1.4976 -0.0806  1.6386
  172MPD1    N1 2683   3.388   1.356   0.115  0.3943 -0.6388  0.6002
  172MPD1    H6 2684   3.305   1.320   0.069 -1.4141  2.9536  1.1191
  172MPD1    H7 2685   3.375   1.366   0.216 -0.2794  0.6200  0.3745
  173MPD1     C 2686   0.120   2.085  14.131 -1.1306 -0.1415 -0.1484
  173MPD1    C1 2687   0.241   2.050  14.181  0.6644 -0.2866  0.1519
  173MPD1    C2 2688   0.249   1.918  14.223 -0.3899 -0.2839 -0.1013
  173MPD1    C3 2689   0.147   1.826  14.213 -0.6371  0.1689  0.4760
  173MPD1    C4 2690   0.036   1.857  14.143  0.2110  0.1188  0.3495
  173MPD1    C5 2691   0.027   1.990  14.104 -0.5036 -0.3160 -0.1797
  173MPD1     H 2692   0.345   1.887  14.261 -0.1054 -2.4326 -2.5712
  173MPD1    H1 2693   4.704   1.778  14.117  1.1064 -0.9463  1.2132
  173MPD1    H2 2694   0.094   2.188  14.108  1.5084  0.2881 -1.2156
  173MPD1    H3 2695   4.671   2.016  14.055  0.7007  2.8337 -0.7565
  173MPD1     N 2696   0.180   1.690  14.256 -0.5201  0.2287 -0.8498
  173MPD1    H5 2697   0.261   1.679  14.317 -0.7576 -2.3706 -0.9889
  173MPD1    N1 2698   0.329   2.155  14.214 -0.7839  0.6690  0.0720
  173MPD1    H6 2699   0.424   2.120  14.205 -0.1576  1.7850  2.2718
  173MPD1    H7 2700   0.313   2.236  14.156  1.9400 -0.2183 -1.8915
  174MPD1     C 2701   4.597   0.671  14.515 -0.7569 -0.5237 -0.0799
  174MPD1    C1 2702   4.555   0.745  14.403  0.4422  0.0728 -0.7769
  174MPD1    C2 2703   4.629   0.854  14.369  0.5827  0.0794 -0.5613
  174MPD1    C3 2704   4.733   0.902  14.446  0.1580  1.1209  0.0606
  174MPD1    C4 2705   0.032   0.827  14.558  0.1087  0.2421 -0.1963
  174MPD1    C5 2706   4.697   0.719  14.593  0.2062  0.5869  1.1116
  174MPD1     H 2707   4.596   0.899  14.276  0.9019  3.5320  0.9869
  174MPD1    H1 2708   0.114   0.861  14.619  0.2183  1.7307 -1.1577
  174MPD1    H2 2709   4.543   0.580  14.538  0.1405 -1.2423 -0.8055
  174MPD1    H3 2710   4.727   0.666  14.682  1.8969 -2.1316 -1.0634
  174MPD1     N 2711   0.064   1.028  14.432  0.3629  0.8735 -0.4259
  174MPD1    H5 2712   0.128   1.055  14.506 -0.4496  1.0311  0.2202
  174MPD1    N1 2713   4.461   0.684  14.318  0.2478 -0.3575 -0.3246
  174MPD1    H6 2714   4.416   0.754  14.258  0.2531 -1.0239 -1.1090
  174MPD1    H7 2715   4.384   0.649  14.375 -0.6164 -0.2874 -1.4447
  175MPD1     C 2716   3.743   2.648  15.484 -0.3762  0.6650 -0.6497
  175MPD1    C1 2717   3.809   2.534  15.500 -0.0876 -0.6640 -0.3210
  175MPD1    C2 2718   3.805   2.472  15.618 -0.8088  0.3330 -0.5020
  175MPD1    C3 2719   3.730   2.529  15.725  0.5308 -0.4219 -0.2246
  175MPD1    C4 2720   3.669   2.648  15.706  0.1015  0.3526 -0.4407
  175MPD1    C5 2721   3.671   2.705  15.583  0.0929  0.4689 -0.2842
  175MPD1     H 2722   3.834   2.368  15.630  1.4963  1.1059  0.7773
  175MPD1    H1 2723   3.614   2.698  15.786 -0.5191 -0.7584 -0.1802
  175MPD1    H2 2724   3.742   2.696  15.387 -1.7655 -1.6998 -1.8043
  175MPD1    H3 2725   3.618   2.797  15.561  0.2531  0.8119  0.7379
  175MPD1     N 2726   3.712   2.459  15.847  0.5000  0.0563  0.4405
  175MPD1    H5 2727   3.646   2.503  15.911 -1.3837 -1.4213 -0.4922
  175MPD1    N1 2728   3.847   2.463  15.380 -0.3358  0.0700  0.3729
  175MPD1    H6 2729   3.922   2.397  15.398 -0.6770  0.1845  2.2424
  175MPD1    H7 2730   3.868   2.518  15.297 -2.3684  2.0636  1.1843
  176MPD1     C 2731   0.653   4.118  17.327  0.1373  0.7251 -0.4230
  176MPD1    C1 2732   0.652   4.226  17.238  0.1671  0.1345 -0.1226
  176MPD1    C2 2733   0.590   4.340  17.279  0.3408  0.1797  0.3736
  176MPD1    C3 2734   0.528   4.358  17.404 -0.4685 -0.0928 -0.5757
  176MPD1    C4 2735   0.538   4.245  17.488 -0.2107 -0.1366 -0.1747
  176MPD1    C5 2736   0.599   4.129  17.452 -0.5229 -0.3672  0.0817
  176MPD1     H 2737   0.588   4.427  17.215  1.4307 -0.7194 -0.8881
  176MPD1    H1 2738   0.494   4.253  17.587 -0.1551 -1.0352 -0.0842
  176MPD1    H2 2739   0.679   4.018  17.295 -0.7607  0.2359  0.3330
  176MPD1    H3 2740   0.583   4.039  17.511  0.0303 -0.2330  0.4373
  176MPD1     N 2741   0.455   4.477  17.437  0.1620  0.1729  0.1359
  176MPD1    H5 2742   0.466   4.567  17.391  3.4986  0.3117  1.1901
  176MPD1    N1 2743   0.698   4.221  17.104  0.0914 -0.4987  0.2645
  176MPD1    H6 2744   0.729   4.130  17.070 -1.4778  0.0630 -2.7365
  176MPD1    H7 2745   0.630   4.264  17.042  1.1373 -0.6640 -1.0046
  177MPD1     C 2746   3.925   0.680  10.473 -1.0754 -0.2293 -0.1926
  177MPD1    C1 2747   3.888   0.566  10.535 -0.0352 -0.4375 -0.3256
  177MPD1    C2 2748   3.798   0.483  10.475  0.6250 -0.0497  0.5093
  177MPD1    C3 2749   3.746   0.509  10.349  0.1877  0.0810  0.2293
  177MPD1    C4 2750   3.791   0.619  10.286  0.3961  0.2622 -0.5034
  177MPD1    C5 2751   3.877   0.708  10.348  0.2986 -0.1072 -0.2573
  177MPD1     H 2752   3.765   0.391  10.522 -0.9320 -0.8523 -2.1503
  177MPD1    H1 2753   3.764   0.652  10.187 -2.0918  1.0171  0.4175
  177MPD1    H2 2754   3.997   0.742  10.526  1.8309 -0.7263 -3.5561
  177MPD1    H3 2755   3.893   0.808  10.309 -1.1000 -0.0993 -0.7995
  177MPD1     N 2756   3.652   0.420  10.298  0.1859 -0.0059 -0.4858
  177MPD1    H5 2757   3.625   0.346  10.361  0.4379 -0.5940 -1.0719
  177MPD1    N1 2758   3.930   0.539  10.666 -0.1770 -0.1590 -0.9731
  177MPD1    H6 2759   4.022   0.579  10.684 -0.7132  0.4589  0.4082
  177MPD1    H7 2760   3.935   0.438  10.676 -2.1515 -0.3208 -1.6169
  178MPD1     C 2761   0.883   0.463   0.243 -0.8041  0.7398  0.6683
  178MPD1    C1 2762   1.014   0.419   0.274 -0.2500 -0.2754  1.4061
  178MPD1    C2 2763   1.119   0.465   0.196  0.2077 -0.0394 -0.5424
  178MPD1    C3 2764   1.100   0.554   0.090 -0.3463 -0.4802  0.2108
  178MPD1    C4 2765   0.973   0.603   0.065 -0.1121 -0.1740 -0.1253
  178MPD1    C5 2766   0.870   0.554   0.142  0.9808  0.3183  0.1569
  178MPD1     H 2767   1.218   0.426   0.215 -0.8354 -1.9407  0.9495
  178MPD1    H1 2768   0.954   0.689   0.002  0.2992  0.4565  0.6134
  178MPD1    H2 2769   0.796   0.435   0.302 -1.0971  0.0464 -0.1032
  178MPD1    H3 2770   0.775   0.604   0.128  0.0410 -1.0863  1.5439
  178MPD1     N 2771   1.201   0.594   0.001 -0.3525 -0.9689  0.0331
  178MPD1    H5 2772   1.173   0.658  17.674  3.8148  0.5219 -0.2319
  178MPD1    N1 2773   1.030   0.326   0.377  0.7377 -0.0190 -0.3275
  178MPD1    H6 2774   0.960   0.353   0.446  0.5416  0.0855 -0.5704
  178MPD1    H7 2775   1.123   0.304   0.413  1.2870  2.0731 -0.4532
  179MPD1     C 2776   1.365   3.860  15.794 -0.7298  0.1965 -0.5536
  179MPD1    C1 2777   1.342   3.819  15.663 -0.5811  0.3805  0.1539
  179MPD1    C2 2778   1.292   3.694  15.638  0.3495  0.3977 -0.1722
  179MPD1    C3 2779   1.255   3.610  15.742  0.0014 -0.1802  0.0941
  179MPD1    C4 2780   1.278   3.652  15.872  0.7612  0.4214 -0.3049
  179MPD1    C5 2781   1.329   3.778  15.899  0.2973 -0.3536 -0.1302
  179MPD1     H 2782   1.268   3.661  15.537  1.2590 -2.8137  0.6454
  179MPD1    H1 2783   1.258   3.592  15.960 -0.1849  0.3503 -0.5714
  179MPD1    H2 2784   1.398   3.959  15.822 -0.6166 -0.4943  1.7146
  179MPD1    H3 2785   1.345   3.798  16.004 -3.1695  0.1945  0.2953
  179MPD1     N 2786   1.198   3.482  15.726 -0.5542 -0.1925  0.0589
  179MPD1    H5 2787   1.193   3.429  15.813 -2.6009  1.2751  0.8392
  179MPD1    N1 2788   1.403   3.898  15.561  0.0843 -0.0544 -0.5131
  179MPD1    H6 2789   1.357   3.893  15.470  0.3771 -0.5983 -0.6366
  179MPD1    H7 2790   1.403   3.997  15.580 -1.1472  0.0836 -1.2134
  180MPD1     C 2791   0.743   0.045  15.301  0.1093 -0.1970  0.1728
  180MPD1    C1 2792   0.860   0.013  15.235  0.1527 -0.5794  0.0677
  180MPD1    C2 2793   0.861   4.732  15.095 -0.7581  0.4514  0.1984
  180MPD1    C3 2794   0.748   0.019  15.017  1.1069 -0.4450 -0.0470
  180MPD1    C4 2795   0.638   0.059  15.087  0.4373 -0.9977  0.7944
  180MPD1    C5 2796   0.629   0.062  15.224 -0.2091 -0.2363 -0.1873
  180MPD1     H 2797   0.963   4.724  15.056 -1.8438  1.6900 -2.9167
  180MPD1    H1 2798   0.548   0.076  15.029  0.0437  0.3123  1.7890
  180MPD1    H2 2799   0.742   0.079  15.403  0.1555 -1.2824  0.5415
  180MPD1    H3 2800   0.537   0.086  15.276 -0.2204 -2.6996  0.9150
  180MPD1     N 2801   0.756   4.725  14.876  0.4035 -0.8966  0.1575
  180MPD1    H5 2802   0.842   4.692  14.833  0.8398  0.2295  0.1686
  180MPD1    N1 2803   0.978   0.011  15.312 -0.0120  0.0574 -0.1924
  180MPD1    H6 2804   1.063   4.709  15.271  1.6970  3.4350  0.1099
  180MPD1    H7 2805   0.956   4.715  15.406  1.7273  0.2368  0.2742
  181MPD1     C 2806   1.748   2.550  10.191 -0.3187 -0.5110 -0.1592
  181MPD1    C1 2807   1.800   2.667  10.149 -0.0992  0.2317 -0.5406
  181MPD1    C2 2808   1.901   2.734  10.215 -0.6682 -0.3084  0.5829
  181MPD1    C3 2809   1.933   2.682  10.335 -0.3239  0.1017 -0.9508
  181MPD1    C4 2810   1.881   2.563  10.379  0.5935 -0.3949 -0.3548
  181MPD1    C5 2811   1.790   2.492  10.308 -0.4866  0.1923 -0.3159
  181MPD1     H 2812   1.939   2.825  10.171  1.3797  0.0829  3.1757
  181MPD1    H1 2813   1.923   2.522  10.471  1.2648 -1.3622 -1.0996
  181MPD1    H2 2814   1.670   2.496  10.139  1.7926 -4.6055  0.8294
  181MPD1    H3 2815   1.739   2.399  10.331 -2.4069  1.1139 -0.8579
  181MPD1     N 2816   2.038   2.739  10.410 -0.7118 -0.0038 -0.3552
  181MPD1    H5 2817   2.083   2.683  10.482  0.0524 -0.6558 -1.3398
  181MPD1    N1 2818   1.773   2.710  10.021  0.3934 -0.4091  0.0315
  181MPD1    H6 2819   1.676   2.694   9.995  0.8570 -3.1364  0.0336
  181MPD1    H7 2820   1.789   2.809  10.005  0.1320 -0.3114  0.3683
  182MPD1     C 2821   2.492   0.414   0.494 -0.2588 -0.6974  0.4085
  182MPD1    C1 2822   2.426   0.533   0.507  0.4589 -0.3845  0.7248
  182MPD1    C2 2823   2.423   0.619   0.405 -0.6111  0.1609 -0.8716
  182MPD1    C3 2824   2.489   0.596   0.286 -0.1659 -0.0723 -0.0899
  182MPD1    C4 2825   2.553   0.478   0.268  0.2302 -0.4168  0.2403
  182MPD1    C5 2826   2.543   0.385   0.366 -0.9886 -0.5844 -0.4260
  182MPD1     H 2827   2.377   0.716   0.418 -1.5699 -0.9578  4.1870
  182MPD1    H1 2828   2.610   0.456   0.178  0.6305 -1.3505  0.7270
  182MPD1    H2 2829   2.492   0.342   0.576  3.2994  0.7658  1.7119
  182MPD1    H3 2830   2.586   0.288   0.343  0.3775  0.1294 -0.9228
  182MPD1     N 2831   2.489   0.684   0.172  0.0904  0.8958 -0.5284
  182MPD1    H5 2832   2.532   0.643   0.090 -0.1461  0.0828 -0.2531
  182MPD1    N1 2833   2.345   0.554   0.617 -0.2816  0.5525  0.3353
  182MPD1    H6 2834   2.251   0.518   0.604  0.5805 -1.7054  0.3838
  182MPD1    H7 2835   2.381   0.512   0.702 -1.0905  2.8475  1.8003
  183MPD1     C 2836   2.767   2.171  10.180 -0.1918 -0.1010 -0.5849
  183MPD1    C1 2837   2.775   2.311  10.180  0.2932 -0.4703 -0.0634
  183MPD1    C2 2838   2.861   2.375  10.101  0.0782  0.1328 -0.1824
  183MPD1    C3 2839   2.962   2.298  10.032 -0.1888  0.2044 -0.2884
  183MPD1    C4 2840   2.952   2.163  10.041 -0.0400 -0.2278 -0.2362
  183MPD1    C5 2841   2.856   2.098  10.108  1.0883  0.3783  0.0648
  183MPD1     H 2842   2.860   2.483  10.096  2.3197  0.1143 -1.3598
  183MPD1    H1 2843   3.019   2.100   9.982 -0.3817 -2.7895  2.1223
  183MPD1    H2 2844   2.691   2.129  10.244 -0.1627 -1.5014 -1.4688
  183MPD1    H3 2845   2.865   1.991  10.123  1.3030  0.4136  0.1875
  183MPD1     N 2846   3.071   2.361   9.969  0.1348 -0.2819  0.0213
  183MPD1    H5 2847   3.069   2.461   9.948  0.1007 -0.5257 -1.1381
  183MPD1    N1 2848   2.667   2.386  10.235  0.6933 -0.0762 -0.1541
  183MPD1    H6 2849   2.709   2.471  10.271 -0.0367 -0.0078  0.5339
  183MPD1    H7 2850   2.630   2.348  10.322 -0.3316  2.1614  0.3831
  184MPD1     C 2851   2.399   1.350  10.046 -0.5356  0.1243  0.2573
  184MPD1    C1 2852   2.323   1.267   9.970  0.7336 -0.8868  0.1701
  184MPD1    C2 2853   2.373   1.146   9.935 -0.2342  0.6855 -1.1974
  184MPD1    C3 2854   2.492   1.096   9.986  1.0280  0.2405  0.2546
  184MPD1    C4 2855   2.568   1.178  10.065  0.0730  0.3294  0.6489
  184MPD1    C5 2856   2.515   1.299  10.106 -0.4190 -0.5126  0.0248
  184MPD1     H 2857   2.313   1.091   9.863  0.2451 -2.1390  0.5552
  184MPD1    H1 2858   2.666   1.145  10.098 -1.2596  0.8165  5.1801
  184MPD1    H2 2859   2.367   1.453  10.060  0.4215  0.6673 -1.6719
  184MPD1    H3 2860   2.577   1.358  10.173  1.6208 -1.3968 -1.0636
  184MPD1     N 2861   2.547   0.969   9.944 -0.3720 -0.0907 -0.4645
  184MPD1    H5 2862   2.642   0.951   9.974 -0.5072 -0.3244 -0.1736
  184MPD1    N1 2863   2.206   1.320   9.908  0.3381  0.4521  0.3317
  184MPD1    H6 2864   2.149   1.382   9.965  0.1750 -0.2867  0.9741
  184MPD1    H7 2865   2.146   1.241   9.886  0.6512 -0.3186  2.2337
  185MPD1     C 2866   2.618   4.654  10.093 -0.0163 -0.0466 -0.4346
  185MPD1    C1 2867   2.495   4.694  10.045 -0.5059  0.6438  0.6206
  185MPD1    C2 2868   2.494   0.086   9.995 -0.1087  0.5209 -0.2191
  185MPD1    C3 2869   2.595   0.180  10.028  0.2996 -0.6382 -0.1846
  185MPD1    C4 2870   2.707   0.141  10.093 -0.0055  0.3192  0.3489
  185MPD1    C5 2871   2.716   0.008  10.124 -0.6738  0.5109  0.7836
  185MPD1     H 2872   2.399   0.121   9.957 -0.5699 -0.3131  0.1555
  185MPD1    H1 2873   2.786   0.208  10.127 -0.4097 -0.0154  1.9815
  185MPD1    H2 2874   2.644   4.550  10.110  0.9925  0.7373  2.9295
  185MPD1    H3 2875   2.796   4.711  10.189  0.9737  3.0843  0.0995
  185MPD1     N 2876   2.592   0.318   9.995  0.1044  0.2464  0.7808
  185MPD1    H5 2877   2.676   0.370  10.017  0.2838  1.1014 -1.9231
  185MPD1    N1 2878   2.392   4.602  10.017  0.8207  0.2566  0.1702
  185MPD1    H6 2879   2.385   4.525  10.084 -0.5386  1.0298  0.9085
  185MPD1    H7 2880   2.310   4.661  10.031 -1.4482 -3.0357  0.9521
  186MPD1     C 2881   1.611   3.341  15.959 -0.9463 -0.1296  0.0913
  186MPD1    C1 2882   1.600   3.465  15.906  0.1773  0.8423  0.1662
  186MPD1    C2 2883   1.608   3.570  15.991 -0.6523 -0.2726  0.5350
  186MPD1    C3 2884   1.619   3.550  16.132  0.2975 -0.1522  0.8278
  186MPD1    C4 2885   1.636   3.425  16.180  0.0370 -0.1468 -0.3667
  186MPD1    C5 2886   1.627   3.320  16.092 -0.0360  0.8470  0.0450
  186MPD1     H 2887   1.596   3.670  15.950 -1.0294  0.0503  1.4300
  186MPD1    H1 2888   1.643   3.404  16.286 -0.6761  0.7281 -0.1406
  186MPD1    H2 2889   1.594   3.257  15.892 -5.0604  3.2254 -3.1587
  186MPD1    H3 2890   1.628   3.219  16.129 -3.0317  0.3589 -1.1715
  186MPD1     N 2891   1.594   3.659  16.227  0.4032  0.2877  0.0497
  186MPD1    H5 2892   1.571   3.634  16.323 -2.8872 -0.7055 -1.0164
  186MPD1    N1 2893   1.593   3.491  15.769  0.0372 -0.0258 -0.1847
  186MPD1    H6 2894   1.564   3.414  15.709 -1.0480  0.3927 -0.2114
  186MPD1    H7 2895   1.541   3.577  15.755 -1.9788 -1.5724 -2.2773
  187MPD1     C 2896   0.103   0.920   0.531  0.9998 -0.4883 -0.4387
  187MPD1    C1 2897   0.017   0.882   0.427 -0.0871  0.9252 -0.2634
  187MPD1    C2 2898   0.067   0.872   0.299 -0.3594  0.3433 -0.3739
  187MPD1    C3 2899   0.193   0.913   0.270  0.6395  0.0718  0.0953
  187MPD1    C4 2900   0.273   0.961   0.368  0.2595  0.3919 -0.0789
  187MPD1    C5 2901   0.230   0.959   0.498 -0.4234 -0.0996 -0.1824
  187MPD1     H 2902   0.008   0.833   0.217  0.0544 -2.6859  0.7787
  187MPD1    H1 2903   0.375   0.986   0.342  0.1664  0.1834 -0.6495
  187MPD1    H2 2904   0.072   0.908   0.635  0.6032  0.3631 -0.4586
  187MPD1    H3 2905   0.300   0.979   0.578  2.0653 -0.3154 -2.2737
  187MPD1     N 2906   0.247   0.904   0.144 -0.0749  0.8189  0.1436
  187MPD1    H5 2907   0.328   0.961   0.122  1.6867 -0.8601  2.3004
  187MPD1    N1 2908   4.618   0.870   0.455  0.1145 -0.0869 -0.1518
  187MPD1    H6 2909   4.608   0.893   0.554 -1.4021 -0.3326 -0.2583
  187MPD1    H7 2910   4.567   0.788   0.426 -1.4631  0.3603  1.3324
  188MPD1     C 2911   0.576   1.111  10.303 -0.7453  0.0525 -0.1575
  188MPD1    C1 2912   0.593   1.049  10.425 -0.1587 -0.3301  0.0006
  188MPD1    C2 2913   0.527   0.924  10.445  0.2921 -0.8666 -0.0667
  188MPD1    C3 2914   0.432   0.875  10.353  0.5805  0.1182 -0.9952
  188MPD1    C4 2915   0.403   0.955  10.243 -0.1173 -0.1878 -0.7138
  188MPD1    C5 2916   0.471   1.076  10.221  0.1309  0.4600 -0.4476
  188MPD1     H 2917   0.544   0.875  10.540  0.9434 -1.7661 -0.6466
  188MPD1    H1 2918   0.329   0.928  10.168 -3.5011  0.1179  2.5121
  188MPD1    H2 2919   0.618   1.209  10.282 -0.3829 -0.1259 -0.2810
  188MPD1    H3 2920   0.451   1.136  10.133 -1.5279  0.8498  0.1926
  188MPD1     N 2921   0.371   0.753  10.356 -0.1033 -0.4622 -0.4182
  188MPD1    H5 2922   0.326   0.724  10.269  1.6069  0.9683 -1.7615
  188MPD1    N1 2923   0.691   1.101  10.509  0.0874 -0.2530 -0.4455
  188MPD1    H6 2924   0.698   1.202  10.498 -0.2899 -0.2822 -0.9684
  188MPD1    H7 2925   0.696   1.070  10.606  2.4035  3.8163  0.7212
  189MPD1     C 2926   2.313   1.963   0.117  0.2798 -0.3198  0.4039
  189MPD1    C1 2927   2.192   1.941   0.182  0.6421  0.7343  0.4912
  189MPD1    C2 2928   2.077   1.988   0.122  0.3934  0.1202  0.1834
  189MPD1    C3 2929   2.081   2.064   0.002 -0.0944  0.0931  0.4063
  189MPD1    C4 2930   2.199   2.102  17.707 -1.2368  0.1919  0.4304
  189MPD1    C5 2931   2.315   2.051   0.011  0.2008  0.3860 -0.1537
  189MPD1     H 2932   1.980   1.985   0.171  0.2973 -1.0691 -0.0642
  189MPD1    H1 2933   2.214   2.170  17.625 -1.7586  0.2665  0.3970
  189MPD1    H2 2934   2.404   1.918   0.156  0.6714  0.2633  0.1566
  189MPD1    H3 2935   2.406   2.072  17.702  0.3074 -3.8126 -1.5492
  189MPD1     N 2936   1.965   2.114  17.692  0.6819  0.2494 -0.1422
  189MPD1    H5 2937   1.880   2.084  17.740  1.0491  0.4637  0.6499
  189MPD1    N1 2938   2.193   1.906   0.311 -0.1655 -0.0325  0.3290
  189MPD1    H6 2939   2.106   1.865   0.344 -0.7350 -0.0026 -1.1543
  189MPD1    H7 2940   2.271   1.845   0.336 -0.4314 -0.4838  0.0533
  190MPD1     C 2941   0.668   0.212  15.759 -0.1585 -0.0697 -0.3215
  190MPD1    C1 2942   0.723   0.144  15.870 -0.0803 -0.0697  0.2245
  190MPD1    C2 2943   0.859   0.153  15.895 -0.6672 -0.5246 -1.2603
  190MPD1    C3 2944   0.942   0.224  15.809 -0.3005  0.5707 -0.6790
  190MPD1    C4 2945   0.884   0.283  15.700 -0.6977 -0.0860  0.6715
  190MPD1    C5 2946   0.746   0.282  15.677 -0.3726 -0.1259  0.1655
  190MPD1     H 2947   0.899   0.102  15.982 -0.5709 -0.3708 -1.2136
  190MPD1    H1 2948   0.943   0.348  15.636  1.4963 -2.3399  0.3771
  190MPD1    H2 2949   0.563   0.208  15.729 -0.4998  0.2604  0.8320
  190MPD1    H3 2950   0.713   0.346  15.596  0.0689 -0.4052 -0.2349
  190MPD1     N 2951   1.076   0.221  15.840  0.0422 -0.3357 -0.4358
  190MPD1    H5 2952   1.101   0.162  15.919 -2.4489  1.8394  1.9668
  190MPD1    N1 2953   0.633   0.070  15.954  0.2801 -0.0231  0.8941
  190MPD1    H6 2954   0.679   0.011  16.022  0.3780 -1.3717 -0.3523
  190MPD1    H7 2955   0.581   0.011  15.890  1.2751 -0.8936  0.9008
  191MPD1     C 2956   0.425   1.475  13.504 -0.4058  0.3813  0.1293
  191MPD1    C1 2957   0.462   1.612  13.491  0.1404 -0.2563 -0.2886
  191MPD1    C2 2958   0.369   1.704  13.441 -0.3623  0.2428 -0.2531
  191MPD1    C3 2959   0.235   1.675  13.449 -0.8115 -0.4736 -0.1389
  191MPD1    C4 2960   0.197   1.547  13.478  0.4380  0.6021 -0.4734
  191MPD1    C5 2961   0.288   1.445  13.493  0.0688  0.1550 -0.1735
  191MPD1     H 2962   0.400   1.803  13.410  2.8645 -0.4174  0.8559
  191MPD1    H1 2963   0.094   1.516  13.481  0.3685  0.9351  0.8053
  191MPD1    H2 2964   0.494   1.394  13.524 -1.0293  0.1240  1.2295
  191MPD1    H3 2965   0.260   1.342  13.509  1.3810 -0.1996 -0.1454
  191MPD1     N 2966   0.155   1.785  13.410  0.3744 -0.3307 -0.0772
  191MPD1    H5 2967   0.202   1.869  13.378  0.0491 -1.1350 -2.6713
  191MPD1    N1 2968   0.599   1.642  13.485 -0.3021 -0.4448  0.6413
  191MPD1    H6 2969   0.616   1.739  13.510 -3.5019  0.7324 -1.7396
  191MPD1    H7 2970   0.657   1.582  13.543 -1.4376 -1.1318  1.0702
  192MPD1     C 2971   4.097   2.478  13.253 -1.0990 -0.2893  0.4171
  192MPD1    C1 2972   4.068   2.349  13.301  0.1879  0.4112  0.4585
  192MPD1    C2 2973   4.168   2.260  13.278  0.1853 -0.2611  0.3449
  192MPD1    C3 2974   4.297   2.294  13.241 -0.0474 -0.2396  0.6305
  192MPD1    C4 2975   4.319   2.429  13.204 -0.3890  0.8636 -0.0739
  192MPD1    C5 2976   4.218   2.517  13.201  0.0230 -0.3619 -0.0138
  192MPD1     H 2977   4.146   2.155  13.299  0.6731  0.0105  2.2604
  192MPD1    H1 2978   4.419   2.455  13.170 -0.3132 -0.7572 -1.0802
  192MPD1    H2 2979   4.019   2.552  13.256 -1.3891 -0.5543 -0.6530
  192MPD1    H3 2980   4.242   2.619  13.172  2.2831 -0.8178  0.2462
  192MPD1     N 2981   4.413   2.211  13.242 -0.3855  0.2487  0.0620
  192MPD1    H5 2982   4.503   2.250  13.216 -2.1788  3.7092 -0.8345
  192MPD1    N1 2983   3.934   2.312  13.330  0.6502  0.0948 -0.8927
  192MPD1    H6 2984   3.888   2.392  13.372  1.5333  0.3363 -0.3710
  192MPD1    H7 2985   3.928   2.236  13.397  0.7031  2.6422  1.9575
  193MPD1     C 2986   0.093   1.922  15.712  0.8631 -0.1935  0.2227
  193MPD1    C1 2987   0.065   2.059  15.721 -0.3367 -0.0285  0.6591
  193MPD1    C2 2988   0.114   2.129  15.834  0.2254  0.3728  1.3351
  193MPD1    C3 2989   0.201   2.070  15.918 -0.3446 -0.1411  0.3510
  193MPD1    C4 2990   0.239   1.937  15.899  0.0201 -0.4938 -0.4444
  193MPD1    C5 2991   0.179   1.863  15.797  0.4846 -0.2261  0.0138
  193MPD1     H 2992   0.084   2.232  15.852  0.4128  0.4891  0.9725
  193MPD1    H1 2993   0.304   1.891  15.972 -1.2857 -0.1209  0.9613
  193MPD1    H2 2994   0.055   1.860  15.631 -2.2461 -0.6330  2.0307
  193MPD1    H3 2995   0.197   1.756  15.795 -0.7773 -0.4257 -0.7942
  193MPD1     N 2996   0.254   2.133  16.036  0.3083 -0.0002 -0.4182
  193MPD1    H5 2997   0.318   2.073  16.087  0.0666  0.2658  0.1912
  193MPD1    N1 2998   4.705   2.122  15.638 -0.8455  0.4376  0.5197
  193MPD1    H6 2999   4.716   2.221  15.616 -0.2036  0.6284  1.7222
  193MPD1    H7 3000   4.696   2.075  15.548  2.1212  0.3397  0.2511
  194MPD1     C 3001   3.068   4.666  16.856  0.4694  0.2620  0.1054
  194MPD1    C1 3002   3.142   4.565  16.799  1.0774  0.6873 -0.6027
  194MPD1    C2 3003   3.131   4.442  16.860  0.3645 -0.3973  0.5964
  194MPD1    C3 3004   3.031   4.409  16.953 -0.7922  0.1825  0.4370
  194MPD1    C4 3005   2.961   4.512  16.995 -0.0344  0.2703  0.1083
  194MPD1    C5 3006   2.976   4.641  16.954  0.1123  0.4092  0.0399
  194MPD1     H 3007   3.194   4.358  16.834 -2.1486 -2.0892 -0.1108
  194MPD1    H1 3008   2.880   4.490  17.063  2.5760 -1.8039  2.5397
  194MPD1    H2 3009   3.063   0.033  16.827 -0.1596  0.3396  0.4797
  194MPD1    H3 3010   2.908   4.715  16.995 -0.9326 -0.8576  0.6205
  194MPD1     N 3011   3.002   4.287  17.006 -0.4689  0.4037  0.9053
  194MPD1    H5 3012   2.930   4.290  17.077  0.8014 -0.3489  2.2470
  194MPD1    N1 3013   3.236   4.596  16.712 -0.6398 -0.5151  0.4448
  194MPD1    H6 3014   3.209   4.681  16.664 -0.7023 -0.2644  0.9269
  194MPD1    H7 3015   3.270   4.514  16.662 -0.6449  0.4766 -1.2104
  195MPD1     C 3016   4.152   1.586  17.625  0.5497  0.8366  1.1048
  195MPD1    C1 3017   4.059   1.484  17.622 -0.3429  0.1945  0.9317
  195MPD1    C2 3018   4.108   1.362  17.675  0.4237  0.2802  1.1996
  195MPD1    C3 3019   4.243   1.346  17.712 -0.4316 -0.1648  0.5046
  195MPD1    C4 3020   4.328   1.450  17.684 -0.3809  0.3080 -0.0952
  195MPD1    C5 3021   4.282   1.574  17.649 -0.7105  0.1288  0.2434
  195MPD1     H 3022   4.035   1.286  17.698 -0.5605  1.1235  0.8663
  195MPD1    H1 3023   4.433   1.436  17.710 -0.0659  2.6247 -0.1147
  195MPD1    H2 3024   4.121   1.688  17.605 -0.0423  0.2044 -1.2322
  195MPD1    H3 3025   4.350   1.658  17.641 -2.7382  1.4757 -2.5663
  195MPD1     N 3026   4.291   1.228   0.023 -0.4963  0.3033 -0.0111
  195MPD1    H5 3027   4.391   1.225   0.038  0.1500  0.6993 -4.0789
  195MPD1    N1 3028   3.919   1.513  17.615 -0.0234 -0.0941 -0.4300
  195MPD1    H6 3029   3.879   1.428  17.576 -1.0339  0.4345 -0.5290
  195MPD1    H7 3030   3.885   1.588  17.556 -1.9349  0.9392  1.9810
  196MPD1     C 3031   3.796   4.409   0.543  0.4720 -0.4406  0.0710
  196MPD1    C1 3032   3.740   4.454   0.427 -0.1035  0.0093  0.2643
  196MPD1    C2 3033   3.689   4.583   0.411  0.0908 -0.5525  0.0569
  196MPD1    C3 3034   3.720   4.674   0.512 -0.5966  0.9988  0.1164
  196MPD1    C4 3035   3.777   4.626   0.620  0.7922  0.1627 -0.4408
  196MPD1    C5 3036   3.814   4.500   0.641  0.1028 -0.3201 -0.1334
  196MPD1     H 3037   3.635   4.599   0.319 -2.8226  2.0359  2.2213
  196MPD1    H1 3038   3.788   4.690   0.707  0.7676  0.3534 -0.5775
  196MPD1    H2 3039   3.809   4.306   0.574 -4.5125 -1.1295 -0.0977
  196MPD1    H3 3040   3.849   4.460   0.736  0.4446  0.9624  0.2821
  196MPD1     N 3041   3.679   0.072   0.500  0.2830  0.0510  0.0682
  196MPD1    H5 3042   3.695   0.130   0.582  1.9403 -1.5161  0.8635
  196MPD1    N1 3043   3.699   4.356   0.337  0.4556 -0.1987  0.2273
  196MPD1    H6 3044   3.674   4.392   0.245 -0.5777 -1.1241  0.1468
  196MPD1    H7 3045   3.764   4.279   0.326 -1.5643 -1.8082 -0.5075
  197MPD1     C 3046   3.718   2.392  17.302  0.4424 -0.3407 -0.6282
  197MPD1    C1 3047   3.616   2.472  17.258  0.0721 -0.1830 -0.3364
  197MPD1    C2 3048   3.615   2.530  17.131 -0.2279 -0.6938 -0.3537
  197MPD1    C3 3049   3.740   2.529  17.061 -0.1062  0.2305  0.6867
  197MPD1    C4 3050   3.848   2.476  17.119 -0.0185 -0.4088 -0.0746
  197MPD1    C5 3051   3.838   2.407  17.240  0.9107 -0.4167 -0.2851
  197MPD1     H 3052   3.520   2.566  17.092  0.6078  0.7826 -1.0035
  197MPD1    H1 3053   3.945   2.471  17.071  1.4328  2.0683  2.5897
  197MPD1    H2 3054   3.715   2.331  17.392 -1.2215  1.1357  0.3123
  197MPD1    H3 3055   3.925   2.354  17.278  2.0605  0.5625 -1.5213
  197MPD1     N 3056   3.753   2.555  16.926  0.3196  1.0713 -0.5522
  197MPD1    H5 3057   3.849   2.549  16.895  1.6055  0.6296  3.4309
  197MPD1    N1 3058   3.494   2.457  17.315 -0.6615  0.8172  0.4584
  197MPD1    H6 3059   3.444   2.543  17.297  1.1616  1.3143 -2.2055
  197MPD1    H7 3060   3.498   2.428  17.412 -2.2389 -1.2374 -0.0745
  198MPD1     C 3061   0.846   0.389  15.252 -0.5031  0.3657 -0.0396
  198MPD1    C1 3062   0.955   0.398  15.336  0.0354  0.0336  0.2296
  198MPD1    C2 3063   0.987   0.525  15.395 -0.3817 -0.6316  0.1523
  198MPD1    C3 3064   0.899   0.633  15.382 -0.4315 -0.5065 -0.3246
  198MPD1    C4 3065   0.796   0.612  15.298 -0.6524 -0.2438 -0.4066
  198MPD1    C5 3066   0.771   0.499  15.234  0.0423  0.1185 -1.2091
  198MPD1     H 3067   1.067   0.533  15.467  0.7476 -1.1871 -1.0513
  198MPD1    H1 3068   0.724   0.689  15.272 -0.3312  0.0347 -0.4765
  198MPD1    H2 3069   0.804   0.299  15.208  1.0131 -1.4646  2.3118
  198MPD1    H3 3070   0.693   0.489  15.160 -2.5587 -3.6173  2.0711
  198MPD1     N 3071   0.924   0.753  15.455 -0.1448  0.4956  0.7594
  198MPD1    H5 3072   1.006   0.749  15.514  0.1535  1.4852  0.4125
  198MPD1    N1 3073   1.047   0.295  15.350  0.0656  0.2060  0.3714
  198MPD1    H6 3074   1.104   0.306  15.433 -0.1479 -0.4846  0.6067
  198MPD1    H7 3075   1.014   0.199  15.341 -1.4744  0.9142 -1.6780
  199MPD1     C 3076   2.817   3.145  10.859 -0.4379 -0.9716 -0.6738
  199MPD1    C1 3077   2.792   3.070  10.742  0.1787 -0.4494  0.2519
  199MPD1    C2 3078   2.752   3.151  10.633  0.3185  0.8305  0.5346
  199MPD1    C3 3079   2.736   3.286  10.643 -0.0029 -0.8339  0.3566
  199MPD1    C4 3080   2.759   3.350  10.757 -0.3944 -0.4295 -0.3942
  199MPD1    C5 3081   2.796   3.278  10.864 -0.1289  0.0902  0.5522
  199MPD1     H 3082   2.742   3.109  10.534  1.1625 -0.1067  0.8503
  199MPD1    H1 3083   2.743   3.457  10.770 -0.8362 -0.5370 -0.0505
  199MPD1    H2 3084   2.852   3.101  10.952  0.6898  0.2049 -0.5493
  199MPD1    H3 3085   2.814   3.337  10.954  0.5307 -0.7461  0.9669
  199MPD1     N 3086   2.693   3.364  10.539  1.3526  0.7858  0.5769
  199MPD1    H5 3087   2.688   3.464  10.557  1.4632  0.5007  2.2337
  199MPD1    N1 3088   2.834   2.934  10.735  0.1512  0.1060 -0.0105
  199MPD1    H6 3089   2.825   2.889  10.826  0.5939  1.2043  0.5720
  199MPD1    H7 3090   2.793   2.877  10.661 -0.8813 -1.5515  1.8069
  200MPD1     C 3091   1.654   2.407  14.986  0.3403 -0.3138  0.1188
  200MPD1    C1 3092   1.794   2.401  15.014 -0.2219  0.4077  0.0761
  200MPD1    C2 3093   1.881   2.416  14.904 -0.5590 -0.1983 -0.2394
  200MPD1    C3 3094   1.831   2.424  14.773  0.3346  0.1610  0.6079
  200MPD1    C4 3095   1.700   2.405  14.750 -0.1630 -0.3170  0.0172
  200MPD1    C5 3096   1.610   2.395  14.858  0.0339 -0.3832  0.1486
  200MPD1     H 3097   1.988   2.409  14.918 -0.6701  2.4054  1.7619
  200MPD1    H1 3098   1.653   2.426  14.655  2.6406 -0.6105 -1.4317
  200MPD1    H2 3099   1.580   2.395  15.064 -0.8881 -0.4792 -1.0799
  200MPD1    H3 3100   1.504   2.400  14.837  0.4578  2.3417 -1.3156
  200MPD1     N 3101   1.921   2.437  14.668 -0.4180 -0.4193 -1.0899
  200MPD1    H5 3102   2.013   2.466  14.701 -0.0343 -1.2820 -1.3898
  200MPD1    N1 3103   1.833   2.410  15.147  0.2138  0.4629 -0.1065
  200MPD1    H6 3104   1.911   2.346  15.154 -0.5027 -0.4332 -0.1934
  200MPD1    H7 3105   1.758   2.373  15.206  0.9423 -0.4141  0.2680
  201MPD1     C 3106   3.832   1.795  13.374  0.0126 -0.2185 -0.5307
  201MPD1    C1 3107   3.936   1.856  13.312  0.1484 -0.0299  0.3774
  201MPD1    C2 3108   4.058   1.790  13.291  0.5883 -0.2493 -0.1167
  201MPD1    C3 3109   4.073   1.667  13.349 -0.2086  0.2433  0.2119
  201MPD1    C4 3110   3.969   1.608  13.414 -0.1944 -0.3513  0.4562
  201MPD1    C5 3111   3.844   1.667  13.411  0.0945  0.2093 -0.4730
  201MPD1     H 3112   4.137   1.830  13.228 -3.1646  0.0003 -4.6657
  201MPD1    H1 3113   3.974   1.513  13.467 -0.6448  0.1965  1.4773
  201MPD1    H2 3114   3.735   1.841  13.389  0.1236 -0.2114  0.1406
  201MPD1    H3 3115   3.761   1.629  13.470 -0.0845  1.4067  0.0378
  201MPD1     N 3116   4.197   1.600  13.331 -0.7241  0.2648  0.4792
  201MPD1    H5 3117   4.260   1.628  13.257 -0.6254 -0.1341  0.4117
  201MPD1    N1 3118   3.919   1.994  13.289  0.1615  0.1587  0.3970
  201MPD1    H6 3119   3.822   2.025  13.290  0.4465  0.9835  2.7863
  201MPD1    H7 3120   3.976   2.034  13.214 -1.2468 -0.0367 -0.7763
  202MPD1     C 3121   3.518   1.205   9.241 -1.0900  0.2940  0.1981
  202MPD1    C1 3122   3.433   1.261   9.332  0.1056 -0.7130  0.3716
  202MPD1    C2 3123   3.498   1.317   9.442  1.0308 -0.1814 -0.0888
  202MPD1    C3 3124   3.625   1.274   9.482  0.0520 -0.1070 -0.3265
  202MPD1    C4 3125   3.701   1.203   9.397 -0.5541 -0.2629 -0.2153
  202MPD1    C5 3126   3.649   1.180   9.271  0.0284 -0.2819 -0.0723
  202MPD1     H 3127   3.446   1.379   9.515  0.7283  1.9037 -2.0887
  202MPD1    H1 3128   3.803   1.171   9.414 -0.4549 -0.0621 -0.4302
  202MPD1    H2 3129   3.491   1.162   9.145  0.3861 -2.4844  1.0180
  202MPD1    H3 3130   3.708   1.121   9.202 -1.0695 -0.1068 -1.1723
  202MPD1     N 3131   3.689   1.326   9.594 -0.3485 -1.0988 -0.3633
  202MPD1    H5 3132   3.778   1.287   9.624  0.8774  0.5413 -1.9064
  202MPD1    N1 3133   3.323   1.334   9.278 -0.1979 -0.7204 -0.2569
  202MPD1    H6 3134   3.256   1.375   9.342 -0.6269 -2.1435  0.1982
  202MPD1    H7 3135   3.281   1.268   9.214 -0.5253 -1.8963  1.1746
  203MPD1     C 3136   2.809   1.885  12.939  0.2200  0.2577  0.1524
  203MPD1    C1 3137   2.866   1.878  12.811 -1.1465  0.4187  0.2714
  203MPD1    C2 3138   2.904   1.755  12.775  0.6794  0.4099  0.3096
  203MPD1    C3 3139   2.910   1.650  12.868 -0.2437 -0.2546  0.1083
  203MPD1    C4 3140   2.859   1.666  12.991  0.9259 -0.3798  0.1798
  203MPD1    C5 3141   2.796   1.784  13.025  0.4676 -0.0519  0.2940
  203MPD1     H 3142   2.942   1.738  12.675  0.2121  1.4899 -0.0641
  203MPD1    H1 3143   2.847   1.587  13.064  0.8776 -0.8450 -0.3320
  203MPD1    H2 3144   2.785   1.987  12.969 -0.5188 -0.3050  1.4917
  203MPD1    H3 3145   2.757   1.803  13.125  2.0179 -0.6689  1.0207
  203MPD1     N 3146   2.969   1.529  12.832 -0.5166 -0.0932  0.4193
  203MPD1    H5 3147   2.994   1.511  12.735  0.7368  0.2007  0.6887
  203MPD1    N1 3148   2.863   1.983  12.714  0.0078 -0.1831  1.3434
  203MPD1    H6 3149   2.880   2.076  12.753  0.2753 -0.3313  1.5793
  203MPD1    H7 3150   2.933   1.970  12.642 -0.0439  1.3140  1.0259
  204MPD1     C 3151   2.653   3.584  17.592 -0.2148 -0.3009  0.0376
  204MPD1    C1 3152   2.693   3.558  17.466  1.3340  0.2503  0.5101
  204MPD1    C2 3153   2.686   3.430  17.415 -0.1278  0.5010 -0.8687
  204MPD1    C3 3154   2.633   3.323  17.489  0.1928  0.4382 -0.1000
  204MPD1    C4 3155   2.596   3.348  17.623  0.6453  0.0842 -0.7079
  204MPD1    C5 3156   2.608   3.480  17.669  0.1375  0.4872 -0.2651
  204MPD1     H 3157   2.723   3.413  17.315 -0.0909 -0.8910 -0.6182
  204MPD1    H1 3158   2.570   3.267  17.690  1.1422  0.6650  0.1827
  204MPD1    H2 3159   2.667   3.682  17.636  0.4469 -0.0636 -0.6982
  204MPD1    H3 3160   2.582   3.489   0.027 -0.1760  1.0210 -0.3866
  204MPD1     N 3161   2.641   3.197  17.424 -0.0370  0.0419 -0.4502
  204MPD1    H5 3162   2.691   3.194  17.336  0.9035  0.9707  0.0574
  204MPD1    N1 3163   2.741   3.667  17.388  0.5141 -0.6289  0.1542
  204MPD1    H6 3164   2.769   3.636  17.296 -0.2457 -0.8226 -0.0182
  204MPD1    H7 3165   2.668   3.737  17.376  1.7081  0.6310  0.3751
  205MPD1     C 3166   3.295   1.791  16.619 -0.0258 -0.1203 -0.0406
  205MPD1    C1 3167   3.353   1.713  16.712 -0.5796  0.1876 -0.4112
  205MPD1    C2 3168   3.328   1.753  16.841 -0.5621  0.1237  1.0967
  205MPD1    C3 3169   3.272   1.872  16.880  0.8718  0.5149  0.0411
  205MPD1    C4 3170   3.220   1.950  16.783 -0.3761  0.3370 -0.5286
  205MPD1    C5 3171   3.223   1.895  16.659 -0.0002 -0.6067 -0.0626
  205MPD1     H 3172   3.360   1.682  16.917 -3.0773 -1.9232  0.2068
  205MPD1    H1 3173   3.174   2.042  16.818 -0.6502  0.3087 -0.8181
  205MPD1    H2 3174   3.297   1.770  16.513 -0.8058  2.1658 -0.5048
  205MPD1    H3 3175   3.178   1.949  16.577 -1.3126 -1.1835  0.2769
  205MPD1     N 3176   3.252   1.919  17.012 -0.2224 -0.1277  0.0087
  205MPD1    H5 3177   3.180   1.990  17.023 -0.6815 -0.9602  2.3249
  205MPD1    N1 3178   3.397   1.583  16.691  0.4266 -0.9777  0.6220
  205MPD1    H6 3179   3.466   1.552  16.760  1.9047  0.9682  0.0370
  205MPD1    H7 3180   3.441   1.572  16.600  0.1219  0.7472  0.2707
  206MPD1     C 3181   2.540   3.681  16.598 -0.6433  0.7919  0.1723
  206MPD1    C1 3182   2.525   3.817  16.625  0.0422 -0.5950  0.0859
  206MPD1    C2 3183   2.581   3.909  16.540 -0.3147  0.1730  0.8589
  206MPD1    C3 3184   2.647   3.875  16.421 -0.0457  0.2083  0.0399
  206MPD1    C4 3185   2.641   3.744  16.382  0.6617 -0.5561  0.0720
  206MPD1    C5 3186   2.601   3.650  16.473  0.3233  0.1088 -0.7455
  206MPD1     H 3187   2.584   4.011  16.577 -1.6159  1.0904 -1.5973
  206MPD1    H1 3188   2.672   3.717  16.282  1.8308  1.5491 -0.1246
  206MPD1    H2 3189   2.505   3.603  16.664 -0.3897 -1.2680 -2.1559
  206MPD1    H3 3190   2.614   3.550  16.434 -1.0354  0.8621 -3.0987
  206MPD1     N 3191   2.706   3.971  16.331 -0.3365  0.2719  0.0577
  206MPD1    H5 3192   2.736   3.929  16.244  1.3447  4.3264 -1.2719
  206MPD1    N1 3193   2.492   3.861  16.755  0.6328  0.4535  0.7737
  206MPD1    H6 3194   2.472   3.960  16.765  3.7749  1.1815  0.1264
  206MPD1    H7 3195   2.432   3.803  16.813 -1.1184  0.1984 -1.2876
  207MPD1     C 3196   4.421   2.201  10.174  0.0460 -0.8278  0.2174
  207MPD1    C1 3197   4.424   2.334  10.140  0.4454 -0.6290 -0.2555
  207MPD1    C2 3198   4.546   2.399  10.154  0.4463  0.6608  0.1542
  207MPD1    C3 3199   4.654   2.347  10.228  0.2487 -0.4027 -0.0948
  207MPD1    C4 3200   4.643   2.216  10.274  0.1398  0.0012  0.1438
  207MPD1    C5 3201   4.524   2.145  10.243 -0.1247  0.0809  0.3514
  207MPD1     H 3202   4.545   2.504  10.125 -1.7550 -0.0265 -2.2800
  207MPD1    H1 3203   4.718   2.163  10.331 -0.0953 -1.0483 -0.5177
  207MPD1    H2 3204   4.336   2.135  10.162 -1.5447  0.9005  1.8888
  207MPD1    H3 3205   4.515   2.039  10.262  0.8154 -0.0043  0.2869
  207MPD1     N 3206   0.024   2.428  10.268  0.5871  0.5815  0.4815
  207MPD1    H5 3207   0.095   2.372  10.313 -1.0019 -0.9914  1.0241
  207MPD1    N1 3208   4.317   2.382  10.063 -0.0433 -0.2441 -0.2222
  207MPD1    H6 3209   4.231   2.366  10.113 -0.4734 -1.2231 -1.2700
  207MPD1    H7 3210   4.330   2.481  10.042  0.4711  0.0577  1.5596
  208MPD1     C 3211   3.570   0.827  16.507  0.3841  0.3193 -1.0369
  208MPD1    C1 3212   3.475   0.728  16.538  0.0391 -0.3885 -0.3981
  208MPD1    C2 3213   3.424   0.720  16.669 -0.3397 -0.8396  0.4319
  208MPD1    C3 3214   3.486   0.805  16.765 -0.1738 -0.4321 -0.0003
  208MPD1    C4 3215   3.601   0.881  16.736 -0.2161 -0.0866 -0.0194
  208MPD1    C5 3216   3.635   0.890  16.608 -0.0503 -0.2194  0.6212
  208MPD1     H 3217   3.344   0.656  16.706 -0.8926 -0.5677 -0.3036
  208MPD1    H1 3218   3.652   0.948  16.804  0.1866 -0.8684  0.4493
  208MPD1    H2 3219   3.621   0.846  16.413  1.5128  0.4717 -0.3908
  208MPD1    H3 3220   3.721   0.952  16.581 -0.6342  1.7354  3.2625
  208MPD1     N 3221   3.431   0.808  16.892  0.2969  0.1580 -0.6405
  208MPD1    H5 3222   3.334   0.777  16.901  0.6289  0.0334  2.4828
  208MPD1    N1 3223   3.409   0.654  16.442 -0.3977 -0.6295 -0.1629
  208MPD1    H6 3224   3.362   0.573  16.481 -0.3339 -2.0903 -3.1301
  208MPD1    H7 3225   3.476   0.609  16.381 -2.1698 -2.3808 -0.8104
  209MPD1     C 3226   0.669   1.955  11.883  0.2465 -0.3062  0.9226
  209MPD1    C1 3227   0.738   2.071  11.915  0.3737  0.1126 -0.1891
  209MPD1    C2 3228   0.707   2.188  11.838 -0.0812  0.4953 -0.5701
  209MPD1    C3 3229   0.611   2.185  11.736 -0.3598 -0.8375 -0.3816
  209MPD1    C4 3230   0.532   2.073  11.735  0.4790 -0.2723  0.1593
  209MPD1    C5 3231   0.560   1.964  11.808  0.0929 -0.4785 -0.1477
  209MPD1     H 3232   0.774   2.273  11.842 -0.8861  1.0328  1.1540
  209MPD1    H1 3233   0.444   2.077  11.672  0.3223  0.0353  0.3958
  209MPD1    H2 3234   0.703   1.866  11.936  2.9845 -1.2845 -2.4899
  209MPD1    H3 3235   0.494   1.882  11.786  0.7815 -0.9175 -0.5890
  209MPD1     N 3236   0.612   2.288  11.642  0.2981  0.2822 -0.4362
  209MPD1    H5 3237   0.664   2.371  11.668  0.6374 -0.6421  1.8420
  209MPD1    N1 3238   0.854   2.067  11.992  0.0044  0.2732 -0.3071
  209MPD1    H6 3239   0.877   2.157  12.034  0.8955 -0.0519 -0.1005
  209MPD1    H7 3240   0.823   2.015  12.074  1.2344  0.4771  0.2773
  210MPD1     C 3241   0.809   3.227  11.572  0.7830 -0.2011  0.0663
  210MPD1    C1 3242   0.698   3.163  11.633  0.3442  0.0315  0.3306
  210MPD1    C2 3243   0.655   3.039  11.592 -0.4270  0.5184 -0.0022
  210MPD1    C3 3244   0.711   2.981  11.482  0.7613 -0.3218  0.0969
  210MPD1    C4 3245   0.817   3.044  11.420 -0.6029  0.0566 -0.2670
  210MPD1    C5 3246   0.867   3.161  11.469 -0.3013  1.1735 -0.2022
  210MPD1     H 3247   0.574   2.985  11.639 -1.2411  0.5851 -1.3135
  210MPD1    H1 3248   0.856   2.998  11.330  3.0219  0.0728  1.2797
  210MPD1    H2 3249   0.845   3.324  11.606  0.1390 -0.1294  0.5402
  210MPD1    H3 3250   0.950   3.203  11.414 -1.3208  1.0204 -1.8444
  210MPD1     N 3251   0.680   2.851  11.431 -0.1077 -0.5505 -0.0669
  210MPD1    H5 3252   0.725   2.827  11.343 -1.5219  2.4656 -1.6325
  210MPD1    N1 3253   0.640   3.235  11.740  0.1627 -0.2176  0.0142
  210MPD1    H6 3254   0.701   3.231  11.821 -0.1422  1.4046  0.3130
  210MPD1    H7 3255   0.568   3.170  11.771 -0.0127 -0.1644 -0.2841
  211MPD1     C 3256   2.540   0.883  16.463 -0.5280 -0.2039 -0.9776
  211MPD1    C1 3257   2.603   0.985  16.538 -0.0733  0.5404 -0.8345
  211MPD1    C2 3258   2.627   1.110  16.481 -0.1503 -0.5318  0.4473
  211MPD1    C3 3259   2.601   1.132  16.348 -0.2515  0.2327  0.0666
  211MPD1    C4 3260   2.543   1.026  16.270  0.5261 -0.3421 -0.1522
  211MPD1    C5 3261   2.516   0.894  16.329 -0.3049  0.6401  0.6501
  211MPD1     H 3262   2.669   1.192  16.537 -0.8728 -0.5652  1.0279
  211MPD1    H1 3263   2.518   1.048  16.167 -0.5091 -1.9762 -0.2476
  211MPD1    H2 3264   2.505   0.787  16.502 -2.4115  0.5872 -0.6909
  211MPD1    H3 3265   2.456   0.820  16.277  1.3096 -1.1532  1.3336
  211MPD1     N 3266   2.631   1.256  16.299 -0.6337  0.3747 -0.0460
  211MPD1    H5 3267   2.683   1.323  16.354 -0.4530  0.9257 -0.8762
  211MPD1    N1 3268   2.616   0.960  16.675  0.1761 -0.1068 -0.1244
  211MPD1    H6 3269   2.666   0.873  16.688 -0.0912 -0.1585  0.5540
  211MPD1    H7 3270   2.672   1.029  16.724  1.7288 -0.4372 -1.4298
  212MPD1     C 3271   2.186   0.072  16.731  0.7031 -0.0501  0.3166
  212MPD1    C1 3272   2.073   0.093  16.812 -0.0961 -0.6000  1.3387
  212MPD1    C2 3273   2.029   0.000  16.902  0.0823  0.0951  0.5400
  212MPD1    C3 3274   2.087   4.610  16.909 -0.7683 -0.5504  0.0324
  212MPD1    C4 3275   2.189   4.577  16.817 -0.6349 -0.2004  0.1158
  212MPD1    C5 3276   2.234   4.677  16.733  0.9406 -0.3989 -0.3486
  212MPD1     H 3277   1.946   0.025  16.966 -0.7368 -1.8521  0.2115
  212MPD1    H1 3278   2.237   4.480  16.808  0.1588  0.3032 -1.0787
  212MPD1    H2 3279   2.239   0.146  16.672  1.0954  0.0611  0.8139
  212MPD1    H3 3280   2.319   4.658  16.669 -0.6634  0.0908 -2.6068
  212MPD1     N 3281   2.049   4.515  17.007 -0.2926  0.0497  0.4171
  212MPD1    H5 3282   2.111   4.434  17.019 -1.3656 -0.5857  1.6393
  212MPD1    N1 3283   2.026   0.220  16.823 -0.1887  0.3793  0.2108
  212MPD1    H6 3284   1.935   0.220  16.869 -0.0642 -0.5739  0.4488
  212MPD1    H7 3285   2.013   0.272  16.737 -0.1263  2.2851  1.3537
  213MPD1     C 3286   0.336   0.587  15.918  1.4989 -0.4650 -0.7993
  213MPD1    C1 3287   0.331   0.462  15.855 -0.7748  0.5374 -0.1382
  213MPD1    C2 3288   0.245   0.452  15.749  0.7076  0.4839  0.5611
  213MPD1    C3 3289   0.215   0.560  15.671 -0.4267  0.2160 -0.3590
  213MPD1    C4 3290   0.250   0.683  15.719 -0.5123 -1.3032  0.0462
  213MPD1    C5 3291   0.303   0.693  15.848 -0.3223  0.6162  0.1677
  213MPD1     H 3292   0.217   0.353  15.715 -3.8396  1.4493  1.4355
  213MPD1    H1 3293   0.228   0.775  15.667  1.2519 -1.3012 -0.6927
  213MPD1    H2 3294   0.365   0.598  16.022 -2.1698 -2.8324  0.4820
  213MPD1    H3 3295   0.317   0.783  15.907  3.0565 -0.1081  0.5152
  213MPD1     N 3296   0.161   0.544  15.543  0.1950 -0.1876 -0.4616
  213MPD1    H5 3297   0.127   0.449  15.528  1.3915 -0.6919  0.0202
  213MPD1    N1 3298   0.341   0.346  15.921 -0.3740  0.2801 -0.1382
  213MPD1    H6 3299   0.332   0.261  15.866  0.9554 -1.4427  2.2824
  213MPD1    H7 3300   0.416   0.348  15.990 -1.7250 -0.4130  1.3792
  214MPD1     C 3301   4.166   0.097  15.205  0.2671 -0.2811 -0.3844
  214MPD1    C1 3302   4.275   0.074  15.116  0.0378 -0.0034  0.1255
  214MPD1    C2 3303   4.389   0.146  15.138 -0.1435 -0.2717  0.1962
  214MPD1    C3 3304   4.396   0.246  15.230  0.1518  0.0539  1.2590
  214MPD1    C4 3305   4.296   0.271  15.319 -0.7539  0.5893 -0.2964
  214MPD1    C5 3306   4.180   0.198  15.294  0.0187 -0.4088  0.7541
  214MPD1     H 3307   4.478   0.118  15.081 -0.6320  0.3208 -0.8667
  214MPD1    H1 3308   4.293   0.357  15.384  0.4611 -2.6608  4.0597
  214MPD1    H2 3309   4.070   0.050  15.191  0.6796 -0.8469 -1.3456
  214MPD1    H3 3310   4.092   0.225  15.352  0.8442 -0.9649  2.2603
  214MPD1     N 3311   4.512   0.317  15.261 -0.3033 -0.5446  0.1577
  214MPD1    H5 3312   4.497   0.394  15.324  1.4254 -1.7709  2.0546
  214MPD1    N1 3313   4.275   4.713  15.023 -0.3743 -0.3704 -0.0871
  214MPD1    H6 3314   4.326   0.002  14.939  2.1995  1.5002  2.0457
  214MPD1    H7 3315   4.180   4.681  15.006 -0.2046 -1.3161  0.7770
  215MPD1     C 3316   0.694   1.729  10.700  0.5663 -0.8979 -0.4151
  215MPD1    C1 3317   0.705   1.708  10.836 -0.0697 -0.6855 -0.4086
  215MPD1    C2 3318   0.594   1.732  10.915  0.6131  0.2437 -0.2158
  215MPD1    C3 3319   0.476   1.779  10.864 -0.0002  0.0840 -0.5408
  215MPD1    C4 3320   0.465   1.795  10.729 -0.5727  0.7494 -0.3112
  215MPD1    C5 3321   0.575   1.775  10.655  0.1728 -0.6588  0.3651
  215MPD1     H 3322   0.598   1.721  11.023 -1.1191  0.6093 -0.1081
  215MPD1    H1 3323   0.378   1.829  10.675 -1.0466 -1.8889 -1.2162
  215MPD1    H2 3324   0.772   1.709  10.627 -0.8164 -1.3535 -1.7697
  215MPD1    H3 3325   0.569   1.790  10.548 -1.9579  1.1876  0.7432
  215MPD1     N 3326   0.375   1.807  10.959  0.3322  0.0246  0.1354
  215MPD1    H5 3327   0.405   1.791  11.055 -3.6222  2.0203  1.6849
  215MPD1    N1 3328   0.816   1.632  10.887 -0.4880  0.0924 -0.2183
  215MPD1    H6 3329   0.902   1.658  10.839  0.5813 -1.2983  0.9029
  215MPD1    H7 3330   0.824   1.641  10.988  1.4441 -0.4437 -0.3253
  216MPD1     C 3331   2.788   0.075  17.381 -0.6524  0.5518  0.0134
  216MPD1    C1 3332   2.653   0.059  17.401 -0.4002  0.1529 -0.2325
  216MPD1    C2 3333   2.624   4.662  17.420 -0.9608 -0.2306 -0.2358
  216MPD1    C3 3334   2.704   4.557  17.387  0.3237 -0.2352  0.6924
  216MPD1    C4 3335   2.835   4.579  17.361 -0.2769  0.0782  0.9931
  216MPD1    C5 3336   2.877   4.709  17.369  0.2223 -0.1991 -0.8176
  216MPD1     H 3337   2.526   4.645  17.463 -0.0738 -2.0092  1.0735
  216MPD1    H1 3338   2.903   4.498  17.339  0.0818  0.7617 -0.3983
  216MPD1    H2 3339   2.832   0.173  17.365  0.0180  0.4209  1.0527
  216MPD1    H3 3340   2.981   4.718  17.338  0.5576  2.3384  1.0578
  216MPD1     N 3341   2.649   4.430  17.384  0.2347  0.1003  0.3299
  216MPD1    H5 3342   2.552   4.423  17.413  0.4146  0.8929  1.1135
  216MPD1    N1 3343   2.575   0.161  17.453  0.4860 -0.5070  0.1798
  216MPD1    H6 3344   2.476   0.139  17.439  0.3974 -0.0380  0.0852
  216MPD1    H7 3345   2.601   0.253  17.418  1.2062 -0.2418  1.4394
  217MPD1     C 3346   2.645   1.942   8.633 -0.1368  0.2146  0.2145
  217MPD1    C1 3347   2.529   1.980   8.692 -0.3546 -0.4747  0.3943
  217MPD1    C2 3348   2.506   1.945   8.826 -0.0701 -0.2422 -0.0260
  217MPD1    C3 3349   2.587   1.857   8.898  0.0250  0.0532  0.7443
  217MPD1    C4 3350   2.691   1.801   8.824 -0.3629 -0.3495 -0.5390
  217MPD1    C5 3351   2.716   1.842   8.696 -0.6193 -0.0724  0.1144
  217MPD1     H 3352   2.428   1.999   8.879 -0.8899  1.6702 -3.1747
  217MPD1    H1 3353   2.747   1.727   8.880 -0.6669 -0.4319 -0.3445
  217MPD1    H2 3354   2.672   1.974   8.533 -1.6281  1.7877  0.3061
  217MPD1    H3 3355   2.808   1.811   8.647 -0.8692 -1.3918  0.4668
  217MPD1     N 3356   2.587   1.831   9.032 -0.0388  0.1790  0.1879
  217MPD1    H5 3357   2.666   1.781   9.072 -1.2748  0.9118  3.5698
  217MPD1    N1 3358   2.453   2.078   8.640  0.0862  0.7975  0.9572
  217MPD1    H6 3359   2.444   2.070   8.539  1.3650  0.8268  0.8396
  217MPD1    H7 3360   2.358   2.076   8.677  0.2141 -0.8032  1.1749
  218MPD1     C 3361   4.038   2.093  12.974 -0.7936  0.3520 -0.2528
  218MPD1    C1 3362   4.120   2.189  12.929 -0.2487  0.4647  0.2366
  218MPD1    C2 3363   4.238   2.162  12.859 -0.4332 -1.2190  0.6356
  218MPD1    C3 3364   4.271   2.027  12.843  0.4198  0.3392  0.0573
  218MPD1    C4 3365   4.188   1.931  12.893 -0.1439 -0.6533  0.8301
  218MPD1    C5 3366   4.067   1.958  12.958 -1.3622  0.6471 -0.3945
  218MPD1     H 3367   4.309   2.235  12.823 -0.3107 -1.1692  0.9864
  218MPD1    H1 3368   4.215   1.827  12.881  0.5989 -0.3805  0.1038
  218MPD1    H2 3369   3.940   2.122  13.012 -0.6980  1.7404 -1.0568
  218MPD1    H3 3370   4.003   1.876  12.988  1.9931 -1.5878  0.6806
  218MPD1     N 3371   4.400   1.993  12.777 -0.9347 -0.4148  0.0306
  218MPD1    H5 3372   4.451   2.073  12.742 -0.2193 -1.4182 -1.2119
  218MPD1    N1 3373   4.073   2.317  12.942 -0.7574 -0.2211 -0.1455
  218MPD1    H6 3374   4.026   2.328  13.031 -0.3756  1.5933 -0.1611
  218MPD1    H7 3375   4.152   2.382  12.944 -1.8545  1.0706  1.1602
  219MPD1     C 3376   0.366   2.234  12.139  0.1727  0.1395 -0.0080
  219MPD1    C1 3377   0.255   2.282  12.193  0.4842  0.4540  0.3285
  219MPD1    C2 3378   0.162   2.204  12.263  0.0850  0.4283 -0.7527
  219MPD1    C3 3379   0.183   2.069  12.259  0.4013 -0.7218  0.0399
  219MPD1    C4 3380   0.289   2.011  12.191 -0.2608 -0.1153  0.0976
  219MPD1    C5 3381   0.381   2.095  12.136  0.2320  0.1866 -0.0668
  219MPD1     H 3382   0.089   2.253  12.326 -0.1514  1.2475 -1.6578
  219MPD1    H1 3383   0.308   1.905  12.192 -0.3301 -0.1328 -1.2911
  219MPD1    H2 3384   0.424   2.302  12.077  0.4698 -0.6906 -0.6375
  219MPD1    H3 3385   0.462   2.054  12.078 -0.4775  1.1981 -1.7741
  219MPD1     N 3386   0.106   1.981  12.340 -0.5423  0.5763 -0.1124
  219MPD1    H5 3387   0.142   1.889  12.361  0.1247  0.7602 -0.4316
  219MPD1    N1 3388   0.252   2.418  12.227 -0.2972  0.0216 -0.0659
  219MPD1    H6 3389   0.290   2.470  12.148  1.4603  0.3078  0.9530
  219MPD1    H7 3390   0.163   2.462  12.250  0.5621  2.1487 -0.7664
  220MPD1     C 3391   4.123   3.239   9.965 -0.6320 -0.1602 -0.0849
  220MPD1    C1 3392   4.049   3.156  10.045  0.1644 -0.5300 -0.2766
  220MPD1    C2 3393   4.114   3.050  10.113  0.3894  0.1789  0.1255
  220MPD1    C3 3394   4.253   3.054  10.117 -0.4196 -0.1486 -0.5211
  220MPD1    C4 3395   4.322   3.142  10.038  0.1051 -0.3007 -0.4167
  220MPD1    C5 3396   4.262   3.236   9.963  0.3527 -0.1608  0.4187
  220MPD1     H 3397   4.064   2.978  10.175 -0.1997  0.1087 -0.4292
  220MPD1    H1 3398   4.428   3.132  10.018  0.1883  0.9790 -0.6329
  220MPD1    H2 3399   4.078   3.316   9.904 -1.2516 -1.2155 -0.9686
  220MPD1    H3 3400   4.300   3.309   9.892 -2.5691  2.9043  1.9746
  220MPD1     N 3401   4.313   2.946  10.181 -0.4012  0.4185 -0.0687
  220MPD1    H5 3402   4.249   2.896  10.243 -0.1628 -0.6377 -0.6670
  220MPD1    N1 3403   3.907   3.149  10.037 -0.0848 -0.2187 -0.9264
  220MPD1    H6 3404   3.866   3.123  10.127 -0.2383  1.5833 -0.4648
  220MPD1    H7 3405   3.864   3.236  10.005 -1.3565 -1.1706 -1.7910
  221MPD1     C 3406   2.706   1.544  15.647 -0.5338  0.4810 -0.3135
  221MPD1    C1 3407   2.831   1.575  15.693  0.0257  0.3600 -0.1829
  221MPD1    C2 3408   2.891   1.507  15.800  0.4732 -0.1790 -0.2229
  221MPD1    C3 3409   2.832   1.389  15.837  0.6493  0.0488 -0.1666
  221MPD1    C4 3410   2.710   1.355  15.780 -0.2209  0.5049 -0.4598
  221MPD1    C5 3411   2.651   1.427  15.685  0.5787  0.4129 -0.0014
  221MPD1     H 3412   2.986   1.538  15.842 -0.2702  0.0306  1.3071
  221MPD1    H1 3413   2.661   1.265  15.813  1.3433 -0.3630 -0.5219
  221MPD1    H2 3414   2.670   1.602  15.562 -1.7084 -1.4023 -1.1069
  221MPD1    H3 3415   2.555   1.396  15.645  0.0928  2.3786 -0.3161
  221MPD1     N 3416   2.881   1.296  15.930 -0.0773  0.5414 -0.3365
  221MPD1    H5 3417   2.819   1.216  15.943  0.0477  0.1833 -1.9125
  221MPD1    N1 3418   2.886   1.700  15.649  0.2326 -0.2742 -0.3802
  221MPD1    H6 3419   2.987   1.707  15.638  0.5367 -3.5418  0.1792
  221MPD1    H7 3420   2.839   1.749  15.574 -0.2159 -1.8962 -1.1591
  222MPD1     C 3421   1.295   4.005   0.289 -0.3182 -0.2708 -0.2133
  222MPD1    C1 3422   1.410   4.054   0.218 -1.0114  0.1307 -0.4661
  222MPD1    C2 3423   1.442   4.187   0.218 -0.2828  0.2194 -0.8299
  222MPD1    C3 3424   1.359   4.279   0.285 -0.5335 -0.2271 -0.6364
  222MPD1    C4 3425   1.252   4.225   0.368  0.2196  0.1469 -0.1777
  222MPD1    C5 3426   1.221   4.094   0.357 -0.2332 -0.4208 -0.1080
  222MPD1     H 3427   1.529   4.213   0.158 -0.6402  1.2415 -0.8945
  222MPD1    H1 3428   1.176   4.284   0.419  0.4628  0.8266 -0.5977
  222MPD1    H2 3429   1.276   3.899   0.288 -0.5675 -0.1951 -2.0371
  222MPD1    H3 3430   1.125   4.069   0.400 -0.8952  1.0738 -0.7213
  222MPD1     N 3431   1.371   4.421   0.275  0.2618  0.3147 -0.0242
  222MPD1    H5 3432   1.306   4.474   0.332  2.4798  0.3781  2.4807
  222MPD1    N1 3433   1.488   3.958   0.152 -0.1258 -0.4804 -0.2588
  222MPD1    H6 3434   1.465   3.859   0.149  0.0208 -0.4998 -0.6996
  222MPD1    H7 3435   1.536   3.985   0.067  0.2853  1.7148  0.6826
  223MPD1     C 3436   1.675   0.173  17.219  0.5177 -0.0002 -0.9246
  223MPD1    C1 3437   1.765   0.110  17.296  0.4405  0.3232  0.2032
  223MPD1    C2 3438   1.728   0.087  17.424  0.2509 -0.3005 -0.5930
  223MPD1    C3 3439   1.609   0.124  17.483  0.4810 -0.0976 -0.1587
  223MPD1    C4 3440   1.526   0.203  17.403 -1.0109  0.5691 -0.4905
  223MPD1    C5 3441   1.560   0.229  17.274 -0.0290 -0.6146  0.8174
  223MPD1     H 3442   1.793   0.024  17.484  0.5830  1.1100  0.5501
  223MPD1    H1 3443   1.432   0.243  17.439 -0.7377 -0.3268  1.2230
  223MPD1    H2 3444   1.691   0.198  17.114  0.2567 -0.4151 -1.0633
  223MPD1    H3 3445   1.494   0.281  17.206  2.0293  0.3384 -0.4599
  223MPD1     N 3446   1.583   0.093  17.617  0.1514  0.0981 -0.1869
  223MPD1    H5 3447   1.654   0.039  17.665 -2.0651 -1.4456  1.3357
  223MPD1    N1 3448   1.888   0.064  17.250 -0.1406 -0.1653 -0.5746
  223MPD1    H6 3449   1.883   0.010  17.164 -0.8179  0.3231 -0.8433
  223MPD1    H7 3450   1.936   0.006  17.319 -2.6398 -1.6276 -0.0584
  224MPD1     C 3451   3.531   2.987  10.077 -0.5286  0.0761 -0.1820
  224MPD1    C1 3452   3.612   2.868  10.080 -0.4436  0.3097 -0.1615
  224MPD1    C2 3453   3.556   2.751  10.132  0.1619  0.8454 -0.1696
  224MPD1    C3 3454   3.428   2.756  10.186  0.0480  0.3371  0.3147
  224MPD1    C4 3455   3.354   2.867  10.185 -0.2153  0.1743 -0.5597
  224MPD1    C5 3456   3.405   2.984  10.133  0.1680 -0.0850  0.0901
  224MPD1     H 3457   3.613   2.659  10.134 -0.4127  0.4252 -2.9519
  224MPD1    H1 3458   3.254   2.879  10.224  1.3847  1.7243  3.0641
  224MPD1    H2 3459   3.560   3.075  10.020 -0.1702  0.1028  0.0439
  224MPD1    H3 3460   3.350   3.077  10.140  0.7090  0.4090 -2.4185
  224MPD1     N 3461   3.362   2.641  10.246 -0.2353 -0.0378  0.2317
  224MPD1    H5 3462   3.264   2.654  10.269  0.0029  0.0924  1.1708
  224MPD1    N1 3463   3.728   2.873  10.000  0.2456 -0.5196  0.1394
  224MPD1    H6 3464   3.758   2.970  10.006  2.7838 -1.1415 -2.3059
  224MPD1    H7 3465   3.805   2.815  10.033 -1.0802 -3.3443 -1.7334
  225MPD1     C 3466   0.095   2.757  12.678 -0.0587 -0.1693  0.2989
  225MPD1    C1 3467   0.050   2.629  12.678  0.0151 -0.3345 -0.4317
  225MPD1    C2 3468   4.654   2.600  12.663 -0.0226  0.4364 -0.7610
  225MPD1    C3 3469   4.562   2.704  12.664  0.0120  0.4565  0.0770
  225MPD1    C4 3470   4.603   2.831  12.684  0.8333 -0.4947  0.5842
  225MPD1    C5 3471   0.001   2.856  12.684  0.3538 -0.5403  0.9839
  225MPD1     H 3472   4.622   2.498  12.646  1.5881 -0.0885 -0.6987
  225MPD1    H1 3473   4.535   2.913  12.704  0.6142 -0.6220  0.3597
  225MPD1    H2 3474   0.203   2.772  12.682 -0.1785  0.9746 -0.8700
  225MPD1    H3 3475   0.044   2.955  12.695 -0.9958  0.2478 -0.9074
  225MPD1     N 3476   4.423   2.682  12.653 -0.0693  0.2636 -0.0005
  225MPD1    H5 3477   4.366   2.767  12.655  1.2903  1.1542  0.9616
  225MPD1    N1 3478   0.145   2.528  12.664 -0.0365  0.3746  0.0673
  225MPD1    H6 3479   0.233   2.528  12.715  0.0408 -1.6038 -0.0907
  225MPD1    H7 3480   0.102   2.440  12.691 -0.7947  1.2221  1.5717
  226MPD1     C 3481   2.421   2.955  10.121 -0.0813  0.1108 -0.2372
  226MPD1    C1 3482   2.557   2.952  10.143  0.4154 -0.0209 -0.2758
  226MPD1    C2 3483   2.634   3.052  10.080 -0.3903 -0.4019  0.8018
  226MPD1    C3 3484   2.581   3.153  10.006  0.1230 -0.1152  0.5665
  226MPD1    C4 3485   2.442   3.158   9.999  0.1110 -0.6797 -0.8025
  226MPD1    C5 3486   2.367   3.058  10.050 -0.2324  0.1170 -0.6301
  226MPD1     H 3487   2.740   3.050  10.103 -0.1940 -1.6007 -0.2488
  226MPD1    H1 3488   2.383   3.237   9.954  0.4141 -0.0361 -0.0693
  226MPD1    H2 3489   2.345   2.886  10.155 -0.0037 -0.4699 -1.2320
  226MPD1    H3 3490   2.259   3.052  10.056 -0.1381 -1.3635 -0.2459
  226MPD1     N 3491   2.666   3.252   9.954 -0.4801 -0.8941  0.3234
  226MPD1    H5 3492   2.767   3.243   9.965 -0.6095  0.0793  2.2430
  226MPD1    N1 3493   2.619   2.836  10.194  0.5757 -0.0817  0.3531
  226MPD1    H6 3494   2.709   2.851  10.238  1.0919  0.3897 -0.8683
  226MPD1    H7 3495   2.561   2.781  10.257  0.6504  0.2586  0.7144
  227MPD1     C 3496   2.589   4.185   9.607  0.2387 -0.0633 -0.1133
  227MPD1    C1 3497   2.498   4.090   9.627  0.7178  0.3338 -0.1807
  227MPD1    C2 3498   2.549   3.966   9.663 -0.2694  0.8035  0.2963
  227MPD1    C3 3499   2.679   3.946   9.689  0.4954  0.0386  0.0850
  227MPD1    C4 3500   2.765   4.055   9.677  0.0782 -0.5369 -0.7439
  227MPD1    C5 3501   2.722   4.167   9.624  0.0106  0.3613  0.0772
  227MPD1     H 3502   2.479   3.885   9.680  0.7124 -0.5111 -1.8030
  227MPD1    H1 3503   2.872   4.049   9.697  0.0261 -0.6138 -0.4901
  227MPD1    H2 3504   2.561   4.279   9.559  1.8992 -0.6531 -2.2636
  227MPD1    H3 3505   2.791   4.246   9.599 -1.7178  1.7740 -0.1661
  227MPD1     N 3506   2.719   3.818   9.739 -0.1691  0.3694  0.4196
  227MPD1    H5 3507   2.645   3.748   9.738  2.1164 -2.0233 -0.7749
  227MPD1    N1 3508   2.367   4.105   9.567  0.5778 -0.3970 -0.4745
  227MPD1    H6 3509   2.296   4.047   9.611  0.9573 -1.6761 -1.5331
  227MPD1    H7 3510   2.336   4.202   9.573  2.5429  0.2272 -0.4016
  228MPD1     C 3511   1.663   1.207  12.838 -0.1738 -0.0008  0.1205
  228MPD1    C1 3512   1.622   1.136  12.727 -0.1395 -0.0702 -0.2727
  228MPD1    C2 3513   1.539   1.031  12.758  0.4786 -0.2784  0.6791
  228MPD1    C3 3514   1.508   0.993  12.888  0.6778 -0.4174 -0.0785
  228MPD1    C4 3515   1.565   1.054  12.999 -0.1654  0.0531  0.4936
  228MPD1    C5 3516   1.634   1.169  12.971 -0.3676 -0.4479 -0.1897
  228MPD1     H 3517   1.501   0.980  12.670  1.7676  0.1657 -0.1399
  228MPD1    H1 3518   1.573   1.013  13.099 -3.2742 -1.6538  0.0348
  228MPD1    H2 3519   1.733   1.287  12.817  0.1703  0.1542  1.8593
  228MPD1    H3 3520   1.684   1.226  13.049 -0.8721  1.9794 -1.6233
  228MPD1     N 3521   1.433   0.879  12.900 -0.2493  0.6100  0.9137
  228MPD1    H5 3522   1.384   0.852  12.815  1.4563 -0.8270  0.3972
  228MPD1    N1 3523   1.626   1.176  12.595 -0.3867  0.5440 -0.2495
  228MPD1    H6 3524   1.716   1.223  12.585  1.6040 -3.2006  0.0804
  228MPD1    H7 3525   1.613   1.108  12.521  0.9399  0.3056 -0.2654
  229MPD1     C 3526   1.231   3.796  14.801 -0.2028 -0.2488  0.2144
  229MPD1    C1 3527   1.167   3.675  14.768  0.8640 -0.5948 -0.3121
  229MPD1    C2 3528   1.241   3.562  14.794 -0.6742 -0.1014  0.7943
  229MPD1    C3 3529   1.358   3.565  14.874  0.2323 -0.0500  1.0168
  229MPD1    C4 3530   1.408   3.682  14.917  0.6250  0.1973 -0.4989
  229MPD1    C5 3531   1.344   3.804  14.875  0.2687 -0.3719 -0.2097
  229MPD1     H 3532   1.197   3.469  14.759  0.6330  0.0075 -1.0912
  229MPD1    H1 3533   1.492   3.688  14.985 -0.0583 -0.1918  0.3808
  229MPD1    H2 3534   1.200   3.895  14.769  1.5218 -0.8686 -3.3528
  229MPD1    H3 3535   1.371   3.900  14.916 -0.8381 -0.8486  1.6195
  229MPD1     N 3536   1.424   3.439  14.912 -0.1132 -0.1731 -0.0000
  229MPD1    H5 3537   1.504   3.443  14.975  2.6446  2.9437 -3.7193
  229MPD1    N1 3538   1.081   3.676  14.654 -0.2727  0.3721  0.2621
  229MPD1    H6 3539   1.016   3.754  14.665 -0.4347  0.1553  0.8493
  229MPD1    H7 3540   1.023   3.594  14.640 -1.4343  1.4267 -1.1540
  230MPD1     C 3541   1.542   2.445  15.341 -0.0108  0.0286 -0.2011
  230MPD1    C1 3542   1.637   2.542  15.383 -1.1887  0.2039 -0.3791
  230MPD1    C2 3543   1.631   2.660  15.317  0.4466 -0.3695 -0.9466
  230MPD1    C3 3544   1.534   2.689  15.223 -0.2620 -0.0158 -0.0111
  230MPD1    C4 3545   1.436   2.599  15.192  0.1115  0.2998  0.9096
  230MPD1    C5 3546   1.440   2.476  15.255  0.6151 -0.2318  0.0770
  230MPD1     H 3547   1.708   2.734  15.335 -0.5924  0.8410 -1.4798
  230MPD1    H1 3548   1.356   2.616  15.121  1.8581  3.5300 -0.2771
  230MPD1    H2 3549   1.538   2.346  15.386 -0.6502 -0.2456 -0.8733
  230MPD1    H3 3550   1.364   2.401  15.237 -1.0689  1.2986  0.8183
  230MPD1     N 3551   1.535   2.818  15.172  0.0019  0.1146 -0.3477
  230MPD1    H5 3552   1.609   2.879  15.206 -1.1970  1.7143 -0.5962
  230MPD1    N1 3553   1.755   2.502  15.445 -0.1651  0.5187 -0.0913
  230MPD1    H6 3554   1.795   2.570  15.509 -0.8016  0.7481  0.0637
  230MPD1    H7 3555   1.736   2.431  15.516  0.1729 -1.1167 -1.6500
  231MPD1     C 3556   4.304   0.794  16.019  0.0272  0.3098 -0.5396
  231MPD1    C1 3557   4.380   0.901  15.978  0.1003  0.0304 -0.7005
  231MPD1    C2 3558   4.405   0.903  15.838  0.3512  0.5275  0.0792
  231MPD1    C3 3559   4.331   0.832  15.745  0.3854  0.2496  0.8905
  231MPD1    C4 3560   4.241   0.741  15.792 -1.0770  0.0162 -1.3064
  231MPD1    C5 3561   4.239   0.716  15.925 -0.0096  0.7120  0.3797
  231MPD1     H 3562   4.473   0.981  15.806 -0.6622  1.4461  0.1595
  231MPD1    H1 3563   4.190   0.669  15.729 -0.8854 -2.9837  1.9574
  231MPD1    H2 3564   4.291   0.769  16.124  0.1218  0.5941 -0.4578
  231MPD1    H3 3565   4.182   0.632  15.964  0.6256  1.2612  2.4584
  231MPD1     N 3566   4.363   0.856  15.610 -0.0538 -0.1767 -0.1094
  231MPD1    H5 3567   4.431   0.927  15.583  0.7375 -2.2342 -3.5419
  231MPD1    N1 3568   4.457   0.969  16.078 -0.5432 -0.1887  0.2095
  231MPD1    H6 3569   4.495   1.051  16.031  0.5067 -0.0885  1.2450
  231MPD1    H7 3570   4.404   0.993  16.162 -0.2898  0.0386  0.3031
  232MPD1     C 3571   1.318   2.785   0.348  0.4213  0.6942 -0.2568
  232MPD1    C1 3572   1.183   2.754   0.361  0.1144 -0.2996  0.3394
  232MPD1    C2 3573   1.105   2.766   0.243 -0.8620  0.2895  0.1349
  232MPD1    C3 3574   1.156   2.812   0.123 -0.5869 -0.4506  0.1746
  232MPD1    C4 3575   1.296   2.822   0.113 -0.2923  0.2725 -0.0376
  232MPD1    C5 3576   1.376   2.806   0.229  0.0434 -0.4032  0.8359
  232MPD1     H 3577   0.998   2.763   0.258 -0.7594  1.7285  1.2264
  232MPD1    H1 3578   1.345   2.843   0.018  1.4539 -2.1442  0.3347
  232MPD1    H2 3579   1.378   2.786   0.439 -0.3458  1.7120  0.2362
  232MPD1    H3 3580   1.483   2.823   0.224 -0.1115  0.6782  1.0726
  232MPD1     N 3581   1.070   2.854   0.021  0.3965  0.6955  0.3215
  232MPD1    H5 3582   0.972   2.832   0.037  0.7280 -0.8416  0.2224
  232MPD1    N1 3583   1.122   2.717   0.477 -0.3964 -0.4106 -0.3392
  232MPD1    H6 3584   1.021   2.720   0.466 -0.4246  0.0035  0.0420
  232MPD1    H7 3585   1.146   2.778   0.555  0.3810  0.3776 -1.1835
  233MPD1     C 3586   2.300   1.388  16.682 -0.2527  0.2319 -0.0218
  233MPD1    C1 3587   2.303   1.512  16.743 -0.0357 -0.3427  1.0759
  233MPD1    C2 3588   2.202   1.552  16.830 -0.5690 -0.2304 -0.0543
  233MPD1    C3 3589   2.102   1.456  16.865  0.8312 -0.4481 -0.4671
  233MPD1    C4 3590   2.102   1.337  16.803 -0.8101 -0.0928 -0.0902
  233MPD1    C5 3591   2.199   1.299  16.718 -0.6406 -1.0887 -0.1357
  233MPD1     H 3592   2.195   1.658  16.850  0.8611  0.1135 -1.3633
  233MPD1    H1 3593   2.011   1.277  16.797 -1.5023  0.7990  1.3535
  233MPD1    H2 3594   2.373   1.356  16.608 -0.7539 -3.1077  0.8981
  233MPD1    H3 3595   2.193   1.202  16.669 -0.5429 -1.2516  0.1759
  233MPD1     N 3596   1.979   1.486  16.936  0.1234  0.1316 -0.1262
  233MPD1    H5 3597   1.903   1.421  16.920 -1.0633  0.8873  2.5196
  233MPD1    N1 3598   2.383   1.612  16.688  0.1427 -0.1647 -0.1019
  233MPD1    H6 3599   2.418   1.678  16.757 -0.3126 -0.3988  0.3564
  233MPD1    H7 3600   2.469   1.575  16.648  0.2862 -1.8969  1.8583
  234MPD1     C 3601   3.817   0.848   9.505 -0.5838  0.4054  0.1070
  234MPD1    C1 3602   3.693   0.854   9.451 -0.1411  0.0995  0.2845
  234MPD1    C2 3603   3.588   0.914   9.521  0.1616 -0.3320  0.3776
  234MPD1    C3 3604   3.615   0.964   9.644  0.8665  0.3118 -0.1389
  234MPD1    C4 3605   3.751   0.971   9.695 -0.2683  0.0406  0.1946
  234MPD1    C5 3606   3.850   0.910   9.628  1.0746 -0.4121  0.1141
  234MPD1     H 3607   3.488   0.929   9.480  0.3000 -2.5626 -0.7835
  234MPD1    H1 3608   3.779   1.008   9.793  1.2034  0.9860 -0.5908
  234MPD1    H2 3609   3.898   0.795   9.458 -0.8681 -0.9601  1.1449
  234MPD1    H3 3610   3.947   0.912   9.675  1.3456  0.1188 -0.4680
  234MPD1     N 3611   3.505   1.030   9.712  0.0246  0.5990 -0.4998
  234MPD1    H5 3612   3.415   1.035   9.665  0.5312 -1.7704 -1.7600
  234MPD1    N1 3613   3.677   0.805   9.327  0.1649  0.0111  0.0920
  234MPD1    H6 3614   3.590   0.825   9.277 -0.0148 -0.1537  0.3365
  234MPD1    H7 3615   3.757   0.783   9.268 -0.0498  0.2476 -0.2892
  235MPD1     C 3616   4.332   3.309  10.550 -0.4848  0.1126 -0.0008
  235MPD1    C1 3617   4.337   3.306  10.415 -0.4311 -0.6184 -0.4183
  235MPD1    C2 3618   4.457   3.316  10.351 -0.4377  0.5555 -0.6042
  235MPD1    C3 3619   4.573   3.337  10.430 -0.1270 -0.2587  0.0718
  235MPD1    C4 3620   4.561   3.359  10.563  0.0898 -0.1920 -0.9203
  235MPD1    C5 3621   4.443   3.344  10.624  0.1442  0.1626 -0.1990
  235MPD1     H 3622   4.472   3.310  10.244  0.0744  1.2397 -0.5656
  235MPD1    H1 3623   4.649   3.367  10.624 -1.7240  1.4049  1.4919
  235MPD1    H2 3624   4.239   3.293  10.603  0.3862  0.3651  1.6163
  235MPD1    H3 3625   4.432   3.352  10.731  0.5155 -1.4919 -0.0247
  235MPD1     N 3626   4.699   3.347  10.367 -0.2121  0.1372 -0.1631
  235MPD1    H5 3627   4.699   3.337  10.266 -2.3393 -0.7022 -0.0765
  235MPD1    N1 3628   4.213   3.305  10.347  0.1677 -0.1259  0.2382
  235MPD1    H6 3629   4.220   3.267  10.253 -2.4866  2.2418 -0.9240
  235MPD1    H7 3630   4.136   3.255  10.389  0.1471  0.5711  1.0285
  236MPD1     C 3631   3.738   4.131  10.359 -0.6701 -0.1176 -0.3836
  236MPD1    C1 3632   3.737   4.036  10.455  0.7295 -0.5520  0.3844
  236MPD1    C2 3633   3.862   3.976  10.480 -0.3166 -0.7595 -0.1511
  236MPD1    C3 3634   3.967   4.003  10.389  0.1399 -0.3934  0.2292
  236MPD1    C4 3635   3.957   4.094  10.289  0.0246  0.1086 -1.1494
  236MPD1    C5 3636   3.837   4.155  10.270 -0.4247  0.5866 -0.4565
  236MPD1     H 3637   3.889   3.916  10.566  2.5021  0.5090 -0.1497
  236MPD1    H1 3638   4.039   4.118  10.223 -0.0033 -1.1607 -1.6492
  236MPD1    H2 3639   3.646   4.180  10.328  0.0608  1.7472  0.3946
  236MPD1    H3 3640   3.828   4.234  10.196 -2.2786  1.1890  0.4098
  236MPD1     N 3641   4.099   3.964  10.417  0.1118  0.4373  0.7361
  236MPD1    H5 3642   4.168   3.995  10.349 -2.2442  0.3030 -1.7150
  236MPD1    N1 3643   3.620   4.005  10.529  0.6839  0.3034  0.1712
  236MPD1    H6 3644   3.607   3.924  10.589  1.6912 -0.8710 -1.1851
  236MPD1    H7 3645   3.532   4.020  10.480  0.1750 -0.7088  0.7812
  237MPD1     C 3646   0.256   1.626  15.300 -0.4905  0.0631 -0.7455
  237MPD1    C1 3647   0.219   1.710  15.197  0.2812 -0.4568  0.0317
  237MPD1    C2 3648   0.093   1.761  15.187 -0.3718 -0.3848 -0.1688
  237MPD1    C3 3649   0.005   1.737  15.288  0.1066  0.4228 -0.0766
  237MPD1    C4 3650   0.039   1.654  15.394 -0.1545 -0.0812  0.4298
  237MPD1    C5 3651   0.164   1.600  15.396  0.1182  0.7171 -0.0185
  237MPD1     H 3652   0.083   1.819  15.096  2.1778 -0.4840 -0.4949
  237MPD1    H1 3653   4.700   1.627  15.466 -3.3572 -2.0266 -3.7044
  237MPD1    H2 3654   0.358   1.591  15.313  1.0215  3.7963 -2.2803
  237MPD1    H3 3655   0.186   1.527  15.473 -1.2627  1.7403  1.3517
  237MPD1     N 3656   4.611   1.789  15.293  0.2594 -0.1639  0.0541
  237MPD1    H5 3657   4.557   1.775  15.378  0.4729  0.9538  0.3781
  237MPD1    N1 3658   0.304   1.729  15.090 -0.2620 -0.1710  0.1640
  237MPD1    H6 3659   0.297   1.820  15.044 -1.5027 -0.5327 -0.3657
  237MPD1    H7 3660   0.401   1.708  15.111  0.3020  2.0440 -0.2625
  238MPD1     C 3661   1.824   4.600  14.450  0.0590  0.1150 -0.0978
  238MPD1    C1 3662   1.710   4.526  14.479 -0.4934  0.3908  0.2918
  238MPD1    C2 3663   1.586   4.590  14.482  0.0917 -1.0053  0.0172
  238MPD1    C3 3664   1.575   4.724  14.449 -0.0584 -0.1950 -0.3454
  238MPD1    C4 3665   1.690   0.061  14.424 -0.5027  0.2055  0.1638
  238MPD1    C5 3666   1.815   4.734  14.428 -0.1159  0.1250 -1.0898
  238MPD1     H 3667   1.499   4.525  14.484 -1.6737  1.3139 -1.9500
  238MPD1    H1 3668   1.697   0.168  14.404  2.3811  0.1630  0.9868
  238MPD1    H2 3669   1.923   4.557  14.456  0.0326 -0.1137 -1.3479
  238MPD1    H3 3670   1.909   0.052  14.422  1.2236 -2.2259 -1.8863
  238MPD1     N 3671   1.451   0.057  14.423 -0.2990  0.6327 -0.1500
  238MPD1    H5 3672   1.473   0.139  14.368 -0.4972 -0.5307 -1.9523
  238MPD1    N1 3673   1.735   4.394  14.519  0.0977 -0.4778 -0.0923
  238MPD1    H6 3674   1.808   4.356  14.459 -1.6021 -0.7458 -1.9770
  238MPD1    H7 3675   1.654   4.335  14.500  2.2291 -3.2293 -0.5883
  239MPD1     C 3676   1.623   1.609  14.979  0.0643  1.1062  0.4635
  239MPD1    C1 3677   1.729   1.673  14.916 -0.1811  0.1208 -0.1333
  239MPD1    C2 3678   1.730   1.685  14.782 -0.0844 -0.0929  0.2074
  239MPD1    C3 3679   1.617   1.646  14.710  0.4674 -0.5947 -0.2557
  239MPD1    C4 3680   1.518   1.572  14.780  0.6087  0.3136  0.2535
  239MPD1    C5 3681   1.524   1.546  14.911 -0.2738 -0.0601  0.0508
  239MPD1     H 3682   1.805   1.746  14.734  0.2746 -0.5555  0.1826
  239MPD1    H1 3683   1.428   1.531  14.736  1.3653 -0.4189 -0.5958
  239MPD1    H2 3684   1.630   1.588  15.085 -0.3757 -2.0459 -0.1297
  239MPD1    H3 3685   1.448   1.487  14.960 -0.7138 -0.5078 -1.1616
  239MPD1     N 3686   1.597   1.690  14.574 -0.3112 -0.3434  0.4493
  239MPD1    H5 3687   1.512   1.654  14.532 -0.1417  0.7604 -0.8388
  239MPD1    N1 3688   1.843   1.711  14.990  0.0387 -0.2728 -0.7492
  239MPD1    H6 3689   1.830   1.711  15.091  1.4955 -1.2695 -0.5557
  239MPD1    H7 3690   1.882   1.800  14.962  1.4547 -1.3311 -2.1649
  240MPD1     C 3691   0.941   1.518  13.806 -0.0732  0.4067 -0.5496
  240MPD1    C1 3692   0.820   1.454  13.821  0.1722 -0.5162  0.8620
  240MPD1    C2 3693   0.809   1.345  13.904 -0.4170 -0.4249  0.4169
  240MPD1    C3 3694   0.918   1.320  13.997 -0.1159  0.9291  0.4118
  240MPD1    C4 3695   1.035   1.390  13.984  0.3682  0.1837  0.7415
  240MPD1    C5 3696   1.051   1.483  13.881 -0.4425  0.4616  0.2225
  240MPD1     H 3697   0.719   1.284  13.907 -0.7720  0.1391  1.1549
  240MPD1    H1 3698   1.123   1.359  14.039  0.2791  0.4207  1.0179
  240MPD1    H2 3699   0.961   1.597  13.734 -2.0100 -0.0627 -1.5906
  240MPD1    H3 3700   1.141   1.544  13.876  0.0544 -0.3151 -0.1545
  240MPD1     N 3701   0.891   1.219  14.090  0.2489  0.2833  0.1846
  240MPD1    H5 3702   0.801   1.174  14.082 -0.6202  1.7207  1.9099
  240MPD1    N1 3703   0.723   1.466  13.722  0.1076 -0.2681 -0.0999
  240MPD1    H6 3704   0.718   1.567  13.713 -1.7661 -0.4018 -0.6227
  240MPD1    H7 3705   0.631   1.436  13.754 -0.4767  1.4780 -0.1598
  241MPD1     C 3706   1.012   0.792  15.086 -0.7839  0.0088 -0.7147
  241MPD1    C1 3707   1.099   0.779  14.987 -0.3403  1.1552 -0.0549
  241MPD1    C2 3708   1.072   0.822  14.856 -0.4812 -0.0452  0.2259
  241MPD1    C3 3709   0.952   0.889  14.825 -0.5300  0.1326 -0.4816
  241MPD1    C4 3710   0.870   0.905  14.932 -0.4813  1.0568 -0.1462
  241MPD1    C5 3711   0.893   0.852  15.059 -0.0974 -0.6355 -0.6142
  241MPD1     H 3712   1.142   0.789  14.781 -1.3610 -2.7996  0.6106
  241MPD1    H1 3713   0.775   0.954  14.914  0.1546  2.0234 -0.8353
  241MPD1    H2 3714   1.018   0.753  15.187  1.6691  2.4274  0.0869
  241MPD1    H3 3715   0.827   0.862  15.144  0.5977  0.3786 -0.1974
  241MPD1     N 3716   0.915   0.931  14.697  0.3445 -0.0120 -0.1919
  241MPD1    H5 3717   0.822   0.970  14.683  0.7838  1.9297  2.4083
  241MPD1    N1 3718   1.207   0.695  15.013  0.0365 -0.1822 -0.1833
  241MPD1    H6 3719   1.284   0.694  14.947  0.8439  2.6133  0.7181
  241MPD1    H7 3720   1.238   0.705  15.110  0.0323  2.2210 -0.4400
  242MPD1     C 3721   0.907   4.648  15.624 -0.0037 -0.1949  0.2076
  242MPD1    C1 3722   1.035   4.609  15.589  0.5559  0.1803 -0.0096
  242MPD1    C2 3723   1.058   4.488  15.527  0.6343 -0.1051 -0.6643
  242MPD1    C3 3724   0.951   4.410  15.485 -0.0197  0.0503 -1.0919
  242MPD1    C4 3725   0.821   4.446  15.524 -0.1996 -0.2319  0.5457
  242MPD1    C5 3726   0.799   4.566  15.591  0.3394 -0.6271  0.8239
  242MPD1     H 3727   1.163   4.471  15.505  0.2591 -0.0946 -2.4343
  242MPD1    H1 3728   0.735   4.389  15.491 -0.0192 -1.0998  1.5712
  242MPD1    H2 3729   0.887   0.003  15.677  3.1570 -0.1915  1.4060
  242MPD1    H3 3730   0.701   4.603  15.620  1.3027  2.5807 -0.0882
  242MPD1     N 3731   0.961   4.293  15.404 -0.3771 -0.3881 -0.2482
  242MPD1    H5 3732   0.878   4.236  15.389 -1.2008  0.7004  0.1437
  242MPD1    N1 3733   1.142   4.691  15.626 -0.3456  0.3476 -0.0350
  242MPD1    H6 3734   1.227   4.673  15.573 -1.7444  1.2253 -2.6065
  242MPD1    H7 3735   1.119   0.053  15.623  0.9197  0.6756  1.0814
  243MPD1     C 3736   2.210   2.674  17.743  0.6160  0.2154  0.6192
  243MPD1    C1 3737   2.218   2.547  17.709  1.4710  1.3900  0.9552
  243MPD1    C2 3738   2.298   2.514  17.604  0.0000 -0.1437 -0.5087
  243MPD1    C3 3739   2.341   2.610  17.511  0.0363 -0.1346 -0.2490
  243MPD1    C4 3740   2.314   2.745  17.535  0.1733 -0.0687 -0.3663
  243MPD1    C5 3741   2.261   2.770  17.660 -0.4761  0.1483  0.3652
  243MPD1     H 3742   2.332   2.412  17.589 -0.6714 -0.7418  2.1967
  243MPD1    H1 3743   2.362   2.819  17.472  0.1051  0.8527  0.6634
  243MPD1    H2 3744   2.184   2.716   0.093  0.1929  1.3918  0.0005
  243MPD1    H3 3745   2.254   2.870  17.702  0.8169 -0.3015  1.6541
  243MPD1     N 3746   2.413   2.564  17.393  0.2829  0.1558 -0.3718
  243MPD1    H5 3747   2.433   2.464  17.388  0.5267  0.1391  0.8515
  243MPD1    N1 3748   2.181   2.455   0.062  0.6078 -0.1028 -0.5913
  243MPD1    H6 3749   2.097   2.492   0.106 -0.6462  0.1159 -3.1808
  243MPD1    H7 3750   2.152   2.369   0.015  2.1084 -2.0689  2.0602
  244MPD1     C 3751   2.613   1.776  17.419  0.1015 -0.4167  0.6944
  244MPD1    C1 3752   2.514   1.861  17.462  0.9667 -0.5783 -0.2118
  244MPD1    C2 3753   2.499   1.977  17.390 -0.0516  0.7640 -0.2695
  244MPD1    C3 3754   2.602   2.023  17.301 -0.4991  0.2799  1.1025
  244MPD1    C4 3755   2.711   1.941  17.275 -0.1030  0.7902  0.6479
  244MPD1    C5 3756   2.714   1.816  17.330 -0.2124  0.0753  0.1462
  244MPD1     H 3757   2.417   2.044  17.413  0.2157  0.9843  0.0477
  244MPD1    H1 3758   2.794   1.963  17.209 -1.4001  0.5990 -1.0239
  244MPD1    H2 3759   2.638   1.683  17.470  0.7093  0.2710  1.6507
  244MPD1    H3 3760   2.793   1.748  17.301 -0.0652  0.0170  0.6691
  244MPD1     N 3761   2.592   2.155  17.243  0.2349  0.0241 -0.1235
  244MPD1    H5 3762   2.516   2.214  17.275 -1.4897 -1.1472 -2.0594
  244MPD1    N1 3763   2.413   1.812  17.547  0.0911 -0.1240  0.1887
  244MPD1    H6 3764   2.366   1.895  17.581  3.7196  0.8791  2.6757
  244MPD1    H7 3765   2.448   1.759  17.626  0.2603 -0.1974  0.0649
  245MPD1     C 3766   3.669   3.264  13.049  0.2858  0.1032 -0.2522
  245MPD1    C1 3767   3.711   3.383  12.989  0.1193  0.7952  0.1774
  245MPD1    C2 3768   3.825   3.441  13.039  0.9342 -0.2757 -0.0140
  245MPD1    C3 3769   3.904   3.379  13.126  1.0954 -0.3093 -0.1118
  245MPD1    C4 3770   3.873   3.251  13.176  0.2687  0.0052 -0.9614
  245MPD1    C5 3771   3.755   3.196  13.132  0.5745  0.1527 -0.1005
  245MPD1     H 3772   3.857   3.535  12.996  0.2266 -0.2614 -0.5106
  245MPD1    H1 3773   3.935   3.194  13.244 -1.5460 -0.5933  0.1948
  245MPD1    H2 3774   3.570   3.225  13.026  1.6018 -3.0077 -0.6800
  245MPD1    H3 3775   3.725   3.107  13.186 -0.2196  0.0037 -0.7995
  245MPD1     N 3776   4.019   3.444  13.173  0.8759  0.6262  0.0584
  245MPD1    H5 3777   4.022   3.533  13.125  1.2286  0.7247  0.2592
  245MPD1    N1 3778   3.624   3.458  12.904 -0.0470 -0.1520  0.8402
  245MPD1    H6 3779   3.547   3.408  12.859  0.8565 -0.5899 -0.2225
  245MPD1    H7 3780   3.665   3.515  12.831  1.7754 -1.3425  0.9524
  246MPD1     C 3781   2.982   3.210  10.324  0.1017 -0.6850  0.7699
  246MPD1    C1 3782   3.109   3.181  10.364  0.0538  0.4108 -0.7673
  246MPD1    C2 3783   3.213   3.251  10.307  0.1557 -0.1563  0.2865
  246MPD1    C3 3784   3.186   3.358  10.217 -0.0641  0.2451 -0.1439
  246MPD1    C4 3785   3.061   3.392  10.184 -0.0205 -0.3468 -0.5439
  246MPD1    C5 3786   2.962   3.320  10.242 -0.3348 -0.2755  0.1255
  246MPD1     H 3787   3.318   3.232  10.328 -0.2823 -1.9689  0.8447
  246MPD1    H1 3788   3.034   3.474  10.119 -0.2278  0.9631  1.2019
  246MPD1    H2 3789   2.898   3.157  10.368 -2.3108  1.4789 -1.2377
  246MPD1    H3 3790   2.860   3.349  10.221 -0.5590  0.5948  2.4006
  246MPD1     N 3791   3.296   3.431  10.166  0.1684 -0.1301 -0.6207
  246MPD1    H5 3792   3.392   3.398  10.169 -0.2900 -1.1599  2.7912
  246MPD1    N1 3793   3.132   3.055  10.426  0.0744  0.2630  0.0845
  246MPD1    H6 3794   3.062   3.036  10.498 -0.6007 -0.7703 -0.8524
  246MPD1    H7 3795   3.221   3.037  10.473 -0.2264 -0.0074  0.5530
  247MPD1     C 3796   3.130   3.029  15.826  0.8172  0.3365 -0.7598
  247MPD1    C1 3797   3.178   2.984  15.949 -0.1876 -0.2015 -0.1354
  247MPD1    C2 3798   3.311   2.957  15.971 -0.3871  0.0014  0.1016
  247MPD1    C3 3799   3.400   2.969  15.865  0.3199 -0.5603 -0.1915
  247MPD1    C4 3800   3.353   2.998  15.742  1.1357  0.0050  0.0191
  247MPD1    C5 3801   3.225   3.034  15.729 -0.3170 -0.1495 -0.0950
  247MPD1     H 3802   3.340   2.933  16.073 -1.5579 -0.2625  0.3651
  247MPD1    H1 3803   3.418   3.005  15.656  0.5883  1.6053 -0.2669
  247MPD1    H2 3804   3.026   3.048  15.805  0.3707 -0.0732  1.1214
  247MPD1    H3 3805   3.195   3.053  15.627 -0.0261  1.4056  0.0991
  247MPD1     N 3806   3.541   2.960  15.869 -0.8867  0.3085 -0.3701
  247MPD1    H5 3807   3.595   2.988  15.787  0.5364 -1.3691 -0.0015
  247MPD1    N1 3808   3.087   2.984  16.056 -0.2979  0.0147 -0.6529
  247MPD1    H6 3809   3.112   3.062  16.117 -0.4398 -1.0890  0.8241
  247MPD1    H7 3810   2.988   2.997  16.035 -0.4776  0.5947  0.5327
  248MPD1     C 3811   4.199   3.130  17.093 -0.6289 -0.2495 -0.4385
  248MPD1    C1 3812   4.212   3.264  17.115 -0.2799  0.0312 -0.1797
  248MPD1    C2 3813   4.110   3.340  17.161  0.3612 -1.0620  0.1373
  248MPD1    C3 3814   3.981   3.300  17.152  0.3532  0.4764  0.2231
  248MPD1    C4 3815   3.956   3.171  17.108 -0.0870  0.6944  0.2286
  248MPD1    C5 3816   4.068   3.087  17.090  0.1913  0.2014 -0.2775
  248MPD1     H 3817   4.131   3.439  17.199  0.6256  0.3153 -3.5546
  248MPD1    H1 3818   3.860   3.123  17.092  0.2834  0.0609 -0.0985
  248MPD1    H2 3819   4.282   3.066  17.065 -0.0223  0.4082 -0.1383
  248MPD1    H3 3820   4.046   2.982  17.077  1.5281  0.0912 -1.7037
  248MPD1     N 3821   3.885   3.390  17.194 -0.0643 -0.0574 -0.2962
  248MPD1    H5 3822   3.917   3.471  17.246 -0.3844 -0.4316  0.4848
  248MPD1    N1 3823   4.344   3.307  17.137 -0.2296 -0.0827  0.1038
  248MPD1    H6 3824   4.415   3.266  17.077 -0.6695 -1.4702  0.5383
  248MPD1    H7 3825   4.352   3.408  17.125  2.1500 -0.2660  0.1451
  249MPD1     C 3826   4.589   1.700  10.139  0.9955 -0.2519 -0.1412
  249MPD1    C1 3827   4.514   1.782  10.059 -0.1282 -0.8559 -0.3399
  249MPD1    C2 3828   4.576   1.895  10.017 -0.0683 -0.8209 -0.3521
  249MPD1    C3 3829   4.703   1.939  10.066 -0.2637 -0.4696 -0.3467
  249MPD1    C4 3830   0.036   1.862  10.153 -1.0180 -0.2882  0.5845
  249MPD1    C5 3831   4.714   1.742  10.184 -0.4905  0.0051 -0.5218
  249MPD1     H 3832   4.533   1.966   9.948 -1.2400  0.1078  1.3667
  249MPD1    H1 3833   0.133   1.894  10.189 -0.9680 -1.7217  1.7111
  249MPD1    H2 3834   4.558   1.603  10.175 -0.0292  0.2623  0.3734
  249MPD1    H3 3835   0.044   1.679  10.241  0.8914  3.3169  1.5010
  249MPD1     N 3836   0.020   2.062  10.017 -0.2512  0.3296  0.2167
  249MPD1    H5 3837   4.695   2.118   9.960  0.5944  2.0462  0.9782
  249MPD1    N1 3838   4.393   1.744   9.996 -0.5683  0.7998  0.4767
  249MPD1    H6 3839   4.344   1.675  10.053  2.3738 -1.3903  0.3431
  249MPD1    H7 3840   4.329   1.824   9.997 -1.5017  0.0612 -0.9626
  250MPD2     C 3841   2.359   1.965  13.132  0.3715  0.8972  0.3794
  250MPD2    C1 3842   2.304   2.027  13.022 -0.9221  0.0496  0.2152
  250MPD2    C2 3843   2.301   1.969  12.901 -0.5820 -0.4158  0.0974
  250MPD2    C3 3844   2.356   1.845  12.883 -0.7851 -1.0277  0.3057
  250MPD2    C4 3845   2.431   1.792  12.986  0.5927 -0.3398 -0.2604
  250MPD2    C5 3846   2.425   1.847  13.110 -0.3866 -0.0130 -0.2608
  250MPD2     H 3847   2.252   2.030  12.826 -0.2135  1.1130  1.0954
  250MPD2    H1 3848   2.479   1.695  12.983  2.2216  0.4685 -0.2260
  250MPD2    H2 3849   2.350   2.014  13.228  1.4598  1.2025  0.3312
  250MPD2    H3 3850   2.475   1.794  13.190 -1.9228 -0.3243  0.4962
  250MPD2     N 3851   2.355   1.760  12.770 -1.0949 -0.6046  0.4219
  250MPD2    H5 3852   2.411   1.676  12.782 -0.8959  0.1952  4.8136
  250MPD2    N1 3853   2.257   2.160  13.049  0.6777  0.5150 -0.1948
  250MPD2    H7 3854   2.302   2.202  13.129 -0.0952 -0.0136  0.5291
  251TMC3    C1 3855   2.170   2.369  12.988  0.2733 -0.7217  1.0464
  251TMC3    C2 3856   2.057   2.416  13.041 -0.3545  0.1615 -0.3479
  251TMC3    C3 3857   2.058   2.526  13.121  0.6917 -0.4760 -0.0979
  251TMC3    C4 3858   2.286   2.445  12.998  0.5592  0.0199  0.9573
  251TMC3    C5 3859   2.284   2.564  13.070 -0.2562  0.3216 -0.0732
  251TMC3    C6 3860   2.171   2.601  13.133 -0.3359  0.1041  0.0732
  251TMC3     C 3861   2.180   2.231  12.958 -0.0576 -0.1484  0.3434
  251TMC3     O 3862   2.117   2.189  12.861 -0.1450 -0.0089  0.4782
  251TMC3     H 3863   1.967   2.357  13.031  0.2631 -0.5449 -1.7672
  251TMC3    H1 3864   2.377   2.414  12.947  0.0342  0.4276 -0.2178
  251TMC3    H2 3865   2.184   2.673  13.213  0.0886  1.0550 -0.8453
  251TMC3    C7 3866   2.408   2.596  13.130  0.4788 -0.3756 -0.2524
  251TMC3    C8 3867   1.946   2.550  13.208  0.2300  0.5094  0.1073
  251TMC3    O1 3868   2.497   2.510  13.138  0.2930  0.3016 -0.2717
  251TMC3    O2 3869   1.870   2.644  13.196 -0.1075 -0.2749 -0.1527
  252TMC3    C1 3870   3.345   4.428  10.014  0.6521 -0.5198 -0.1671
  252TMC3    C2 3871   3.417   4.332  10.073  0.1946  0.2163 -0.4321
  252TMC3    C3 3872   3.368   4.218  10.105  0.0436 -0.4516  0.1194
  252TMC3    C4 3873   3.214   4.417   9.999  0.4857 -0.1309 -0.0668
  252TMC3    C5 3874   3.157   4.294  10.022  0.6712 -0.2438 -0.3312
  252TMC3    C6 3875   3.231   4.191  10.078 -0.4738  0.0645  0.7416
  252TMC3     C 3876   3.403   4.544   9.957  0.3579 -0.0860 -0.6014
  252TMC3     O 3877   3.335   4.602   9.874  0.5234  0.6556 -0.2835
  252TMC3     H 3878   3.525   4.345  10.064  0.1822  0.6405  0.1006
  252TMC3    H1 3879   3.154   4.500   9.962  1.3045  0.3171 -0.3860
  252TMC3    H2 3880   3.179   4.098  10.099  0.9927 -1.1626 -1.1349
  252TMC3    C7 3881   3.010   4.289  10.006  0.0783  0.1940 -0.3201
  252TMC3    C8 3882   3.462   4.112  10.124 -0.0238 -0.3676 -0.3108
  252TMC3    O1 3883   2.962   4.394   9.966 -0.3704 -0.4127  0.0740
  252TMC3    O2 3884   3.578   4.141  10.107  0.1539  0.0016  0.3363
  253MPD2     C 3885   4.170   2.241  15.237  0.7414  0.2256  0.7866
  253MPD2    C1 3886   4.042   2.191  15.222  0.2489 -0.0304 -0.3384
  253MPD2    C2 3887   3.972   2.133  15.326  0.2401 -0.4956 -0.3444
  253MPD2    C3 3888   4.017   2.137  15.459  0.1268  0.3142 -0.0419
  253MPD2    C4 3889   4.138   2.195  15.473 -0.1576 -0.0321 -0.2869
  253MPD2    C5 3890   4.208   2.244  15.366 -0.3460  0.0761  0.2155
  253MPD2     H 3891   3.875   2.091  15.299  0.1938 -0.0633 -0.8479
  253MPD2    H1 3892   4.171   2.209  15.575  0.0333  2.2769 -0.6630
  253MPD2    H2 3893   4.233   2.286  15.161  2.7873 -0.1630  2.2513
  253MPD2    H3 3894   4.308   2.281  15.385 -0.7473  0.5702  1.3698
  253MPD2     N 3895   3.945   2.103  15.576 -0.1230  0.0612 -0.1600
  253MPD2    H5 3896   3.988   2.096  15.667 -0.4207  3.0682  0.2070
  253MPD2    N1 3897   3.976   2.201  15.093 -0.3821  0.2204  0.6972
  253MPD2    H7 3898   3.878   2.173  15.092  0.9093 -4.3123  1.6568
  254TMC3    C1 3899   3.753   2.043  15.710 -0.1276 -0.0934  0.2744
  254TMC3    C2 3900   3.626   2.092  15.724 -0.0897  0.1106  0.3179
  254TMC3    C3 3901   3.560   2.063  15.845  0.4673  0.2156 -0.4445
  254TMC3    C4 3902   3.825   1.997  15.815 -0.1778 -0.0714  0.5538
  254TMC3    C5 3903   3.762   1.980  15.937  0.2354 -0.3853 -0.1293
  254TMC3    C6 3904   3.625   2.008  15.953 -0.9369  0.1180  0.2936
  254TMC3     C 3905   3.812   2.072  15.576  0.1330 -0.6238 -0.5260
  254TMC3     O 3906   3.729   2.099  15.492 -0.4702  0.7941 -0.0454
  254TMC3     H 3907   3.566   2.130  15.641 -0.3417 -1.7075 -0.3475
  254TMC3    H1 3908   3.921   1.949  15.796 -0.6831 -1.4294  1.4324
  254TMC3    H2 3909   3.566   1.971  16.037 -0.3601  0.4685  0.8461
  254TMC3    C7 3910   3.838   1.949  16.053  0.2887  0.3650  0.4558
  254TMC3    C8 3911   3.442   2.152  15.879 -0.2187  0.2974 -1.0318
  254TMC3    O1 3912   3.776   1.930  16.154  0.2529 -0.1604  0.0325
  254TMC3    O2 3913   3.383   2.118  15.982 -0.2403 -0.4449  0.1690
  255MPD2     C 3914   2.125   0.701  10.698 -0.6067 -0.6356  0.3640
  255MPD2    C1 3915   2.029   0.728  10.603  0.0556 -0.4124  1.2081
  255MPD2    C2 3916   2.029   0.662  10.479  0.2789 -0.3748  0.6099
  255MPD2    C3 3917   2.119   0.563  10.453  0.5476 -0.2463  0.2209
  255MPD2    C4 3918   2.211   0.535  10.548  0.4949  0.2001  0.0384
  255MPD2    C5 3919   2.220   0.606  10.667  0.2088 -0.1171 -0.3485
  255MPD2     H 3920   1.958   0.677  10.399  1.2207 -0.6728 -0.2889
  255MPD2    H1 3921   2.285   0.457  10.534 -0.4230 -0.6170 -0.2719
  255MPD2    H2 3922   2.123   0.760  10.789 -0.0131 -1.4680  0.9210
  255MPD2    H3 3923   2.301   0.584  10.736  0.9832 -0.8973 -1.4976
  255MPD2     N 3924   2.103   0.498  10.331  0.7183  0.6937  0.2997
  255MPD2    H5 3925   2.028   0.525  10.268  0.8373 -0.6009 -0.3911
  255MPD2    N1 3926   1.938   0.830  10.638  0.2301  0.4134 -0.8909
  255MPD2    H7 3927   1.951   0.876  10.728  0.1066 -0.3037 -0.4994
  256TMC3    C1 3928   1.766   0.994  10.625 -1.3520  0.2811  0.1994
  256TMC3    C2 3929   1.843   1.103  10.619  0.4780 -0.1404 -0.2057
  256TMC3    C3 3930   1.793   1.217  10.560  0.1472  0.4293  0.2099
  256TMC3    C4 3931   1.637   0.997  10.583  0.0015 -0.2317  0.3233
  256TMC3    C5 3932   1.582   1.108  10.531  0.0839 -0.1575  0.1788
  256TMC3    C6 3933   1.656   1.223  10.510  0.2623  0.2666  0.2497
  256TMC3     C 3934   1.823   0.866  10.579  0.4744  0.1046  0.2077
  256TMC3     O 3935   1.755   0.812  10.486 -0.2509 -0.3069 -0.1862
  256TMC3     H 3936   1.947   1.097  10.651  0.6479 -0.8895 -0.9013
  256TMC3    H1 3937   1.584   0.903  10.597  1.4415 -0.9136  1.1600
  256TMC3    H2 3938   1.618   1.318  10.473  1.0729  0.9622  1.1980
  256TMC3    C7 3939   1.475   1.086  10.432 -0.7331  0.4882 -0.1187
  256TMC3    C8 3940   1.866   1.343  10.577  0.3426  0.3536 -0.1473
  256TMC3    O1 3941   1.443   0.971  10.415 -0.5735 -0.4259  0.2934
  256TMC3    O2 3942   1.967   1.343  10.649  0.0178  0.1179  0.2791
  257MPD2     C 3943   1.260   2.253  13.346 -0.5738 -0.0568 -1.0842
  257MPD2    C1 3944   1.216   2.143  13.273  0.0744 -0.0890  0.1566
  257MPD2    C2 3945   1.251   2.015  13.322  0.3837  0.1885  0.0640
  257MPD2    C3 3946   1.294   2.004  13.448 -0.2208  0.5866  0.4444
  257MPD2    C4 3947   1.336   2.110  13.522 -0.3942  0.3341  0.2530
  257MPD2    C5 3948   1.327   2.238  13.469 -0.6969 -0.6898  1.2327
  257MPD2     H 3949   1.240   1.922  13.268 -0.5351 -0.9292  2.1970
  257MPD2    H1 3950   1.380   2.106  13.621 -0.7583 -0.4943  0.3843
  257MPD2    H2 3951   1.242   2.353  13.307 -1.3945  1.0031  2.0365
  257MPD2    H3 3952   1.364   2.322  13.525 -0.6975  0.6996 -0.8570
  257MPD2     N 3953   1.310   1.867  13.505  0.6906  0.0435  0.0851
  257MPD2    H5 3954   1.307   1.793  13.436 -0.5093 -0.3770  0.6001
  257MPD2    N1 3955   1.146   2.164  13.153  0.2080 -0.1158  0.8071
  257MPD2    H7 3956   1.127   2.259  13.122 -0.7456  0.1327  2.1795
  258TMC3    C1 3957   1.367   1.695  13.665 -0.0584 -0.1116 -0.3778
  258TMC3    C2 3958   1.466   1.650  13.579 -0.0684 -0.8828 -0.0454
  258TMC3    C3 3959   1.565   1.567  13.626  0.1400  0.2169  0.2224
  258TMC3    C4 3960   1.362   1.658  13.798  0.0817 -0.3525  0.9406
  258TMC3    C5 3961   1.462   1.566  13.836  0.3628 -0.5933 -0.2236
  258TMC3    C6 3962   1.566   1.527  13.760 -0.2735  0.5627  0.0981
  258TMC3     C 3963   1.311   1.832  13.635  0.7102  0.7686 -0.1311
  258TMC3     O 3964   1.302   1.905  13.730  0.6727  0.8207 -0.6231
  258TMC3     H 3965   1.470   1.678  13.474 -1.2304  0.5660  0.3055
  258TMC3    H1 3966   1.273   1.684  13.854 -1.4641  0.1035 -1.7228
  258TMC3    H2 3967   1.648   1.463  13.791 -2.2579 -2.9338 -1.9443
  258TMC3    C7 3968   1.459   1.540  13.978 -0.5561 -0.3399 -0.5218
  258TMC3    C8 3969   1.665   1.504  13.543  0.4026  0.5713  0.0888
  258TMC3    O1 3970   1.349   1.545  14.035 -0.9121  0.0000  0.1383
  258TMC3    O2 3971   1.757   1.443  13.595  0.2472  0.3232  0.3004
  259MPD2     C 3972   4.524   4.118   0.231 -0.2142  0.2446  0.1599
  259MPD2    C1 3973   4.539   3.982   0.259 -0.5052  1.2312 -0.2819
  259MPD2    C2 3974   4.646   3.916   0.199 -0.1156  0.4135 -0.2049
  259MPD2    C3 3975   4.727   3.985   0.106 -0.1891 -1.0136 -0.3613
  259MPD2    C4 3976   4.703   4.117   0.073 -0.3421  0.0089 -0.3277
  259MPD2    C5 3977   4.597   4.176   0.135 -0.2756 -0.1402 -0.6763
  259MPD2     H 3978   4.660   3.811   0.221  0.1246  0.9466  2.1825
  259MPD2    H1 3979   0.029   4.179   0.010  2.7192 -2.1331  0.5935
  259MPD2    H2 3980   4.445   4.177   0.276 -0.6028  0.9441 -1.4306
  259MPD2    H3 3981   4.587   4.282   0.118  1.0978  0.3405  1.4931
  259MPD2     N 3982   0.103   3.916   0.064 -0.1085  0.0184 -0.4502
  259MPD2    H5 3983   0.120   3.823   0.100  0.2267 -0.1186 -0.9703
  259MPD2    N1 3984   4.447   3.923   0.352  0.4299 -0.8435  0.1057
  259MPD2    H7 3985   4.371   3.989   0.363  1.6859  0.5597  0.3659
  260TMC3    C1 3986   0.311   3.864  17.705 -0.0732  0.2297 -0.1281
  260TMC3    C2 3987   0.388   3.870  17.589  0.3533 -0.2295  0.0141
  260TMC3    C3 3988   0.488   3.776  17.579 -0.6908  1.1675  0.0313
  260TMC3    C4 3989   0.340   3.785   0.066  0.6995 -0.4307  0.5979
  260TMC3    C5 3990   0.448   3.699   0.048 -0.3716  0.0554  0.7716
  260TMC3    C6 3991   0.515   3.688  17.678 -0.2820 -0.8834  0.0418
  260TMC3     C 3992   0.198   3.961  17.721 -0.2677 -0.2958  0.0335
  260TMC3     O 3993   0.189   4.061  17.651  0.2753 -0.0228 -0.3077
  260TMC3     H 3994   0.354   3.925  17.502  0.9743 -1.2152 -0.8556
  260TMC3    H1 3995   0.277   3.779   0.155 -1.7996 -1.7739 -1.2682
  260TMC3    H2 3996   0.609   3.635  17.677 -0.5199 -1.2702 -1.2335
  260TMC3    C7 3997   0.448   3.588   0.137 -0.3322  0.0371  0.3684
  260TMC3    C8 3998   0.549   3.760  17.444 -0.2761 -0.0612 -0.3735
  260TMC3    O1 3999   0.444   3.608   0.258 -0.5296 -0.2480 -0.0202
  260TMC3    O2 4000   0.517   3.834  17.351  0.4394  0.2234 -0.7757
  261MPD2     C 4001   2.078   1.646  11.959  0.2424 -0.1789 -0.6319
  261MPD2    C1 4002   2.113   1.732  12.065 -0.5768  0.1324 -0.5863
  261MPD2    C2 4003   2.109   1.870  12.039 -0.3035  0.6746 -0.5536
  261MPD2    C3 4004   2.094   1.912  11.909  0.0970  0.3593 -0.5119
  261MPD2    C4 4005   2.067   1.827  11.809 -0.5076  0.1586 -0.6968
  261MPD2    C5 4006   2.053   1.692  11.831  0.0323  0.4488  0.2951
  261MPD2     H 4007   2.125   1.941  12.119  0.5845  0.7234 -0.7737
  261MPD2    H1 4008   2.055   1.857  11.706  2.0140  0.8483 -0.7850
  261MPD2    H2 4009   2.067   1.540  11.981 -0.4277 -0.1105 -0.6190
  261MPD2    H3 4010   2.015   1.628  11.752  0.7770 -0.9529  1.0614
  261MPD2     N 4011   2.116   2.048  11.883 -0.3254 -0.0042  0.1447
  261MPD2    H5 4012   2.139   2.114  11.956  2.7768 -0.3410 -0.5102
  261MPD2    N1 4013   2.136   1.697  12.196 -0.2044 -0.6774  0.2498
  261MPD2    H7 4014   2.150   1.776  12.258 -1.6047 -0.0574 -0.2286
  262TMC3    C1 4015   2.078   2.254  11.784  0.3839  0.4167 -0.2170
  262TMC3    C2 4016   1.966   2.332  11.766 -0.0345  0.9159  0.1446
  262TMC3    C3 4017   1.981   2.463  11.800 -0.4131  0.5035  0.3375
  262TMC3    C4 4018   2.198   2.301  11.829  0.0359  0.1786 -0.9238
  262TMC3    C5 4019   2.201   2.432  11.866 -0.2305  0.7005  0.1052
  262TMC3    C6 4020   2.090   2.512  11.867 -0.4813 -0.1640 -0.5814
  262TMC3     C 4021   2.056   2.115  11.778 -0.2553 -0.3479 -0.2406
  262TMC3     O 4022   1.971   2.084  11.692  0.3060 -0.3216  0.1939
  262TMC3     H 4023   1.880   2.287  11.717  1.4448 -0.7833 -0.9266
  262TMC3    H1 4024   2.288   2.245  11.851 -1.3810 -0.7207  2.6483
  262TMC3    H2 4025   2.099   2.616  11.898  2.4345 -0.7040  0.3958
  262TMC3    C7 4026   2.335   2.498  11.884 -0.1636  0.1062  0.0344
  262TMC3    C8 4027   1.862   2.540  11.775 -0.1241 -0.2714 -0.0758
  262TMC3    O1 4028   2.433   2.423  11.865 -0.0356 -1.3521  0.5920
  262TMC3    O2 4029   1.759   2.483  11.747  0.4598  0.2925  0.2026
  263MPD2     C 4030   2.733   1.408  11.444  0.1658 -0.3509 -0.6598
  263MPD2    C1 4031   2.809   1.490  11.519  0.8214 -0.8169  0.1997
  263MPD2    C2 4032   2.800   1.628  11.500  0.3530  0.5510 -0.4297
  263MPD2    C3 4033   2.708   1.680  11.417 -0.3967  0.5583 -0.3041
  263MPD2    C4 4034   2.626   1.598  11.346 -0.7772  0.2605  0.2255
  263MPD2    C5 4035   2.646   1.460  11.355 -0.4323  0.7939  0.2664
  263MPD2     H 4036   2.858   1.702  11.554  0.9116 -0.4030  0.2649
  263MPD2    H1 4037   2.552   1.640  11.280 -1.9423  0.2294  1.5239
  263MPD2    H2 4038   2.742   1.300  11.443  0.4766 -0.3315  1.0054
  263MPD2    H3 4039   2.583   1.389  11.303  1.2898 -1.2555  0.9461
  263MPD2     N 4040   2.704   1.825  11.409 -0.0535  0.3249 -0.2858
  263MPD2    H5 4041   2.757   1.881  11.475  1.3873 -0.1167 -1.0686
  263MPD2    N1 4042   2.912   1.425  11.588  0.1540  0.4470  0.4414
  263MPD2    H7 4043   2.929   1.324  11.591  2.2036  0.7352 -1.5494
  264TMC3    C1 4044   2.669   2.034  11.300 -0.4204 -0.1760  0.8646
  264TMC3    C2 4045   2.724   2.096  11.410 -0.5535  0.3911  0.6261
  264TMC3    C3 4046   2.775   2.223  11.403 -0.0005 -0.6296  0.6484
  264TMC3    C4 4047   2.687   2.096  11.178 -0.5291  0.2256 -0.3529
  264TMC3    C5 4048   2.756   2.213  11.173 -0.3387  0.4886 -0.0398
  264TMC3    C6 4049   2.794   2.278  11.283  0.3679 -0.7529 -0.1966
  264TMC3     C 4050   2.653   1.890  11.302  0.0567 -0.6909  0.3359
  264TMC3     O 4051   2.615   1.837  11.198 -0.8538 -0.2417  0.0034
  264TMC3     H 4052   2.701   2.050  11.506  0.3931  1.9129  1.5842
  264TMC3    H1 4053   2.679   2.029  11.093 -2.3298 -0.3624  0.2888
  264TMC3    H2 4054   2.842   2.375  11.294  1.7537 -1.0859 -3.0452
  264TMC3    C7 4055   2.836   2.237  11.052  0.3562 -0.3613  0.1086
  264TMC3    C8 4056   2.873   2.268  11.503 -0.3570 -0.4136  0.6759
  264TMC3    O1 4057   2.869   2.137  10.990 -0.2722 -0.2152  0.6964
  264TMC3    O2 4058   2.986   2.297  11.463 -0.0420  0.4758 -0.5459
  265MPD2     C 4059   0.723   1.628  15.540  0.7914  0.6153  0.9366
  265MPD2    C1 4060   0.655   1.713  15.454 -0.3680 -0.3580  0.9094
  265MPD2    C2 4061   0.652   1.672  15.318 -0.5499  1.1827 -0.1567
  265MPD2    C3 4062   0.703   1.549  15.280 -0.2640 -0.8772  0.2975
  265MPD2    C4 4063   0.769   1.468  15.372 -0.2277  0.1100 -0.4154
  265MPD2    C5 4064   0.771   1.505  15.505 -0.0746 -0.6747  0.6017
  265MPD2     H 4065   0.612   1.742  15.246 -0.3601  1.7225  0.2642
  265MPD2    H1 4066   0.825   1.379  15.348  0.2282  0.4662 -0.6593
  265MPD2    H2 4067   0.754   1.669  15.636  1.6442 -1.3541  1.5049
  265MPD2    H3 4068   0.830   1.444  15.571 -1.6886 -1.5733  1.2111
  265MPD2     N 4069   0.705   1.496  15.150 -0.4342 -0.2204  0.4327
  265MPD2    H5 4070   0.757   1.410  15.138  0.8573  0.4198  1.4525
  265MPD2    N1 4071   0.604   1.836  15.495  0.2346  0.1865 -0.4030
  265MPD2    H7 4072   0.579   1.904  15.423  0.5906  1.0714  0.3090
  266TMC3    C1 4073   0.518   2.002  15.636  0.5223  0.5185 -0.6438
  266TMC3    C2 4074   0.557   2.079  15.738 -0.5421  0.6745  0.1657
  266TMC3    C3 4075   0.497   2.206  15.751 -0.7036 -0.0112 -0.4662
  266TMC3    C4 4076   0.425   2.047  15.544 -0.3939 -1.0698 -0.0233
  266TMC3    C5 4077   0.376   2.177  15.560  0.1171  0.6533  0.6159
  266TMC3    C6 4078   0.406   2.259  15.666 -0.8012 -0.0555  0.5871
  266TMC3     C 4079   0.581   1.871  15.624 -0.4993 -0.0120  0.1476
  266TMC3     O 4080   0.621   1.819  15.730  0.1836 -0.5421  0.0626
  266TMC3     H 4081   0.633   2.041  15.805  0.5259 -2.6354 -2.9666
  266TMC3    H1 4082   0.391   1.987  15.460 -0.5992 -1.7119  0.5199
  266TMC3    H2 4083   0.361   2.357  15.669 -1.3295 -0.3191  1.1903
  266TMC3    C7 4084   0.286   2.223  15.456  0.2626  0.2867 -0.4101
  266TMC3    C8 4085   0.536   2.288  15.867 -0.4055  0.2604 -0.4960
  266TMC3    O1 4086   0.292   2.161  15.347 -0.1076  0.5409 -0.5076
  266TMC3    O2 4087   0.611   2.232  15.942  0.6656 -0.3054 -0.8015
  267MPD2     C 4088   2.430   3.640   0.191  1.1252  0.3460 -0.4554
  267MPD2    C1 4089   2.536   3.724   0.160 -0.6887 -0.4866 -0.5276
  267MPD2    C2 4090   2.512   3.820   0.065  0.0528  0.0330  0.1584
  267MPD2    C3 4091   2.390   3.840  17.745 -0.7334  0.5142  0.0026
  267MPD2    C4 4092   2.283   3.759   0.038 -0.5700  0.1765  0.4508
  267MPD2    C5 4093   2.310   3.659   0.129  0.1287 -0.0850 -0.4035
  267MPD2     H 4094   2.598   3.885   0.050 -0.6041  0.5287 -1.3907
  267MPD2    H1 4095   2.195   3.756  17.720  0.0271 -0.6946 -0.3191
  267MPD2    H2 4096   2.444   3.557   0.260  1.0839  0.4717 -0.2948
  267MPD2    H3 4097   2.231   3.590   0.158  1.0660 -1.0736 -0.2240
  267MPD2     N 4098   2.364   3.941  17.638 -0.4336 -0.6665 -0.3820
  267MPD2    H5 4099   2.274   3.938  17.592 -1.4947 -1.4301  1.7504
  267MPD2    N1 4100   2.649   3.713   0.247  0.0293  0.0492 -0.0770
  267MPD2    H7 4101   2.650   3.646   0.323  0.6077 -1.8757 -1.7952
  268TMC3    C1 4102   2.878   3.735   0.320 -0.0306  0.3279  0.1739
  268TMC3    C2 4103   2.977   3.826   0.312 -0.2838 -0.5110 -0.5168
  268TMC3    C3 4104   3.087   3.810   0.385 -0.3268 -0.7009 -0.4155
  268TMC3    C4 4105   2.889   3.625   0.395  0.2071 -0.2364 -0.4937
  268TMC3    C5 4106   3.004   3.611   0.468 -0.5965  0.2761 -0.1175
  268TMC3    C6 4107   3.107   3.698   0.463  0.1502 -0.1023 -0.1402
  268TMC3     C 4108   2.773   3.753   0.215 -0.1301 -0.0185 -1.2057
  268TMC3     O 4109   2.808   3.830   0.124 -0.5722  0.6839 -0.2585
  268TMC3     H 4110   2.963   3.913   0.249  1.6315 -0.8318 -1.3863
  268TMC3    H1 4111   2.809   3.553   0.386 -0.5384  0.5259 -0.0721
  268TMC3    H2 4112   3.199   3.676   0.515  0.3722  1.9248  0.3419
  268TMC3    C7 4113   3.017   3.479   0.535  0.3576 -0.1675 -0.1766
  268TMC3    C8 4114   3.209   3.850   0.317  0.3070 -0.0410 -0.3965
  268TMC3    O1 4115   3.047   3.477   0.655 -1.1621  0.4794  0.1952
  268TMC3    O2 4116   3.298   3.904   0.374  0.0234 -0.0628  0.0790
  269MPD2     C 4117   3.130   2.653  15.461 -0.0993  0.0718  0.6208
  269MPD2    C1 4118   3.011   2.675  15.529 -0.0476 -0.5294  0.7538
  269MPD2    C2 4119   2.959   2.800  15.516 -0.5681 -0.3608 -0.3788
  269MPD2    C3 4120   3.016   2.893  15.442 -0.0876  0.9481 -0.2962
  269MPD2    C4 4121   3.126   2.868  15.361 -0.8371 -0.6410 -0.2666
  269MPD2    C5 4122   3.182   2.745  15.376  0.6380 -0.4207 -0.4731
  269MPD2     H 4123   2.872   2.828  15.573 -0.2410  0.1714 -0.1437
  269MPD2    H1 4124   3.164   2.929  15.280 -0.8060 -0.9549 -0.4863
  269MPD2    H2 4125   3.171   2.552  15.463 -2.0948 -0.7870 -2.1622
  269MPD2    H3 4126   3.268   2.725  15.313 -0.4601 -0.5450 -1.9275
  269MPD2     N 4127   2.957   3.025  15.443  0.0109 -0.6949  0.3236
  269MPD2    H5 4128   2.867   3.034  15.490  0.9937 -1.1239  2.2610
  269MPD2    N1 4129   2.966   2.576  15.613 -0.1858  0.6561 -0.3546
  269MPD2    H7 4130   3.018   2.489  15.621 -0.8118  0.4060  1.0101
  270TMC3    C1 4131   2.838   2.433  15.745 -0.0248  0.0085 -0.0717
  270TMC3    C2 4132   2.714   2.405  15.785  0.1641  0.3883 -0.6537
  270TMC3    C3 4133   2.690   2.283  15.849  0.0500  0.1210 -0.0954
  270TMC3    C4 4134   2.941   2.353  15.758 -0.2153  0.6878  0.3268
  270TMC3    C5 4135   2.916   2.226  15.813  0.0868 -0.1726 -0.4386
  270TMC3    C6 4136   2.795   2.191  15.859  0.0891 -0.1492  0.0229
  270TMC3     C 4137   2.846   2.562  15.677 -0.8605 -0.0487  0.0131
  270TMC3     O 4138   2.753   2.642  15.679  0.8301  0.2889 -0.0279
  270TMC3     H 4139   2.633   2.473  15.760  0.0499  1.4557  2.6464
  270TMC3    H1 4140   3.043   2.378  15.730 -0.8927  1.0890 -1.7746
  270TMC3    H2 4141   2.778   2.088  15.886 -2.5683 -0.4556 -2.9229
  270TMC3    C7 4142   3.019   2.125  15.806  0.1239 -0.3281  0.3063
  270TMC3    C8 4143   2.569   2.226  15.793  0.1597 -0.1563  0.1204
  270TMC3    O1 4144   3.057   2.068  15.909  0.0785 -0.4193  0.2420
  270TMC3    O2 4145   2.480   2.306  15.778 -0.1362 -0.0952 -0.1731
  271MPD2     C 4146   1.988   2.123  14.127  0.2994 -0.7898 -0.3753
  271MPD2    C1 4147   1.927   2.091  14.250  0.3688  0.1965 -0.5228
  271MPD2    C2 4148   1.793   2.121  14.274  0.2145  0.8313  0.0014
  271MPD2    C3 4149   1.722   2.199  14.188  0.5835 -0.1644 -0.4206
  271MPD2    C4 4150   1.788   2.246  14.072 -0.6010 -0.0532  0.0108
  271MPD2    C5 4151   1.918   2.214  14.051  0.1534 -0.2277  0.6451
  271MPD2     H 4152   1.743   2.063  14.352  1.6711 -1.2671 -0.6268
  271MPD2    H1 4153   1.735   2.303  13.997  0.7112 -0.3315 -1.1362
  271MPD2    H2 4154   2.089   2.097  14.098 -0.0091 -2.0282 -0.3334
  271MPD2    H3 4155   1.959   2.241  13.954 -0.3788  0.6896  0.6761
  271MPD2     N 4156   1.585   2.230  14.202 -0.2068 -0.2672  0.0902
  271MPD2    H5 4157   1.536   2.281  14.129 -1.2721 -0.9860  0.3102
  271MPD2    N1 4158   1.987   1.998  14.334  0.1108  0.1853 -0.3862
  271MPD2    H7 4159   1.950   1.975  14.425 -1.2731  1.4850 -0.6235
  272TMC3    C1 4160   2.173   1.871  14.426 -0.3239 -0.3246 -0.0694
  272TMC3    C2 4161   2.307   1.823  14.418  0.4824  0.7911  1.0573
  272TMC3    C3 4162   2.379   1.788  14.529 -0.6588  0.1517 -0.3487
  272TMC3    C4 4163   2.119   1.895  14.551  0.5726  0.5173  0.4734
  272TMC3    C5 4164   2.195   1.858  14.660 -0.3443  0.1699 -0.0545
  272TMC3    C6 4165   2.324   1.807  14.654 -0.5130 -0.0902 -0.4095
  272TMC3     C 4166   2.104   1.923  14.308  0.6356 -0.3328  0.3121
  272TMC3     O 4167   2.158   1.912  14.194 -0.4442 -0.4399 -0.0091
  272TMC3     H 4168   2.350   1.799  14.322 -2.0400 -2.8403  0.8339
  272TMC3    H1 4169   2.012   1.912  14.562  0.7558  0.6434  2.1027
  272TMC3    H2 4170   2.382   1.788  14.744 -0.2924  0.4559 -0.4347
  272TMC3    C7 4171   2.146   1.907  14.790  0.3560  0.0237 -0.1384
  272TMC3    C8 4172   2.517   1.758  14.519  0.1818 -0.2277 -0.4258
  272TMC3    O1 4173   2.022   1.915  14.807  0.2051  0.3470 -0.0115
  272TMC3    O2 4174   2.575   1.794  14.418  0.3626 -0.1066  0.2260
  273MPD2     C 4175   3.597   4.677  11.803  0.3898  0.6934  0.4981
  273MPD2    C1 4176   3.664   0.052  11.764 -0.5321  0.1077 -0.2748
  273MPD2    C2 4177   3.618   0.132  11.661 -0.4628  0.4039 -0.9236
  273MPD2    C3 4178   3.501   0.094  11.590 -0.8355  0.8890 -0.8075
  273MPD2    C4 4179   3.436   4.719  11.630  0.1221 -0.4131 -0.6855
  273MPD2    C5 4180   3.484   4.641  11.733  0.2301 -0.6790 -0.2665
  273MPD2     H 4181   3.662   0.230  11.644  0.4937 -0.3353 -2.7551
  273MPD2    H1 4182   3.350   4.686  11.574  0.1348 -1.1581 -0.2692
  273MPD2    H2 4183   3.624   4.610  11.884  1.2023 -2.5431 -2.4361
  273MPD2    H3 4184   3.442   4.544  11.756 -1.3838  0.2114  0.5215
  273MPD2     N 4185   3.446   0.175  11.488 -0.0278  0.2993  0.7980
  273MPD2    H5 4186   3.359   0.140  11.449 -0.1516  2.0897 -0.5452
  273MPD2    N1 4187   3.765   0.094  11.852 -0.2880  0.5370  0.4888
  273MPD2    H7 4188   3.780   0.045  11.939 -0.6527  0.1688  0.3458
  274TMC3    C1 4189   3.406   0.383  11.358 -0.2859 -0.5125 -0.1276
  274TMC3    C2 4190   3.326   0.329  11.261 -0.3839 -0.1755 -0.9838
  274TMC3    C3 4191   3.264   0.416  11.179  0.3374  0.1868 -0.8543
  274TMC3    C4 4192   3.435   0.516  11.365 -0.0098 -0.3239  0.2805
  274TMC3    C5 4193   3.368   0.602  11.282 -0.1825  0.0489 -0.4412
  274TMC3    C6 4194   3.270   0.555  11.195 -0.3743 -0.3401 -0.1634
  274TMC3     C 4195   3.495   0.294  11.436 -0.7493  0.4019 -0.2396
  274TMC3     O 4196   3.606   0.344  11.445 -0.1337 -0.2070 -0.4221
  274TMC3     H 4197   3.325   0.222  11.245  1.4681 -0.3019 -0.2520
  274TMC3    H1 4198   3.497   0.553  11.446  2.6533 -2.0295 -0.9688
  274TMC3    H2 4199   3.230   0.621  11.119  1.8677  1.6312  0.3646
  274TMC3    C7 4200   3.395   0.748  11.286 -0.3092  0.7696  0.7303
  274TMC3    C8 4201   3.156   0.359  11.103 -0.2844  0.5037  0.4503
  274TMC3    O1 4202   3.293   0.821  11.285 -0.2700 -0.3544 -0.6970
  274TMC3    O2 4203   3.143   0.234  11.099 -0.2175 -0.0179 -0.5128
  275MPD2     C 4204   3.351   3.268  14.234 -0.4027 -0.0208 -0.2106
  275MPD2    C1 4205   3.360   3.176  14.333  0.4075  0.4101  0.1678
  275MPD2    C2 4206   3.273   3.072  14.351  0.0390 -0.2696  0.0749
  275MPD2    C3 4207   3.171   3.063  14.259 -0.3755 -0.1403 -0.0737
  275MPD2    C4 4208   3.155   3.152  14.155 -0.6885  0.5506  0.0199
  275MPD2    C5 4209   3.250   3.253  14.142  0.0972  1.0191  0.2755
  275MPD2     H 4210   3.283   3.011  14.440 -0.6794 -0.2195  0.1948
  275MPD2    H1 4211   3.079   3.145  14.078 -1.5921  0.8107  0.8839
  275MPD2    H2 4212   3.421   3.350  14.218 -1.4932  0.8854 -0.3178
  275MPD2    H3 4213   3.236   3.325  14.062 -0.7562  2.0253  1.3350
  275MPD2     N 4214   3.068   2.964  14.270  0.0355  0.5876 -1.0985
  275MPD2    H5 4215   2.986   2.976  14.211 -1.4968 -1.8243  0.4988
  275MPD2    N1 4216   3.457   3.200  14.439 -0.1867 -0.9664  0.2995
  275MPD2    H7 4217   3.451   3.131  14.513 -1.5916  1.8129  2.7368
  276TMC3    C1 4218   3.619   3.295  14.568 -0.1200 -0.6332  0.2601
  276TMC3    C2 4219   3.544   3.255  14.677  1.1936  1.1078  0.0375
  276TMC3    C3 4220   3.588   3.300  14.801  0.1641  0.3239 -0.0106
  276TMC3    C4 4221   3.729   3.375  14.591 -0.2018  0.2458 -0.0045
  276TMC3    C5 4222   3.776   3.401  14.713 -0.7360  0.2318  0.4746
  276TMC3    C6 4223   3.709   3.372  14.820 -0.2733  0.0594 -0.2754
  276TMC3     C 4224   3.547   3.301  14.441  0.2110  0.7146  0.4213
  276TMC3     O 4225   3.571   3.394  14.370  0.2094 -0.1010  0.3424
  276TMC3     H 4226   3.444   3.218  14.661  0.9725  1.8215 -0.2253
  276TMC3    H1 4227   3.786   3.409  14.506  2.3948 -0.8633  1.2975
  276TMC3    H2 4228   3.735   3.402  14.921 -0.9833 -0.7915  0.1708
  276TMC3    C7 4229   3.896   3.488  14.736  0.4913 -0.0850 -0.6983
  276TMC3    C8 4230   3.540   3.226  14.923 -0.2204 -0.3081 -0.4789
  276TMC3    O1 4231   3.908   3.528  14.852 -0.3222 -0.1819  0.7147
  276TMC3    O2 4232   3.530   3.286  15.029  0.1414  0.2621 -0.0948
  277MPD2     C 4233   0.733   2.033  13.336  0.2429 -0.0988  0.1585
  277MPD2    C1 4234   0.598   2.035  13.373  0.5776  0.6010 -0.3585
  277MPD2    C2 4235   0.556   2.001  13.495 -0.0357  0.0760 -0.3397
  277MPD2    C3 4236   0.643   1.951  13.588  0.7475 -0.7212  0.7117
  277MPD2    C4 4237   0.779   1.946  13.551  0.1882 -0.1496 -1.0258
  277MPD2    C5 4238   0.821   1.985  13.426  0.6123  0.0065  0.0111
  277MPD2     H 4239   0.452   2.000  13.525  0.2115 -1.9257  0.4706
  277MPD2    H1 4240   0.857   1.922  13.622  0.3871 -1.9822 -1.8732
  277MPD2    H2 4241   0.769   2.075  13.243 -0.6791  0.9332  0.2680
  277MPD2    H3 4242   0.927   1.980  13.404  0.9662 -0.1352  1.7532
  277MPD2     N 4243   0.599   1.932  13.719 -0.5768  0.4016 -0.4128
  277MPD2    H5 4244   0.504   1.963  13.737  0.6669  2.5769  2.2921
  277MPD2    N1 4245   0.514   2.083  13.269 -0.0872 -0.2100 -0.1511
  277MPD2    H7 4246   0.553   2.110  13.179  0.1751  1.5556  0.5029
  278TMC3    C1 4247   0.560   1.829  13.913  0.2433 -0.1626 -0.1754
  278TMC3    C2 4248   0.540   1.699  13.937  0.0032 -0.0184 -0.0276
  278TMC3    C3 4249   0.413   1.656  13.904  0.2168  0.1335 -0.3031
  278TMC3    C4 4250   0.464   1.921  13.904  0.6224  0.1349  0.2662
  278TMC3    C5 4251   0.340   1.873  13.877 -0.0528 -0.5687 -1.1301
  278TMC3    C6 4252   0.312   1.739  13.863 -0.4423  0.0435 -0.1433
  278TMC3     C 4253   0.661   1.853  13.813  0.2414 -0.5034  0.6455
  278TMC3     O 4254   0.762   1.788  13.818 -0.0228  0.4538  0.2758
  278TMC3     H 4255   0.616   1.623  13.954  1.5044  2.0584  2.3549
  278TMC3    H1 4256   0.477   2.028  13.914 -0.7504  0.5441 -2.2539
  278TMC3    H2 4257   0.220   1.707  13.816 -0.9230 -0.6226  1.2429
  278TMC3    C7 4258   0.259   1.967  13.802  0.0356 -0.5863 -0.1495
  278TMC3    C8 4259   0.393   1.510  13.900 -0.1620  0.3176  0.3974
  278TMC3    O1 4260   0.332   2.045  13.744 -0.2133  0.0691 -0.2820
  278TMC3    O2 4261   0.495   1.441  13.899  0.5151 -0.6824 -0.4543
  279MPD2     C 4262   4.680   1.267   0.376 -0.5951  0.7949 -0.3013
  279MPD2    C1 4263   4.552   1.320   0.366  0.1570 -0.1715 -0.5409
  279MPD2    C2 4264   4.539   1.442   0.294 -0.1154  0.7225  0.2058
  279MPD2    C3 4265   4.644   1.502   0.229  0.3545 -0.0417  0.2976
  279MPD2    C4 4266   0.029   1.438   0.230  0.2895  0.6619 -0.0885
  279MPD2    C5 4267   0.042   1.323   0.307  0.7058  0.3681  0.1588
  279MPD2     H 4268   4.451   1.504   0.287  0.5160  1.6948  0.9903
  279MPD2    H1 4269   0.114   1.464   0.167  1.1814  1.0936  1.2798
  279MPD2    H2 4270   4.690   1.176   0.434 -1.4756  0.3647 -0.8258
  279MPD2    H3 4271   0.136   1.269   0.311 -0.8725 -2.3128  1.1757
  279MPD2     N 4272   4.618   1.617   0.155 -0.7673  0.2356  0.4378
  279MPD2    H5 4273   4.528   1.658   0.179 -0.9298  0.2975 -0.3001
  279MPD2    N1 4274   4.445   1.240   0.420  0.7448 -0.3891 -0.3223
  279MPD2    H7 4275   4.487   1.154   0.455 -0.3130 -0.1790  1.4654
  280TMC3    C1 4276   4.225   1.361   0.379  0.0386 -0.8570 -0.3217
  280TMC3    C2 4277   4.094   1.325   0.355  0.0433 -0.6177  0.2483
  280TMC3    C3 4278   4.015   1.432   0.346 -0.2794 -0.7663  0.0004
  280TMC3    C4 4279   4.252   1.489   0.422 -0.0651 -0.0139 -0.7800
  280TMC3    C5 4280   4.161   1.588   0.403  0.6301 -0.3458  0.0454
  280TMC3    C6 4281   4.036   1.566   0.363 -0.3130  0.4040  0.0384
  280TMC3     C 4282   4.310   1.245   0.421 -0.0426 -0.1893  0.2086
  280TMC3     O 4283   4.244   1.145   0.450 -0.2296 -0.0293  0.1991
  280TMC3     H 4284   4.067   1.221   0.339  0.4636 -0.8116  0.7738
  280TMC3    H1 4285   4.352   1.504   0.461 -0.3460  2.0041 -0.8442
  280TMC3    H2 4286   3.967   1.647   0.344 -1.4595 -0.7187 -0.6132
  280TMC3    C7 4287   4.218   1.720   0.375 -0.2294 -0.7638 -0.0011
  280TMC3    C8 4288   3.886   1.412   0.286  0.4010  0.0845 -0.6008
  280TMC3    O1 4289   4.338   1.710   0.385 -0.3242 -0.2404  0.4685
  280TMC3    O2 4290   3.803   1.497   0.314 -0.6849  0.9442  0.4181
  281TMC3    C1 4291   2.406   2.557  13.595 -0.1459  0.2242  1.0351
  281TMC3    C2 4292   2.525   2.621  13.582 -0.1879  0.2894  0.0704
  281TMC3    C3 4293   2.629   2.537  13.547 -0.3598  0.2194  0.3347
  281TMC3    C4 4294   2.392   2.423  13.581 -0.0247 -0.1319  0.0605
  281TMC3    C5 4295   2.501   2.345  13.568 -0.1102  0.1579 -0.3958
  281TMC3    C6 4296   2.624   2.399  13.549 -0.4328  0.1683 -0.1232
  281TMC3     C 4297   2.285   2.616  13.534  0.4986  0.3118  0.8760
  281TMC3     O 4298   2.199   2.543  13.490 -0.1751 -0.2300 -0.0465
  281TMC3     H 4299   2.552   2.724  13.602 -1.3822  0.5078  0.5465
  281TMC3    H1 4300   2.298   2.375  13.608  0.5254 -0.5799  1.1858
  281TMC3    H2 4301   2.708   2.336  13.520  0.4391  1.8075 -1.1618
  281TMC3    C7 4302   2.483   2.205  13.565  0.1219 -0.4615 -0.1213
  281TMC3    C8 4303   2.759   2.597  13.545  0.4350 -0.4298  0.4677
  281TMC3    O1 4304   2.367   2.168  13.556  0.7010  0.1986  0.4906
  281TMC3    O2 4305   2.841   2.527  13.601  0.4137 -0.0910  0.2751
  282MPD2     C 4306   0.557   3.679  15.037  0.4811 -0.1647 -0.2743
  282MPD2    C1 4307   0.428   3.744  15.034  0.3495 -0.4539  1.4282
  282MPD2    C2 4308   0.354   3.746  14.915 -0.5713  0.0147 -0.0745
  282MPD2    C3 4309   0.406   3.683  14.807 -0.1717 -0.2166 -0.1814
  282MPD2    C4 4310   0.537   3.629  14.819 -0.4757  0.4813 -0.6280
  282MPD2    C5 4311   0.609   3.632  14.930  0.6564  0.0507 -0.1404
  282MPD2     H 4312   0.256   3.791  14.914 -0.1405  0.9138 -1.6794
  282MPD2    H1 4313   0.578   3.571  14.737 -3.2341 -1.1779 -0.8487
  282MPD2    H2 4314   0.618   3.663  15.126  0.3017 -0.5012 -0.2136
  282MPD2    H3 4315   0.700   3.573  14.930  0.3159 -0.4780 -0.6338
  282MPD2     N 4316   0.336   3.680  14.685  0.2567  0.2157  0.0306
  282MPD2    H5 4317   0.241   3.717  14.687  0.0541 -0.3110  0.0862
  282MPD2    N1 4318   0.369   3.804  15.149  0.3828 -0.3889 -0.4806
  282MPD2    H7 4319   0.273   3.836  15.136 -0.3345 -1.2472  2.7395
  283TMC3    C1 4320   0.344   3.841  15.374  0.5889  0.3962  0.2216
  283TMC3    C2 4321   0.297   3.966  15.398 -0.2931 -0.4118 -0.8491
  283TMC3    C3 4322   0.203   3.979  15.498  0.4475  0.4942  0.6345
  283TMC3    C4 4323   0.304   3.732  15.439  0.4705 -0.5551 -0.2646
  283TMC3    C5 4324   0.210   3.749  15.536  0.4328  0.0557 -0.7309
  283TMC3    C6 4325   0.154   3.870  15.565  0.5569 -0.1988 -0.7851
  283TMC3     C 4326   0.431   3.813  15.269  0.4766  0.0313 -0.1898
  283TMC3     O 4327   0.539   3.771  15.314 -0.4313  0.1902  0.6171
  283TMC3     H 4328   0.337   4.045  15.335 -2.4917  1.0351 -0.4420
  283TMC3    H1 4329   0.336   3.635  15.404  0.8751 -0.4110 -0.2936
  283TMC3    H2 4330   0.078   3.893  15.639  0.5396 -0.6905 -0.6518
  283TMC3    C7 4331   0.131   3.639  15.589 -0.6135 -0.9272 -0.0488
  283TMC3    C8 4332   0.165   4.114  15.551 -0.4249  0.4415  0.1497
  283TMC3    O1 4333   0.043   3.656  15.671  0.4392  0.2175  0.5179
  283TMC3    O2 4334   0.157   4.115  15.673  0.6180 -0.4684 -0.2361
  284MPD2     C 4335   2.677   2.980  12.392 -0.3628  0.3831 -0.4786
  284MPD2    C1 4336   2.810   3.016  12.413  0.3246  0.2459  0.3791
  284MPD2    C2 4337   2.885   2.946  12.506  1.0740  0.0113 -0.2005
  284MPD2    C3 4338   2.824   2.855  12.593 -0.2137 -0.0174  0.2663
  284MPD2    C4 4339   2.695   2.827  12.578 -0.8000 -0.4221 -0.1944
  284MPD2    C5 4340   2.619   2.888  12.477 -0.2994  0.4504 -1.0490
  284MPD2     H 4341   2.994   2.953  12.507  1.1232 -1.0905  2.5067
  284MPD2    H1 4342   2.637   2.776  12.654  0.8872 -0.9660  0.7195
  284MPD2    H2 4343   2.612   3.015  12.313 -1.6983  0.8081  0.8063
  284MPD2    H3 4344   2.515   2.858  12.474 -1.2223  3.5160  0.4079
  284MPD2     N 4345   2.895   2.793  12.700 -0.1601 -0.2449  0.6926
  284MPD2    H5 4346   2.848   2.724  12.757 -1.6512 -0.2805 -0.5753
  284MPD2    N1 4347   2.867   3.110  12.330  0.2357 -0.2205  0.2343
  284MPD2    H7 4348   2.966   3.131  12.340 -0.1419  1.1716  1.0091
  285TMC3    C1 4349   2.893   3.264  12.152 -0.1140 -0.8591 -0.7759
  285TMC3    C2 4350   3.027   3.238  12.155 -0.5365 -0.8469 -0.0320
  285TMC3    C3 4351   3.123   3.321  12.116  0.1776  0.5613  0.3388
  285TMC3    C4 4352   2.857   3.391  12.114  0.1755 -0.2945  0.0926
  285TMC3    C5 4353   2.960   3.482  12.093 -0.1240 -0.6833  0.4064
  285TMC3    C6 4354   3.091   3.451  12.091 -0.1052 -0.1690 -0.6803
  285TMC3     C 4355   2.804   3.185  12.234 -0.1773  0.5160  0.4216
  285TMC3     O 4356   2.684   3.194  12.200  0.1070 -0.6799  0.0317
  285TMC3     H 4357   3.056   3.137  12.180 -0.9144 -1.5525 -2.4493
  285TMC3    H1 4358   2.751   3.413  12.126 -0.3454 -2.4523 -0.5212
  285TMC3    H2 4359   3.171   3.523  12.073 -1.2395  0.9235 -1.3122
  285TMC3    C7 4360   2.915   3.613  12.070  0.1299  0.4632 -0.0440
  285TMC3    C8 4361   3.239   3.256  12.063 -1.0010  0.0397 -0.0783
  285TMC3    O1 4362   2.800   3.630  12.033  0.0428  0.0020  0.2403
  285TMC3    O2 4363   3.268   3.147  12.116 -0.4259  0.1523  0.2458
  286MPD2     C 4364   2.651   1.054   1.436  0.4286 -0.8602  0.9834
  286MPD2    C1 4365   2.656   1.081   1.296  0.2789  0.5360  0.7342
  286MPD2    C2 4366   2.766   1.030   1.227  0.6061 -0.5078 -1.2059
  286MPD2    C3 4367   2.859   0.952   1.292 -0.2375  0.4481  0.5449
  286MPD2    C4 4368   2.845   0.923   1.429  0.4385  0.7101  0.1523
  286MPD2    C5 4369   2.732   0.968   1.493  0.5016 -0.0696  0.6547
  286MPD2     H 4370   2.782   1.061   1.124 -3.5466  0.2749 -1.6108
  286MPD2    H1 4371   2.910   0.859   1.488  0.6033  2.5188  1.9347
  286MPD2    H2 4372   2.574   1.102   1.496 -2.0230 -3.5825 -0.0218
  286MPD2    H3 4373   2.719   0.937   1.597  0.4248  2.3855  1.3702
  286MPD2     N 4374   2.972   0.904   1.221  0.4805 -0.4909  0.3616
  286MPD2    H5 4375   3.042   0.851   1.272 -1.5765 -1.0785  2.5328
  286MPD2    N1 4376   2.576   1.177   1.230 -0.2131 -1.5598 -0.0997
  286MPD2    H7 4377   2.605   1.198   1.135  0.8485 -1.6905  0.1952
  287TMC3    C1 4378   3.113   0.854   1.053 -0.5972  0.1231  0.9270
  287TMC3    C2 4379   3.113   0.816   0.920  0.1686 -0.6211  0.6583
  287TMC3    C3 4380   3.235   0.819   0.858  0.6201 -0.3894  0.5908
  287TMC3    C4 4381   3.214   0.911   1.118 -0.1027 -0.4619  0.8945
  287TMC3    C5 4382   3.332   0.896   1.053  0.0606  0.1605 -0.2066
  287TMC3    C6 4383   3.349   0.858   0.922  0.9823  0.9334  0.5354
  287TMC3     C 4384   2.984   0.908   1.085  0.2294 -0.1919 -0.5853
  287TMC3     O 4385   2.908   0.942   0.994 -0.5075  0.4059 -0.4481
  287TMC3     H 4386   3.030   0.776   0.863 -0.1456  0.5208  0.3116
  287TMC3    H1 4387   3.212   0.944   1.221 -0.0918  0.7172  0.5087
  287TMC3    H2 4388   3.450   0.849   0.883  0.9516 -0.5408  0.8258
  287TMC3    C7 4389   3.444   0.941   1.130 -0.4490 -0.2581 -0.4822
  287TMC3    C8 4390   3.243   0.776   0.718  0.4820 -0.4669 -0.4041
  287TMC3    O1 4391   3.428   1.043   1.199  0.1548  0.2863  0.2165
  287TMC3    O2 4392   3.156   0.693   0.690  0.4826  0.0394 -0.2354
  288TMC3    C1 4393   0.086   1.251  14.366  0.3881 -0.8166  1.0175
  288TMC3    C2 4394   0.077   1.291  14.502  0.2097 -0.4986 -0.0659
  288TMC3    C3 4395   0.105   1.420  14.540  0.6873 -0.1106 -0.4086
  288TMC3    C4 4396   0.091   1.348  14.270  0.8812 -0.5541 -0.1236
  288TMC3    C5 4397   0.134   1.472  14.314  0.1554 -0.0945 -0.9013
  288TMC3    C6 4398   0.138   1.511  14.445 -0.1271  0.1293  0.6748
  288TMC3     C 4399   0.037   1.121  14.335  0.0187 -0.0118 -0.7736
  288TMC3     O 4400   4.694   1.108  14.242 -0.1634  0.4275  0.2729
  288TMC3     H 4401   0.033   1.223  14.574  0.6831 -0.5651  0.1609
  288TMC3    H1 4402   0.095   1.331  14.163  0.3143  0.4410 -0.3059
  288TMC3    H2 4403   0.150   1.615  14.470  1.9711  0.0405  0.0499
  288TMC3    C7 4404   0.105   1.577  14.224 -0.6648 -0.2784  0.9452
  288TMC3    C8 4405   0.066   1.471  14.672 -0.0445  0.0882  0.5539
  288TMC3    O1 4406   0.019   1.557  14.142 -0.1184 -0.4477 -0.2430
  288TMC3    O2 4407   0.064   1.592  14.681  0.1947 -0.1176 -0.4929
  289MPD2     C 4408   0.475   0.570  14.414  0.3290 -0.0269  0.2084
  289MPD2    C1 4409   0.468   0.696  14.351 -0.0765 -0.0416  0.2844
  289MPD2    C2 4410   0.355   0.732  14.275 -0.3244 -0.8878  1.1035
  289MPD2    C3 4411   0.249   0.645  14.264  0.3192 -0.9370  0.4510
  289MPD2    C4 4412   0.254   0.527  14.329  0.0971 -1.0468 -0.5155
  289MPD2    C5 4413   0.369   0.488  14.396  0.5763 -0.5196  0.1230
  289MPD2     H 4414   0.345   0.828  14.225 -1.2931 -1.2390  0.6223
  289MPD2    H1 4415   0.165   0.465  14.329 -0.3098 -0.4587 -1.3324
  289MPD2    H2 4416   0.563   0.537  14.468  1.4827  0.1787 -1.5258
  289MPD2    H3 4417   0.371   0.388  14.437 -1.6341 -1.0017 -0.8999
  289MPD2     N 4418   0.134   0.668  14.182  0.7852 -0.4674 -0.4814
  289MPD2    H5 4419   0.063   0.596  14.187  0.9120 -0.5879 -0.4329
  289MPD2    N1 4420   0.579   0.780  14.371 -0.3081 -0.1412 -0.2168
  289MPD2    H7 4421   0.661   0.744  14.419  0.5053  1.8647 -0.1427
  290TMC3    C1 4422   4.730   0.757  14.023  0.3777 -0.3719 -0.3820
  290TMC3    C2 4423   4.689   0.880  13.971 -0.2152  1.3483  0.4943
  290TMC3    C3 4424   4.620   0.880  13.851 -0.0639  0.7399 -0.1226
  290TMC3    C4 4425   4.706   0.643  13.953 -0.5246  0.0638 -0.0993
  290TMC3    C5 4426   4.624   0.649  13.843  0.3395 -0.2858  0.2152
  290TMC3    C6 4427   4.583   0.765  13.790  0.1316 -0.4807  0.0236
  290TMC3     C 4428   0.113   0.770  14.099 -0.1129 -0.4189 -0.5363
  290TMC3     O 4429   0.182   0.874  14.079  0.2998  0.7044  0.1737
  290TMC3     H 4430   0.003   0.970  14.005 -0.8886  1.5833  0.8840
  290TMC3    H1 4431   4.735   0.548  13.997 -1.6083 -0.6094 -0.8403
  290TMC3    H2 4432   4.503   0.768  13.717  1.3573 -1.4726 -1.3575
  290TMC3    C7 4433   4.522   0.546  13.840 -0.8056 -0.3837  0.4605
  290TMC3    C8 4434   4.542   0.997  13.817  0.1819 -0.4739 -0.2741
  290TMC3    O1 4435   4.413   0.579  13.797 -0.2673 -0.4732  0.0717
  290TMC3    O2 4436   4.461   0.985  13.725  0.1444 -0.2188 -0.4828
  291MPD2     C 4437   3.681   0.520   0.134 -0.9550 -0.1720  0.0094
  291MPD2    C1 4438   3.805   0.467   0.125  0.3556 -0.2160 -0.3628
  291MPD2    C2 4439   3.916   0.546   0.149 -0.1408  0.0288 -0.3495
  291MPD2    C3 4440   3.901   0.682   0.175  0.9314 -0.3146  0.3361
  291MPD2    C4 4441   3.772   0.741   0.169 -0.3126 -0.1732 -0.0345
  291MPD2    C5 4442   3.668   0.654   0.149  0.1480 -0.6532  0.4860
  291MPD2     H 4443   4.008   0.493   0.132  0.6291  0.9955  0.8075
  291MPD2    H1 4444   3.757   0.847   0.191 -0.6227 -0.0775 -0.6993
  291MPD2    H2 4445   3.586   0.474   0.108 -1.0854  1.6784 -2.8146
  291MPD2    H3 4446   3.570   0.699   0.136 -0.8440 -2.2889  2.1284
  291MPD2     N 4447   4.015   0.761   0.214 -0.0081  0.1000  0.8533
  291MPD2    H5 4448   4.004   0.862   0.222  0.4462  0.4906 -3.6102
  291MPD2    N1 4449   3.832   0.330   0.095 -0.3553  0.7443 -0.1368
  291MPD2    H7 4450   3.931   0.309   0.092 -0.8161 -1.6039  0.8104
  292TMC3    C1 4451   3.802   0.112   0.070  0.3765 -0.4990 -1.0933
  292TMC3    C2 4452   3.875   0.079   0.176  0.9100 -0.5231 -0.1080
  292TMC3    C3 4453   3.934   4.693   0.177  1.0234  0.6542 -0.0175
  292TMC3    C4 4454   3.774   0.018  17.718  0.2589 -0.4695  0.3028
  292TMC3    C5 4455   3.829   4.635  17.725 -0.2230 -0.8940 -0.0488
  292TMC3    C6 4456   3.915   4.600   0.080  0.0176  0.1704 -0.3993
  292TMC3     C 4457   3.740   0.237   0.064  0.8703 -0.1948 -0.8392
  292TMC3     O 4458   3.619   0.249   0.046  0.2930  0.0260  0.2580
  292TMC3     H 4459   3.881   0.147   0.259 -0.7360  0.7977 -1.0886
  292TMC3    H1 4460   3.714   0.051  17.634 -0.8424 -1.0441  0.8745
  292TMC3    H2 4461   3.960   4.502   0.091  1.1602  0.7541  0.0716
  292TMC3    C7 4462   3.836   4.557  17.609 -0.5256 -0.3755 -0.2017
  292TMC3    C8 4463   4.020   4.666   0.290 -0.2687  0.2511 -0.2662
  292TMC3    O1 4464   3.939   4.496  17.584 -0.2856  0.0422  0.1685
  292TMC3    O2 4465   4.025   0.012   0.380  0.2640 -0.2334  0.0528
  293MPD2     C 4466   1.444   1.572  12.592 -0.2408  0.6454 -0.0518
  293MPD2    C1 4467   1.363   1.663  12.655  1.2570 -1.0975 -0.5607
  293MPD2    C2 4468   1.419   1.746  12.749 -0.4981 -0.3338  0.0469
  293MPD2    C3 4469   1.559   1.746  12.773  0.3994 -0.0551  0.0358
  293MPD2    C4 4470   1.635   1.649  12.714  0.3666 -0.6535  0.1642
  293MPD2    C5 4471   1.577   1.559  12.627 -0.6423 -0.3332 -0.2319
  293MPD2     H 4472   1.359   1.823  12.795  0.8621 -1.0737  3.0705
  293MPD2    H1 4473   1.740   1.640  12.741 -0.2183 -1.6518  2.0745
  293MPD2    H2 4474   1.401   1.494  12.531  1.6252  1.3074 -2.2112
  293MPD2    H3 4475   1.637   1.479  12.584 -0.2976 -1.4539  2.3231
  293MPD2     N 4476   1.602   1.839  12.872  0.1397 -0.2030 -0.3581
  293MPD2    H5 4477   1.529   1.893  12.917  1.9733  0.9168  1.2721
  293MPD2    N1 4478   1.226   1.653  12.617 -0.7757 -0.3649 -0.9384
  293MPD2    H7 4479   1.200   1.589  12.543 -1.4646 -1.8962  0.6273
  294TMC3    C1 4480   1.001   1.705  12.625 -0.1394 -0.5170  0.3837
  294TMC3    C2 4481   0.976   1.585  12.573 -0.3655 -0.3711  0.7160
  294TMC3    C3 4482   0.842   1.566  12.541  0.4707  0.2798 -0.1736
  294TMC3    C4 4483   0.909   1.800  12.656 -0.0610  0.0226  0.2538
  294TMC3    C5 4484   0.782   1.779  12.619 -1.2023  0.6473 -0.6336
  294TMC3    C6 4485   0.743   1.655  12.570 -0.1745 -0.4129 -0.2453
  294TMC3     C 4486   1.132   1.736  12.666  0.1770  0.9896 -0.8232
  294TMC3     O 4487   1.143   1.813  12.757 -0.0105  0.3180  0.2775
  294TMC3     H 4488   1.051   1.512  12.546 -1.1096 -1.4995  1.6827
  294TMC3    H1 4489   0.936   1.894  12.704 -0.1458  0.6165 -0.8654
  294TMC3    H2 4490   0.638   1.629  12.554 -0.1548 -2.4805  2.9826
  294TMC3    C7 4491   0.727   1.893  12.548  0.5910 -0.2324  0.6692
  294TMC3    C8 4492   0.816   1.475  12.435 -0.2867 -0.0610 -0.1367
  294TMC3    O1 4493   0.604   1.884  12.543 -0.4286  0.3930 -0.2714
  294TMC3    O2 4494   0.915   1.427  12.376  0.3358  0.3041  0.3326
  295MPD2     C 4495   1.081   0.888   1.462 -0.0935 -0.3748  0.5187
  295MPD2    C1 4496   1.048   0.973   1.363 -0.8024 -0.1084  0.0280
  295MPD2    C2 4497   0.965   1.082   1.394  0.1353 -0.3573 -0.0381
  295MPD2    C3 4498   0.916   1.096   1.525 -0.2649 -0.6973 -0.3335
  295MPD2    C4 4499   0.952   1.008   1.617  0.4519  0.3213 -0.3489
  295MPD2    C5 4500   1.040   0.909   1.590  0.4349  0.1018 -0.1876
  295MPD2     H 4501   0.936   1.149   1.314 -1.2238 -0.8281  0.0543
  295MPD2    H1 4502   0.901   1.022   1.712 -1.1177  0.5241 -1.2207
  295MPD2    H2 4503   1.153   0.807   1.450  0.6151  0.0279  1.9789
  295MPD2    H3 4504   1.072   0.843   1.669  2.6295 -1.5158 -2.4439
  295MPD2     N 4505   0.824   1.201   1.558  0.4608  0.1716  0.6421
  295MPD2    H5 4506   0.768   1.190   1.642 -0.2254  1.5327  0.3536
  295MPD2    N1 4507   1.094   0.952   1.230 -0.2801 -0.0229  0.0019
  295MPD2    H7 4508   1.075   1.027   1.165 -2.7766 -0.9703 -0.3578
  296TMC3    C1 4509   0.676   1.369   1.517 -0.0635  0.7266  0.2432
  296TMC3    C2 4510   0.655   1.496   1.471  0.0966  0.2938 -0.5713
  296TMC3    C3 4511   0.523   1.552   1.471 -0.1795 -0.2439  0.1863
  296TMC3    C4 4512   0.577   1.296   1.574  0.4058 -0.6640 -0.2737
  296TMC3    C5 4513   0.445   1.353   1.567  0.2940 -0.8939 -0.1584
  296TMC3    C6 4514   0.422   1.483   1.527  0.4845 -0.1553 -0.0323
  296TMC3     C 4515   0.802   1.314   1.482  0.2303  0.8671 -0.1263
  296TMC3     O 4516   0.865   1.360   1.386 -0.7737 -0.3005  0.0682
  296TMC3     H 4517   0.741   1.547   1.430 -0.7729  0.9582 -1.5795
  296TMC3    H1 4518   0.589   1.188   1.573 -0.7443 -0.8029  0.7307
  296TMC3    H2 4519   0.323   1.527   1.536 -0.0891 -0.9773 -2.1910
  296TMC3    C7 4520   0.325   1.281   1.623  0.9680 -0.3637  0.6458
  296TMC3    C8 4521   0.517   1.666   1.378  0.5904  0.3829 -0.4558
  296TMC3    O1 4522   0.220   1.348   1.633 -0.3878 -0.2958 -0.2374
  296TMC3    O2 4523   0.623   1.706   1.327 -0.4267  0.4964 -0.0321
  297MPD2     C 4524   4.341   2.297  16.299 -0.0753  1.1675  0.0979
  297MPD2    C1 4525   4.277   2.364  16.197 -0.1255 -0.5776 -0.1263
  297MPD2    C2 4526   4.356   2.444  16.118  0.3855 -0.7520  0.1987
  297MPD2    C3 4527   4.491   2.455  16.142 -0.7017 -0.0123  0.2287
  297MPD2    C4 4528   4.554   2.388  16.242  0.1746  0.0696 -1.4679
  297MPD2    C5 4529   4.473   2.300  16.318 -0.0507 -0.2935  0.6716
  297MPD2     H 4530   4.315   2.502  16.036 -0.6997  0.3977  1.5344
  297MPD2    H1 4531   4.659   2.404  16.263  0.1473 -1.0427 -0.4428
  297MPD2    H2 4532   4.291   2.231  16.369 -0.5247 -1.0825 -2.3229
  297MPD2    H3 4533   4.524   2.239  16.391  2.4910  1.4503  0.3562
  297MPD2     N 4534   4.560   2.547  16.060 -0.4001 -0.0693  0.0673
  297MPD2    H5 4535   4.506   2.590  15.985  0.1164  0.7117  0.1459
  297MPD2    N1 4536   4.140   2.353  16.172 -0.5624 -0.6500 -0.0909
  297MPD2    H7 4537   4.105   2.404  16.092 -2.2091 -1.8017 -0.1028
  298TMC3    C1 4538   3.910   2.287  16.206  0.3094  0.8580 -0.1885
  298TMC3    C2 4539   3.895   2.289  16.076 -0.2115  0.2026 -0.0576
  298TMC3    C3 4540   3.774   2.326  16.031 -0.5007  0.1031  0.2743
  298TMC3    C4 4541   3.811   2.327  16.293  0.1029  0.3253  0.7882
  298TMC3    C5 4542   3.684   2.347  16.246  0.6010 -0.4480  0.5201
  298TMC3    C6 4543   3.667   2.353  16.112 -0.1221  0.0691  0.7428
  298TMC3     C 4544   4.044   2.304  16.258  0.0307  0.2323 -0.6466
  298TMC3     O 4545   4.060   2.292  16.379  0.1152  0.0374 -1.3427
  298TMC3     H 4546   3.978   2.245  16.021 -0.1564 -0.6722  0.7132
  298TMC3    H1 4547   3.830   2.332  16.399 -0.6818 -1.4041  1.0029
  298TMC3    H2 4548   3.569   2.377  16.073 -0.1893  0.9108  1.4175
  298TMC3    C7 4549   3.599   2.416  16.345  0.3827 -0.8223  0.0948
  298TMC3    C8 4550   3.775   2.344  15.890  0.2615  0.1587  0.2384
  298TMC3    O1 4551   3.607   2.376  16.460 -0.0166  0.3700  0.5464
  298TMC3    O2 4552   3.864   2.287  15.831 -0.1890  0.2737  0.5100
  299MPD2     C 4553   4.554   2.972  10.749 -0.1919 -0.1276  0.1224
  299MPD2    C1 4554   4.512   2.877  10.830  0.9495 -0.0276  0.0765
  299MPD2    C2 4555   4.387   2.820  10.795 -0.0459  0.6694 -0.4242
  299MPD2    C3 4556   4.313   2.850  10.692  0.1077 -1.0503  0.2056
  299MPD2    C4 4557   4.354   2.954  10.616 -0.4484  0.3115 -0.0041
  299MPD2    C5 4558   4.476   3.011  10.642  0.0622 -0.2242  0.2270
  299MPD2     H 4559   4.356   2.748  10.870 -0.1809 -0.1786 -1.2937
  299MPD2    H1 4560   4.300   2.976  10.525  1.0771  1.1614 -0.6952
  299MPD2    H2 4561   4.649   3.023  10.762 -1.0849  1.3011  1.0432
  299MPD2    H3 4562   4.505   3.088  10.572 -0.5037  0.2375  0.4975
  299MPD2     N 4563   4.188   2.790  10.657  0.7248  0.4674 -0.4897
  299MPD2    H5 4564   4.133   2.830  10.582 -0.0839  1.0109  0.3951
  299MPD2    N1 4565   4.597   2.848  10.944 -0.2054  0.0304 -0.0879
  299MPD2    H7 4566   4.687   2.896  10.951  1.5992 -3.0869 -1.9154
  300TMC3    C1 4567   3.998   2.657  10.694  0.8135  0.3972 -0.0201
  300TMC3    C2 4568   3.919   2.772  10.675 -0.3912  0.4143  1.0355
  300TMC3    C3 4569   3.789   2.770  10.724  0.0698 -0.7743  0.4161
  300TMC3    C4 4570   3.954   2.549  10.758 -0.2538  0.1068 -1.2227
  300TMC3    C5 4571   3.821   2.548  10.795  0.1808  0.7602  0.4732
  300TMC3    C6 4572   3.742   2.653  10.780 -1.0129  0.0842  0.4243
  300TMC3     C 4573   4.140   2.675  10.717  0.0336  1.0221  0.1651
  300TMC3     O 4574   4.188   2.613  10.815 -0.2982  0.1300  0.4771
  300TMC3     H 4575   3.949   2.870  10.640  0.7479 -0.4688 -0.4337
  300TMC3    H1 4576   4.012   2.458  10.766 -0.7130  0.0600  1.7046
  300TMC3    H2 4577   3.640   2.651  10.815 -0.9776  0.1416  0.5301
  300TMC3    C7 4578   3.784   2.433  10.870 -0.8225  0.5120 -0.5027
  300TMC3    C8 4579   3.724   2.901  10.726  0.1553  0.7979  0.9504
  300TMC3    O1 4580   3.827   2.322  10.844 -0.0660  0.1015  0.2403
  300TMC3    O2 4581   3.797   2.998  10.704  0.0921  0.3927  0.0878
  301MPD2     C 4582   1.565   3.525   1.457  0.6100  0.6107  0.5492
  301MPD2    C1 4583   1.446   3.515   1.394 -0.2095  0.6487  0.7430
  301MPD2    C2 4584   1.423   3.411   1.302 -0.1819  0.1929 -0.7064
  301MPD2    C3 4585   1.520   3.313   1.285  0.0929  0.4905 -0.2308
  301MPD2    C4 4586   1.641   3.329   1.352 -0.9488 -0.2254 -0.6650
  301MPD2    C5 4587   1.663   3.433   1.438  0.3330 -0.4260  0.1327
  301MPD2     H 4588   1.333   3.412   1.242 -1.5277  1.0066  1.3463
  301MPD2    H1 4589   1.722   3.261   1.332 -0.7215 -0.3604  0.7240
  301MPD2    H2 4590   1.576   3.601   1.533  1.7612  1.5987 -0.6097
  301MPD2    H3 4591   1.757   3.454   1.488  0.0552 -1.6623  1.1730
  301MPD2     N 4592   1.505   3.202   1.195 -0.5778 -1.0465 -0.8950
  301MPD2    H5 4593   1.591   3.154   1.169 -0.6397 -0.7413 -1.6422
  301MPD2    N1 4594   1.338   3.594   1.423 -0.0791 -0.6407 -0.3442
  301MPD2    H7 4595   1.260   3.578   1.360 -1.4549 -1.4762  1.5706
  302TMC3    C1 4596   1.389   3.086   1.027 -0.0593  0.4325  0.3398
  302TMC3    C2 4597   1.486   2.992   1.025 -0.0032 -0.8880 -0.2283
  302TMC3    C3 4598   1.478   2.894   0.927  0.1069  0.1894  0.3480
  302TMC3    C4 4599   1.272   3.066   0.944 -0.0776  0.4715 -0.4095
  302TMC3    C5 4600   1.263   2.965   0.862 -0.0416  0.2663  0.0281
  302TMC3    C6 4601   1.374   2.879   0.846 -0.1170  0.1967  0.4720
  302TMC3     C 4602   1.378   3.174   1.139 -0.7248 -0.8553 -0.0626
  302TMC3     O 4603   1.266   3.219   1.157 -0.1373  0.0459  0.0561
  302TMC3     H 4604   1.576   2.989   1.085 -1.8355 -1.8510  2.4837
  302TMC3    H1 4605   1.189   3.136   0.943 -0.5341 -0.0804 -1.7185
  302TMC3    H2 4606   1.375   2.791   0.782 -2.2483  0.6113 -0.1185
  302TMC3    C7 4607   1.170   2.968   0.753 -0.0460 -0.1786  0.7633
  302TMC3    C8 4608   1.588   2.801   0.920 -0.3297 -0.5123 -0.5739
  302TMC3    O1 4609   1.200   2.919   0.647  0.1941 -0.5681 -0.3166
  302TMC3    O2 4610   1.633   2.760   1.024 -0.5947 -0.1317 -0.8096
  303MPD2     C 4611   2.070   2.775  10.927 -1.0124  0.6414 -0.6174
  303MPD2    C1 4612   1.945   2.704  10.915 -0.2419  0.2354 -0.1472
  303MPD2    C2 4613   1.853   2.744  10.818  0.3470 -1.0263  0.2388
  303MPD2    C3 4614   1.884   2.853  10.740  0.1864  0.8299 -0.3079
  303MPD2    C4 4615   2.004   2.924  10.759 -0.2182 -0.0042  0.0570
  303MPD2    C5 4616   2.097   2.883  10.850  0.5892  0.1176 -0.2297
  303MPD2     H 4617   1.766   2.680  10.803  0.5564 -1.5763  1.3260
  303MPD2    H1 4618   2.039   3.013  10.708 -0.6739 -0.2957 -0.7492
  303MPD2    H2 4619   2.145   2.749  11.001 -1.1851  0.2094 -0.5900
  303MPD2    H3 4620   2.181   2.951  10.866  0.7700 -0.3036  0.5987
  303MPD2     N 4621   1.806   2.890  10.627  0.0473 -0.3987 -0.0582
  303MPD2    H5 4622   1.833   2.963  10.562  1.0345 -1.6095 -1.0025
  303MPD2    N1 4623   1.904   2.600  11.004 -0.1487  0.2017  1.2059
  303MPD2    H7 4624   1.814   2.559  10.982 -0.2184  0.0346  1.8076
  304TMC3    C1 4625   1.923   2.420  11.150  0.2161  0.4524  0.6759
  304TMC3    C2 4626   1.791   2.422  11.193 -0.1417 -0.7015  0.2714
  304TMC3    C3 4627   1.748   2.315  11.262  0.4074  0.4876 -0.5589
  304TMC3    C4 4628   2.004   2.315  11.169 -0.3086 -0.1213 -0.5948
  304TMC3    C5 4629   1.953   2.203  11.233  0.3381  0.1451  0.3371
  304TMC3    C6 4630   1.828   2.208  11.294 -0.1806  0.1272  0.3652
  304TMC3     C 4631   1.984   2.534  11.088 -0.1603  0.2351  0.9598
  304TMC3     O 4632   2.103   2.527  11.083  0.1230 -0.2569 -0.1888
  304TMC3     H 4633   1.714   2.496  11.178  0.0687 -0.2936  1.1726
  304TMC3    H1 4634   2.102   2.311  11.122 -0.3656  1.7967 -0.8511
  304TMC3    H2 4635   1.780   2.114  11.317  0.7298 -0.3670  0.2338
  304TMC3    C7 4636   1.960   2.099  11.133 -0.5022  0.1275 -0.0318
  304TMC3    C8 4637   1.607   2.289  11.229  0.4495 -0.6476 -0.3813
  304TMC3    O1 4638   1.957   2.129  11.015  0.2367  0.2088 -0.3268
  304TMC3    O2 4639   1.566   2.337  11.124 -0.4752  0.3273 -0.4410
  305MPD2     C 4640   0.282   4.207  13.877 -0.3637  0.5133  0.1830
  305MPD2    C1 4641   0.292   4.072  13.899  0.4434 -0.4227 -0.1216
  305MPD2    C2 4642   0.254   3.981  13.806 -0.0468 -0.1473  0.2005
  305MPD2    C3 4643   0.214   4.028  13.685  0.3937 -0.1605 -0.0688
  305MPD2    C4 4644   0.219   4.159  13.655 -0.0007 -0.3798 -0.2805
  305MPD2    C5 4645   0.239   4.250  13.751  0.6424 -0.3099  0.2656
  305MPD2     H 4646   0.236   3.876  13.826 -1.7297  0.3067  1.0563
  305MPD2    H1 4647   0.205   4.193  13.552 -0.5261  1.0170  0.2532
  305MPD2    H2 4648   0.304   4.279  13.955  0.8696 -0.7904  1.0401
  305MPD2    H3 4649   0.238   4.358  13.741 -0.7646 -0.1729  1.9562
  305MPD2     N 4650   0.171   3.932  13.580  0.2595 -0.2135  0.3400
  305MPD2    H5 4651   0.133   3.973  13.495  1.4497  1.9863  0.8647
  305MPD2    N1 4652   0.349   4.034  14.027  0.0883 -0.1201 -0.1121
  305MPD2    H7 4653   0.368   4.115  14.085 -2.4115  1.6322 -1.7233
  306TMC3    C1 4654   0.446   3.906  14.194 -0.0826 -0.1895 -0.1326
  306TMC3    C2 4655   0.535   3.799  14.204  0.6144  0.6050 -0.0239
  306TMC3    C3 4656   0.598   3.774  14.323 -0.1380 -1.1426  0.2316
  306TMC3    C4 4657   0.422   3.986  14.303  0.3537 -0.2354  0.1935
  306TMC3    C5 4658   0.482   3.951  14.419  0.4266  0.6942  0.3144
  306TMC3    C6 4659   0.578   3.851  14.436  0.9799  0.2465 -0.4990
  306TMC3     C 4660   0.372   3.909  14.069 -0.8150 -0.5215  0.1631
  306TMC3     O 4661   0.353   3.802  14.012  0.0662  0.2455 -0.7394
  306TMC3     H 4662   0.558   3.740  14.115  1.1240  0.7047  0.0392
  306TMC3    H1 4663   0.343   4.060  14.297  0.5699 -0.1485 -1.7637
  306TMC3    H2 4664   0.636   3.830  14.525  0.6819 -2.2755 -0.8724
  306TMC3    C7 4665   0.433   4.013  14.545 -0.5574  0.2751 -0.4339
  306TMC3    C8 4666   0.706   3.681  14.306  1.1076  0.2823  0.0963
  306TMC3    O1 4667   0.310   4.041  14.555 -0.3395 -0.3811  0.0105
  306TMC3    O2 4668   0.762   3.678  14.200  0.1142 -0.8122  0.3442
  307MPD2     C 4669   2.875   1.924   0.060  0.1833 -0.5721  0.6653
  307MPD2    C1 4670   2.862   2.038   0.130 -0.9158  0.7933  0.1365
  307MPD2    C2 4671   2.754   2.051   0.215 -0.0261 -0.3948  0.4137
  307MPD2    C3 4672   2.684   1.940   0.251 -0.3317 -0.4944 -0.4049
  307MPD2    C4 4673   2.699   1.818   0.185 -0.3038 -0.4733 -0.2362
  307MPD2    C5 4674   2.787   1.818   0.084  0.2326  0.5373 -0.1198
  307MPD2     H 4675   2.741   2.143   0.271  0.1424  0.4404 -0.9424
  307MPD2    H1 4676   2.647   1.726   0.208  1.4140 -1.9240 -2.2071
  307MPD2    H2 4677   2.960   1.909  17.741  0.0052 -0.3380  0.3839
  307MPD2    H3 4678   2.796   1.726   0.028  1.6640  0.6121  0.0006
  307MPD2     N 4679   2.600   1.965   0.359  0.4700 -0.4991  0.3141
  307MPD2    H5 4680   2.605   2.059   0.396 -1.4040 -0.4515  0.4337
  307MPD2    N1 4681   2.945   2.156   0.112 -0.0212 -0.5574 -0.0571
  307MPD2    H7 4682   2.922   2.228   0.179 -1.0741 -1.4381  0.5211
  308TMC3    C1 4683   2.325   1.844   0.717 -0.3891  0.2777 -0.5183
  308TMC3    C2 4684   2.383   1.938   0.797 -0.5124 -0.3684  0.5268
  308TMC3    C3 4685   2.482   2.013   0.747 -0.5350  0.2400  0.2371
  308TMC3    C4 4686   2.356   1.827   0.586 -0.2784 -0.3345 -0.0765
  308TMC3    C5 4687   2.461   1.907   0.533 -0.3557  0.1547 -0.6651
  308TMC3    C6 4688   2.525   1.998   0.617  0.8431  0.8986 -0.5372
  308TMC3     C 4689   2.192   1.813   0.759 -0.2688  0.1918 -0.4209
  308TMC3     O 4690   2.180   1.720   0.843  0.1841  0.1718 -0.1603
  308TMC3     H 4691   2.372   1.924   0.904  2.2995 -3.8393  0.3754
  308TMC3    H1 4692   2.304   1.758   0.521 -1.4745  2.1411 -1.7696
  308TMC3    H2 4693   2.621   2.039   0.587  0.7536  1.2723 -0.3088
  308TMC3    C7 4694   2.511   1.877   0.405  1.0518  0.4775  0.6028
  308TMC3    C8 4695   2.511   2.133   0.821  0.3109  0.2171 -0.3703
  308TMC3    O1 4696   2.451   1.787   0.341  0.6493 -0.1461  0.2731
  308TMC3    O2 4697   2.535   2.130   0.941  0.2992 -0.1609 -0.0637
  309MPD2     C 4698   2.079   2.516  17.244 -0.6019 -0.0427  0.0250
  309MPD2    C1 4699   1.997   2.497  17.135  0.0819  0.1954  0.5379
  309MPD2    C2 4700   1.872   2.552  17.132  0.9451 -0.3960 -0.8336
  309MPD2    C3 4701   1.819   2.625  17.241 -0.2660 -0.2675  0.0501
  309MPD2    C4 4702   1.898   2.629  17.360 -0.2094 -0.0375 -0.2270
  309MPD2    C5 4703   2.021   2.570  17.359 -0.4483 -0.1713 -0.4726
  309MPD2     H 4704   1.824   2.558  17.035 -1.1089  1.1340  0.2742
  309MPD2    H1 4705   1.876   2.682  17.451 -1.2038 -1.9655  0.6701
  309MPD2    H2 4706   2.186   2.501  17.248 -0.6794 -0.3574  1.0569
  309MPD2    H3 4707   2.081   2.600  17.444 -2.0464 -0.6584  0.8358
  309MPD2     N 4708   1.689   2.681  17.243 -0.0895 -0.6354  0.1513
  309MPD2    H5 4709   1.654   2.702  17.336  1.1101  1.3827  0.1568
  309MPD2    N1 4710   2.042   2.440  17.017  0.0674  0.2500  0.5063
  309MPD2    H7 4711   1.983   2.455  16.935  0.7155 -1.6426 -0.3188
  310TMC3    C1 4712   2.201   2.344  16.861 -0.3528  0.5868 -0.2770
  310TMC3    C2 4713   2.128   2.380  16.749  0.0429  0.7105  0.3845
  310TMC3    C3 4714   2.196   2.384  16.632 -0.1398  0.4671  0.1090
  310TMC3    C4 4715   2.332   2.296  16.845  0.2033 -0.1491 -0.6748
  310TMC3    C5 4716   2.384   2.294  16.725  0.1196  0.1244 -0.3085
  310TMC3    C6 4717   2.327   2.348  16.618 -0.2261  0.0023 -0.2716
  310TMC3     C 4718   2.155   2.370  17.006 -0.0567 -0.6322 -0.0532
  310TMC3     O 4719   2.224   2.321  17.094 -0.3866 -0.1254 -0.6001
  310TMC3     H 4720   2.026   2.419  16.753  0.5520  2.4390 -2.9283
  310TMC3    H1 4721   2.375   2.230  16.919 -0.7294 -1.3855 -1.2327
  310TMC3    H2 4722   2.387   2.346  16.527  0.8943 -0.8556  0.4888
  310TMC3    C7 4723   2.522   2.240  16.708 -0.3158  1.0109  0.0778
  310TMC3    C8 4724   2.125   2.428  16.515 -0.6147  0.6874  0.3001
  310TMC3    O1 4725   2.597   2.244  16.805  0.1305 -0.1696 -0.1078
  310TMC3    O2 4726   2.003   2.430  16.521 -0.7806  1.0828  0.1471
  311MPD2     C 4727   4.145   3.648  12.760  0.1973  0.1905  0.4118
  311MPD2    C1 4728   4.144   3.766  12.832  0.4275 -0.0529  0.8039
  311MPD2    C2 4729   4.026   3.823  12.879 -0.0312  0.4708  0.5058
  311MPD2    C3 4730   3.905   3.762  12.837  0.0390 -0.1877 -0.3706
  311MPD2    C4 4731   3.910   3.649  12.756  0.0173 -0.2818  0.2142
  311MPD2    C5 4732   4.027   3.594  12.724 -0.0845 -0.0736 -0.8800
  311MPD2     H 4733   4.029   3.917  12.933  0.0359  0.0020  1.3185
  311MPD2    H1 4734   3.822   3.595  12.723 -0.9814  0.9306  0.9295
  311MPD2    H2 4735   4.231   3.601  12.713  0.9039  0.9774  0.9033
  311MPD2    H3 4736   4.020   3.503  12.664  1.5227 -0.7880  0.0219
  311MPD2     N 4737   3.784   3.823  12.876 -0.3069  0.2908  0.5174
  311MPD2    H5 4738   3.785   3.888  12.954  0.2276  0.1868  0.5930
  311MPD2    N1 4739   4.260   3.847  12.853  0.5390  0.2967  0.7180
  311MPD2    H7 4740   4.248   3.932  12.907 -2.1838  1.6272 -1.9627
  312TMC3    C1 4741   3.553   3.858  12.912 -0.3239 -0.0043 -0.8943
  312TMC3    C2 4742   3.425   3.861  12.856 -0.1366  0.0417 -0.5759
  312TMC3    C3 4743   3.313   3.899  12.935  0.4476 -0.1981  0.0322
  312TMC3    C4 4744   3.574   3.886  13.048 -0.5583  1.0447 -0.4250
  312TMC3    C5 4745   3.456   3.928  13.111  0.8704 -0.0864  0.5041
  312TMC3    C6 4746   3.321   3.934  13.068 -0.0445  0.4195 -0.1864
  312TMC3     C 4747   3.654   3.791  12.841 -0.2086  0.1913 -0.0891
  312TMC3     O 4748   3.625   3.733  12.738  0.1063 -0.4173 -0.1701
  312TMC3     H 4749   3.409   3.831  12.753  1.8356  1.4495 -1.2879
  312TMC3    H1 4750   3.670   3.884  13.099 -1.2041  0.7937  0.7686
  312TMC3    H2 4751   3.237   3.953  13.133 -0.8749  1.3394 -1.5343
  312TMC3    C7 4752   3.463   3.957  13.255  0.3002  0.7006 -0.6423
  312TMC3    C8 4753   3.179   3.865  12.890  0.0636  0.4425  0.2996
  312TMC3    O1 4754   3.415   4.054  13.313 -1.0194 -0.6498 -0.1425
  312TMC3    O2 4755   3.098   3.846  12.979  0.3718 -0.3654 -0.4797
  313MPD2     C 4756   3.043   3.327  11.759 -0.3127 -0.0539  0.4186
  313MPD2    C1 4757   2.950   3.429  11.771  0.0615 -0.4129  0.0327
  313MPD2    C2 4758   2.816   3.396  11.778 -0.7086  0.8305 -0.4253
  313MPD2    C3 4759   2.760   3.270  11.757  0.2598  0.5206 -0.2327
  313MPD2    C4 4760   2.852   3.166  11.766 -0.9546 -0.1468 -0.1827
  313MPD2    C5 4761   2.994   3.198  11.761  1.1390 -0.5748 -0.7781
  313MPD2     H 4762   2.745   3.476  11.791 -1.3937  0.1282  0.1852
  313MPD2    H1 4763   2.822   3.066  11.738 -2.5521  0.5164 -0.8626
  313MPD2    H2 4764   3.148   3.343  11.737 -0.5806 -0.6984 -1.2680
  313MPD2    H3 4765   3.059   3.117  11.731 -0.2348 -2.0845  0.3465
  313MPD2     N 4766   2.624   3.260  11.729 -0.5443  0.2386 -0.5442
  313MPD2    H5 4767   2.577   3.350  11.739 -1.4063 -0.3470  0.5388
  313MPD2    N1 4768   2.989   3.567  11.765  0.4570 -0.5548 -0.0352
  313MPD2    H7 4769   2.919   3.639  11.780 -0.2154 -1.0495 -0.8248
  314TMC3    C1 4770   3.128   3.749  11.703  0.1953 -0.1402 -0.2694
  314TMC3    C2 4771   3.256   3.792  11.683 -0.1168  0.3040  0.4903
  314TMC3    C3 4772   3.285   3.881  11.582 -0.3519  0.2321 -0.1191
  314TMC3    C4 4773   3.029   3.793  11.625  0.3809 -0.1637  0.1548
  314TMC3    C5 4774   3.057   3.888  11.529 -0.3498  0.5411 -1.1036
  314TMC3    C6 4775   3.184   3.937  11.508 -0.0067  0.2939  0.0193
  314TMC3     C 4776   3.121   3.614  11.761 -0.6974  0.5048 -0.6036
  314TMC3     O 4777   3.230   3.562  11.779 -0.1704  0.0337  0.1919
  314TMC3     H 4778   3.337   3.745  11.738 -0.7278  0.6638  1.7079
  314TMC3    H1 4779   2.927   3.754  11.621  0.6501 -0.9110  0.5281
  314TMC3    H2 4780   3.204   4.027  11.451 -0.8404  0.0535 -0.6515
  314TMC3    C7 4781   2.965   3.888  11.414  0.3070 -0.3311 -0.9050
  314TMC3    C8 4782   3.418   3.930  11.542 -0.7693 -1.0550 -0.0696
  314TMC3    O1 4783   2.846   3.893  11.438 -0.0464 -0.1700  0.1961
  314TMC3    O2 4784   3.426   3.965  11.426  0.8078 -0.5934  0.6620
  315MPD2     C 4785   3.137   2.182   0.368 -0.3046 -0.3759  0.8497
  315MPD2    C1 4786   3.227   2.101   0.300 -0.3482 -0.5588 -0.3663
  315MPD2    C2 4787   3.341   2.160   0.242 -0.2201  0.1761 -0.5081
  315MPD2    C3 4788   3.366   2.293   0.252 -0.4563 -0.6465 -0.7018
  315MPD2    C4 4789   3.265   2.371   0.315  0.2771  0.2363 -0.6167
  315MPD2    C5 4790   3.158   2.313   0.374  0.0456 -0.4322  0.0179
  315MPD2     H 4791   3.410   2.090   0.196  1.3910  1.0855  0.5342
  315MPD2    H1 4792   3.255   2.478   0.320 -1.0826  0.0093  1.2782
  315MPD2    H2 4793   3.042   2.144   0.404 -0.4650 -1.2129 -0.4401
  315MPD2    H3 4794   3.088   2.374   0.429 -1.0245 -1.4351 -0.2231
  315MPD2     N 4795   3.487   2.349   0.197  0.2826  0.2270 -0.5007
  315MPD2    H5 4796   3.552   2.284   0.153  0.1043  0.8643 -1.7219
  315MPD2    N1 4797   3.209   1.966   0.278 -0.0871  0.5250  0.1916
  315MPD2    H7 4798   3.273   1.921   0.212  1.6539  2.7832  0.3615
  316TMC3    C1 4799   3.643   2.506   0.131  0.9131  0.7732 -0.0632
  316TMC3    C2 4800   3.747   2.423   0.174 -0.0071  0.9222 -0.2742
  316TMC3    C3 4801   3.875   2.469   0.156 -0.0156  0.3548 -0.4134
  316TMC3    C4 4802   3.654   2.626   0.073 -0.0191  1.1837  0.5488
  316TMC3    C5 4803   3.783   2.662   0.055 -0.2290 -0.2348 -0.7794
  316TMC3    C6 4804   3.893   2.592   0.098 -0.7886  0.4717 -0.5337
  316TMC3     C 4805   3.514   2.481   0.201  0.0701 -0.8579  0.3824
  316TMC3     O 4806   3.444   2.576   0.221  0.7396 -0.0198  0.5059
  316TMC3     H 4807   3.722   2.333   0.230  1.6501 -0.4329 -1.6954
  316TMC3    H1 4808   3.566   2.685   0.048 -1.4294 -1.5826 -1.0417
  316TMC3    H2 4809   3.985   2.634   0.059 -0.0727 -1.0700 -0.5335
  316TMC3    C7 4810   3.806   2.766  17.696  0.1739  0.0198 -0.1086
  316TMC3    C8 4811   3.991   2.392   0.187 -0.1368 -0.2554  0.3210
  316TMC3    O1 4812   3.913   2.829  17.697 -0.3941  0.1989 -0.2451
  316TMC3    O2 4813   4.092   2.461   0.192  0.7060  0.3039  0.0591
  317MPD2     C 4814   0.556   0.995  12.516 -0.5474 -0.1864 -0.4835
  317MPD2    C1 4815   0.646   0.892  12.538  0.4734 -1.1031 -0.2611
  317MPD2    C2 4816   0.688   0.857  12.665  0.6410  0.4992  0.2591
  317MPD2    C3 4817   0.655   0.938  12.770 -0.0991 -0.1092 -0.1216
  317MPD2    C4 4818   0.558   1.034  12.752  0.2074  0.5291  0.0070
  317MPD2    C5 4819   0.509   1.064  12.626 -0.0710  0.9392  0.3397
  317MPD2     H 4820   0.747   0.767  12.680  0.3236  0.0279 -1.2863
  317MPD2    H1 4821   0.515   1.085  12.837  1.3668 -0.8066  1.3795
  317MPD2    H2 4822   0.505   1.015  12.422 -0.8620 -0.1928 -0.3149
  317MPD2    H3 4823   0.431   1.139  12.616 -0.1437  0.7968 -0.1919
  317MPD2     N 4824   0.698   0.904  12.897  0.5526 -0.2629  0.6084
  317MPD2    H5 4825   0.740   0.812  12.908  1.8483 -0.1409 -3.5378
  317MPD2    N1 4826   0.689   0.804  12.431  0.1207  0.6745 -0.1223
  317MPD2    H7 4827   0.755   0.732  12.459 -0.8731  0.7330  2.3501
  318TMC3    C1 4828   0.731   0.899  13.120  0.2319 -0.3840 -0.1037
  318TMC3    C2 4829   0.663   0.780  13.147  0.8705  0.9653 -1.0025
  318TMC3    C3 4830   0.685   0.716  13.261 -0.5449 -0.7806  0.5084
  318TMC3    C4 4831   0.805   0.955  13.221  0.8692 -0.8832 -0.3203
  318TMC3    C5 4832   0.843   0.876  13.322  0.8911  0.4365 -0.0955
  318TMC3    C6 4833   0.789   0.751  13.340 -0.3268  0.2280 -0.4854
  318TMC3     C 4834   0.700   0.983  13.006  0.3004 -0.4943 -0.1685
  318TMC3     O 4835   0.705   1.106  13.017 -0.0851 -0.4762 -0.7526
  318TMC3     H 4836   0.591   0.742  13.076  0.8350 -2.5520  0.9182
  318TMC3    H1 4837   0.865   1.042  13.195  0.4542 -0.2969  0.6714
  318TMC3    H2 4838   0.799   0.692  13.431  0.9286  2.5391  0.8830
  318TMC3    C7 4839   0.971   0.898  13.382 -0.3688 -1.1807 -0.0692
  318TMC3    C8 4840   0.619   0.592  13.283 -0.5434 -0.5012  0.2780
  318TMC3    O1 4841   1.015   1.011  13.372  0.0391  0.4128 -0.2510
  318TMC3    O2 4842   0.674   0.502  13.341  0.0460  0.1765 -0.0488
  319MPD2     C 4843   1.565   1.857  16.498 -0.2568 -0.3222  0.6504
  319MPD2    C1 4844   1.446   1.810  16.553  0.1282  0.5736  0.3028
  319MPD2    C2 4845   1.367   1.726  16.478 -0.5592  0.1636 -1.1433
  319MPD2    C3 4846   1.393   1.711  16.342  0.2231  0.6593  0.7271
  319MPD2    C4 4847   1.502   1.771  16.282 -0.4202  0.3524  0.4019
  319MPD2    C5 4848   1.587   1.837  16.366  0.1568  0.0211  0.1176
  319MPD2     H 4849   1.282   1.682  16.529  0.1843 -2.0339 -1.8176
  319MPD2    H1 4850   1.530   1.756  16.178 -0.4158  1.9212  0.1686
  319MPD2    H2 4851   1.649   1.896  16.553  0.6672 -0.7747 -0.4397
  319MPD2    H3 4852   1.672   1.890  16.325 -0.1363  1.6151  1.5860
  319MPD2     N 4853   1.318   1.621  16.260  0.3261  0.0047  0.7513
  319MPD2    H5 4854   1.343   1.619  16.162 -3.1308  1.1414 -0.1539
  319MPD2    N1 4855   1.408   1.823  16.692 -0.1598  0.2048  0.3558
  319MPD2    H7 4856   1.318   1.787  16.721 -0.1725  0.8921  1.1571
  320TMC3    C1 4857   1.129   1.470  16.204 -0.5511  0.0533 -0.3459
  320TMC3    C2 4858   1.117   1.551  16.091  0.2121  0.2682  0.1712
  320TMC3    C3 4859   0.997   1.529  16.023 -0.3296  0.2236  0.7015
  320TMC3    C4 4860   1.031   1.391  16.252  0.7354  0.5703  0.5885
  320TMC3    C5 4861   0.916   1.384  16.184  0.1829 -0.4529 -0.6312
  320TMC3    C6 4862   0.892   1.456  16.071  0.4003 -1.0363  0.1769
  320TMC3     C 4863   1.215   1.532  16.310  0.6698 -0.1614  0.2532
  320TMC3     O 4864   1.201   1.495  16.430 -0.0497  0.0763 -0.5310
  320TMC3     H 4865   1.186   1.627  16.057  0.6186 -0.6198 -1.0113
  320TMC3    H1 4866   1.051   1.325  16.335  0.9275 -1.0151 -0.7104
  320TMC3    H2 4867   0.797   1.446  16.019  0.3323  0.3919  0.0378
  320TMC3    C7 4868   0.848   1.254  16.199  0.3111  0.0027 -0.7253
  320TMC3    C8 4869   0.964   1.609  15.910 -0.4027 -0.9463 -0.1880
  320TMC3    O1 4870   0.804   1.202  16.097 -0.2352 -0.3332 -0.3190
  320TMC3    O2 4871   0.844   1.644  15.901  0.5058 -0.0385 -0.4037
  321TMC3    C1 4872   1.400   1.945  16.896  0.1755 -0.7700 -0.1396
  321TMC3    C2 4873   1.264   1.941  16.902 -0.1641 -0.5019  0.4477
  321TMC3    C3 4874   1.216   1.986  17.019 -0.5964 -0.1537 -0.2955
  321TMC3    C4 4875   1.481   1.998  16.991 -0.0988  0.0481 -0.4567
  321TMC3    C5 4876   1.430   2.041  17.108  0.4341  0.0747 -0.5800
  321TMC3    C6 4877   1.288   2.049  17.117 -0.8459 -0.4953 -0.4081
  321TMC3     C 4878   1.471   1.915  16.772 -0.0116 -0.1438 -0.0177
  321TMC3     O 4879   1.585   1.957  16.754  0.5270 -0.2322 -0.4653
  321TMC3     H 4880   1.195   1.926  16.819  0.0683  0.6453  0.0344
  321TMC3    H1 4881   1.588   1.995  16.976  0.4528  1.9615  3.0878
  321TMC3    H2 4882   1.243   2.105  17.198 -0.6010 -1.4113  0.3605
  321TMC3    C7 4883   1.487   1.988  17.232  0.0361  0.4672 -0.7498
  321TMC3    C8 4884   1.117   1.899  17.095  0.1592  0.1009 -0.2945
  321TMC3    O1 4885   1.401   1.958  17.315  0.0599  0.6829 -1.1066
  321TMC3    O2 4886   1.043   1.846  17.016 -0.3867 -0.1226 -0.0656
  322MPD2     C 4887   0.046   3.120  13.556  0.0036 -0.1603  0.1227
  322MPD2    C1 4888   0.172   3.090  13.609 -0.1646 -0.3453 -0.2602
  322MPD2    C2 4889   0.224   2.961  13.608  0.2698  0.8613 -0.0960
  322MPD2    C3 4890   0.151   2.864  13.542  0.4960 -0.3738 -0.5121
  322MPD2    C4 4891   0.030   2.892  13.486  0.2183 -0.2489 -0.8200
  322MPD2    C5 4892   4.707   3.016  13.502 -0.1368  0.3137  0.2332
  322MPD2     H 4893   0.313   2.941  13.667 -0.8242  0.8168  1.5352
  322MPD2    H1 4894   4.716   2.815  13.430  1.3233 -1.8141  0.3114
  322MPD2    H2 4895   4.736   3.217  13.562 -0.0999 -0.1585 -0.7411
  322MPD2    H3 4896   4.608   3.014  13.458  0.8262  1.4931 -1.9946
  322MPD2     N 4897   0.202   2.733  13.550  0.5836 -0.7487 -0.0717
  322MPD2    H5 4898   0.299   2.725  13.578  0.2466 -0.8405  1.0630
  322MPD2    N1 4899   0.253   3.184  13.683 -0.0101 -0.5773  0.2916
  322MPD2    H7 4900   0.335   3.142  13.726 -1.1446 -1.4376  1.5870
  323TMC3    C1 4901   0.327   3.376  13.789 -0.1675 -0.0093 -0.2526
  323TMC3    C2 4902   0.394   3.493  13.762  0.2997  0.0995 -0.2487
  323TMC3    C3 4903   0.494   3.518  13.848  0.7944  0.1599  0.1556
  323TMC3    C4 4904   0.349   3.302  13.901  0.1439 -0.9468  0.4440
  323TMC3    C5 4905   0.445   3.339  13.989  1.0427  0.6886 -0.6696
  323TMC3    C6 4906   0.524   3.444  13.961  0.2489 -0.0835  0.1752
  323TMC3     C 4907   0.229   3.320  13.699  0.1506 -0.7928 -0.1539
  323TMC3     O 4908   0.156   3.387  13.634  0.5210  0.5006  0.4570
  323TMC3     H 4909   0.393   3.536  13.662 -1.0320  1.2807  0.2799
  323TMC3    H1 4910   0.294   3.211  13.919  0.2269 -1.0970 -0.0455
  323TMC3    H2 4911   0.597   3.473  14.035  0.5906  1.9462 -0.9627
  323TMC3    C7 4912   0.473   3.241  14.093  0.1385 -0.6445  0.6244
  323TMC3    C8 4913   0.603   3.603  13.801 -0.0276 -0.2893  0.4106
  323TMC3    O1 4914   0.400   3.142  14.093  0.4997  0.3661 -0.7842
  323TMC3    O2 4915   0.715   3.586  13.855 -0.2051  0.9193 -0.2680
  324MPD2     C 4916   1.888   4.050  14.921  0.2738  0.3240 -0.1938
  324MPD2    C1 4917   1.844   4.161  14.849  0.3856  0.1976 -0.1713
  324MPD2    C2 4918   1.729   4.157  14.775 -0.8403 -0.3784  0.5800
  324MPD2    C3 4919   1.666   4.029  14.760 -0.2746  0.3173  0.6231
  324MPD2    C4 4920   1.703   3.918  14.839  0.3287  0.1549  0.2788
  324MPD2    C5 4921   1.813   3.934  14.915 -0.1101  1.1467  0.0448
  324MPD2     H 4922   1.697   4.244  14.719 -0.5644 -0.5183  0.2087
  324MPD2    H1 4923   1.666   3.817  14.834  0.6476  0.0885 -0.7692
  324MPD2    H2 4924   1.980   4.051  14.979  0.1776 -0.5165 -0.0303
  324MPD2    H3 4925   1.852   3.849  14.969 -0.8970  1.0485  0.4613
  324MPD2     N 4926   1.567   4.004  14.662  0.3564 -0.7719  1.0052
  324MPD2    H5 4927   1.539   3.908  14.645 -0.1323 -0.7158  1.5222
  324MPD2    N1 4928   1.906   4.281  14.846 -0.6482 -0.5695 -0.3125
  324MPD2    H7 4929   1.859   4.351  14.790  1.7857  0.0578 -1.6021
  325TMC3    C1 4930   1.461   4.014  14.454 -0.2714 -0.0981  0.6077
  325TMC3    C2 4931   1.344   3.946  14.467 -1.0950 -0.2755  1.1853
  325TMC3    C3 4932   1.267   3.935  14.363 -0.4303  0.0313  0.3869
  325TMC3    C4 4933   1.498   4.078  14.335 -0.1525  0.5330  0.7779
  325TMC3    C5 4934   1.417   4.063  14.233 -0.5150  0.3201  0.1815
  325TMC3    C6 4935   1.302   3.989  14.244 -0.1655 -0.0820  0.0607
  325TMC3     C 4936   1.514   4.090  14.571 -0.5512 -0.2344 -0.2965
  325TMC3     O 4937   1.524   4.212  14.555  0.4090 -0.4633  0.0851
  325TMC3     H 4938   1.318   3.912  14.567 -0.3655  0.7272  1.7053
  325TMC3    H1 4939   1.584   4.143  14.325  2.3691 -2.5548  2.3820
  325TMC3    H2 4940   1.233   3.982  14.160 -0.7865 -1.6280  0.6931
  325TMC3    C7 4941   1.398   4.194  14.175  0.4477 -0.4035  0.1226
  325TMC3    C8 4942   1.131   3.889  14.362 -0.1917  0.1142 -0.1208
  325TMC3    O1 4943   1.490   4.239  14.110  0.0279  0.3191  0.0933
  325TMC3    O2 4944   1.106   3.802  14.280  0.5764 -0.2064  0.1679
  326MPD2     C 4945   2.718   1.030  11.275 -0.0157 -0.0475  0.7579
  326MPD2    C1 4946   2.771   1.027  11.149 -0.6283 -0.6209  0.3353
  326MPD2    C2 4947   2.907   1.041  11.125 -0.5768 -0.6833 -0.5649
  326MPD2    C3 4948   2.991   1.064  11.235 -0.2800 -0.6187 -0.8581
  326MPD2    C4 4949   2.935   1.064  11.362 -0.1289  0.5263 -0.4672
  326MPD2    C5 4950   2.801   1.045  11.387  0.6694 -0.8030 -0.3328
  326MPD2     H 4951   2.952   1.038  11.026 -0.8638  1.3022 -0.7391
  326MPD2    H1 4952   3.004   1.069  11.445  0.8512  2.1910 -1.3911
  326MPD2    H2 4953   2.613   1.024  11.299 -0.6534  1.6327 -1.6661
  326MPD2    H3 4954   2.769   1.038  11.490  1.1073 -0.3968 -0.1684
  326MPD2     N 4955   3.126   1.092  11.232 -0.0574  0.6288  0.0902
  326MPD2    H5 4956   3.170   1.106  11.322 -1.9026  0.0282  1.0842
  326MPD2    N1 4957   2.685   0.993  11.044  0.3080  0.0553  0.6113
  326MPD2    H7 4958   2.736   0.973  10.959 -0.6565 -1.7255  0.4478
  327TMC3    C1 4959   2.514   0.945  10.915 -0.4849 -0.4692 -0.0156
  327TMC3    C2 4960   2.421   1.005  10.830 -0.0470 -0.2653  0.2142
  327TMC3    C3 4961   2.407   0.952  10.707  0.2599 -0.1222 -0.3434
  327TMC3    C4 4962   2.562   0.824  10.884  0.8227 -0.2948  0.3830
  327TMC3    C5 4963   2.540   0.771  10.763 -0.2731 -0.3399 -0.4081
  327TMC3    C6 4964   2.468   0.837  10.667  0.3153  0.6970 -0.2086
  327TMC3     C 4965   2.550   0.996  11.043 -0.6643  0.2292  0.2487
  327TMC3     O 4966   2.467   1.059  11.104  0.5828 -0.0324  0.0412
  327TMC3     H 4967   2.370   1.098  10.854  1.4514  0.9656 -1.4829
  327TMC3    H1 4968   2.615   0.775  10.965  1.0370  0.1309  0.4987
  327TMC3    H2 4969   2.456   0.801  10.565  1.3151  0.7456 -0.3396
  327TMC3    C7 4970   2.611   0.650  10.726 -0.5962 -0.4810 -0.0584
  327TMC3    C8 4971   2.369   1.051  10.608  0.3467  0.4765 -0.7382
  327TMC3    O1 4972   2.556   0.575  10.649  0.0994 -0.5790  0.0757
  327TMC3    O2 4973   2.402   1.167  10.629 -0.4570 -0.3050 -0.4491
  328MPD2     C 4974   0.564   0.561  17.588 -0.3210  0.3064  0.4351
  328MPD2    C1 4975   0.520   0.450  17.512  1.1060 -0.3754 -0.5941
  328MPD2    C2 4976   0.503   0.466  17.377  0.0810 -0.2329  0.7356
  328MPD2    C3 4977   0.534   0.582  17.309  0.5930  0.1896 -0.3086
  328MPD2    C4 4978   0.569   0.695  17.382 -0.0966  0.8755  0.1438
  328MPD2    C5 4979   0.600   0.682  17.520 -0.1834 -0.1435 -0.1155
  328MPD2     H 4980   0.471   0.377  17.323  0.6732 -1.0361  1.6931
  328MPD2    H1 4981   0.623   0.773  17.329  1.8812 -0.7241 -0.2187
  328MPD2    H2 4982   0.574   0.562  17.696 -2.6290 -1.5110  0.6688
  328MPD2    H3 4983   0.634   0.767  17.579  0.6970 -0.8230  0.3510
  328MPD2     N 4984   0.512   0.602  17.170  0.2793 -0.3145  0.2047
  328MPD2    H5 4985   0.514   0.697  17.133 -1.9125 -0.6156 -0.6942
  328MPD2    N1 4986   0.497   0.329  17.582  0.0542 -0.2885  0.3058
  328MPD2    H7 4987   0.483   0.340  17.682 -0.5964 -1.4635  0.3481
  329TMC3    C1 4988   0.415   0.103  17.590  0.2153 -0.5230  0.3812
  329TMC3    C2 4989   0.294   0.143  17.633  0.4204 -0.0942  1.0359
  329TMC3    C3 4990   0.189   0.053  17.629 -0.0671 -0.4546  0.8792
  329TMC3    C4 4991   0.441   4.710  17.566 -0.1224  0.2158  0.0218
  329TMC3    C5 4992   0.338   4.628  17.548 -0.3636  0.4192 -0.3778
  329TMC3    C6 4993   0.208   4.665  17.581  0.3002 -0.3324  0.3402
  329TMC3     C 4994   0.496   0.206  17.521 -0.2988  0.1028 -0.3753
  329TMC3     O 4995   0.545   0.176  17.414  0.0774 -0.1853  0.3567
  329TMC3     H 4996   0.265   0.247  17.626 -1.5247 -0.5048  3.1830
  329TMC3    H1 4997   0.543   4.677  17.551  0.3284  2.1325 -1.1138
  329TMC3    H2 4998   0.130   4.589  17.573 -0.7565  0.7777  0.0601
  329TMC3    C7 4999   0.363   4.489  17.534 -0.0959 -0.2395  0.0823
  329TMC3    C8 5000   0.067   0.117  17.576 -0.0291  0.4536  0.6681
  329TMC3    O1 5001   0.313   4.404  17.604 -0.4783 -0.2948 -0.1613
  329TMC3    O2 5002   0.021   0.076  17.476  0.1599 -0.2477 -0.5215
  330TMC3    C1 5003   3.342   0.247  10.003 -0.0603 -0.5379 -0.4492
  330TMC3    C2 5004   3.304   0.158  10.098 -0.0984  0.2792  0.0411
  330TMC3    C3 5005   3.363   0.154  10.223  0.4033 -0.2867 -0.3758
  330TMC3    C4 5006   3.442   0.338  10.031 -1.2498  0.1221  0.3726
  330TMC3    C5 5007   3.483   0.340  10.159 -0.2074  0.3174 -0.4294
  330TMC3    C6 5008   3.451   0.250  10.254 -0.2276  0.6670 -0.9931
  330TMC3     C 5009   3.268   0.261   9.880  0.0140  0.2478  0.7598
  330TMC3     O 5010   3.325   0.334   9.800 -0.6267  0.2507  0.3838
  330TMC3     H 5011   3.227   0.083  10.085 -1.4166  1.4416  1.1180
  330TMC3    H1 5012   3.477   0.405   9.953  0.2270  0.4041  1.2942
  330TMC3    H2 5013   3.489   0.257  10.355  0.6085  0.1313 -1.2763
  330TMC3    C7 5014   3.598   0.427  10.176  0.7334  0.1544 -0.3991
  330TMC3    C8 5015   3.367   0.030  10.306  0.4793  0.3261 -0.3431
  330TMC3    O1 5016   3.604   0.522  10.098  0.1039 -0.0710 -0.8114
  330TMC3    O2 5017   3.443   0.029  10.401 -0.4804  0.0465  0.0862
  331MPD2     C 5018   1.594   4.167  12.974 -0.4384  0.0699 -0.7657
  331MPD2    C1 5019   1.639   4.179  12.849 -0.0658  0.3473  0.1083
  331MPD2    C2 5020   1.593   4.093  12.749 -0.4732 -0.1254 -0.2199
  331MPD2    C3 5021   1.513   3.983  12.781 -1.0144 -0.4529  0.5000
  331MPD2    C4 5022   1.463   3.977  12.907 -0.2498  0.3958  0.4746
  331MPD2    C5 5023   1.509   4.068  13.003  0.6711 -0.3852  0.1480
  331MPD2     H 5024   1.622   4.107  12.645 -0.4042 -0.4281 -0.2413
  331MPD2    H1 5025   1.393   3.902  12.940 -1.6576  1.1164 -0.8586
  331MPD2    H2 5026   1.634   4.231  13.052  1.6636  0.9393 -2.5543
  331MPD2    H3 5027   1.466   4.066  13.103  3.3309  2.5852  1.3676
  331MPD2     N 5028   1.478   3.898  12.678  0.0346 -0.2899  0.1995
  331MPD2    H5 5029   1.531   3.913  12.593 -2.5907  1.3897 -1.1306
  331MPD2    N1 5030   1.711   4.294  12.811 -0.1727  0.1793  0.4323
  331MPD2    H7 5031   1.700   4.366  12.882 -0.1623  0.3505  0.2592
  332TMC3    C1 5032   1.409   3.708  12.568  0.7199 -0.5511  0.7142
  332TMC3    C2 5033   1.453   3.781  12.455 -0.0664  0.6806  0.1002
  332TMC3    C3 5034   1.501   3.697  12.355 -0.0691 -0.1290  0.5269
  332TMC3    C4 5035   1.419   3.568  12.583  0.3424  0.1518 -0.3196
  332TMC3    C5 5036   1.461   3.493  12.477  0.2842 -0.4282 -0.0862
  332TMC3    C6 5037   1.513   3.560  12.372 -0.2930  0.4796 -0.2746
  332TMC3     C 5038   1.397   3.785  12.688  0.5867 -0.2235 -0.3866
  332TMC3     O 5039   1.353   3.721  12.783  0.0616  0.1636  0.7281
  332TMC3     H 5040   1.422   3.883  12.436  2.8158  1.4777 -0.3666
  332TMC3    H1 5041   1.387   3.521  12.675  1.1295 -1.3143 -0.7977
  332TMC3    H2 5042   1.563   3.497  12.299  0.8836  0.4922  0.5289
  332TMC3    C7 5043   1.531   3.375  12.517  0.3741  0.6979  0.3930
  332TMC3    C8 5044   1.532   3.749  12.231 -0.4859 -0.5376 -0.4730
  332TMC3    O1 5045   1.466   3.277  12.528  0.0646 -0.4775  0.2309
  332TMC3    O2 5046   1.571   3.863  12.222 -0.0735  0.3042 -0.5162
  333MPD2     C 5047   1.397   4.238  11.000 -0.2422  0.5401  0.1711
  333MPD2    C1 5048   1.488   4.140  10.950  0.0583 -0.7725  0.3065
  333MPD2    C2 5049   1.454   4.011  10.971  0.8301  0.6072  0.2977
  333MPD2    C3 5050   1.339   3.976  11.041 -0.2960  0.6795  0.0106
  333MPD2    C4 5051   1.260   4.071  11.104  0.3576  1.1731 -0.0025
  333MPD2    C5 5052   1.288   4.197  11.069  0.0796 -0.5904  0.2817
  333MPD2     H 5053   1.518   3.937  10.925  0.1594 -0.3246  0.8638
  333MPD2    H1 5054   1.166   4.059  11.157 -0.6885  0.2943 -2.0402
  333MPD2    H2 5055   1.420   4.343  10.994 -0.3133  0.7224  3.4623
  333MPD2    H3 5056   1.231   4.279  11.111  1.4207  0.2963  0.3595
  333MPD2     N 5057   1.322   3.840  11.060  0.3465 -0.3580  0.5958
  333MPD2    H5 5058   1.379   3.780  11.002 -1.4231 -1.5650  0.0820
  333MPD2    N1 5059   1.608   4.186  10.893 -0.3123  0.3828 -0.4967
  333MPD2    H7 5060   1.619   4.287  10.886  1.2461  0.0997 -2.0346
  334TMC3    C1 5061   1.820   4.187  10.790 -0.2309 -0.1175  0.6131
  334TMC3    C2 5062   1.943   4.134  10.788 -0.1352  0.1190 -0.0170
  334TMC3    C3 5063   2.052   4.207  10.758  0.0995 -0.0887  0.1949
  334TMC3    C4 5064   1.805   4.319  10.748  0.0545 -0.3339 -0.0937
  334TMC3    C5 5065   1.914   4.382  10.696  0.1762  0.6553 -0.6954
  334TMC3    C6 5066   2.043   4.333  10.704 -0.0763 -0.2018 -0.6449
  334TMC3     C 5067   1.714   4.103  10.850  0.6844  0.2581  1.1536
  334TMC3     O 5068   1.734   3.989  10.873  0.1251  0.2076  0.2024
  334TMC3     H 5069   1.951   4.028  10.812 -1.8747  0.2453  1.1287
  334TMC3    H1 5070   1.708   4.367  10.757  0.1764  0.0401 -0.7294
  334TMC3    H2 5071   2.122   4.379  10.646 -0.3826 -0.2413 -1.0955
  334TMC3    C7 5072   1.898   4.514  10.639 -0.5009 -0.2392 -0.3503
  334TMC3    C8 5073   2.175   4.139  10.751  0.7760 -0.0968 -0.0798
  334TMC3    O1 5074   2.007   4.574  10.625 -0.2963 -0.0198 -0.2069
  334TMC3    O2 5075   2.172   4.020  10.775 -0.5394 -0.0122  0.1038
  335TMC3    C1 5076   1.398   0.601  17.622  0.5866  0.2646  0.2894
  335TMC3    C2 5077   1.322   0.597  17.504  0.9725  0.2749 -0.4694
  335TMC3    C3 5078   1.403   0.574  17.390 -0.3409  0.5896 -0.0982
  335TMC3    C4 5079   1.539   0.590  17.619  0.6318  0.1687  0.5909
  335TMC3    C5 5080   1.610   0.572  17.503 -0.3693 -0.8263 -0.6535
  335TMC3    C6 5081   1.541   0.579  17.386 -0.3078 -0.0639  0.6867
  335TMC3     C 5082   1.334   0.561  17.746 -0.0295  1.0349  0.4452
  335TMC3     O 5083   1.395   0.505   0.088  0.1263  0.0362  0.4735
  335TMC3     H 5084   1.214   0.598  17.506  0.9644  0.7323 -1.2492
  335TMC3    H1 5085   1.595   0.604  17.711  0.7806  2.6862  0.1057
  335TMC3    H2 5086   1.595   0.537  17.302 -0.4921 -1.8347  1.4504
  335TMC3    C7 5087   1.744   0.530  17.503 -0.0295  0.4238  0.2257
  335TMC3    C8 5088   1.340   0.536  17.262 -0.5789 -0.1447 -0.1926
  335TMC3    O1 5089   1.800   0.525  17.391  0.4071 -0.1103 -0.5029
  335TMC3    O2 5090   1.390   0.578  17.161  0.1529 -0.3019 -0.2531
  336MPD2     C 5091   1.275   2.837  16.042 -0.0975  0.3011  0.7122
  336MPD2    C1 5092   1.230   2.813  15.915  0.5089  0.7036  0.9615
  336MPD2    C2 5093   1.220   2.682  15.872  0.0789  0.5303 -0.2639
  336MPD2    C3 5094   1.263   2.582  15.964 -0.2549  0.2252  0.5525
  336MPD2    C4 5095   1.310   2.613  16.089  0.8230 -0.1092  0.3397
  336MPD2    C5 5096   1.321   2.740  16.127 -0.0290  0.0002 -0.7232
  336MPD2     H 5097   1.190   2.662  15.770 -1.5685  1.6216  0.0195
  336MPD2    H1 5098   1.350   2.540  16.158  1.1231 -0.0951  0.1848
  336MPD2    H2 5099   1.272   2.940  16.075  1.9487  0.0314  1.7139
  336MPD2    H3 5100   1.371   2.770  16.218 -2.9026 -0.0756  0.8758
  336MPD2     N 5101   1.272   2.446  15.935  0.2629  0.4945 -0.3337
  336MPD2    H5 5102   1.301   2.375  16.002  0.9537 -1.0427 -2.2298
  336MPD2    N1 5103   1.179   2.907  15.827  0.0804  0.6221 -0.1631
  336MPD2    H7 5104   1.118   2.871  15.754  1.5470 -0.8095 -0.6747
  337TMC3    C1 5105   1.112   3.116  15.755 -0.0006  0.2374  0.0156
  337TMC3    C2 5106   0.993   3.073  15.722  0.1699  0.9367  0.2253
  337TMC3    C3 5107   0.921   3.147  15.634 -0.0382 -0.3490  0.5389
  337TMC3    C4 5108   1.169   3.225  15.705 -0.0386  0.4630 -1.3613
  337TMC3    C5 5109   1.102   3.297  15.619  0.8758  0.1094 -0.7767
  337TMC3    C6 5110   0.976   3.257  15.580  0.2776  0.0219 -0.2594
  337TMC3     C 5111   1.193   3.042  15.841  0.1751 -0.3442 -0.4578
  337TMC3     O 5112   1.253   3.102  15.928  0.0379 -0.3903  0.0786
  337TMC3     H 5113   0.946   2.985  15.764  0.2805  0.4968 -0.5906
  337TMC3    H1 5114   1.264   3.261  15.743  0.3090 -0.2291 -1.5779
  337TMC3    H2 5115   0.920   3.313  15.506 -0.9027 -1.3667 -0.3963
  337TMC3    C7 5116   1.132   3.438  15.614  0.2751  0.0559  0.5430
  337TMC3    C8 5117   0.791   3.101  15.588 -0.3154  0.6028 -0.2989
  337TMC3    O1 5118   1.078   3.515  15.531 -0.2462  0.1896  0.5883
  337TMC3    O2 5119   0.743   3.011  15.655  0.8102 -0.0392 -0.0103
  338MPD2     C 5120   1.123   2.613   0.925  0.0322 -0.8347  0.2557
  338MPD2    C1 5121   1.107   2.586   0.792 -0.1719  1.2910  0.6176
  338MPD2    C2 5122   0.982   2.601   0.737  0.2457 -0.6138 -0.5905
  338MPD2    C3 5123   0.873   2.642   0.819 -0.1065 -0.3131 -0.6914
  338MPD2    C4 5124   0.893   2.668   0.955  0.1789 -0.1100  0.4503
  338MPD2    C5 5125   1.022   2.649   1.008 -0.2176  0.4853  0.3495
  338MPD2     H 5126   0.967   2.578   0.632 -2.2352  0.0740 -0.3741
  338MPD2    H1 5127   0.806   2.700   1.011 -0.2004  0.0669 -0.2396
  338MPD2    H2 5128   1.221   2.612   0.971  1.1306 -2.7926 -2.0995
  338MPD2    H3 5129   1.034   2.661   1.115  1.6971 -3.2663  0.5819
  338MPD2     N 5130   0.748   2.667   0.757 -0.5880 -0.0270 -0.3350
  338MPD2    H5 5131   0.746   2.689   0.658 -1.2099 -0.0953 -0.3377
  338MPD2    N1 5132   1.216   2.555   0.708 -0.2172  0.0331 -0.5382
  338MPD2    H7 5133   1.190   2.554   0.610 -1.5704 -1.9650 -0.1732
  339TMC3    C1 5134   0.510   2.694   0.746 -0.7056 -0.4729  0.1630
  339TMC3    C2 5135   0.390   2.650   0.790 -0.0691  0.2392  0.5905
  339TMC3    C3 5136   0.287   2.639   0.703 -0.3840  0.3959  0.2454
  339TMC3    C4 5137   0.532   2.737   0.616  0.2463  0.6091 -0.7182
  339TMC3    C5 5138   0.427   2.720   0.538  0.7548  0.3096 -0.0389
  339TMC3    C6 5139   0.305   2.673   0.569  0.2575  0.5905  0.0682
  339TMC3     C 5140   0.625   2.667   0.826  0.6077 -0.0484  0.4980
  339TMC3     O 5141   0.608   2.618   0.940 -0.3468  0.0074  0.1774
  339TMC3     H 5142   0.389   2.610   0.890  1.9040  0.5880  0.7480
  339TMC3    H1 5143   0.618   2.797   0.590  1.7142 -1.7691 -1.3581
  339TMC3    H2 5144   0.229   2.666   0.492  0.9460  1.2452 -0.6738
  339TMC3    C7 5145   0.460   2.740   0.397  0.2124 -0.2248 -0.7015
  339TMC3    C8 5146   0.167   2.558   0.733 -0.4925 -0.6007 -0.2658
  339TMC3    O1 5147   0.564   2.805   0.372  0.0626  0.3544 -0.7712
  339TMC3    O2 5148   0.086   2.527   0.645  0.0508  0.4681  0.4706
  340MPD2     C 5149   1.178   1.246  10.050 -0.6581  0.0856 -0.3526
  340MPD2    C1 5150   1.215   1.119  10.089  0.3076  0.1489  0.6045
  340MPD2    C2 5151   1.305   1.104  10.192 -0.2986  0.0015  0.5044
  340MPD2    C3 5152   1.347   1.213  10.263 -0.2953  0.3403 -0.5063
  340MPD2    C4 5153   1.310   1.343  10.223 -0.2917 -0.0727  0.0575
  340MPD2    C5 5154   1.221   1.356  10.116  0.4051  0.1359  0.2200
  340MPD2     H 5155   1.342   1.005  10.215 -1.0350 -0.6189 -0.9781
  340MPD2    H1 5156   1.346   1.430  10.276  0.1877 -0.8461  0.9955
  340MPD2    H2 5157   1.108   1.269   9.970 -0.8564 -1.2421 -0.5502
  340MPD2    H3 5158   1.184   1.452  10.081 -0.9514 -0.5849 -0.3195
  340MPD2     N 5159   1.439   1.205  10.373 -0.1261 -0.2224 -0.0252
  340MPD2    H5 5160   1.468   1.293  10.416 -1.0261 -0.6111  1.3774
  340MPD2    N1 5161   1.158   1.013  10.016 -0.3404 -0.7707 -0.1448
  340MPD2    H7 5162   1.116   1.033   9.926 -0.1936 -1.6387 -0.4110
  341TMC3    C1 5163   1.122   0.796   9.950  0.7876  0.4444 -0.0344
  341TMC3    C2 5164   1.065   0.685   9.995  0.0945 -0.4864  1.0416
  341TMC3    C3 5165   1.002   0.602   9.903 -0.5850 -0.4349 -0.6389
  341TMC3    C4 5166   1.140   0.817   9.813 -0.1224  0.3342 -0.4100
  341TMC3    C5 5167   1.106   0.718   9.731 -0.2689  0.3038  0.2205
  341TMC3    C6 5168   1.025   0.617   9.770 -0.4038  0.3137 -0.1359
  341TMC3     C 5169   1.184   0.880  10.047  0.3322  0.8152 -0.1473
  341TMC3     O 5170   1.224   0.830  10.150 -0.1708  0.1060 -0.2342
  341TMC3     H 5171   1.064   0.668  10.102 -0.2661  1.9884  1.4175
  341TMC3    H1 5172   1.199   0.895   9.766 -2.3322  2.2176 -0.0870
  341TMC3    H2 5173   0.981   0.550   9.697 -1.0461 -1.7209  2.1160
  341TMC3    C7 5174   1.142   0.728   9.594 -1.0877 -0.4129  0.1040
  341TMC3    C8 5175   0.906   0.505   9.946  1.1002 -0.3462  0.2063
  341TMC3    O1 5176   1.151   0.840   9.543  0.5301 -0.0577 -0.6899
  341TMC3    O2 5177   0.909   0.462  10.060  0.6899 -0.5646 -0.1396
  342MPD2     C 5178   3.804   3.289  16.747 -0.5873 -0.0184 -0.0580
  342MPD2    C1 5179   3.940   3.311  16.763  0.1330 -0.0000 -0.5081
  342MPD2    C2 5180   3.986   3.429  16.811 -0.1584  0.1495  0.3781
  342MPD2    C3 5181   3.899   3.531  16.849 -0.3747 -0.1212  0.2576
  342MPD2    C4 5182   3.764   3.510  16.827  0.0713 -0.4739  0.5327
  342MPD2    C5 5183   3.717   3.393  16.779 -0.4765 -0.0923 -0.3362
  342MPD2     H 5184   4.091   3.433  16.836  0.0824 -0.1714 -0.5855
  342MPD2    H1 5185   3.689   3.582  16.858  2.1029  2.3592 -1.1168
  342MPD2    H2 5186   3.753   3.197  16.722  2.0461 -0.4869 -3.7218
  342MPD2    H3 5187   3.609   3.385  16.777 -0.7797  3.5977  0.6951
  342MPD2     N 5188   3.937   3.649  16.909 -0.2367 -0.6748  0.8929
  342MPD2    H5 5189   3.857   3.711  16.906  1.4194  1.5111  2.2752
  342MPD2    N1 5190   4.039   3.205  16.737  0.0718  0.3175 -0.2928
  342MPD2    H7 5191   4.138   3.226  16.746  0.3299 -0.5572 -1.0634
  343TMC3    C1 5192   4.133   2.975  16.719 -0.2743  0.2397  0.6909
  343TMC3    C2 5193   4.256   3.018  16.675  0.0085 -0.8224  0.1426
  343TMC3    C3 5194   4.353   2.923  16.667 -0.5480 -0.1864 -0.3197
  343TMC3    C4 5195   4.109   2.857  16.775 -0.5752  0.1674 -0.1431
  343TMC3    C5 5196   4.215   2.773  16.790  0.0667  0.0785  0.4138
  343TMC3    C6 5197   4.340   2.804  16.733 -0.1919  0.4932 -0.2417
  343TMC3     C 5198   4.014   3.070  16.719  0.0754 -0.5899  0.4877
  343TMC3     O 5199   3.905   3.017  16.708 -0.4990  0.9756  0.5699
  343TMC3     H 5200   4.267   3.110  16.619 -0.8551 -0.3897  0.6868
  343TMC3    H1 5201   4.010   2.825  16.805 -0.9686  0.2959 -1.3071
  343TMC3    H2 5202   4.416   2.726  16.735 -0.0036  0.7126  0.7540
  343TMC3    C7 5203   4.189   2.650  16.861 -0.1472  0.1448  0.0630
  343TMC3    C8 5204   4.489   2.955  16.633  0.2274  0.1343  0.8698
  343TMC3    O1 5205   4.076   2.638  16.906  0.3628 -0.1834  0.7357
  343TMC3    O2 5206   4.515   3.076  16.638  0.1095 -0.1498  0.1860
  344MPD2     C 5207   0.420   3.194  11.286  0.5001  0.3466 -0.1154
  344MPD2    C1 5208   0.327   3.176  11.188 -0.0994 -0.6654  0.5165
  344MPD2    C2 5209   0.324   3.273  11.085 -0.2331  0.4748 -0.1393
  344MPD2    C3 5210   0.419   3.377  11.077  0.0701 -0.3405  0.4095
  344MPD2    C4 5211   0.505   3.393  11.186 -0.7254 -0.3956  0.4098
  344MPD2    C5 5212   0.506   3.303  11.285 -0.4302 -0.0795 -0.2274
  344MPD2     H 5213   0.249   3.274  11.006  0.9890  0.4840 -1.2896
  344MPD2    H1 5214   0.577   3.474  11.194 -2.0220  1.0984 -2.8723
  344MPD2    H2 5215   0.432   3.126  11.369 -2.8569  0.6680  0.6251
  344MPD2    H3 5216   0.562   3.327  11.375  0.1325 -0.0139 -0.5937
  344MPD2     N 5217   0.428   3.475  10.980  0.5844  0.8166  0.5079
  344MPD2    H5 5218   0.495   3.551  10.986  0.2568  1.1668 -0.3058
  344MPD2    N1 5219   0.251   3.054  11.169 -0.3279 -0.2618  0.0866
  344MPD2    H7 5220   0.206   3.048  11.079  0.3255  0.7536 -0.2984
  345TMC3    C1 5221   0.372   3.601  10.778  0.0384  0.2462 -0.9338
  345TMC3    C2 5222   0.482   3.675  10.802  0.0783 -0.0074 -0.5679
  345TMC3    C3 5223   0.521   3.765  10.711  0.1056  0.2984  0.2883
  345TMC3    C4 5224   0.284   3.625  10.669 -0.5308 -0.0445 -0.4976
  345TMC3    C5 5225   0.323   3.726  10.586 -0.3163  0.1305  0.3792
  345TMC3    C6 5226   0.446   3.787  10.601 -0.4426 -0.2360  0.3949
  345TMC3     C 5227   0.346   3.487  10.865  0.0755 -0.4054 -0.2460
  345TMC3     O 5228   0.261   3.409  10.820 -0.3834 -0.0887 -0.4552
  345TMC3     H 5229   0.560   3.637  10.867  1.5600  0.9881 -1.7810
  345TMC3    H1 5230   0.200   3.558  10.656  0.0521 -0.9224  0.2732
  345TMC3    H2 5231   0.481   3.859  10.528 -0.2197 -0.9354 -0.1907
  345TMC3    C7 5232   0.242   3.770  10.474 -0.1387 -0.2528  0.3802
  345TMC3    C8 5233   0.632   3.849  10.741 -0.2988  0.6471  0.3329
  345TMC3    O1 5234   0.283   3.870  10.415  0.2098  0.3667 -0.0467
  345TMC3    O2 5235   0.679   3.910  10.646 -0.6417  0.7780 -0.2411
  346MPD2     C 5236   0.106   0.256  14.135  0.2843 -0.6983 -0.0414
  346MPD2    C1 5237   0.240   0.256  14.104  0.7335 -0.5892 -0.3343
  346MPD2    C2 5238   0.322   0.193  14.191 -0.4474 -0.8604  0.2483
  346MPD2    C3 5239   0.286   0.129  14.305 -0.1679 -1.2517 -0.0545
  346MPD2    C4 5240   0.147   0.129  14.336 -0.2149  0.2910 -0.7406
  346MPD2    C5 5241   0.060   0.192  14.248 -0.5836  0.1141  0.1673
  346MPD2     H 5242   0.427   0.201  14.164  0.2582 -1.5802  2.7863
  346MPD2    H1 5243   0.115   0.098  14.435 -1.2639 -2.0081 -1.8019
  346MPD2    H2 5244   0.030   0.300  14.072  1.3517  1.3391  0.1154
  346MPD2    H3 5245   4.698   0.199  14.292 -0.5600 -0.1638  0.2678
  346MPD2     N 5246   0.382   0.055  14.380  0.4589  0.6084  0.7029
  346MPD2    H5 5247   0.348   0.011  14.465  0.1834  0.9076  0.7485
  346MPD2    N1 5248   0.291   0.312  13.987  0.3530 -0.1765  0.8542
  346MPD2    H7 5249   0.392   0.323  13.980  0.2248  0.9495  0.7873
  347TMC3    C1 5250   0.583   4.680  14.436  0.6003 -0.6803 -0.2377
  347TMC3    C2 5251   0.695   4.626  14.387  0.2823 -0.0936 -0.2307
  347TMC3    C3 5252   0.790   4.593  14.475 -0.5170 -0.4493  0.3868
  347TMC3    C4 5253   0.563   4.712  14.561 -0.2885  0.6880 -0.4600
  347TMC3    C5 5254   0.664   4.682  14.655 -0.4101 -0.3302 -0.0918
  347TMC3    C6 5255   0.774   4.615  14.613 -0.9316  0.0519  0.4073
  347TMC3     C 5256   0.510   0.022  14.341  0.0078 -0.5755  0.0199
  347TMC3     O 5257   0.579   0.060  14.251 -0.2100  0.6271 -0.0262
  347TMC3     H 5258   0.706   4.598  14.283 -1.6347  2.1658 -1.0329
  347TMC3    H1 5259   0.484   0.038  14.601 -0.2573  0.1836  0.4117
  347TMC3    H2 5260   0.857   4.595  14.680  0.9478  1.0074 -1.6517
  347TMC3    C7 5261   0.648   0.002  14.789  0.0263 -0.2292  0.7240
  347TMC3    C8 5262   0.914   4.540  14.429 -0.3511 -0.2220  0.5980
  347TMC3    O1 5263   0.546   0.062  14.812  0.3068 -0.4427 -0.2743
  347TMC3    O2 5264   0.983   4.478  14.511  0.3789 -0.6794  0.1722
  348MPD2     C 5265   4.243   4.711  11.773  0.1507 -0.3432 -0.1574
  348MPD2    C1 5266   4.119   4.703  11.714  0.6384 -0.6288  0.4419
  348MPD2    C2 5267   4.096   0.058  11.614  0.3143 -0.5424  0.2244
  348MPD2    C3 5268   4.170   0.170  11.589 -0.1708  0.4489 -0.3506
  348MPD2    C4 5269   4.285   0.193  11.666  0.0623  0.3665  0.0768
  348MPD2    C5 5270   4.310   0.101  11.759  0.6299  1.0069 -0.6183
  348MPD2     H 5271   4.010   0.048  11.549 -0.9608 -1.8026  2.0878
  348MPD2    H1 5272   4.344   0.285  11.669 -2.1246  1.7123  1.4785
  348MPD2    H2 5273   4.283   4.636  11.840 -1.0119 -1.2738 -0.5196
  348MPD2    H3 5274   4.389   0.138  11.823  1.0219  0.1361 -0.5921
  348MPD2     N 5275   4.136   0.259  11.486 -0.6570 -0.3129  0.0457
  348MPD2    H5 5276   4.039   0.258  11.455 -0.5875 -1.4931 -0.1349
  348MPD2    N1 5277   4.029   4.590  11.727 -0.0603 -0.4369  0.2489
  348MPD2    H7 5278   3.959   4.586  11.654 -0.1107  0.1428  0.2717
  349TMC3    C1 5279   3.942   4.386  11.829 -0.1138  0.5564 -0.0134
  349TMC3    C2 5280   3.968   4.298  11.932 -0.6987 -0.5869  0.1612
  349TMC3    C3 5281   3.867   4.208  11.969  0.2589 -1.0226 -0.4879
  349TMC3    C4 5282   3.822   4.395  11.769  0.0630 -0.2103  0.9130
  349TMC3    C5 5283   3.722   4.306  11.804 -0.6350 -0.6518  0.0409
  349TMC3    C6 5284   3.750   4.209  11.899 -0.1113 -0.4964 -0.2463
  349TMC3     C 5285   4.046   4.491  11.818 -0.5394  0.2158 -0.4548
  349TMC3     O 5286   4.130   4.493  11.905 -0.7006  0.3334  0.2093
  349TMC3     H 5287   4.066   4.291  11.979 -0.6091 -0.7289 -0.0463
  349TMC3    H1 5288   3.798   4.481  11.707  1.9746 -0.8977 -0.7882
  349TMC3    H2 5289   3.667   4.141  11.914 -0.5771  0.0458 -0.3626
  349TMC3    C7 5290   3.593   4.317  11.745  0.5829  0.3341  0.3756
  349TMC3    C8 5291   3.907   4.093  12.053  0.2579 -0.1237 -0.0514
  349TMC3    O1 5292   3.510   4.244  11.796 -0.5094 -0.0082 -0.3946
  349TMC3    O2 5293   4.030   4.090  12.063  0.8655  0.4964 -0.7200
  350MPD2     C 5294   2.427   3.378  10.792 -0.3007  0.1459  0.0043
  350MPD2    C1 5295   2.414   3.248  10.816  0.1741  0.8454 -0.1003
  350MPD2    C2 5296   2.425   3.209  10.946 -0.2763 -0.2621 -0.8531
  350MPD2    C3 5297   2.430   3.291  11.059  0.1374  0.7967 -0.4105
  350MPD2    C4 5298   2.443   3.426  11.033 -0.3369  0.3498  0.2792
  350MPD2    C5 5299   2.438   3.463  10.902 -0.5100  0.3266 -1.3637
  350MPD2     H 5300   2.417   3.102  10.963  2.8180 -0.0446  2.0761
  350MPD2    H1 5301   2.467   3.498  11.111  2.6533 -1.1203  0.6729
  350MPD2    H2 5302   2.425   3.413  10.689 -0.2788  2.9807  0.9749
  350MPD2    H3 5303   2.444   3.568  10.875 -0.6707  0.8596  0.7245
  350MPD2     N 5304   2.417   3.231  11.189  0.3894  0.1067  0.2635
  350MPD2    H5 5305   2.406   3.130  11.184 -0.5530  0.2930 -1.5026
  350MPD2    N1 5306   2.414   3.151  10.718  0.1496 -0.0492  0.0431
  350MPD2    H7 5307   2.453   3.059  10.734  2.6945  1.3132  1.8125
  351TMC3    C1 5308   2.360   3.060  10.509 -0.8506  0.5364  0.9626
  351TMC3    C2 5309   2.460   2.968  10.527  0.2823 -0.0668  0.2383
  351TMC3    C3 5310   2.428   2.840  10.493  0.0855 -0.4744 -0.2339
  351TMC3    C4 5311   2.231   3.033  10.473  0.1895  0.4895 -0.2576
  351TMC3    C5 5312   2.201   2.902  10.452  0.2003  0.1643  0.5366
  351TMC3    C6 5313   2.296   2.805  10.455  0.4639 -0.0246 -0.4530
  351TMC3     C 5314   2.372   3.179  10.589  0.2654  1.1228 -0.5025
  351TMC3     O 5315   2.305   3.273  10.542 -0.7815  0.5005 -0.0876
  351TMC3     H 5316   2.558   2.995  10.565  1.4053  1.2467 -3.6422
  351TMC3    H1 5317   2.156   3.111  10.476  0.3632  0.6662 -0.4790
  351TMC3    H2 5318   2.286   2.707  10.410 -0.7685  0.2074 -0.6672
  351TMC3    C7 5319   2.072   2.872  10.391  0.1508 -0.3966  0.2159
  351TMC3    C8 5320   2.532   2.737  10.511 -0.1324  0.4072 -0.0316
  351TMC3    O1 5321   2.012   2.968  10.342  0.1073 -0.1519 -0.1454
  351TMC3    O2 5322   2.646   2.780  10.515 -0.7923  0.3079 -0.6697
  352MPD2     C 5323   1.117   4.566   1.615 -0.1590 -0.0156 -0.1973
  352MPD2    C1 5324   1.065   4.524   1.492 -0.2688  0.4668  0.5928
  352MPD2    C2 5325   1.072   4.386   1.463 -0.5750  0.7849 -0.0665
  352MPD2    C3 5326   1.109   4.294   1.555 -0.6132 -0.1352 -0.0501
  352MPD2    C4 5327   1.133   4.340   1.689  0.6465 -0.2867 -0.1599
  352MPD2    C5 5328   1.144   4.475   1.712 -0.0174 -0.3000 -0.1860
  352MPD2     H 5329   1.034   4.364   1.364 -0.2766  0.1369 -0.0332
  352MPD2    H1 5330   1.166   4.276   1.769 -2.2821  0.6645  1.7854
  352MPD2    H2 5331   1.104   4.670   1.643 -1.6170 -0.7393  1.8035
  352MPD2    H3 5332   1.179   4.517   1.806  0.5224 -1.4141  0.1183
  352MPD2     N 5333   1.115   4.159   1.531 -0.1905  0.8613  0.1159
  352MPD2    H5 5334   1.155   4.101   1.603 -2.3019 -1.6980 -0.7730
  352MPD2    N1 5335   1.009   4.626   1.411  0.4913 -0.6409  0.4070
  352MPD2    H7 5336   1.018   4.720   1.449  2.6182 -0.9335  0.6186
  353TMC3    C1 5337   1.086   3.948   1.455  0.9364 -0.1860  0.4508
  353TMC3    C2 5338   1.200   3.899   1.510 -1.4806  0.2074  0.2730
  353TMC3    C3 5339   1.208   3.765   1.509 -0.4918  0.5579 -0.1523
  353TMC3    C4 5340   0.979   3.870   1.421 -0.0212  1.0616  1.0842
  353TMC3    C5 5341   0.986   3.735   1.437 -0.5745  0.0576 -0.1077
  353TMC3    C6 5342   1.102   3.681   1.476 -0.3898  0.0434  0.5407
  353TMC3     C 5343   1.069   4.087   1.428  0.9530  0.4019  0.2488
  353TMC3     O 5344   0.993   4.131   1.342 -0.1327  0.1478 -0.6226
  353TMC3     H 5345   1.284   3.966   1.524 -0.9628 -0.6963  1.5478
  353TMC3    H1 5346   0.884   3.915   1.396  0.1134  0.6869 -0.0594
  353TMC3    H2 5347   1.111   3.574   1.491 -0.1026 -0.0720 -0.4236
  353TMC3    C7 5348   0.878   3.650   1.374 -0.1052  0.6435 -0.0312
  353TMC3    C8 5349   1.336   3.702   1.508 -0.0451  0.6429  0.3165
  353TMC3    O1 5350   0.821   3.705   1.283 -0.0293  0.5176 -0.1065
  353TMC3    O2 5351   1.421   3.771   1.561  0.2545 -0.0657  0.1557
  354TMC3    C1 5352   3.435   0.765  13.641 -0.1493  0.0002  0.7116
  354TMC3    C2 5353   3.543   0.850  13.650 -0.2018 -0.5011 -0.1349
  354TMC3    C3 5354   3.638   0.848  13.554 -0.1371  0.1149  0.4559
  354TMC3    C4 5355   3.425   0.669  13.538 -0.3079 -0.6360  0.1625
  354TMC3    C5 5356   3.527   0.669  13.448  0.5275  0.1341  0.0674
  354TMC3    C6 5357   3.629   0.755  13.462  0.0935  0.0488 -0.5093
  354TMC3     C 5358   3.376   0.722  13.765  0.4725 -0.7758 -0.3541
  354TMC3     O 5359   3.276   0.650  13.758  0.1599  0.6233 -0.2878
  354TMC3     H 5360   3.547   0.930  13.723 -3.0708 -2.0901  1.7608
  354TMC3    H1 5361   3.332   0.617  13.520  0.1165 -1.4398  0.2768
  354TMC3    H2 5362   3.694   0.764  13.376  0.0509  2.3192 -0.3028
  354TMC3    C7 5363   3.471   0.659  13.313 -1.0980  0.3908  0.3506
  354TMC3    C8 5364   3.625   0.979  13.487  0.0843 -0.4250  0.5379
  354TMC3    O1 5365   3.350   0.665  13.305  0.4719 -0.2983  0.6393
  354TMC3    O2 5366   3.510   1.007  13.458 -0.2940  0.1238 -0.5010
  355MPD2     C 5367   2.839   1.769  12.145  0.6070 -0.0685 -0.5362
  355MPD2    C1 5368   2.896   1.787  12.020 -0.0678  0.0330 -0.2982
  355MPD2    C2 5369   3.022   1.746  12.001 -0.5141 -0.0225 -0.0678
  355MPD2    C3 5370   3.110   1.726  12.109 -0.0246  0.2851  0.3631
  355MPD2    C4 5371   3.051   1.717  12.234  0.5288  0.2528 -0.7021
  355MPD2    C5 5372   2.914   1.739  12.251  0.4834  0.3629 -0.4161
  355MPD2     H 5373   3.066   1.757  11.903 -1.8706  2.1469 -0.4227
  355MPD2    H1 5374   3.115   1.685  12.315  0.6831  0.5914 -0.6923
  355MPD2    H2 5375   2.739   1.806  12.163  1.2080  0.8635  0.9103
  355MPD2    H3 5376   2.861   1.737  12.346  0.7674 -0.1953 -0.2642
  355MPD2     N 5377   3.251   1.719  12.105  0.7540  0.1251  0.0765
  355MPD2    H5 5378   3.304   1.715  12.192 -1.7797  1.2560  1.6734
  355MPD2    N1 5379   2.814   1.829  11.909  0.2476  0.6136  0.0271
  355MPD2    H7 5380   2.715   1.823  11.932  0.4084  2.6621  1.2738
  356TMC3    C1 5381   3.465   1.759  12.015 -0.1883  0.1320 -0.9761
  356TMC3    C2 5382   3.515   1.861  11.933 -0.0721  0.2024 -0.5372
  356TMC3    C3 5383   3.603   1.959  11.984 -0.3436  0.6025  0.8024
  356TMC3    C4 5384   3.518   1.743  12.137  0.6971 -0.1285 -0.6301
  356TMC3    C5 5385   3.601   1.842  12.189 -0.1876 -0.3290  0.8319
  356TMC3    C6 5386   3.648   1.951  12.115 -0.6033  0.7423  0.0824
  356TMC3     C 5387   3.326   1.712  11.990  0.2410  0.3621  0.4817
  356TMC3     O 5388   3.287   1.739  11.879 -0.1657 -0.4054 -0.6438
  356TMC3     H 5389   3.463   1.876  11.839 -0.7585 -0.3278 -0.2476
  356TMC3    H1 5390   3.490   1.655  12.193 -0.2363 -0.9161 -2.3516
  356TMC3    H2 5391   3.722   2.022  12.151 -1.4652  2.1791 -0.9787
  356TMC3    C7 5392   3.613   1.839  12.332  0.1133 -0.1074 -0.1135
  356TMC3    C8 5393   3.652   2.060  11.894 -0.5065  0.4887 -0.7245
  356TMC3    O1 5394   3.586   1.734  12.390  0.1780  0.0850 -0.4863
  356TMC3    O2 5395   3.579   2.091  11.801 -0.1772  0.3433  0.5489
  357MPD2     C 5396   2.257   1.422   0.025 -0.3379 -0.6342 -0.3359
  357MPD2    C1 5397   2.211   1.326  17.686 -0.4066  0.0637  0.2166
  357MPD2    C2 5398   2.109   1.363  17.598  0.2712 -0.1752  0.2922
  357MPD2    C3 5399   2.072   1.497  17.589  0.2066  0.3150 -0.2590
  357MPD2    C4 5400   2.123   1.593  17.676 -0.2022  0.9282  0.1568
  357MPD2    C5 5401   2.214   1.550   0.019  0.1592 -0.4728  0.1226
  357MPD2     H 5402   2.057   1.286  17.543  2.6076 -0.6345 -1.2659
  357MPD2    H1 5403   2.096   1.698  17.677 -2.1384  0.4298  0.3529
  357MPD2    H2 5404   2.323   1.395   0.106  1.1982  0.6895 -1.1564
  357MPD2    H3 5405   2.258   1.625   0.084 -0.0674  0.0455 -0.3251
  357MPD2     N 5406   1.972   1.545  17.494 -0.3615  0.7158 -0.0741
  357MPD2    H5 5407   1.970   1.644  17.473  1.0407  0.6505 -0.5420
  357MPD2    N1 5408   2.265   1.195  17.687  0.2653  0.3470 -0.1052
  357MPD2    H7 5409   2.324   1.176   0.021  0.1302  1.5860  0.2877
  358TMC3    C1 5410   2.297   0.976  17.612  0.1783 -0.3721 -0.2364
  358TMC3    C2 5411   2.375   0.917  17.509 -0.5047 -0.1535  0.0580
  358TMC3    C3 5412   2.479   0.834  17.541 -1.0326 -0.3342  0.1466
  358TMC3    C4 5413   2.324   0.941  17.743  0.6120  0.1980  0.2651
  358TMC3    C5 5414   2.424   0.850   0.026  0.3545  0.1601  0.0414
  358TMC3    C6 5415   2.500   0.787  17.673 -0.3992 -0.4535 -0.0692
  358TMC3     C 5416   2.245   1.107  17.583  0.0473 -0.2981  0.1206
  358TMC3     O 5417   2.215   1.127  17.466 -0.0856  0.2775 -0.2226
  358TMC3     H 5418   2.372   0.953  17.407 -1.8763 -0.5137 -0.0316
  358TMC3    H1 5419   2.276   0.982   0.084  1.3929 -3.0800  2.2220
  358TMC3    H2 5420   2.583   0.724  17.701  1.2526  1.0231 -1.6654
  358TMC3    C7 5421   2.430   0.807   0.169  0.0895 -0.5005 -0.4407
  358TMC3    C8 5422   2.589   0.824  17.453  0.0431  0.0855 -0.0859
  358TMC3    O1 5423   2.371   0.861   0.260  0.1765 -0.1540  0.3910
  358TMC3    O2 5424   2.696   0.830  17.513  0.5135  0.7608  0.0003
  359MPD2     C 5425   3.711   0.420  12.553  0.1087  0.3957  0.3693
  359MPD2    C1 5426   3.650   0.343  12.457  0.2995 -0.1860 -0.7483
  359MPD2    C2 5427   3.530   0.278  12.489 -0.6541 -0.5806 -0.3211
  359MPD2    C3 5428   3.487   0.278  12.616  0.3758  0.6258  0.0910
  359MPD2    C4 5429   3.550   0.353  12.707 -0.0673  0.1251  0.2406
  359MPD2    C5 5430   3.660   0.421  12.678  0.4264  0.0060 -0.6577
  359MPD2     H 5431   3.469   0.239  12.408  0.9601 -3.0138 -0.3707
  359MPD2    H1 5432   3.513   0.365  12.808 -0.2273 -0.2518  0.2265
  359MPD2    H2 5433   3.797   0.485  12.541  0.0095  0.2596 -1.0664
  359MPD2    H3 5434   3.707   0.478  12.758 -1.2199 -0.3960  0.6163
  359MPD2     N 5435   3.381   0.204  12.666 -0.2149 -0.2083 -0.2826
  359MPD2    H5 5436   3.365   0.220  12.765 -1.9052  0.7988 -0.7123
  359MPD2    N1 5437   3.709   0.336  12.327  0.6989  0.0630  0.6881
  359MPD2    H7 5438   3.647   0.298  12.257 -0.8829  3.2522  0.3534
  360TMC3    C1 5439   3.882   0.359  12.161 -0.3542 -0.0795 -0.2593
  360TMC3    C2 5440   3.978   0.451  12.131  0.1236 -0.3937 -0.3653
  360TMC3    C3 5441   4.029   0.461  12.006  0.9005  0.0366  0.2376
  360TMC3    C4 5442   3.849   0.263  12.072  0.2111 -0.0480 -0.1151
  360TMC3    C5 5443   3.901   0.273  11.943 -0.1058  0.1833 -0.0233
  360TMC3    C6 5444   3.990   0.371  11.910  0.5490  0.0240 -0.3672
  360TMC3     C 5445   3.838   0.373  12.302  0.6227  0.0217 -0.2552
  360TMC3     O 5446   3.926   0.405  12.381  0.0898  0.2062  0.2601
  360TMC3     H 5447   4.025   0.506  12.212 -0.1919 -0.3634 -0.2053
  360TMC3    H1 5448   3.777   0.187  12.100 -0.7768  1.0701  0.3553
  360TMC3    H2 5449   4.005   0.394  11.805 -1.5484  2.2363 -0.1901
  360TMC3    C7 5450   3.858   0.198  11.827  0.4464  0.5398 -0.2759
  360TMC3    C8 5451   4.104   0.570  11.967 -0.2245 -0.2035  1.0248
  360TMC3    O1 5452   3.880   0.252  11.720 -0.2960  0.3860  0.2852
  360TMC3    O2 5453   4.087   0.669  12.040 -0.2100 -0.3170  0.3299
  361MPD2     C 5454   0.345   3.762  16.555  0.1323  0.0512  0.2370
  361MPD2    C1 5455   0.366   3.872  16.633 -1.1264 -0.3566  0.7617
  361MPD2    C2 5456   0.465   3.877  16.732  0.4581 -0.4004  0.2592
  361MPD2    C3 5457   0.545   3.758  16.739  0.9554 -0.5036  0.3414
  361MPD2    C4 5458   0.519   3.641  16.664  0.2928  0.3468 -0.4396
  361MPD2    C5 5459   0.415   3.642  16.574 -0.9987 -0.5260  0.5515
  361MPD2     H 5460   0.475   3.958  16.803 -0.8952 -1.5061  1.7147
  361MPD2    H1 5461   0.575   3.549  16.673 -2.0505 -1.1094 -0.5474
  361MPD2    H2 5462   0.276   3.758  16.472  0.4511 -1.2271  0.0223
  361MPD2    H3 5463   0.400   3.560  16.505 -1.3383  2.4991 -2.9833
  361MPD2     N 5464   0.656   3.749  16.826  0.3414  0.2462 -0.0298
  361MPD2    H5 5465   0.715   3.668  16.816 -0.6570 -0.4120 -0.5928
  361MPD2    N1 5466   0.277   3.983  16.621  0.6569  0.1711  0.6516
  361MPD2    H7 5467   0.190   3.967  16.570  2.5089  1.8991 -3.0813
  362TMC3    C1 5468   0.180   4.192  16.662 -0.3002  0.0490  0.2248
  362TMC3    C2 5469   0.066   4.122  16.689  0.1042 -0.3084  0.2018
  362TMC3    C3 5470   4.686   4.183  16.676 -0.6389 -0.2372 -0.0722
  362TMC3    C4 5471   0.183   4.308  16.594  0.6436 -0.2566  0.3778
  362TMC3    C5 5472   0.058   4.371  16.576 -0.3503 -0.0213  0.1251
  362TMC3    C6 5473   4.680   4.302  16.615 -0.4787  0.1176 -0.5269
  362TMC3     C 5474   0.300   4.109  16.666  0.9443 -0.0799  0.4271
  362TMC3     O 5475   0.405   4.169  16.677  0.1748  0.1727 -0.0727
  362TMC3     H 5476   0.075   4.029  16.745  1.1336  0.5163  1.4121
  362TMC3    H1 5477   0.273   4.356  16.556  0.2429 -0.3708 -0.7086
  362TMC3    H2 5478   4.593   4.365  16.633  0.9328  1.4284  1.7716
  362TMC3    C7 5479   0.042   4.447  16.457 -0.2529 -0.1785 -0.0214
  362TMC3    C8 5480   4.568   4.109  16.685  0.7739  0.5123  0.6223
  362TMC3    O1 5481   4.723   4.557  16.469  0.5397  0.2523 -0.5396
  362TMC3    O2 5482   4.580   3.991  16.644  0.1363  0.2052 -0.1292
  363TMC3    C1 5483   3.277   2.393   9.882 -0.0303 -0.1777 -0.1207
  363TMC3    C2 5484   3.410   2.354   9.889  0.3548 -0.1615 -0.6381
  363TMC3    C3 5485   3.501   2.453   9.840 -0.4776 -0.5381  0.0524
  363TMC3    C4 5486   3.233   2.509   9.833  0.2011 -0.5878  0.1729
  363TMC3    C5 5487   3.324   2.602   9.791  0.2165 -0.2553  0.3730
  363TMC3    C6 5488   3.460   2.576   9.795  0.4500 -0.4315 -0.4751
  363TMC3     C 5489   3.179   2.294   9.925 -0.0935 -0.3519 -0.0157
  363TMC3     O 5490   3.215   2.178   9.931 -0.3409 -0.4721  0.0500
  363TMC3     H 5491   3.426   2.256   9.932  2.4203  0.8345  0.8228
  363TMC3    H1 5492   3.128   2.528   9.811  0.1004  0.5386  1.6057
  363TMC3    H2 5493   3.536   2.649   9.767  0.4252 -0.5397 -0.8197
  363TMC3    C7 5494   3.269   2.740   9.796 -0.4140  0.4478 -0.3277
  363TMC3    C8 5495   3.646   2.429   9.848  0.5924 -0.3877  0.0240
  363TMC3    O1 5496   3.150   2.753   9.810 -0.1156  0.0285  0.6749
  363TMC3    O2 5497   3.717   2.523   9.864  0.0175 -0.2565 -0.3791
  364MPD2     C 5498   2.011   1.213  10.289  0.0116 -0.0605 -0.0590
  364MPD2    C1 5499   2.116   1.273  10.348  0.1515 -0.0711  0.7190
  364MPD2    C2 5500   2.214   1.206  10.410  0.0754  0.1284  0.0996
  364MPD2    C3 5501   2.207   1.065  10.423 -0.3496  0.0272 -0.0780
  364MPD2    C4 5502   2.114   1.000  10.336  0.7881 -0.0579 -0.1747
  364MPD2    C5 5503   2.023   1.076  10.273  0.2524  0.0252 -0.4357
  364MPD2     H 5504   2.298   1.261  10.448 -1.7677  2.7189  0.3986
  364MPD2    H1 5505   2.098   0.892  10.333  1.6084 -0.1924  0.5582
  364MPD2    H2 5506   1.928   1.257  10.235 -0.7397 -0.6204  0.6570
  364MPD2    H3 5507   1.955   1.029  10.203 -2.4545  3.0248  0.1881
  364MPD2     N 5508   2.290   0.995  10.515  0.0049  0.6971  0.5287
  364MPD2    H5 5509   2.278   0.894  10.514  1.3947  0.5384 -0.7977
  364MPD2    N1 5510   2.117   1.415  10.334  0.0187  0.6621  0.0204
  364MPD2    H7 5511   2.054   1.457  10.267  0.8094  0.3505 -0.9164
  365TMC3    C1 5512   2.171   1.632  10.381 -0.6682 -0.2285  0.9446
  365TMC3    C2 5513   2.156   1.665  10.253  0.3076 -0.5050  0.3503
  365TMC3    C3 5514   2.141   1.799  10.215  0.1169 -0.5133  0.3986
  365TMC3    C4 5515   2.174   1.725  10.485 -0.5622  0.7022  0.1534
  365TMC3    C5 5516   2.154   1.857  10.441  0.2951  0.1392  0.1247
  365TMC3    C6 5517   2.127   1.887  10.313  0.2338  0.0740  0.4033
  365TMC3     C 5518   2.190   1.493  10.416 -0.1752 -0.2437  0.0138
  365TMC3     O 5519   2.252   1.466  10.517 -0.6741 -0.3516  0.3412
  365TMC3     H 5520   2.167   1.589  10.175  3.1660 -2.2279  2.4563
  365TMC3    H1 5521   2.214   1.692  10.581 -1.8029 -0.6340  0.2031
  365TMC3    H2 5522   2.092   1.984  10.278 -2.4259 -0.2887  2.1110
  365TMC3    C7 5523   2.184   1.967  10.531  0.4791  0.1335  0.8559
  365TMC3    C8 5524   2.086   1.829  10.080 -0.6395 -0.0169  0.2457
  365TMC3    O1 5525   2.195   2.077  10.477  0.3143 -0.2606 -0.8927
  365TMC3    O2 5526   1.979   1.890  10.067  0.4921 -0.5857  0.8161
  366MPD2     C 5527   0.891   1.913  15.149 -0.4639 -0.2697  0.4340
  366MPD2    C1 5528   0.987   2.008  15.148 -0.9366 -0.2963  0.3806
  366MPD2    C2 5529   1.114   1.982  15.101 -0.9385  0.2910 -0.2848
  366MPD2    C3 5530   1.149   1.863  15.044 -0.6403  0.0409  0.7336
  366MPD2    C4 5531   1.064   1.758  15.060 -0.4077 -0.4701  0.0592
  366MPD2    C5 5532   0.936   1.785  15.117  0.2571  0.4665  1.2525
  366MPD2     H 5533   1.170   2.069  15.069 -0.4162  0.2144  0.4104
  366MPD2    H1 5534   1.080   1.657  15.025  3.1484 -0.1817  0.8532
  366MPD2    H2 5535   0.793   1.931  15.192 -1.2518 -1.6040 -0.8536
  366MPD2    H3 5536   0.878   1.697  15.142  2.3967 -2.0311 -2.6073
  366MPD2     N 5537   1.265   1.857  14.961  0.8395  0.1769 -0.3467
  366MPD2    H5 5538   1.337   1.929  14.971  1.0434  0.0831 -1.1170
  366MPD2    N1 5539   0.962   2.151  15.153 -0.3002 -0.2588 -0.3791
  366MPD2    H7 5540   1.033   2.220  15.133 -1.0020  0.7387  0.6057
  367TMC3    C1 5541   0.839   2.351  15.172 -0.0517 -0.4740  0.3609
  367TMC3    C2 5542   0.943   2.401  15.238 -0.3076 -0.5099  0.1131
  367TMC3    C3 5543   0.982   2.536  15.232  0.2467  0.3257  0.5102
  367TMC3    C4 5544   0.770   2.433  15.088 -0.4496  0.5269 -0.4000
  367TMC3    C5 5545   0.802   2.568  15.092 -0.0792 -0.8628  0.2155
  367TMC3    C6 5546   0.906   2.622  15.161  0.3196  0.5320 -0.0651
  367TMC3     C 5547   0.833   2.205  15.151  0.0261 -0.2473  0.3569
  367TMC3     O 5548   0.719   2.157  15.141 -0.1337  0.3888 -0.0460
  367TMC3     H 5549   0.980   2.333  15.313  0.9622  2.0852  1.8603
  367TMC3    H1 5550   0.688   2.391  15.031  0.0234 -0.6037 -0.2686
  367TMC3    H2 5551   0.924   2.727  15.176 -0.3922  0.4711  1.2665
  367TMC3    C7 5552   0.715   2.660  15.019  0.8910 -0.7535  0.3349
  367TMC3    C8 5553   1.070   2.583  15.337  0.0266  0.1804  0.1520
  367TMC3    O1 5554   0.762   2.768  14.985 -0.2285  0.8265  0.3754
  367TMC3    O2 5555   1.087   2.508  15.429 -0.8045  0.3671 -0.1396
  368MPD2     C 5556   1.614   4.383  13.371 -0.6311  0.9050 -0.0238
  368MPD2    C1 5557   1.617   4.431  13.239  0.3922  0.1263 -0.0433
  368MPD2    C2 5558   1.740   4.440  13.178  0.6393 -0.6812 -0.7607
  368MPD2    C3 5559   1.845   4.375  13.226 -0.5558 -0.5449 -1.0779
  368MPD2    C4 5560   1.844   4.325  13.358 -0.2457  0.0614 -0.2152
  368MPD2    C5 5561   1.731   4.336  13.430 -1.0377 -0.2938  0.0859
  368MPD2     H 5562   1.744   4.479  13.077  0.6183  2.3919  0.4236
  368MPD2    H1 5563   1.932   4.282  13.404  1.2944  2.1499 -1.1840
  368MPD2    H2 5564   1.521   4.383  13.427 -0.8177  0.3450 -0.3356
  368MPD2    H3 5565   1.727   4.303  13.533 -0.1186 -0.5539  0.0356
  368MPD2     N 5566   1.970   4.369  13.154 -0.5209 -0.4105 -0.3693
  368MPD2    H5 5567   2.049   4.327  13.202 -1.8778 -1.0717  1.2860
  368MPD2    N1 5568   1.489   4.458  13.177 -0.3621 -0.2000 -0.6216
  368MPD2    H7 5569   1.406   4.441  13.233 -0.3196  0.7485 -0.2661
  369TMC3    C1 5570   1.354   4.517  12.998  0.4736 -0.1340 -0.0230
  369TMC3    C2 5571   1.365   4.619  12.905 -0.3537 -0.4912 -0.5244
  369TMC3    C3 5572   1.305   4.737  12.945  0.7160  0.8355 -0.5061
  369TMC3    C4 5573   1.263   4.524  13.103 -0.0665 -0.2279  0.0399
  369TMC3    C5 5574   1.184   4.635  13.120 -0.2748 -0.2836 -0.2396
  369TMC3    C6 5575   1.207   0.011  13.043 -0.3274 -0.1981 -0.1360
  369TMC3     C 5576   1.480   4.469  13.039  0.2954  0.3922 -0.0537
  369TMC3     O 5577   1.570   4.499  12.955  0.1163 -0.1555  0.3391
  369TMC3     H 5578   1.423   4.610  12.814 -0.5802 -1.6042 -0.5587
  369TMC3    H1 5579   1.251   4.440  13.170  2.5792 -1.2645 -0.8118
  369TMC3    H2 5580   1.138   0.095  13.044  0.7526  0.7218 -3.9592
  369TMC3    C7 5581   1.058   4.613  13.196 -0.5986  0.4178  0.0180
  369TMC3    C8 5582   1.407   0.110  12.948  0.2228 -0.1817  0.6671
  369TMC3    O1 5583   1.054   4.497  13.244  0.1629 -0.0617  0.1374
  369TMC3    O2 5584   1.369   0.217  12.994  0.3461 -0.1578  0.5789
  370TMC3    C1 5585   1.627   0.074  16.404 -0.1015 -0.5378  0.4053
  370TMC3    C2 5586   1.559   0.002  16.497  0.0423 -0.1082  0.3017
  370TMC3    C3 5587   1.517   4.612  16.458 -0.4408 -0.0020 -0.3173
  370TMC3    C4 5588   1.655   0.031  16.278 -0.2610  0.6050 -0.0868
  370TMC3    C5 5589   1.623   4.642  16.248 -0.0229  0.8714 -0.2720
  370TMC3    C6 5590   1.549   4.558  16.332 -0.2509  0.2034  0.3664
  370TMC3     C 5591   1.737   0.162  16.457 -0.2036 -0.5874 -0.1954
  370TMC3     O 5592   1.772   0.153  16.577  0.6594  0.3987 -0.4378
  370TMC3     H 5593   1.547   0.044  16.596  0.1211 -2.0284  1.1148
  370TMC3    H1 5594   1.726   0.087  16.218 -0.2681 -0.6882 -1.2873
  370TMC3    H2 5595   1.525   4.454  16.311  0.2239 -0.0693  1.2088
  370TMC3    C7 5596   1.688   4.588  16.131  0.3015  0.3117  0.2716
  370TMC3    C8 5597   1.475   4.513  16.556  1.1915 -0.0396  0.4076
  370TMC3    O1 5598   1.710   4.666  16.043 -0.3332  0.3447  0.1929
  370TMC3    O2 5599   1.496   4.395  16.529 -0.2795  1.0688 -0.0049
  371TMC3    C1 5600   2.913   3.245  15.399  0.1085  0.3947 -0.0878
  371TMC3    C2 5601   2.835   3.234  15.514  0.3388 -0.3350  0.1095
  371TMC3    C3 5602   2.791   3.350  15.566 -0.2123  0.5327  0.6063
  371TMC3    C4 5603   2.945   3.362  15.345  0.2157  0.1946 -0.5938
  371TMC3    C5 5604   2.881   3.472  15.388  0.4819  0.3638 -0.6206
  371TMC3    C6 5605   2.819   3.470  15.508  0.3283 -0.2896 -0.8328
  371TMC3     C 5606   3.000   3.135  15.377 -0.2159  0.6527 -0.1813
  371TMC3     O 5607   3.109   3.162  15.321 -0.1546  0.2772 -0.0754
  371TMC3     H 5608   2.805   3.143  15.565 -0.0862  0.5487  1.4265
  371TMC3    H1 5609   3.019   3.372  15.266  0.7374  2.0215  0.1148
  371TMC3    H2 5610   2.804   3.561  15.564  1.3231 -0.5582 -0.1451
  371TMC3    C7 5611   2.897   3.607  15.330 -0.2662  0.4074 -0.7170
  371TMC3    C8 5612   2.768   3.345  15.707 -0.3527 -0.0033  0.0993
  371TMC3    O1 5613   2.911   3.706  15.398  0.7972  0.2333 -0.3591
  371TMC3    O2 5614   2.816   3.246  15.766  0.2413 -0.0285 -0.8217
  372MPD2     C 5615   2.000   0.048  13.357  0.3773  0.1182 -0.3788
  372MPD2    C1 5616   2.100   4.697  13.384 -0.3443 -0.0252  0.1311
  372MPD2    C2 5617   2.073   4.616  13.486 -0.0998 -0.2340 -0.2984
  372MPD2    C3 5618   1.954   4.612  13.559  0.7466  0.3828  0.8433
  372MPD2    C4 5619   1.854   4.697  13.526  0.2783  0.3793  0.6884
  372MPD2    C5 5620   1.883   0.047  13.427  0.1702 -0.5192 -0.2462
  372MPD2     H 5621   2.156   4.551  13.511  1.2647  2.2115  1.4723
  372MPD2    H1 5622   1.759   4.697  13.577 -0.4028  0.5808 -0.5637
  372MPD2    H2 5623   2.008   0.122  13.278  0.3548  0.4997 -0.0156
  372MPD2    H3 5624   1.801   0.115  13.409 -0.0043 -1.6737 -3.8053
  372MPD2     N 5625   1.954   4.514  13.664 -0.3906  0.4729  0.2924
  372MPD2    H5 5626   2.021   4.438  13.659 -0.5921  0.3307 -0.1679
  372MPD2    N1 5627   2.228   4.690  13.327 -0.0742 -0.2764 -0.4206
  372MPD2    H7 5628   2.292   4.627  13.373  0.5737  1.3775  0.9405
  373TMC3    C1 5629   1.869   4.379  13.832 -0.9255  0.1750 -0.0243
  373TMC3    C2 5630   1.830   4.365  13.958 -0.1228  0.4889  0.1756
  373TMC3    C3 5631   1.790   4.243  14.003  0.0746 -0.5658 -0.2066
  373TMC3    C4 5632   1.870   4.272  13.744 -0.2624 -0.2780 -0.3784
  373TMC3    C5 5633   1.817   4.152  13.787 -0.4789  0.5930  0.0820
  373TMC3    C6 5634   1.786   4.135  13.921  0.1047  0.6017  0.2930
  373TMC3     C 5635   1.863   4.509  13.763 -0.1756  0.9739  0.0656
  373TMC3     O 5636   1.774   4.592  13.792  0.4806 -0.7174  0.0086
  373TMC3     H 5637   1.833   4.454  14.020 -0.4709  0.2111  0.5955
  373TMC3    H1 5638   1.903   4.282  13.641 -0.8019 -3.0377 -0.8310
  373TMC3    H2 5639   1.756   4.041  13.966 -0.2962  0.7993  0.4374
  373TMC3    C7 5640   1.796   4.055  13.691 -0.3794 -0.5678 -0.3279
  373TMC3    C8 5641   1.811   4.216  14.140  0.0996  0.1630 -0.6155
  373TMC3    O1 5642   1.844   4.071  13.579 -0.0865 -0.4370  0.3821
  373TMC3    O2 5643   1.772   4.110  14.178 -0.0140 -0.0913  0.3087
  374TMC3    C1 5644   2.541   0.744   9.862 -0.3903  0.3361  0.2162
  374TMC3    C2 5645   2.672   0.747   9.832 -0.4567  0.4943  0.3418
  374TMC3    C3 5646   2.736   0.628   9.820  0.0697 -0.3062  0.5199
  374TMC3    C4 5647   2.480   0.626   9.904  0.2317 -0.9288  0.3999
  374TMC3    C5 5648   2.557   0.510   9.891 -0.5581  0.1001  0.1907
  374TMC3    C6 5649   2.689   0.505   9.856  0.2497 -0.6163 -0.4640
  374TMC3     C 5650   2.471   0.871   9.878  0.6823 -1.1267  0.8788
  374TMC3     O 5651   2.359   0.865   9.836 -0.0519 -0.0289 -0.1090
  374TMC3     H 5652   2.735   0.834   9.816 -2.0668  1.3670 -1.2964
  374TMC3    H1 5653   2.382   0.624   9.950  0.4697 -0.8511  0.9167
  374TMC3    H2 5654   2.738   0.412   9.828  3.7115  0.8810  0.5466
  374TMC3    C7 5655   2.493   0.385   9.935  1.3044 -0.0316 -0.0937
  374TMC3    C8 5656   2.867   0.635   9.759  0.6611 -0.3502  1.1995
  374TMC3    O1 5657   2.382   0.351   9.913  0.3456  0.2883  0.6158
  374TMC3    O2 5658   2.880   0.699   9.659 -0.5202 -0.1151  0.3773
  375MPD2     C 5659   2.590   4.332  16.966 -0.3003 -0.2334 -0.2025
  375MPD2    C1 5660   2.593   4.459  16.917  0.2254 -1.4646  0.3717
  375MPD2    C2 5661   2.675   4.482  16.808  0.7316 -0.2129 -0.5383
  375MPD2    C3 5662   2.759   4.389  16.750 -0.1570 -0.1312  0.0399
  375MPD2    C4 5663   2.755   4.263  16.807  0.3345 -0.5248 -0.0837
  375MPD2    C5 5664   2.677   4.236  16.914  0.2679 -0.7973  0.0959
  375MPD2     H 5665   2.655   4.578  16.764  2.2681  0.1707 -0.3973
  375MPD2    H1 5666   2.819   4.187  16.763  0.2153 -1.4787  1.3853
  375MPD2    H2 5667   2.538   4.299  17.055  1.6172 -0.1570  0.9529
  375MPD2    H3 5668   2.689   4.141  16.964 -0.9950 -1.2962 -0.5273
  375MPD2     N 5669   2.835   4.407  16.634  0.3147 -0.5497  0.0329
  375MPD2    H5 5670   2.913   4.347  16.609  1.4759  1.2091 -0.5382
  375MPD2    N1 5671   2.528   4.572  16.977 -0.3295 -0.1614 -0.3271
  375MPD2    H7 5672   2.543   4.665  16.938 -2.0756  0.3038  0.0722
  376TMC3    C1 5673   2.908   4.506  16.443  0.5953 -0.9941  0.3123
  376TMC3    C2 5674   3.019   4.425  16.443 -0.0686  0.1747  0.4341
  376TMC3    C3 5675   3.090   4.424  16.329 -0.3707 -0.0142  0.2057
  376TMC3    C4 5676   2.878   4.584  16.336  0.1214  1.0161 -0.1198
  376TMC3    C5 5677   2.959   4.590  16.230  0.0686 -0.4911 -0.4700
  376TMC3    C6 5678   3.055   4.498  16.215 -0.2536  0.0735 -0.2217
  376TMC3     C 5679   2.825   4.516  16.557 -0.1075  0.0592  0.2054
  376TMC3     O 5680   2.742   4.603  16.562 -0.5392 -0.3264 -0.1322
  376TMC3     H 5681   3.069   4.400  16.536  1.3348 -1.4266 -0.7524
  376TMC3    H1 5682   2.797   4.655  16.343 -1.1957 -0.4135 -0.9579
  376TMC3    H2 5683   3.115   4.493  16.125  0.5632 -1.0588  0.3814
  376TMC3    C7 5684   2.909   4.665  16.117  0.4205  0.2693  0.1472
  376TMC3    C8 5685   3.233   4.437  16.336 -0.2016  0.4653 -0.0754
  376TMC3    O1 5686   2.822   0.008  16.138  0.3146  0.1533  1.3899
  376TMC3    O2 5687   3.285   4.518  16.260  0.1019  0.0029 -0.2949
  377MPD2     C 5688   0.519   0.226  12.595 -0.7701  0.2482 -0.7945
  377MPD2    C1 5689   0.639   0.176  12.650  0.1841  0.0752  0.3183
  377MPD2    C2 5690   0.630   0.105  12.769 -0.1183  0.1561  0.8619
  377MPD2    C3 5691   0.503   0.073  12.821 -0.9906 -1.1313  0.3989
  377MPD2    C4 5692   0.388   0.124  12.760  0.3933 -0.4316 -0.6696
  377MPD2    C5 5693   0.398   0.204  12.653 -0.1257  0.2078 -0.1482
  377MPD2     H 5694   0.724   0.074  12.814  0.6097  0.1240 -0.6957
  377MPD2    H1 5695   0.289   0.101  12.799  0.3976  3.0240  1.3281
  377MPD2    H2 5696   0.517   0.290  12.508 -3.1654 -0.7977 -1.4834
  377MPD2    H3 5697   0.305   0.222  12.600 -0.4488  1.8121  0.9518
  377MPD2     N 5698   0.478   4.732  12.931  0.5105  0.2026 -0.1900
  377MPD2    H5 5699   0.386   4.723  12.973  0.1406  2.6242 -0.5008
  377MPD2    N1 5700   0.766   0.194  12.585  0.4369  0.6480 -0.4373
  377MPD2    H7 5701   0.747   0.214  12.488 -0.6347 -0.1223 -0.3795
  378TMC3    C1 5702   1.032   0.087  12.296 -0.2816  0.4498 -0.3244
  378TMC3    C2 5703   0.941   0.132  12.385  0.1128 -0.1031 -0.2269
  378TMC3    C3 5704   0.984   0.138  12.517  0.6837  0.7002  0.4259
  378TMC3    C4 5705   1.163   0.049  12.336 -1.0583  0.2380 -0.1715
  378TMC3    C5 5706   1.194   0.065  12.470 -0.6376 -0.4273 -0.0756
  378TMC3    C6 5707   1.106   0.108  12.560  0.1918 -0.3242 -0.3484
  378TMC3     C 5708   0.977   0.066  12.166  0.0256 -0.3830  1.2233
  378TMC3     O 5709   0.868   0.115  12.143  0.5998  0.1923 -0.2554
  378TMC3     H 5710   0.844   0.165  12.351 -0.2913 -0.4000  0.6519
  378TMC3    H1 5711   1.233   0.009  12.264 -0.7744  1.0625 -0.3514
  378TMC3    H2 5712   1.126   0.112  12.666 -2.3419  1.7986  0.0685
  378TMC3    C7 5713   1.334   0.067  12.515  0.0113 -0.5567  0.0839
  378TMC3    C8 5714   0.891   0.163  12.625 -0.0489 -0.5454 -0.0283
  378TMC3    O1 5715   1.355   0.072  12.636 -0.2199  0.1845 -0.4438
  378TMC3    O2 5716   0.925   0.127  12.740 -0.4764 -0.0957  0.4016
  379MPD2     C 5717   2.129   2.598  16.025 -0.0660 -0.0872 -0.5351
  379MPD2    C1 5718   2.022   2.581  16.106  0.2047  0.2486 -0.1526
  379MPD2    C2 5719   2.042   2.539  16.236 -0.0193  0.4292 -0.3933
  379MPD2    C3 5720   2.171   2.502  16.278  0.3986 -0.3967 -0.1981
  379MPD2    C4 5721   2.271   2.514  16.189 -0.3150  0.0732  0.2462
  379MPD2    C5 5722   2.256   2.561  16.059  0.2830 -0.2731 -0.1379
  379MPD2     H 5723   1.959   2.514  16.301 -0.4476 -1.6372 -1.7413
  379MPD2    H1 5724   2.369   2.495  16.231  0.4370  1.0323 -1.0984
  379MPD2    H2 5725   2.110   2.621  15.921 -1.4144  2.1385  0.2089
  379MPD2    H3 5726   2.338   2.574  15.990 -0.2275  0.9840 -0.5013
  379MPD2     N 5727   2.213   2.451  16.403 -0.5127 -0.0066  0.5339
  379MPD2    H5 5728   2.313   2.445  16.415 -0.4642 -0.0455  0.0710
  379MPD2    N1 5729   1.892   2.573  16.041  0.3715 -0.0309 -1.1242
  379MPD2    H7 5730   1.882   2.586  15.941  2.2712  0.1428 -1.2922
  380TMC3    C1 5731   1.678   2.508  16.017 -0.0934  0.1470 -0.4758
  380TMC3    C2 5732   1.675   2.380  15.973 -0.0883  0.0827 -0.9672
  380TMC3    C3 5733   1.621   2.359  15.842  0.2167 -0.1451  0.1106
  380TMC3    C4 5734   1.649   2.621  15.942 -0.5612  0.7174  0.6117
  380TMC3    C5 5735   1.595   2.594  15.818  0.1329 -0.1987  0.5398
  380TMC3    C6 5736   1.580   2.467  15.766  0.0809 -0.7630  0.0506
  380TMC3     C 5737   1.783   2.526  16.108 -0.7751  0.5760 -0.1460
  380TMC3     O 5738   1.755   2.509  16.227  0.6048  0.2886  0.7646
  380TMC3     H 5739   1.712   2.304  16.041 -1.7712 -1.0515 -1.3187
  380TMC3    H1 5740   1.674   2.722  15.972  0.9015  0.4684  0.2233
  380TMC3    H2 5741   1.554   2.440  15.664  0.5513  0.3864 -0.3763
  380TMC3    C7 5742   1.559   2.718  15.742  0.3438 -0.9094 -0.4879
  380TMC3    C8 5743   1.699   2.272  15.762 -0.3387  0.1466 -1.5330
  380TMC3    O1 5744   1.622   2.818  15.763 -0.2517  0.1178 -0.5211
  380TMC3    O2 5745   1.726   2.303  15.650  0.1860 -0.3700  0.5744
  381TMC3    C1 5746   1.580   3.879  16.304 -0.3165  0.2464  0.4651
  381TMC3    C2 5747   1.646   3.994  16.315 -0.3111 -0.5244  0.3416
  381TMC3    C3 5748   1.633   4.073  16.429 -0.3786 -0.6629  0.5547
  381TMC3    C4 5749   1.501   3.838  16.409  0.5498  0.1370  0.2077
  381TMC3    C5 5750   1.486   3.919  16.521  0.3398 -0.0257 -0.0845
  381TMC3    C6 5751   1.548   4.038  16.535  0.2767 -0.0567  0.5088
  381TMC3     C 5752   1.602   3.792  16.187 -0.1714  0.3864  0.0157
  381TMC3     O 5753   1.647   3.848  16.089  0.1650 -0.1781 -0.0593
  381TMC3     H 5754   1.698   4.024  16.225 -0.9075  0.0233  0.1762
  381TMC3    H1 5755   1.448   3.743  16.408 -1.4817  1.2732  0.7001
  381TMC3    H2 5756   1.538   4.100  16.623  0.2578  0.6818 -0.0222
  381TMC3    C7 5757   1.419   3.862  16.641 -0.6452 -0.5691  0.4275
  381TMC3    C8 5758   1.758   4.139  16.457  0.7428 -0.0352 -0.3144
  381TMC3    O1 5759   1.429   3.743  16.648  0.1062  0.0415  0.0142
  381TMC3    O2 5760   1.855   4.094  16.392  0.1349  0.4998 -0.6307
  382MPD2     C 5761   0.576   1.466  17.116  0.2373  0.5381 -0.1812
  382MPD2    C1 5762   0.567   1.487  17.254  0.5663  0.0615  0.0277
  382MPD2    C2 5763   0.512   1.381  17.325 -0.2732 -0.8871 -0.2594
  382MPD2    C3 5764   0.473   1.263  17.271  0.1810 -0.0348  0.1869
  382MPD2    C4 5765   0.473   1.244  17.132 -0.1856  0.7426 -0.3465
  382MPD2    C5 5766   0.539   1.346  17.061 -0.6910 -0.4740 -0.1703
  382MPD2     H 5767   0.504   1.406  17.430 -2.5354 -2.5155 -0.0227
  382MPD2    H1 5768   0.449   1.156  17.074  2.9499  0.1593 -0.7301
  382MPD2    H2 5769   0.614   1.543  17.049  2.1858 -1.6013 -1.5452
  382MPD2    H3 5770   0.550   1.327  16.955 -0.1016 -1.0117 -0.0121
  382MPD2     N 5771   0.423   1.152  17.339  0.0303 -0.1798 -0.0411
  382MPD2    H5 5772   0.393   1.076  17.279  1.0532  0.0938 -0.8788
  382MPD2    N1 5773   0.588   1.613  17.315  0.1880  0.1633  0.3431
  382MPD2    H7 5774   0.574   1.618  17.415 -1.3046  0.0608  0.1280
  383TMC3    C1 5775   0.353   1.000  17.506 -0.3280  0.0504 -0.2515
  383TMC3    C2 5776   0.335   0.912  17.406  0.4252 -0.4856  0.9964
  383TMC3    C3 5777   0.265   0.795  17.430  0.1525  0.1897 -0.5187
  383TMC3    C4 5778   0.308   0.990  17.630  0.6564  0.1122 -0.1927
  383TMC3    C5 5779   0.238   0.870  17.652 -0.0581  0.4934 -0.0425
  383TMC3    C6 5780   0.218   0.768  17.560  0.4934  0.4274  0.1432
  383TMC3     C 5781   0.427   1.124  17.475 -0.1504  0.9379  0.5605
  383TMC3     O 5782   0.444   1.207  17.565 -0.0967  0.3017 -0.5662
  383TMC3     H 5783   0.349   0.935  17.301  0.5752  1.0362  1.3603
  383TMC3    H1 5784   0.330   1.067  17.702  1.9359 -0.9302  0.5302
  383TMC3    H2 5785   0.147   0.688  17.574  0.5340  0.0738 -1.6937
  383TMC3    C7 5786   0.195   0.830   0.041 -0.5095 -0.1929 -0.3743
  383TMC3    C8 5787   0.204   0.730  17.316  0.0576 -0.3495 -0.4211
  383TMC3    O1 5788   0.142   0.722   0.055  0.2417 -0.0015 -0.1553
  383TMC3    O2 5789   0.225   0.781  17.206  0.2909 -0.3527 -0.1483
  384MPD2     C 5790   2.001   2.828  12.180  0.2963 -0.1252 -0.8253
  384MPD2    C1 5791   1.970   2.691  12.180  0.0561  0.4858 -0.8062
  384MPD2    C2 5792   2.072   2.604  12.214 -0.2903 -0.0673 -0.2052
  384MPD2    C3 5793   2.198   2.643  12.251  0.2645 -0.0903  0.0138
  384MPD2    C4 5794   2.219   2.782  12.258 -0.5434 -0.3238 -0.6016
  384MPD2    C5 5795   2.124   2.873  12.225 -0.0592 -0.7439  0.0880
  384MPD2     H 5796   2.054   2.497  12.214  0.2546 -0.1592  0.2841
  384MPD2    H1 5797   2.313   2.819  12.296 -0.4438 -0.9698 -0.2193
  384MPD2    H2 5798   1.936   2.909  12.150 -2.1847 -1.9803 -0.3988
  384MPD2    H3 5799   2.124   2.980  12.243 -1.0951 -0.8192  0.5736
  384MPD2     N 5800   2.299   2.557  12.292  0.0434  0.0331  0.1438
  384MPD2    H5 5801   2.388   2.588  12.330 -0.0779  1.5165 -0.7971
  384MPD2    N1 5802   1.850   2.620  12.153  0.0506  0.3698 -0.2646
  384MPD2    H7 5803   1.846   2.518  12.152 -0.3991  0.3679  1.2981
  385TMC3    C1 5804   2.378   2.359  12.368 -0.4912  0.4865  0.6134
  385TMC3    C2 5805   2.424   2.245  12.317  0.0546 -0.2096 -0.9777
  385TMC3    C3 5806   2.417   2.139  12.404  0.3128  0.0234  0.1674
  385TMC3    C4 5807   2.316   2.369  12.488 -0.4549 -0.7231  0.5282
  385TMC3    C5 5808   2.286   2.257  12.557  0.1301 -0.6681  0.3278
  385TMC3    C6 5809   2.353   2.140  12.526 -0.4282  0.2350  0.1499
  385TMC3     C 5810   2.302   2.428  12.264 -0.1524 -0.1011 -0.6359
  385TMC3     O 5811   2.234   2.354  12.201 -0.3769 -0.2140 -0.6982
  385TMC3     H 5812   2.490   2.255  12.231  0.8707  1.3629 -0.1626
  385TMC3    H1 5813   2.264   2.463  12.503 -1.7925 -1.9430  3.5316
  385TMC3    H2 5814   2.357   2.052  12.590  3.5479 -1.1597 -2.0523
  385TMC3    C7 5815   2.137   2.244  12.563  0.1915  0.6144 -0.1374
  385TMC3    C8 5816   2.462   2.015  12.357 -0.0084 -0.0355  0.2951
  385TMC3    O1 5817   2.074   2.346  12.554 -0.2675  0.2974 -0.3910
  385TMC3    O2 5818   2.509   1.941  12.442  0.5432  0.5654 -0.0867
  386TMC3    C1 5819   2.591   0.200  11.912 -0.3250 -0.4303 -0.9670
  386TMC3    C2 5820   2.604   0.240  11.782  0.2261 -0.0647 -0.1568
  386TMC3    C3 5821   2.548   0.365  11.753  0.4674 -0.2650  0.3686
  386TMC3    C4 5822   2.513   0.261  12.005 -0.2407  0.4914  0.5436
  386TMC3    C5 5823   2.454   0.373  11.964 -0.2394 -0.2258  0.0247
  386TMC3    C6 5824   2.479   0.438  11.843  0.0256 -0.3841 -0.1237
  386TMC3     C 5825   2.634   0.066  11.946 -0.1378  0.1685 -0.8737
  386TMC3     O 5826   2.664   0.051  12.064  0.2145  0.2162 -0.7359
  386TMC3     H 5827   2.657   0.178  11.710 -0.2265 -0.5020 -0.1115
  386TMC3    H1 5828   2.476   0.213  12.095  2.7781  0.8689  1.9570
  386TMC3    H2 5829   2.438   0.531  11.805  1.0274  0.8833  1.9146
  386TMC3    C7 5830   2.314   0.388  12.002  0.1507  0.3314 -1.0630
  386TMC3    C8 5831   2.488   0.361  11.627 -0.8649  0.1981 -0.1125
  386TMC3    O1 5832   2.278   0.350  12.111 -0.8176  0.7123  0.2898
  386TMC3    O2 5833   2.372   0.404  11.623 -0.0937 -0.1596 -0.4459
  387MPD2     C 5834   4.550   0.235  10.146 -0.1315  0.2327 -0.1371
  387MPD2    C1 5835   4.679   0.202  10.116  0.2915  0.2396  0.3782
  387MPD2    C2 5836   4.703   0.083  10.048  0.6407 -0.4377  0.8458
  387MPD2    C3 5837   4.603   4.728  10.017  0.3248 -0.0569 -0.2971
  387MPD2    C4 5838   4.477   0.027  10.049  0.2403 -0.5665  0.7939
  387MPD2    C5 5839   4.455   0.144  10.111 -0.1476  0.4729 -0.3582
  387MPD2     H 5840   0.065   0.047  10.023 -0.5499 -3.7906  1.0119
  387MPD2    H1 5841   4.399   4.692  10.031 -1.2354  0.9496  1.1657
  387MPD2    H2 5842   4.518   0.329  10.190  0.2506 -0.1107  0.8623
  387MPD2    H3 5843   4.351   0.175  10.108 -0.2616  0.0870 -0.3411
  387MPD2     N 5844   4.637   4.592   9.983  0.1550 -0.1674 -0.4941
  387MPD2    H5 5845   4.736   4.571   9.981 -0.1913 -1.7120 -1.3938
  387MPD2    N1 5846   0.052   0.276  10.159  0.3427 -0.0006 -0.0625
  387MPD2    H7 5847   0.138   0.228  10.137  0.1501  0.1192 -1.0891
  388TMC3    C1 5848   0.175   0.392  10.324  0.4597  0.2260  0.4009
  388TMC3    C2 5849   0.216   0.518  10.364 -1.0308  0.0754 -0.1479
  388TMC3    C3 5850   0.339   0.526  10.411 -1.1579 -0.3113 -0.2763
  388TMC3    C4 5851   0.264   0.287  10.320  1.2246  0.0869  0.0382
  388TMC3    C5 5852   0.391   0.303  10.368 -0.7451  0.0911  0.2196
  388TMC3    C6 5853   0.427   0.421  10.420 -0.3551  0.3096  0.5852
  388TMC3     C 5854   0.051   0.373  10.251  0.6974  0.2489 -0.2181
  388TMC3     O 5855   4.702   0.455  10.285 -0.0274  0.1402 -0.1965
  388TMC3     H 5856   0.147   0.601  10.369 -1.7247 -0.6152  1.7609
  388TMC3    H1 5857   0.228   0.190  10.287 -0.0372  0.5284  0.1046
  388TMC3    H2 5858   0.524   0.440  10.464  0.8928 -1.3745 -1.4229
  388TMC3    C7 5859   0.487   0.193  10.363  0.1568 -0.0358  0.0423
  388TMC3    C8 5860   0.394   0.651  10.447 -0.4312 -0.0551 -0.2952
  388TMC3    O1 5861   0.591   0.192  10.428  0.0094  0.3763  0.4177
  388TMC3    O2 5862   0.469   0.652  10.542 -0.0196  0.0976  0.2878
  389MPD2     C 5863   4.397   3.096  11.756  0.2477  0.6449  0.4962
  389MPD2    C1 5864   4.261   3.107  11.745  0.3122  0.0070  0.3765
  389MPD2    C2 5865   4.183   3.048  11.843 -0.3764  0.0303 -0.2632
  389MPD2    C3 5866   4.237   2.970  11.941  0.2209  0.4284 -0.1305
  389MPD2    C4 5867   4.368   2.970  11.953 -0.2084 -0.4029  0.4499
  389MPD2    C5 5868   4.452   3.031  11.869  0.5052 -0.3760 -0.4238
  389MPD2     H 5869   4.075   3.044  11.833 -0.2819 -3.6676  0.4719
  389MPD2    H1 5870   4.416   2.911  12.031 -0.2721 -0.2221  0.6249
  389MPD2    H2 5871   4.472   3.127  11.685  0.6088  1.4628  1.2325
  389MPD2    H3 5872   4.559   3.017  11.868  0.3712 -1.4253  0.0594
  389MPD2     N 5873   4.158   2.882  12.024 -0.1198  0.3629 -0.7341
  389MPD2    H5 5874   4.190   2.853  12.116 -1.3020  1.3075 -0.0192
  389MPD2    N1 5875   4.212   3.172  11.632 -0.7224 -0.2445  0.4275
  389MPD2    H7 5876   4.278   3.201  11.560  0.0886 -0.6824  0.9908
  390TMC3    C1 5877   3.959   2.768  12.094 -0.6542  0.4503  0.1465
  390TMC3    C2 5878   3.886   2.655  12.054  0.2661  0.0156  0.4600
  390TMC3    C3 5879   3.842   2.575  12.158 -0.5632 -0.2052  0.9672
  390TMC3    C4 5880   3.979   2.800  12.222  0.0280 -0.5753  0.0215
  390TMC3    C5 5881   3.919   2.724  12.318  0.3240 -0.1858 -0.6789
  390TMC3    C6 5882   3.856   2.608  12.291 -0.1459 -0.1136  0.0301
  390TMC3     C 5883   4.034   2.841  11.986 -0.0980 -0.7136 -0.1909
  390TMC3     O 5884   3.971   2.861  11.883  0.3228 -0.5274  0.7533
  390TMC3     H 5885   3.874   2.627  11.950 -0.4922 -0.7650  0.7595
  390TMC3    H1 5886   4.040   2.884  12.253 -0.6833 -0.4603  1.1357
  390TMC3    H2 5887   3.821   2.545  12.372  2.7559  1.2426  2.3186
  390TMC3    C7 5888   3.935   2.780  12.452  0.3638  0.5255 -0.0845
  390TMC3    C8 5889   3.743   2.474  12.117  0.5760 -0.2032 -0.4527
  390TMC3    O1 5890   4.033   2.850  12.478  0.4589 -0.1217 -0.0543
  390TMC3    O2 5891   3.714   2.489  12.000 -0.8248 -0.1447  0.3258
  391MPD2     C 5892   3.646   0.241  11.083 -0.0149  0.1045  0.1739
  391MPD2    C1 5893   3.680   0.376  11.094 -0.3342 -0.4430 -1.2676
  391MPD2    C2 5894   3.629   0.460  10.999  0.0073 -0.8520 -0.0404
  391MPD2    C3 5895   3.552   0.419  10.893 -0.3241  0.0462 -0.8983
  391MPD2    C4 5896   3.510   0.287  10.887 -0.8222 -0.3500 -0.1748
  391MPD2    C5 5897   3.563   0.206  10.979 -0.5602  0.6538 -0.5401
  391MPD2     H 5898   3.646   0.567  11.011  0.0543 -0.9621  0.8742
  391MPD2    H1 5899   3.438   0.255  10.814 -0.9093  0.3880 -0.4115
  391MPD2    H2 5900   3.676   0.163  11.152 -1.9833  0.2895  1.2498
  391MPD2    H3 5901   3.535   0.102  10.980 -0.0280  0.5164  0.9383
  391MPD2     N 5902   3.510   0.515  10.801  0.0544  0.8500 -0.4948
  391MPD2    H5 5903   3.529   0.612  10.823  0.2754  0.9519 -1.1418
  391MPD2    N1 5904   3.770   0.410  11.198  0.0087 -0.1507  0.1799
  391MPD2    H7 5905   3.817   0.343  11.258  2.0384  1.6211  0.5887
  392TMC3    C1 5906   3.441   0.604  10.594  0.0605  0.0075 -0.8519
  392TMC3    C2 5907   3.367   0.585  10.487 -0.7092  0.5685 -0.3857
  392TMC3    C3 5908   3.382   0.666  10.379  0.2565  1.0516  0.3491
  392TMC3    C4 5909   3.538   0.702  10.602  0.7116 -0.7248  0.4099
  392TMC3    C5 5910   3.555   0.794  10.497 -0.4037 -0.1089 -0.9739
  392TMC3    C6 5911   3.470   0.776  10.383  0.3244  0.1301  0.3153
  392TMC3     C 5912   3.451   0.485  10.680  0.4360 -0.4307  0.5293
  392TMC3     O 5913   3.413   0.387  10.623  0.0742  0.3813  0.1478
  392TMC3     H 5914   3.299   0.502  10.475 -0.8803  0.7559 -0.7049
  392TMC3    H1 5915   3.617   0.714  10.676  0.4738  0.5165  0.4679
  392TMC3    H2 5916   3.475   0.846  10.300  1.6911 -2.2135 -1.6049
  392TMC3    C7 5917   3.646   0.906  10.508  0.1664 -1.1853  0.7283
  392TMC3    C8 5918   3.304   0.648  10.263 -0.5611  0.2454 -0.1554
  392TMC3    O1 5919   3.715   0.910  10.609  0.0861  0.2190  0.7031
  392TMC3    O2 5920   3.201   0.583  10.286  0.2431  0.4051 -0.2294
  393TMC3    C1 5921   1.479   3.100  10.947  0.5695  0.6034  0.4233
  393TMC3    C2 5922   1.393   3.053  10.855  0.5686  1.4130 -0.6805
  393TMC3    C3 5923   1.368   2.917  10.842 -0.5386 -0.1144  0.3117
  393TMC3    C4 5924   1.571   3.023  11.012  0.5584  0.4652 -0.0408
  393TMC3    C5 5925   1.546   2.887  10.999 -0.4481 -0.2184  0.2873
  393TMC3    C6 5926   1.441   2.837  10.923  0.2698  0.8968 -0.1029
  393TMC3     C 5927   1.519   3.237  10.930  0.4551  0.3415  0.0539
  393TMC3     O 5928   1.483   3.283  10.823  0.0418  0.0376 -0.1309
  393TMC3     H 5929   1.322   3.120  10.807  0.2803  1.1396 -0.6435
  393TMC3    H1 5930   1.649   3.068  11.073  0.0930  0.8263  0.2901
  393TMC3    H2 5931   1.405   2.734  10.927 -1.0162  1.3663  0.6690
  393TMC3    C7 5932   1.614   2.800  11.092  0.5455 -0.4653 -0.5142
  393TMC3    C8 5933   1.302   2.871  10.718  0.4989  0.0996  0.1909
  393TMC3    O1 5934   1.557   2.697  11.120  0.0250 -0.0644  0.2600
  393TMC3    O2 5935   1.279   2.748  10.730  0.4625 -0.1551  0.5984
  394TMC3    C1 5936   4.037   3.242  11.477 -0.0096 -0.0097  0.3368
  394TMC3    C2 5937   3.909   3.208  11.443 -0.1415 -0.3979  0.3714
  394TMC3    C3 5938   3.867   3.247  11.317 -0.3503  0.1971 -0.5686
  394TMC3    C4 5939   4.116   3.316  11.398 -0.0670 -0.1114 -0.2109
  394TMC3    C5 5940   4.064   3.369  11.280 -0.0979  0.5092  0.9826
  394TMC3    C6 5941   3.939   3.339  11.239  0.2122  0.1507  0.4865
  394TMC3     C 5942   4.079   3.210  11.614  0.1713  0.6730  0.4732
  394TMC3     O 5943   3.987   3.211  11.695 -0.1395 -0.2022  0.6610
  394TMC3     H 5944   3.835   3.153  11.499 -0.7837  3.5800  3.4261
  394TMC3    H1 5945   4.211   3.348  11.440  0.3327  0.9427 -1.9088
  394TMC3    H2 5946   3.902   3.379  11.146  1.0799  1.6938  0.8006
  394TMC3    C7 5947   4.152   3.431  11.180  0.2038 -0.3599  0.3538
  394TMC3    C8 5948   3.733   3.220  11.281 -0.7407  0.5595  0.4761
  394TMC3    O1 5949   4.102   3.475  11.079 -0.2355  0.1908  0.0851
  394TMC3    O2 5950   3.644   3.190  11.359 -0.2394  0.6445  0.6423
  395TMC3    C1 5951   3.977   4.592  14.730  0.2294  0.4923 -0.2591
  395TMC3    C2 5952   3.844   4.600  14.735 -0.3814 -0.3526 -0.1841
  395TMC3    C3 5953   3.785   4.715  14.775 -0.2649  0.1475  0.0336
  395TMC3    C4 5954   4.052   4.698  14.749 -0.0082  0.3738  0.3360
  395TMC3    C5 5955   3.996   0.084  14.778 -0.1870  0.1418 -0.5395
  395TMC3    C6 5956   3.862   0.092  14.792  0.5652  0.3355  0.1964
  395TMC3     C 5957   4.009   4.510  14.851 -0.1432 -0.2515  0.2329
  395TMC3     O 5958   4.054   4.560  14.952 -0.3032  0.3412 -0.2992
  395TMC3     H 5959   3.790   4.506  14.737 -0.8404 -0.0472  1.6202
  395TMC3    H1 5960   4.157   4.683  14.770 -0.7141 -3.2644  1.1960
  395TMC3    H2 5961   3.809   0.183  14.815  1.8184  1.2293 -0.4219
  395TMC3    C7 5962   4.071   0.199  14.827  0.2404  0.4528 -0.0938
  395TMC3    C8 5963   3.692   4.702  14.886  0.5805  0.1277 -0.0161
  395TMC3    O1 5964   4.013   0.269  14.906  0.6583 -0.3074 -0.3822
  395TMC3    O2 5965   3.664   0.074  14.935  0.2589  0.2490 -0.6119
  396MPD2     C 5966   3.609   1.300  17.061 -0.3943 -0.8137  0.5769
  396MPD2    C1 5967   3.738   1.284  17.043  0.1732  0.3937  0.7376
  396MPD2    C2 5968   3.812   1.393  16.994 -0.8066  0.4577  0.1497
  396MPD2    C3 5969   3.752   1.517  16.965 -0.2485 -0.7503 -0.2900
  396MPD2    C4 5970   3.614   1.522  16.990 -0.6517  0.0715  0.0882
  396MPD2    C5 5971   3.545   1.414  17.036 -0.3721  0.2488  0.0373
  396MPD2     H 5972   3.919   1.391  16.975 -1.0533  2.0559 -1.4953
  396MPD2    H1 5973   3.559   1.614  16.978 -0.4555  0.5356  2.6632
  396MPD2    H2 5974   3.559   1.216  17.108 -0.3815  0.7743  3.4618
  396MPD2    H3 5975   3.438   1.419  17.054 -0.7123 -0.1618 -1.8775
  396MPD2     N 5976   3.827   1.627  16.914  0.2119 -0.5504 -0.3398
  396MPD2    H5 5977   3.925   1.603  16.906  0.4744 -0.0676  1.5534
  396MPD2    N1 5978   3.798   1.163  17.086  0.3881  0.2379 -0.1333
  396MPD2    H7 5979   3.739   1.083  17.105  0.6905 -0.3727 -1.7913
  397TMC3    C1 5980   3.971   0.996  17.127 -0.3531 -0.4336  0.2675
  397TMC3    C2 5981   4.101   0.973  17.109  0.2250  0.7642  0.5214
  397TMC3    C3 5982   4.146   0.844  17.079  0.0786 -0.0346  0.0722
  397TMC3    C4 5983   3.879   0.899  17.101  0.7256 -0.1723 -0.5933
  397TMC3    C5 5984   3.923   0.775  17.073 -0.0606  1.0543 -0.9346
  397TMC3    C6 5985   4.055   0.740  17.056 -0.3033  0.7387  0.4320
  397TMC3     C 5986   3.936   1.133  17.095  0.3599  0.3707  0.2487
  397TMC3     O 5987   4.037   1.205  17.087 -0.3018 -0.0474  0.2087
  397TMC3     H 5988   4.162   1.050  17.155  0.1448  1.1002  0.0640
  397TMC3    H1 5989   3.774   0.914  17.123  1.4089  0.7800  1.9922
  397TMC3    H2 5990   4.091   0.638  17.047  0.6164  1.1859 -1.0301
  397TMC3    C7 5991   3.831   0.667  17.088 -1.1741 -0.6389  0.5655
  397TMC3    C8 5992   4.275   0.805  17.133  0.3779  0.4051 -0.5036
  397TMC3    O1 5993   3.872   0.568  17.034 -0.2128  0.1920 -0.2009
  397TMC3    O2 5994   4.279   0.690  17.178 -0.2664 -0.2148 -1.1374
  398MPD2     C 5995   1.722   2.890  17.695 -0.1058  0.8966  0.3370
  398MPD2    C1 5996   1.766   2.781   0.014 -0.5951 -0.2236 -0.2977
  398MPD2    C2 5997   1.858   2.793   0.119 -0.0603  0.8721  0.4899
  398MPD2    C3 5998   1.907   2.918   0.155  0.7878 -0.0598 -0.1254
  398MPD2    C4 5999   1.856   3.034   0.099 -0.4438  0.1200 -0.1276
  398MPD2    C5 6000   1.766   3.014  17.740  0.4733  0.3378 -0.6235
  398MPD2     H 6001   1.914   2.706   0.150 -0.7727 -0.5619 -2.2119
  398MPD2    H1 6002   1.896   3.131   0.124 -0.5626  0.1521 -0.0643
  398MPD2    H2 6003   1.661   2.873  17.607 -0.8132 -2.5490  1.5210
  398MPD2    H3 6004   1.734   3.107  17.694 -1.0079 -0.3733 -1.0252
  398MPD2     N 6005   2.023   2.925   0.247 -0.1053 -0.2324  0.0614
  398MPD2    H5 6006   2.067   2.837   0.269  0.1669 -0.1197 -0.0396
  398MPD2    N1 6007   1.743   2.647  17.712  0.5061  0.4130  0.0822
  398MPD2    H7 6008   1.789   2.577   0.024  1.0396  1.0088  0.3698
  399TMC3    C1 6009   1.683   2.463  17.573  0.4029 -0.1475  0.6654
  399TMC3    C2 6010   1.807   2.417  17.605 -0.4247  0.0370 -0.7038
  399TMC3    C3 6011   1.822   2.280  17.606 -0.0133 -0.0001  0.8508
  399TMC3    C4 6012   1.580   2.381  17.534 -0.6348  0.8426 -0.1739
  399TMC3    C5 6013   1.597   2.241  17.550 -0.1964  0.7391  0.6872
  399TMC3    C6 6014   1.713   2.188  17.596  0.2672 -0.6070  0.5112
  399TMC3     C 6015   1.662   2.607  17.606  0.1098 -0.6753  0.1412
  399TMC3     O 6016   1.562   2.665  17.566  0.3169  0.2163  0.2423
  399TMC3     H 6017   1.894   2.481  17.618 -1.8546  1.5498  1.5030
  399TMC3    H1 6018   1.487   2.425  17.500 -0.1555  2.6524  0.8292
  399TMC3    H2 6019   1.725   2.081  17.604  0.6986 -0.9312 -4.2575
  399TMC3    C7 6020   1.474   2.169  17.574 -0.3789 -0.8479  0.3544
  399TMC3    C8 6021   1.957   2.231  17.620  0.2749  0.3469  0.8148
  399TMC3    O1 6022   1.475   2.088  17.665 -0.1309  0.4477 -0.2169
  399TMC3    O2 6023   2.051   2.304  17.595 -0.6309 -0.6209  0.2557
  400TMC3    C1 6024   0.416   0.588  16.960 -0.4176 -0.4869 -0.1611
  400TMC3    C2 6025   0.326   0.518  16.885 -0.2402  0.1979 -0.1197
  400TMC3    C3 6026   0.233   0.581  16.809  0.0217 -0.0836  0.0793
  400TMC3    C4 6027   0.415   0.729  16.949 -0.3427 -0.1562  0.2095
  400TMC3    C5 6028   0.309   0.790  16.883 -0.2076  0.7328 -0.0824
  400TMC3    C6 6029   0.215   0.716  16.821  0.0553 -0.2572 -0.6111
  400TMC3     C 6030   0.461   0.517  17.080 -0.5388  0.3691 -0.4818
  400TMC3     O 6031   0.453   0.396  17.099 -0.2441 -0.2291 -0.8368
  400TMC3     H 6032   0.348   0.412  16.882 -0.3758  0.2339 -1.8876
  400TMC3    H1 6033   0.476   0.789  17.016  2.0208 -3.3146  0.8855
  400TMC3    H2 6034   0.127   0.749  16.767  0.6768  1.8603 -0.3345
  400TMC3    C7 6035   0.288   0.928  16.899  0.8911  0.5537 -0.4355
  400TMC3    C8 6036   0.142   0.476  16.757 -0.0231  0.6294 -0.5208
  400TMC3    O1 6037   0.341   0.995  16.811 -0.0495  0.7339  0.2626
  400TMC3    O2 6038   0.149   0.359  16.801 -0.6132 -0.0393  0.0616
  401MPD2     C 6039   3.654   4.396   1.138 -0.1272 -0.7971  0.0333
  401MPD2    C1 6040   3.766   4.371   1.059 -0.1008 -0.1761  0.9681
  401MPD2    C2 6041   3.766   4.273   0.967  0.3775 -0.0022 -0.1418
  401MPD2    C3 6042   3.669   4.179   0.959  0.5399 -0.7350  0.0177
  401MPD2    C4 6043   3.568   4.190   1.051  0.2922  0.5837  0.2737
  401MPD2    C5 6044   3.566   4.297   1.139  0.1514 -0.0568 -0.0827
  401MPD2     H 6045   3.845   4.261   0.893  1.3626 -3.3596  1.4831
  401MPD2    H1 6046   3.488   4.118   1.067 -1.4244  1.8713 -2.4379
  401MPD2    H2 6047   3.640   4.486   1.196 -1.1852  1.0348 -3.0638
  401MPD2    H3 6048   3.477   4.310   1.199  0.9934 -2.6761  1.6980
  401MPD2     N 6049   3.675   4.094   0.848 -0.0422 -0.2542 -0.3235
  401MPD2    H5 6050   3.756   4.101   0.787  0.5052 -1.3045  0.2711
  401MPD2    N1 6051   3.875   4.459   1.063  0.0543 -0.8032 -0.2857
  401MPD2    H7 6052   3.942   4.438   0.989  0.3030 -2.3171  0.3595
  402TMC3    C1 6053   3.600   3.919   0.698 -0.8236  0.1606 -0.1443
  402TMC3    C2 6054   3.532   3.798   0.680 -0.0006  0.3872 -0.0400
  402TMC3    C3 6055   3.535   3.740   0.554 -0.2592 -0.5030  0.1942
  402TMC3    C4 6056   3.659   3.982   0.592  0.2515  0.2571  0.7179
  402TMC3    C5 6057   3.659   3.918   0.472 -0.6607 -0.5072 -0.0105
  402TMC3    C6 6058   3.606   3.791   0.446  0.0299 -0.7485 -0.2310
  402TMC3     C 6059   3.588   3.989   0.827 -0.3618 -0.4693  0.3945
  402TMC3     O 6060   3.502   3.941   0.897 -0.1827  0.3107  0.3528
  402TMC3     H 6061   3.466   3.765   0.759 -0.5066  1.5446  0.0173
  402TMC3    H1 6062   3.683   4.087   0.595  1.8083 -0.1268  1.5828
  402TMC3    H2 6063   3.618   3.732   0.356  1.2871  3.0273 -2.5664
  402TMC3    C7 6064   3.727   3.989   0.367 -0.4125 -0.5131 -0.2137
  402TMC3    C8 6065   3.477   3.603   0.561 -0.0418 -0.3079 -0.1384
  402TMC3    O1 6066   3.797   4.089   0.385 -0.2519 -0.1701  0.0728
  402TMC3    O2 6067   3.463   3.557   0.676 -0.7484 -0.3745 -0.3233
  403MPD2     C 6068   2.083   1.699  13.345  0.4263  0.1639  0.3607
  403MPD2    C1 6069   2.090   1.832  13.341  0.2307 -0.3713  0.1023
  403MPD2    C2 6070   2.172   1.894  13.441 -0.0181  0.3583  0.7398
  403MPD2    C3 6071   2.223   1.820  13.549  0.3449  0.0558 -0.4322
  403MPD2    C4 6072   2.203   1.685  13.558  0.4346  0.2836  0.4254
  403MPD2    C5 6073   2.135   1.631  13.450  0.8986  0.4938 -0.3319
  403MPD2     H 6074   2.198   1.997  13.421 -2.2413  0.6710 -0.4999
  403MPD2    H1 6075   2.232   1.618  13.638  2.3187  1.2006  0.5019
  403MPD2    H2 6076   2.038   1.657  13.256  1.3086  0.3750 -0.1900
  403MPD2    H3 6077   2.126   1.523  13.458 -0.7362  0.3170 -4.3481
  403MPD2     N 6078   2.282   1.893  13.656  0.2745 -0.3180  0.1633
  403MPD2    H5 6079   2.307   1.990  13.636  0.4791 -0.6421 -1.1250
  403MPD2    N1 6080   2.017   1.895  13.236 -0.4114 -0.2113  0.2966
  403MPD2    H7 6081   1.980   1.845  13.157  1.1806  1.7759 -1.7198
  404TMC3    C1 6082   1.887   2.068  13.169 -0.0816 -0.2012 -0.0845
  404TMC3    C2 6083   1.787   2.086  13.260 -0.2589 -0.3146 -0.2877
  404TMC3    C3 6084   1.668   2.036  13.232 -0.1335 -0.0958  0.3875
  404TMC3    C4 6085   1.870   1.993  13.054  0.0527 -0.0225 -0.4071
  404TMC3    C5 6086   1.744   1.945  13.029 -0.2302 -0.1332  0.2653
  404TMC3    C6 6087   1.636   1.977  13.114  0.0299 -0.3270 -0.2769
  404TMC3     C 6088   1.997   2.029  13.242 -0.3657 -0.3104 -0.1831
  404TMC3     O 6089   2.033   2.113  13.324 -0.1033 -0.3560 -0.0430
  404TMC3     H 6090   1.803   2.142  13.351 -1.9543 -0.2324 -0.0356
  404TMC3    H1 6091   1.955   1.981  12.988  0.8921  0.6347  0.5386
  404TMC3    H2 6092   1.538   1.932  13.107  0.0138 -0.7853  2.7587
  404TMC3    C7 6093   1.727   1.856  12.917 -0.3913 -0.8575  0.7349
  404TMC3    C8 6094   1.609   1.950  13.331  0.6879  0.3168 -0.8682
  404TMC3    O1 6095   1.829   1.834  12.856  0.3091  0.3657 -0.2210
  404TMC3    O2 6096   1.577   1.836  13.295  0.4064 -0.5374 -0.3207
  405MPD2     C 6097   2.431   2.820  14.748 -0.1287  0.0509  0.1868
  405MPD2    C1 6098   2.389   2.814  14.612 -0.3298 -1.2176  0.9395
  405MPD2    C2 6099   2.396   2.926  14.533  0.0729 -0.3205  0.1510
  405MPD2    C3 6100   2.436   3.051  14.586 -0.4478 -0.4631 -0.3380
  405MPD2    C4 6101   2.484   3.056  14.712  0.8330  0.1381  0.2358
  405MPD2    C5 6102   2.481   2.943  14.783 -0.4395 -0.5230  0.1151
  405MPD2     H 6103   2.369   2.931  14.428 -1.8522  2.0938  0.7431
  405MPD2    H1 6104   2.522   3.150  14.751  2.1301 -1.1379  2.0440
  405MPD2    H2 6105   2.425   2.738  14.819  3.7664  0.4151  0.9234
  405MPD2    H3 6106   2.497   2.945  14.890 -1.9916 -0.5466  0.3463
  405MPD2     N 6107   2.431   3.160  14.492  0.7133 -0.5700 -0.8239
  405MPD2    H5 6108   2.390   3.141  14.401  0.1438 -0.9729 -0.4854
  405MPD2    N1 6109   2.330   2.692  14.561 -0.7201  0.0125  0.4203
  405MPD2    H7 6110   2.299   2.620  14.624 -0.2750 -1.3395 -0.8848
  406TMC3    C1 6111   2.390   3.576  14.329 -0.0714  0.2239 -0.5597
  406TMC3    C2 6112   2.362   3.527  14.212 -0.0061 -0.1854  0.0712
  406TMC3    C3 6113   2.390   3.395  14.181  0.8242  0.0806 -0.5459
  406TMC3    C4 6114   2.444   3.504  14.429 -1.0311  0.2289 -0.0179
  406TMC3    C5 6115   2.461   3.371  14.404  0.2262 -0.2728 -0.3423
  406TMC3    C6 6116   2.439   3.317  14.279 -0.1384  0.4283  0.6079
  406TMC3     C 6117   2.277   3.659  14.372 -0.1046 -0.1118  0.5716
  406TMC3     O 6118   2.285   3.726  14.476 -0.1862 -0.7093 -0.4234
  406TMC3     H 6119   2.324   3.602  14.144  2.1456 -1.4112 -2.5153
  406TMC3    H1 6120   2.454   3.553  14.525 -4.0250 -1.4767  1.1902
  406TMC3    H2 6121   2.473   3.216  14.261 -0.6598  0.2698  0.4885
  406TMC3    C7 6122   2.486   3.282  14.514 -0.1879 -0.1255  0.1022
  406TMC3    C8 6123   2.269   3.337  14.131 -0.1991 -0.1999  0.2113
  406TMC3    O1 6124   2.540   3.326  14.613  0.2647 -0.7894  0.1030
  406TMC3    O2 6125   2.182   3.416  14.109  0.9603 -1.1158  0.1921
  407MPD2     C 6126   4.218   4.683  10.357  0.5329 -0.8915 -0.3895
  407MPD2    C1 6127   4.138   0.023  10.284 -0.5219 -0.5179 -0.3768
  407MPD2    C2 6128   4.146   0.161  10.294  0.1622 -0.3966 -0.2065
  407MPD2    C3 6129   4.246   0.212  10.377 -0.0366 -0.1989 -0.3423
  407MPD2    C4 6130   4.327   0.133  10.456 -0.2289 -0.0889  0.1830
  407MPD2    C5 6131   4.311   4.735  10.439  0.3805  0.0078  0.2009
  407MPD2     H 6132   4.079   0.222  10.235 -0.7887 -1.6055 -0.3877
  407MPD2    H1 6133   4.416   0.176  10.500 -0.2805  1.8999 -1.6902
  407MPD2    H2 6134   4.225   4.577  10.336 -1.2823 -0.8090 -1.3884
  407MPD2    H3 6135   4.392   4.682  10.488  0.0940 -0.3229  0.3156
  407MPD2     N 6136   4.280   0.349  10.398  0.3733 -0.0539 -0.2484
  407MPD2    H5 6137   4.360   0.380  10.452 -0.1769  1.7668 -0.4815
  407MPD2    N1 6138   4.045   4.714  10.188  0.6561 -0.1249  0.0556
  407MPD2    H7 6139   3.984   0.045  10.144  0.5025 -0.0558  0.3822
  408TMC3    C1 6140   3.945   4.591  10.028  0.7388  0.2916 -0.1551
  408TMC3    C2 6141   3.990   4.677   9.929  0.5159 -0.1471 -0.2210
  408TMC3    C3 6142   3.963   4.647   9.792 -0.7154 -0.7320 -0.6603
  408TMC3    C4 6143   3.863   4.486   9.992 -0.3451  0.9658 -0.3394
  408TMC3    C5 6144   3.817   4.478   9.864 -0.0146 -0.3453  0.2466
  408TMC3    C6 6145   3.882   4.544   9.763 -0.1381  0.7444 -1.1059
  408TMC3     C 6146   4.023   4.585  10.152 -0.1395 -0.0165 -0.5738
  408TMC3     O 6147   4.071   4.483  10.191 -0.5623  0.1282  0.1429
  408TMC3     H 6148   4.075   0.003   9.949 -1.9365  2.8722  0.5680
  408TMC3    H1 6149   3.817   4.433  10.075  0.6629 -1.3904 -1.2775
  408TMC3    H2 6150   3.876   4.511   9.660  1.8581  1.1479 -1.3541
  408TMC3    C7 6151   3.740   4.363   9.839 -0.2385 -0.7348  0.1381
  408TMC3    C8 6152   4.071   4.668   9.699  0.1561  0.4012 -0.3970
  408TMC3    O1 6153   3.754   4.268   9.915 -0.1763 -0.0325 -0.3721
  408TMC3    O2 6154   4.085   4.577   9.621  0.0216  0.0778  0.1330
  409MPD2     C 6155   3.669   0.320  16.721  0.0441  0.2408 -0.3587
  409MPD2    C1 6156   3.784   0.245  16.748  0.2310 -0.0411  0.0556
  409MPD2    C2 6157   3.905   0.311  16.750 -0.1595 -0.0858  0.6489
  409MPD2    C3 6158   3.915   0.450  16.731 -0.6004 -0.6388  0.1712
  409MPD2    C4 6159   3.799   0.520  16.701  0.1445 -0.1372  0.0346
  409MPD2    C5 6160   3.683   0.453  16.696 -0.3030  0.9757  0.0206
  409MPD2     H 6161   3.994   0.252  16.771 -0.8553 -1.1889  0.4689
  409MPD2    H1 6162   3.797   0.628  16.689  3.3257 -0.1448 -0.5023
  409MPD2    H2 6163   3.571   0.274  16.722  0.1263  0.0216 -2.1871
  409MPD2    H3 6164   3.591   0.505  16.674 -0.0725  0.5555 -1.9821
  409MPD2     N 6165   4.045   0.524  16.725 -0.2120 -0.2492  0.2140
  409MPD2    H5 6166   4.035   0.625  16.716 -0.9301 -0.2835  0.6128
  409MPD2    N1 6167   3.773   0.103  16.765  0.3627  0.9999 -0.4251
  409MPD2    H7 6168   3.860   0.064  16.801 -0.4324 -2.0587 -1.7601
  410TMC3    C1 6169   4.270   0.565  16.758 -0.2605 -0.2733  0.0161
  410TMC3    C2 6170   4.370   0.544  16.849 -0.0079  0.3445 -0.2303
  410TMC3    C3 6171   4.473   0.638  16.855 -0.1364  0.3904  0.7334
  410TMC3    C4 6172   4.277   0.673  16.675 -0.3484 -0.2328  0.6932
  410TMC3    C5 6173   4.379   0.756  16.686  0.3392 -0.1123 -0.3800
  410TMC3    C6 6174   4.480   0.747  16.779 -0.3570  0.0420 -0.9962
  410TMC3     C 6175   4.170   0.467  16.735 -1.2693  0.3341 -0.4387
  410TMC3     O 6176   4.192   0.351  16.779  0.0004  0.1485 -0.4777
  410TMC3     H 6177   4.363   0.464  16.922  3.2129  0.3968  0.1406
  410TMC3    H1 6178   4.189   0.693  16.614  1.1111 -0.4506 -1.5021
  410TMC3    H2 6179   4.565   0.814  16.785 -1.2413  0.9080  1.7211
  410TMC3    C7 6180   4.384   0.856  16.572 -0.2961 -0.1064 -0.0900
  410TMC3    C8 6181   4.581   0.635  16.960 -0.2333 -0.2983 -0.5855
  410TMC3    O1 6182   4.309   0.831  16.477 -0.1850 -0.1313  0.2032
  410TMC3    O2 6183   4.642   0.742  16.967  0.3325 -0.5301  0.4302
  411MPD2     C 6184   4.452   1.165  14.738  0.3627  0.2314  0.5857
  411MPD2    C1 6185   4.367   1.154  14.847 -0.5263 -0.6993  0.0343
  411MPD2    C2 6186   4.294   1.040  14.870 -0.4144 -0.0376 -0.0907
  411MPD2    C3 6187   4.316   0.932  14.789  0.3526  0.2944 -0.2339
  411MPD2    C4 6188   4.424   0.934  14.697  0.1098  0.3489 -0.9272
  411MPD2    C5 6189   4.483   1.053  14.661  0.4780 -0.0411  1.0509
  411MPD2     H 6190   4.213   1.041  14.941 -2.1241 -0.2122 -2.0374
  411MPD2    H1 6191   4.442   0.851  14.630 -3.9960 -1.5613  0.3683
  411MPD2    H2 6192   4.502   1.257  14.711 -1.3527  1.4721  1.6136
  411MPD2    H3 6193   4.562   1.055  14.587 -0.3690  2.7246  0.2240
  411MPD2     N 6194   4.232   0.821  14.784 -0.1504 -0.0953 -0.1168
  411MPD2    H5 6195   4.249   0.757  14.707 -0.1923 -1.1630  0.7562
  411MPD2    N1 6196   4.345   1.275  14.919  0.5277  0.1585 -0.2271
  411MPD2    H7 6197   4.382   1.362  14.882  0.2085  1.0065  1.4652
  412TMC3    C1 6198   4.051   0.672  14.801  0.5823  0.1583  0.0307
  412TMC3    C2 6199   3.915   0.689  14.792 -0.4292  0.0711 -0.0456
  412TMC3    C3 6200   3.853   0.627  14.683  0.3042  0.0532 -0.2060
  412TMC3    C4 6201   4.120   0.595  14.714 -0.8090  0.2915  0.3922
  412TMC3    C5 6202   4.050   0.523  14.618  0.8992 -0.3031  0.3772
  412TMC3    C6 6203   3.916   0.543  14.602 -0.0529  0.5453  0.0450
  412TMC3     C 6204   4.123   0.787  14.858 -0.8896 -0.0800  0.4713
  412TMC3     O 6205   4.064   0.855  14.940  0.6497 -0.1214  0.2847
  412TMC3     H 6206   3.863   0.761  14.854  1.1294 -0.3799  1.7685
  412TMC3    H1 6207   4.221   0.558  14.726 -0.0690  1.7029 -1.3836
  412TMC3    H2 6208   3.853   0.496  14.527 -1.4470  0.2592  1.3770
  412TMC3    C7 6209   4.127   0.495  14.495  0.1486  0.0138 -0.4032
  412TMC3    C8 6210   3.777   0.725  14.609 -0.1090  0.7354 -0.7052
  412TMC3    O1 6211   4.237   0.543  14.481 -0.4578 -0.3858 -0.4210
  412TMC3    O2 6212   3.695   0.795  14.665  0.3088  0.0998 -0.1226
  413MPD2     C 6213   1.204   3.447  15.226  0.0788  0.0592  0.1636
  413MPD2    C1 6214   1.279   3.564  15.255  0.0894 -0.5469  0.6559
  413MPD2    C2 6215   1.417   3.554  15.267  0.8689  0.2840  0.4243
  413MPD2    C3 6216   1.476   3.431  15.264  0.5141 -0.7510  0.0155
  413MPD2    C4 6217   1.399   3.317  15.252  0.3118 -0.2378 -0.0040
  413MPD2    C5 6218   1.265   3.328  15.231 -0.1072 -0.0050  0.2243
  413MPD2     H 6219   1.476   3.641  15.295  0.0937  0.4260  1.5678
  413MPD2    H1 6220   1.453   3.223  15.248  0.8280 -0.0064  1.3378
  413MPD2    H2 6221   1.100   3.440  15.193 -0.3568  1.0062  1.3530
  413MPD2    H3 6222   1.208   3.242  15.198  0.1194 -1.5496  3.8477
  413MPD2     N 6223   1.616   3.430  15.292 -0.1051  0.5985 -0.1727
  413MPD2    H5 6224   1.662   3.519  15.307  1.7440 -0.0282 -2.1378
  413MPD2    N1 6225   1.198   3.681  15.258  0.9872  0.2417  0.6223
  413MPD2    H7 6226   1.100   3.661  15.239  1.2594 -0.3660 -0.1745
  414TMC3    C1 6227   1.814   3.339  15.362  0.2828  0.0392  0.5345
  414TMC3    C2 6228   1.868   3.284  15.473 -0.6117  0.5448  0.3065
  414TMC3    C3 6229   1.978   3.341  15.530  0.0238 -0.0864 -0.4962
  414TMC3    C4 6230   1.887   3.429  15.286  0.2882  0.3362  0.3388
  414TMC3    C5 6231   2.005   3.469  15.336 -0.4744 -0.0660 -0.0573
  414TMC3    C6 6232   2.047   3.437  15.460  0.0111 -0.8109  0.0867
  414TMC3     C 6233   1.679   3.315  15.336  0.2557 -0.2490  0.0246
  414TMC3     O 6234   1.633   3.208  15.368  0.2624 -0.2015 -0.1510
  414TMC3     H 6235   1.815   3.208  15.529 -0.3839  0.2765  0.1576
  414TMC3    H1 6236   1.848   3.465  15.191  1.3222 -2.0567 -1.0060
  414TMC3    H2 6237   2.146   3.460  15.498  0.9835 -0.7546 -2.4907
  414TMC3    C7 6238   2.109   3.517  15.253 -0.2114 -0.0691  0.4049
  414TMC3    C8 6239   2.067   3.246  15.598 -0.4177 -0.5767  0.1284
  414TMC3    O1 6240   2.204   3.559  15.314  0.0302 -0.3747  0.2583
  414TMC3    O2 6241   2.038   3.127  15.578  0.3767  0.3661  0.1346
  415TMC3    C1 6242   1.653   2.839  10.449 -0.3795  0.2037  0.2450
  415TMC3    C2 6243   1.693   2.947  10.375  0.2336  0.6887  0.0291
  415TMC3    C3 6244   1.637   2.967  10.253 -0.1935  0.2919  0.1336
  415TMC3    C4 6245   1.550   2.767  10.408 -0.3353  0.2471 -0.3957
  415TMC3    C5 6246   1.494   2.791  10.292 -0.5383 -0.6505 -0.3469
  415TMC3    C6 6247   1.544   2.885  10.203  0.1996  0.2080  0.0545
  415TMC3     C 6248   1.702   2.818  10.585 -0.3981  0.2180  0.4429
  415TMC3     O 6249   1.643   2.725  10.637  0.0298  0.7246 -0.3164
  415TMC3     H 6250   1.766   3.020  10.409  0.2224  0.1703  1.1713
  415TMC3    H1 6251   1.491   2.712  10.481  0.6782 -0.0352  0.2156
  415TMC3    H2 6252   1.507   2.899  10.102 -1.0752  1.9427  0.7652
  415TMC3    C7 6253   1.441   2.671  10.229 -0.4106 -0.5294  0.0794
  415TMC3    C8 6254   1.699   3.052  10.153 -0.0595 -0.9547 -1.0639
  415TMC3    O1 6255   1.416   2.672  10.109 -0.1000  0.2231 -0.2585
  415TMC3    O2 6256   1.642   3.083  10.047 -0.2337  0.6881 -0.0521
  416MPD2     C 6257   3.686   1.150  11.428 -0.5076  0.4987  0.1189
  416MPD2    C1 6258   3.560   1.102  11.460 -0.2029 -0.4508  0.0887
  416MPD2    C2 6259   3.509   0.982  11.414  0.1102 -0.0346 -0.1948
  416MPD2    C3 6260   3.577   0.903  11.325 -0.1794 -0.7524  0.0379
  416MPD2    C4 6261   3.704   0.945  11.295  0.2015  0.4457 -0.4912
  416MPD2    C5 6262   3.753   1.071  11.331 -0.4579  0.5732 -0.4842
  416MPD2     H 6263   3.408   0.949  11.437 -0.8107  1.5682 -1.8552
  416MPD2    H1 6264   3.770   0.894  11.225  1.4209  0.7863  0.4044
  416MPD2    H2 6265   3.724   1.247  11.455  0.9364 -0.4489  1.4333
  416MPD2    H3 6266   3.849   1.100  11.290  0.3198 -0.8156  0.3546
  416MPD2     N 6267   3.525   0.782  11.287 -0.3680  0.4356  0.3388
  416MPD2    H5 6268   3.594   0.713  11.257  1.3889  1.3774  2.2296
  416MPD2    N1 6269   3.487   1.181  11.553 -0.2814  0.1489  0.0237
  416MPD2    H7 6270   3.534   1.257  11.601 -0.1532  1.1988 -1.7541
  417TMC3    C1 6271   3.287   1.280  11.656  1.1297  0.0679  0.9540
  417TMC3    C2 6272   3.348   1.304  11.777  0.5228  1.0392 -0.5836
  417TMC3    C3 6273   3.281   1.375  11.870 -0.0166 -0.2541 -0.4266
  417TMC3    C4 6274   3.168   1.336  11.623  0.2291 -0.0278  0.8102
  417TMC3    C5 6275   3.112   1.423  11.716  0.0289 -0.8443 -0.0063
  417TMC3    C6 6276   3.159   1.437  11.842  0.2109  0.0251  1.4495
  417TMC3     C 6277   3.349   1.180  11.569  0.7080 -0.2624  0.2829
  417TMC3     O 6278   3.265   1.134  11.491  0.6696  0.0860  0.5392
  417TMC3     H 6279   3.439   1.250  11.799  1.3068  2.8631  0.7037
  417TMC3    H1 6280   3.133   1.321  11.522  1.3367 -1.4263  0.6308
  417TMC3    H2 6281   3.100   1.485  11.919 -1.0997  0.4740  0.1835
  417TMC3    C7 6282   2.994   1.494  11.676  0.5074 -0.2906  0.1715
  417TMC3    C8 6283   3.302   1.343  12.010  0.8572  0.2746 -0.9040
  417TMC3    O1 6284   2.986   1.605  11.723  0.6520 -0.0814 -0.5346
  417TMC3    O2 6285   3.224   1.390  12.092 -0.5176  0.5002 -0.3756
  418TMC3    C1 6286   2.445   3.037   0.365 -0.4712  0.1531 -0.4879
  418TMC3    C2 6287   2.328   3.082   0.323  0.6068  0.0276  0.1950
  418TMC3    C3 6288   2.226   2.993   0.349  0.9933  0.1415  0.6957
  418TMC3    C4 6289   2.468   2.932   0.445  0.3081  0.4503 -0.7458
  418TMC3    C5 6290   2.358   2.853   0.477  0.9075 -0.5374 -0.2428
  418TMC3    C6 6291   2.240   2.876   0.418  0.2076 -0.0107 -0.3426
  418TMC3     C 6292   2.563   3.091   0.292  0.0615  0.0276  0.0769
  418TMC3     O 6293   2.555   3.204   0.245 -0.6364  0.3562 -0.3359
  418TMC3     H 6294   2.316   3.172   0.263 -0.1166  0.7553  1.4474
  418TMC3    H1 6295   2.569   2.921   0.483 -0.6049  0.7421  1.7372
  418TMC3    H2 6296   2.152   2.813   0.432  0.1268 -0.4322 -2.6947
  418TMC3    C7 6297   2.383   2.715   0.522  0.4193  0.5971 -0.5949
  418TMC3    C8 6298   2.098   3.035   0.284  0.1579  0.1213  0.1680
  418TMC3    O1 6299   2.315   2.629   0.472 -0.2344 -0.1595 -0.5007
  418TMC3    O2 6300   2.090   3.142   0.227 -0.4623  0.2895  0.5474
  419MPD2     C 6301   1.071   0.826  12.285  0.2383 -0.3358  0.4114
  419MPD2    C1 6302   1.016   0.938  12.238  0.3265 -0.6481  0.1178
  419MPD2    C2 6303   0.960   1.026  12.328 -0.2839 -0.1057  0.0649
  419MPD2    C3 6304   0.963   1.008  12.465 -0.2562  0.2719 -0.2370
  419MPD2    C4 6305   1.002   0.884  12.505 -0.2885  0.5906  0.6435
  419MPD2    C5 6306   1.071   0.805  12.422  0.5461  0.5241  0.5622
  419MPD2     H 6307   0.929   1.119  12.281  1.3249  0.2478 -0.3012
  419MPD2    H1 6308   0.976   0.851  12.605 -1.5618 -0.9064 -0.1810
  419MPD2    H2 6309   1.116   0.755  12.217  1.3865 -1.1414  2.0142
  419MPD2    H3 6310   1.105   0.710  12.461 -1.4060 -0.0826  0.7852
  419MPD2     N 6311   0.928   1.107  12.559  0.3827 -0.5915  0.0080
  419MPD2    H5 6312   0.872   1.184  12.524 -0.0215 -1.0234 -0.2834
  419MPD2    N1 6313   1.014   0.974  12.101  0.5245  0.0306  0.1502
  419MPD2    H7 6314   0.977   1.062  12.068 -1.3918 -0.9637 -0.3934
  420TMC3    C1 6315   0.907   1.213  12.768 -0.0976 -0.2942  0.4069
  420TMC3    C2 6316   0.798   1.282  12.722 -0.5659 -0.1597 -0.2733
  420TMC3    C3 6317   0.751   1.375  12.815  1.1662 -0.0846 -0.5556
  420TMC3    C4 6318   0.972   1.245  12.884  0.3156  0.4629  0.3829
  420TMC3    C5 6319   0.916   1.340  12.966 -0.3903 -0.2380 -0.1328
  420TMC3    C6 6320   0.813   1.415  12.935 -0.9007 -0.3190  0.5153
  420TMC3     C 6321   0.964   1.105  12.689 -0.0414  0.6319 -0.3720
  420TMC3     O 6322   1.033   1.025  12.747  0.0661  0.2932  0.1990
  420TMC3     H 6323   0.743   1.243  12.637  0.6888 -0.6937 -0.8308
  420TMC3    H1 6324   1.059   1.192  12.921 -0.6331  0.4935  2.6794
  420TMC3    H2 6325   0.766   1.493  12.993  0.3764  0.3174  0.6692
  420TMC3    C7 6326   0.980   1.360  13.091  0.4926  0.7508  0.4722
  420TMC3    C8 6327   0.606   1.399  12.802 -0.5309  0.0070 -0.5078
  420TMC3    O1 6328   0.914   1.372  13.190 -0.4614 -0.6580  0.3671
  420TMC3    O2 6329   0.565   1.428  12.690  0.4080 -0.5088  0.2032
  421TMC3    C1 6330   2.374   1.928  13.862 -0.1141  0.2926 -0.5046
  421TMC3    C2 6331   2.333   2.069  13.846  0.2804  0.2277 -0.3876
  421TMC3    C3 6332   2.371   2.157  13.947 -0.5119 -0.4058 -0.2100
  421TMC3    C4 6333   2.470   1.892  13.956  0.0836 -0.4802  0.1454
  421TMC3    C5 6334   2.515   1.994  14.040  0.3047 -0.4119 -0.1937
  421TMC3    C6 6335   2.466   2.124  14.035  0.1703 -0.6869  0.3113
  421TMC3     C 6336   2.328   1.832  13.772 -0.4340 -1.1076 -0.1172
  421TMC3     O 6337   2.334   1.717  13.804  0.4435 -0.0049 -0.0292
  421TMC3     H 6338   2.264   2.106  13.771  1.5728 -0.5262 -1.9768
  421TMC3    H1 6339   2.512   1.793  13.967 -0.0841 -0.6205 -0.5183
  421TMC3    H2 6340   2.520   2.195  14.097 -1.7306  1.3252 -0.3389
  421TMC3    C7 6341   2.646   1.980  14.099 -0.1244 -0.0624  0.1428
  421TMC3    C8 6342   2.343   2.296  13.936  0.1350  0.7835  0.2707
  421TMC3    O1 6343   2.685   2.074  14.164  0.7375 -0.5214  0.6619
  421TMC3    O2 6344   2.424   2.379  13.981 -0.3103  0.0026 -0.0495
  422TMC3    C1 6345   4.684   4.013  12.740  0.0572 -0.3445  0.1191
  422TMC3    C2 6346   4.661   4.136  12.797  0.7514 -0.4291  0.2289
  422TMC3    C3 6347   4.538   4.148  12.852  0.0479  0.0500  0.2453
  422TMC3    C4 6348   4.598   3.903  12.752 -0.0900 -0.8875 -0.0160
  422TMC3    C5 6349   4.480   3.925  12.818  0.5201 -0.5115  0.6014
  422TMC3    C6 6350   4.440   4.050  12.863 -0.0580  0.0768 -0.3860
  422TMC3     C 6351   0.070   3.996  12.659 -0.6224 -0.0375 -0.1412
  422TMC3     O 6352   0.119   4.101  12.619  0.2142 -0.0470 -0.0030
  422TMC3     H 6353   4.725   4.222  12.785 -1.7357  1.4412  0.3960
  422TMC3    H1 6354   4.622   3.808  12.705  1.4243 -0.6384  0.2729
  422TMC3    H2 6355   4.345   4.067  12.913  0.6723  0.7573  0.7733
  422TMC3    C7 6356   4.389   3.822  12.800  0.5807 -0.4778  0.2431
  422TMC3    C8 6357   4.499   4.284  12.871 -0.8092  0.3854 -0.6448
  422TMC3    O1 6358   4.426   3.724  12.738  0.2050 -0.4772 -0.6050
  422TMC3    O2 6359   4.579   4.372  12.900 -0.2375 -0.3611  0.0472
  423MPD2     C 6360   0.720   0.228   0.679 -0.3496 -0.2661 -0.0821
  423MPD2    C1 6361   0.750   0.097   0.719 -0.4429  0.0272 -0.0272
  423MPD2    C2 6362   0.790   0.003   0.628  0.0954  0.3470  0.0332
  423MPD2    C3 6363   0.804   0.032   0.493 -0.1863 -0.1112  1.1353
  423MPD2    C4 6364   0.752   0.157   0.450 -0.2529 -0.5376 -0.1428
  423MPD2    C5 6365   0.712   0.248   0.545 -0.5185  0.1590 -0.5169
  423MPD2     H 6366   0.830   4.645   0.663  1.7942  0.4491 -1.6069
  423MPD2    H1 6367   0.754   0.187   0.346 -1.2324 -0.7557 -0.2262
  423MPD2    H2 6368   0.679   0.313   0.731 -0.9770 -0.8417  0.3571
  423MPD2    H3 6369   0.666   0.339   0.509  0.4316  0.1960 -1.6278
  423MPD2     N 6370   0.860   4.679   0.390 -0.2274 -0.4577  0.4837
  423MPD2    H5 6371   0.886   4.720   0.301  0.1650  1.7159  1.5867
  423MPD2    N1 6372   0.730   0.048   0.856 -0.1137  0.3485 -0.5518
  423MPD2    H7 6373   0.743   4.685   0.870  1.3815  0.1730 -2.9912
  424TMC3    C1 6374   0.710   0.059   1.091 -0.1539  0.1639  0.5895
  424TMC3    C2 6375   0.817   4.716   1.121  0.1609  0.3132  1.0013
  424TMC3    C3 6376   0.867   4.714   1.249 -0.0904  0.1926  0.4036
  424TMC3    C4 6377   0.651   0.133   1.192  0.0741  0.2641 -0.0215
  424TMC3    C5 6378   0.711   0.132   1.316 -0.0256 -0.3966  0.8679
  424TMC3    C6 6379   0.823   0.064   1.342 -0.1195  0.4869 -1.0668
  424TMC3     C 6380   0.703   0.129   0.962 -0.2552 -0.0227  0.3294
  424TMC3     O 6381   0.683   0.248   0.957  0.2398 -0.8029 -0.2299
  424TMC3     H 6382   0.870   4.648   1.056  0.2156  0.5519  0.7955
  424TMC3    H1 6383   0.567   0.198   1.169 -1.1796 -0.5477  2.3821
  424TMC3    H2 6384   0.880   0.069   1.434 -0.3607 -0.4029 -0.8692
  424TMC3    C7 6385   0.662   0.224   1.411  1.4353  0.4987 -0.5720
  424TMC3    C8 6386   0.932   4.602   1.301  0.0025  0.2808 -0.0449
  424TMC3    O1 6387   0.736   0.258   1.502  0.5242 -0.0817  0.0085
  424TMC3    O2 6388   0.908   4.496   1.244  0.0157 -0.7819  0.1473
  425MPD2     C 6389   0.063   4.206  17.066 -0.0028  0.0410  0.8754
  425MPD2    C1 6390   0.030   4.073  17.035  0.3529 -0.1663  0.4893
  425MPD2    C2 6391   4.636   4.031  17.036  0.0609  0.1765 -0.7183
  425MPD2    C3 6392   4.532   4.120  17.052  0.9736  0.2823 -0.1432
  425MPD2    C4 6393   4.563   4.246  17.081 -0.5070 -0.2361  0.6062
  425MPD2    C5 6394   4.694   4.292  17.090 -0.9170  0.7025 -0.1431
  425MPD2     H 6395   4.610   3.925  17.037  0.9574 -0.0459 -3.2862
  425MPD2    H1 6396   4.492   4.327  17.095  0.5702  1.1664 -1.9386
  425MPD2    H2 6397   0.158   4.244  17.101  1.1332 -0.2164 -1.9248
  425MPD2    H3 6398   4.706   4.391  17.134  1.3448  0.5276 -0.3868
  425MPD2     N 6399   4.401   4.067  17.041 -0.2951 -0.1061 -0.0394
  425MPD2    H5 6400   4.399   3.969  17.017  1.0359 -0.1863  0.1790
  425MPD2    N1 6401   0.133   3.980  17.041  0.1941 -0.3862 -0.0046
  425MPD2    H7 6402   0.216   4.004  17.094  0.9560 -0.9721 -0.9312
  426TMC3    C1 6403   0.226   3.776  17.005  0.1740  0.5385  0.0610
  426TMC3    C2 6404   0.236   3.682  16.908  0.0447 -1.0038 -0.1286
  426TMC3    C3 6405   0.279   3.561  16.948  0.3504  0.4115  0.7875
  426TMC3    C4 6406   0.236   3.743  17.141  0.2764 -0.1735  0.1305
  426TMC3    C5 6407   0.279   3.616  17.173  0.1764 -0.0868 -0.0590
  426TMC3    C6 6408   0.308   3.523  17.078 -0.6834  0.6717 -0.2437
  426TMC3     C 6409   0.120   3.863  16.971 -0.0258  0.0356 -0.2076
  426TMC3     O 6410   0.046   3.832  16.875 -0.5545  0.3912  0.0792
  426TMC3     H 6411   0.227   3.714  16.805  0.8430 -0.1407  0.0745
  426TMC3    H1 6412   0.226   3.823  17.213 -1.3566  1.0735 -1.4864
  426TMC3    H2 6413   0.347   3.423  17.095 -1.0888  0.2402 -1.8676
  426TMC3    C7 6414   0.239   3.571  17.300  0.3191  0.3174 -0.3624
  426TMC3    C8 6415   0.248   3.453  16.867  0.5688 -0.5110 -0.6293
  426TMC3    O1 6416   0.286   3.467  17.344 -1.2928  0.3618 -0.0576
  426TMC3    O2 6417   0.319   3.356  16.878  0.2273  0.1220 -0.1182
  427MPD2     C 6418   3.532   0.887  14.977 -0.6242 -0.1568 -0.4047
  427MPD2    C1 6419   3.542   0.930  15.106 -0.1045  0.3463 -0.7887
  427MPD2    C2 6420   3.467   1.044  15.152  0.0087 -0.5327  0.1357
  427MPD2    C3 6421   3.382   1.102  15.063 -0.0850  0.1898  0.7605
  427MPD2    C4 6422   3.380   1.060  14.933  0.6484  0.1111 -0.0686
  427MPD2    C5 6423   3.439   0.944  14.894 -0.0424 -0.2401 -0.1701
  427MPD2     H 6424   3.477   1.081  15.254  0.2713  0.7071 -0.3378
  427MPD2    H1 6425   3.313   1.114  14.866  1.6238  0.4957 -0.7311
  427MPD2    H2 6426   3.599   0.810  14.940  0.6842  1.4795 -1.4510
  427MPD2    H3 6427   3.432   0.905  14.792  1.3796 -1.6335  0.2560
  427MPD2     N 6428   3.288   1.198  15.096  0.6292 -0.4583 -0.2014
  427MPD2    H5 6429   3.231   1.236  15.020 -0.4538  0.5366  1.0985
  427MPD2    N1 6430   3.623   0.869  15.198  1.0585 -0.3517 -0.3363
  427MPD2    H7 6431   3.614   0.907  15.291  2.4789  0.8864 -0.7238
  428TMC3    C1 6432   3.767   0.724  15.298 -0.0792  0.3196 -0.2648
  428TMC3    C2 6433   3.803   0.592  15.320  0.1263 -0.6569 -0.0460
  428TMC3    C3 6434   3.869   0.557  15.431  0.8133  0.5828 -0.0163
  428TMC3    C4 6435   3.816   0.823  15.379 -0.6119  0.7420 -0.0781
  428TMC3    C5 6436   3.879   0.789  15.496  0.1898 -0.5552  0.1302
  428TMC3    C6 6437   3.908   0.661  15.514 -0.1161 -0.3528 -0.2963
  428TMC3     C 6438   3.695   0.757  15.173  0.4409 -0.4985 -0.2176
  428TMC3     O 6439   3.708   0.681  15.077  0.6098  0.1457  0.2313
  428TMC3     H 6440   3.777   0.518  15.245 -0.1697 -2.4824  1.8778
  428TMC3    H1 6441   3.802   0.930  15.374  0.2533  0.7932 -1.2273
  428TMC3    H2 6442   3.973   0.637  15.597 -1.5308 -2.0169  0.3318
  428TMC3    C7 6443   3.946   0.888  15.586 -0.1111 -0.1877  0.2563
  428TMC3    C8 6444   3.837   0.430  15.493  1.2818  0.7759 -0.3419
  428TMC3    O1 6445   3.928   0.886  15.710 -0.5706  0.4974 -0.5291
  428TMC3    O2 6446   3.795   0.343  15.418 -0.8468  0.8286 -0.1409
  429MPD2     C 6447   3.894   0.718  17.566  0.6738  0.6725  0.2706
  429MPD2    C1 6448   4.005   0.669  17.503 -0.9534 -0.4420  0.5888
  429MPD2    C2 6449   4.115   0.751  17.477  0.0441 -0.3515 -0.6237
  429MPD2    C3 6450   4.101   0.885  17.494 -0.0391 -0.2352 -0.3275
  429MPD2    C4 6451   3.981   0.938  17.541 -0.3533 -0.3439 -0.6563
  429MPD2    C5 6452   3.891   0.850  17.597 -0.2465  0.0398 -0.1243
  429MPD2     H 6453   4.197   0.722  17.412  0.1936 -1.2612 -0.0250
  429MPD2    H1 6454   3.947   1.041  17.541 -0.7036 -0.4605 -0.2566
  429MPD2    H2 6455   3.810   0.661  17.605  1.1149 -1.4695 -1.9308
  429MPD2    H3 6456   3.804   0.892  17.647  0.0068  1.0172 -0.5012
  429MPD2     N 6457   4.213   0.969  17.456 -0.5217  0.3014  0.1512
  429MPD2    H5 6458   4.302   0.927  17.431 -1.0218 -1.1177  0.7022
  429MPD2    N1 6459   4.015   0.534  17.455  0.5832 -0.6500  0.6934
  429MPD2    H7 6460   4.100   0.499  17.412  0.5586  0.5982 -0.3540
  430TMC3    C1 6461   4.326   1.177  17.414  0.5400 -0.3005  0.8512
  430TMC3    C2 6462   4.311   1.304  17.368  0.4088 -0.4402 -0.1062
  430TMC3    C3 6463   4.409   1.400  17.381 -0.3915 -0.6591 -0.6150
  430TMC3    C4 6464   4.447   1.136  17.462 -0.5036 -0.2051 -0.2725
  430TMC3    C5 6465   4.554   1.222  17.455  1.1161  0.9986 -0.6719
  430TMC3    C6 6466   4.523   1.354  17.435 -0.0410 -0.1057 -0.7977
  430TMC3     C 6467   4.198   1.100  17.431  0.6214 -0.2979 -0.1493
  430TMC3     O 6468   4.090   1.150  17.417  0.2832  0.7358  0.7826
  430TMC3     H 6469   4.214   1.335  17.332  0.1671 -0.0787  0.8463
  430TMC3    H1 6470   4.459   1.030  17.482  1.1644 -0.2889 -1.7763
  430TMC3    H2 6471   4.595   1.432  17.461 -0.2526 -0.3987  0.6643
  430TMC3    C7 6472   4.678   1.167  17.402 -0.3350  0.2605  0.2155
  430TMC3    C8 6473   4.447   1.471  17.259 -0.2297 -0.6141 -0.0017
  430TMC3    O1 6474   4.703   1.045  17.407  0.0875 -0.2791  0.1149
  430TMC3    O2 6475   4.558   1.519  17.244 -0.0055 -0.1971 -0.0577
  431MPD2     C 6476   0.507   1.315  12.348 -0.2644 -0.5792  0.0674
  431MPD2    C1 6477   0.635   1.354  12.324 -0.5267  0.2223  0.7838
  431MPD2    C2 6478   0.712   1.300  12.220  0.0659  0.1328  0.8508
  431MPD2    C3 6479   0.652   1.214  12.133  0.3842  0.0330 -0.1405
  431MPD2    C4 6480   0.527   1.162  12.168  0.1038  0.0863  0.6811
  431MPD2    C5 6481   0.459   1.218  12.270  0.1872 -1.2417  0.1682
  431MPD2     H 6482   0.812   1.333  12.195 -0.6645  0.9134 -1.0340
  431MPD2    H1 6483   0.474   1.084  12.114  1.9804  0.0933 -1.1693
  431MPD2    H2 6484   0.449   1.342  12.436 -0.7553 -2.4158  0.3132
  431MPD2    H3 6485   0.365   1.169  12.292  0.8135 -1.3363  2.6545
  431MPD2     N 6486   0.707   1.162  12.016  0.2473  0.6557 -0.4555
  431MPD2    H5 6487   0.656   1.079  11.985  2.4307  0.4101 -3.3869
  431MPD2    N1 6488   0.683   1.442  12.423  0.3864  0.3831 -0.3357
  431MPD2    H7 6489   0.620   1.459  12.501  1.4035 -0.2897  0.6206
  432TMC3    C1 6490   0.861   1.148  11.840 -0.6955 -0.7261  0.8966
  432TMC3    C2 6491   0.953   1.209  11.758  0.5092  0.2495 -0.0802
  432TMC3    C3 6492   1.071   1.146  11.744 -0.6970 -0.3121 -0.2609
  432TMC3    C4 6493   0.887   1.024  11.899 -0.2381 -0.8762  0.0205
  432TMC3    C5 6494   1.009   0.965  11.879  0.4404  0.0431 -0.2355
  432TMC3    C6 6495   1.100   1.023  11.796 -0.5197 -0.7589  0.5624
  432TMC3     C 6496   0.785   1.232  11.933  0.0645 -0.2431  0.0002
  432TMC3     O 6497   0.812   1.352  11.936  0.1346 -0.1281 -0.1599
  432TMC3     H 6498   0.949   1.315  11.734  1.1906  0.7494  1.9865
  432TMC3    H1 6499   0.810   0.971  11.954  2.2525 -1.4930  2.9385
  432TMC3    H2 6500   1.202   0.996  11.820 -0.6925 -0.7017  1.3551
  432TMC3    C7 6501   1.055   0.896  12.001  0.1453  0.1658 -0.3642
  432TMC3    C8 6502   1.173   1.208  11.662 -0.0372  0.4113 -0.0344
  432TMC3    O1 6503   1.115   0.792  11.984 -0.2415  0.4161 -0.2017
  432TMC3    O2 6504   1.142   1.246  11.552  0.2806  0.4932 -0.0519
  433MPD2     C 6505   4.291   0.169  10.775 -0.1953 -0.0613 -0.6585
  433MPD2    C1 6506   4.409   0.101  10.807 -0.3084 -0.2364  0.2521
  433MPD2    C2 6507   4.495   0.156  10.895  0.1574  0.2249 -0.3949
  433MPD2    C3 6508   4.487   0.284  10.946 -0.0374  0.3781 -0.7369
  433MPD2    C4 6509   4.377   0.357  10.898  0.5213  0.0970  0.1336
  433MPD2    C5 6510   4.277   0.302  10.820  0.0608 -0.6452 -0.9057
  433MPD2     H 6511   4.593   0.116  10.922  0.0008 -1.8678 -2.9928
  433MPD2    H1 6512   4.365   0.459  10.932  0.6621 -0.5501  2.0888
  433MPD2    H2 6513   4.218   0.123  10.710 -1.2542 -0.8290  1.0791
  433MPD2    H3 6514   4.192   0.363  10.792  0.2214  0.3537  0.7885
  433MPD2     N 6515   4.575   0.329  11.050  0.0115 -0.0638  0.3072
  433MPD2    H5 6516   4.648   0.264  11.079  0.7165  1.6699  2.3997
  433MPD2    N1 6517   4.419   4.706  10.757  0.1757 -0.1820 -0.5535
  433MPD2    H7 6518   4.339   4.667  10.708  0.9004 -1.0778 -1.0319
  434TMC3    C1 6519   4.521   4.493  10.748 -0.0827  0.8886  0.0083
  434TMC3    C2 6520   4.632   4.420  10.767 -0.1889 -0.2502  0.0029
  434TMC3    C3 6521   4.615   4.284  10.775  0.2469  0.5488 -0.1448
  434TMC3    C4 6522   4.396   4.436  10.721 -0.2623  0.3666 -0.7164
  434TMC3    C5 6523   4.385   4.304  10.746  0.5905  0.3506 -0.4341
  434TMC3    C6 6524   4.492   4.226  10.780 -0.0383 -0.2709 -0.0222
  434TMC3     C 6525   4.540   4.634  10.773  0.4793  0.3684  0.0831
  434TMC3     O 6526   4.648   4.666  10.823 -0.0895 -0.0519  0.3986
  434TMC3     H 6527   4.729   4.467  10.783 -0.7001  1.4042 -1.6999
  434TMC3    H1 6528   4.307   4.496  10.701 -1.0920 -0.8142 -0.5717
  434TMC3    H2 6529   4.470   4.120  10.784 -1.4542 -0.0017 -0.7611
  434TMC3    C7 6530   4.254   4.241  10.741 -0.2809 -0.4153 -0.7100
  434TMC3    C8 6531   0.001   4.207  10.789  0.7125 -0.6083  0.1309
  434TMC3    O1 6532   4.178   4.313  10.686 -0.1902  0.0534  0.5503
  434TMC3    O2 6533   0.105   4.261  10.749  0.4512  0.0508  0.1447
  435MPD2     C 6534   1.904   0.048  15.597  0.1510  0.3198 -0.4335
  435MPD2    C1 6535   1.861   0.022  15.725 -0.1025 -1.1140 -0.1978
  435MPD2    C2 6536   1.946   4.696  15.818  0.4476 -0.4584 -0.7113
  435MPD2    C3 6537   2.066   4.650  15.779 -0.0976  0.2206  0.2386
  435MPD2    C4 6538   2.102   4.666  15.651  0.7488 -0.3188  0.3947
  435MPD2    C5 6539   2.032   0.008  15.561  0.4467 -0.2303 -0.1159
  435MPD2     H 6540   1.913   4.686  15.921 -0.5706 -0.6056 -1.0444
  435MPD2    H1 6541   2.202   4.642  15.619  1.2381 -0.6749  2.1833
  435MPD2    H2 6542   1.851   0.104  15.520 -1.2761 -0.6811 -0.1847
  435MPD2    H3 6543   2.060   0.022  15.457 -1.8268  0.8268 -0.5813
  435MPD2     N 6544   2.146   4.582  15.871  0.2286 -0.6639 -0.1149
  435MPD2    H5 6545   2.118   4.572  15.968  2.1186 -2.0739  0.3013
  435MPD2    N1 6546   1.733   0.052  15.775  0.3661  0.0043  0.2658
  435MPD2    H7 6547   1.714   0.033  15.873 -0.6652  1.0359  0.2732
  436TMC3    C1 6548   1.455   0.238  16.004  0.2687  0.2757 -0.2218
  436TMC3    C2 6549   1.564   0.198  15.926 -0.4644  0.5373  0.0592
  436TMC3    C3 6550   1.539   0.178  15.792 -0.1410  0.3408  1.2831
  436TMC3    C4 6551   1.330   0.264  15.948 -0.2549 -0.2893 -0.3725
  436TMC3    C5 6552   1.309   0.239  15.822  0.1479 -0.5975  0.1477
  436TMC3    C6 6553   1.412   0.191  15.738  0.1998  0.1526  0.1178
  436TMC3     C 6554   1.491   0.275  16.139 -0.4037  0.2627 -0.0236
  436TMC3     O 6555   1.607   0.298  16.162  0.0120  0.3281  0.2155
  436TMC3     H 6556   1.658   0.172  15.974 -0.5170  0.9043  0.3564
  436TMC3    H1 6557   1.253   0.310  16.008 -0.7787  0.3338 -1.5246
  436TMC3    H2 6558   1.395   0.155  15.637  0.4427  2.2068 -0.6450
  436TMC3    C7 6559   1.185   0.272  15.766 -0.5311  0.5561  0.0236
  436TMC3    C8 6560   1.636   0.120  15.704 -0.5014 -0.2177 -0.6755
  436TMC3    O1 6561   1.196   0.272  15.643 -0.1822  0.3079 -0.0678
  436TMC3    O2 6562   1.623   0.134  15.584 -0.4556  0.3559  0.1130
  437TMC3    C1 6563   4.706   1.883  13.302  0.4211 -0.6022 -0.4532
  437TMC3    C2 6564   4.574   1.914  13.320 -0.3466 -0.2535  0.3325
  437TMC3    C3 6565   4.518   2.004  13.237  0.7585  0.3608  0.5721
  437TMC3    C4 6566   0.035   1.913  13.194 -0.5192  0.1784 -0.9071
  437TMC3    C5 6567   4.704   1.994  13.098  0.6218  0.2891  0.4725
  437TMC3    C6 6568   4.579   2.045  13.122 -0.3511 -0.1661  0.2705
  437TMC3     C 6569   0.020   1.768  13.378  0.2876  0.1532 -0.7929
  437TMC3     O 6570   4.676   1.680  13.406 -0.5874  0.0334  0.0058
  437TMC3     H 6571   4.514   1.866  13.396 -2.6761  0.6254 -0.9551
  437TMC3    H1 6572   0.126   1.859  13.169 -0.1085 -0.3290  1.6992
  437TMC3    H2 6573   4.524   2.109  13.053 -0.6486 -1.7861 -0.9902
  437TMC3    C7 6574   0.024   2.033  12.970 -0.0839 -0.5555 -0.5778
  437TMC3    C8 6575   4.406   2.080  13.284 -1.0545 -0.0685  0.2809
  437TMC3    O1 6576   4.687   2.099  12.895 -0.2492 -0.0011 -0.4171
  437TMC3    O2 6577   4.322   2.023  13.347  0.2398  0.0803  0.7154
  438MPD2     C 6578   2.648   2.971  16.568  0.3179 -0.0128  0.5809
  438MPD2    C1 6579   2.750   2.902  16.632 -0.3456  0.7355  0.0561
  438MPD2    C2 6580   2.757   2.916  16.767  0.0766  0.8350 -0.2113
  438MPD2    C3 6581   2.680   3.003  16.843  0.7902 -0.6161 -0.3677
  438MPD2    C4 6582   2.575   3.068  16.780  0.8510  0.3072  0.6243
  438MPD2    C5 6583   2.560   3.049  16.642  0.6366 -0.2369  0.2473
  438MPD2     H 6584   2.834   2.858  16.817 -0.2722 -1.3810 -2.2342
  438MPD2    H1 6585   2.502   3.132  16.828 -2.2605 -3.8108  1.3503
  438MPD2    H2 6586   2.625   2.943  16.466 -3.0718 -1.8528  1.8451
  438MPD2    H3 6587   2.479   3.098  16.589  0.0465 -0.3709  1.0287
  438MPD2     N 6588   2.688   3.008  16.984 -0.3158 -0.0353 -0.4168
  438MPD2    H5 6589   2.613   3.051  17.037  0.5742  2.3598 -1.1002
  438MPD2    N1 6590   2.835   2.814  16.568  0.8989  0.4635  0.2517
  438MPD2    H7 6591   2.905   2.769  16.626  0.2391  0.5382  1.1001
  439TMC3    C1 6592   2.908   2.639  16.435 -0.2018  0.0874  0.7136
  439TMC3    C2 6593   2.936   2.591  16.304 -0.0797  0.3211  0.3095
  439TMC3    C3 6594   2.988   2.462  16.294  0.2182  0.1275 -0.2922
  439TMC3    C4 6595   2.918   2.556  16.547 -0.1357  0.1913  0.1105
  439TMC3    C5 6596   2.973   2.426  16.529 -0.1607 -0.7113  0.4421
  439TMC3    C6 6597   2.997   2.382  16.402 -0.4923 -0.9056 -0.1124
  439TMC3     C 6598   2.839   2.768  16.438  0.4374  0.4002 -0.4573
  439TMC3     O 6599   2.800   2.822  16.336  0.6039  0.6289 -0.5453
  439TMC3     H 6600   2.914   2.654  16.218 -0.8860 -1.4757 -0.8074
  439TMC3    H1 6601   2.882   2.594  16.642 -1.4441  0.1807 -0.3809
  439TMC3    H2 6602   3.039   2.282  16.389 -1.1031 -1.0130 -1.2614
  439TMC3    C7 6603   3.048   2.358  16.629 -0.4486 -0.0424 -0.3986
  439TMC3    C8 6604   3.047   2.410  16.171  0.7059  1.2451  0.3958
  439TMC3    O1 6605   3.143   2.284  16.599 -0.4618  0.2471 -0.1948
  439TMC3    O2 6606   3.096   2.298  16.176  0.3117 -0.1405 -0.4103
  440MPD2     C 6607   2.135   3.131  15.037  0.4774 -0.3330  0.0254
  440MPD2    C1 6608   2.049   3.077  15.122 -0.3329 -0.1277 -0.5904
  440MPD2    C2 6609   2.091   2.985  15.209 -0.6401 -0.5871 -0.2271
  440MPD2    C3 6610   2.222   2.950  15.219  0.4708 -0.5694 -0.3577
  440MPD2    C4 6611   2.315   3.016  15.139  0.1823 -0.8133  0.3842
  440MPD2    C5 6612   2.266   3.111  15.054 -0.1668  0.7867  0.7003
  440MPD2     H 6613   2.018   2.941  15.276  0.4142 -0.5597  0.9417
  440MPD2    H1 6614   2.422   3.002  15.132  0.7157  1.8539  3.2252
  440MPD2    H2 6615   2.103   3.195  14.955  0.4359  1.2151  1.2518
  440MPD2    H3 6616   2.326   3.166  14.983  2.5488 -0.4628  2.0055
  440MPD2     N 6617   2.254   2.842  15.309 -0.3214 -0.0069 -0.7875
  440MPD2    H5 6618   2.176   2.798  15.357 -0.7651  1.9235  0.2505
  440MPD2    N1 6619   1.908   3.097  15.111  0.3225  0.8334 -0.0431
  440MPD2    H7 6620   1.845   3.047  15.171  0.1298  0.5925 -0.4452
  441TMC3    C1 6621   2.390   2.714  15.434  0.0688  0.0163 -0.2444
  441TMC3    C2 6622   2.494   2.740  15.526  0.2017 -0.1061 -0.1007
  441TMC3    C3 6623   2.484   2.688  15.652  0.2205 -0.3614 -0.0009
  441TMC3    C4 6624   2.283   2.639  15.469  0.4099 -0.8268 -0.1670
  441TMC3    C5 6625   2.288   2.579  15.590  0.3030  0.5378  0.1514
  441TMC3    C6 6626   2.384   2.600  15.686 -0.1516  0.1666 -0.8123
  441TMC3     C 6627   2.378   2.804  15.327  0.3170 -0.8161  0.1384
  441TMC3     O 6628   2.483   2.857  15.301  0.5579 -0.4858  0.0093
  441TMC3     H 6629   2.577   2.807  15.506  1.6964 -1.4034  1.6848
  441TMC3    H1 6630   2.199   2.611  15.406  0.4821  0.3203 -0.7786
  441TMC3    H2 6631   2.369   2.566  15.788  1.4336  0.7505 -0.3924
  441TMC3    C7 6632   2.179   2.500  15.624 -0.0755 -0.1831 -0.9397
  441TMC3    C8 6633   2.487   2.791  15.751  0.1581  0.2815  0.7822
  441TMC3    O1 6634   2.068   2.511  15.571  0.5507 -0.7877 -0.0315
  441TMC3    O2 6635   2.503   2.764  15.868  0.2452 -0.6782 -0.7404
  442MPD2     C 6636   4.500   3.551  16.076  0.4513  0.3172  0.1183
  442MPD2    C1 6637   4.487   3.446  16.162  0.0665  0.0747 -0.1684
  442MPD2    C2 6638   4.546   3.326  16.128  0.3966 -0.2876  0.4314
  442MPD2    C3 6639   4.638   3.322  16.032  0.7125  0.5879  0.2474
  442MPD2    C4 6640   4.657   3.428  15.949  0.4557 -0.0369  0.0422
  442MPD2    C5 6641   4.591   3.542  15.967 -0.2579 -0.8394 -1.2632
  442MPD2     H 6642   4.539   3.236  16.188  1.0349 -0.4456  0.2788
  442MPD2    H1 6643   4.717   3.416  15.860  0.5838 -2.8641  0.4914
  442MPD2    H2 6644   4.448   3.646  16.085 -0.2565 -0.0592 -0.0174
  442MPD2    H3 6645   4.607   3.619  15.893 -1.9749  0.8798  0.1534
  442MPD2     N 6646   4.700   3.194  16.000 -0.4361 -0.0650  0.4471
  442MPD2    H5 6647   0.006   3.207  15.909  1.7012  0.5396  1.5488
  442MPD2    N1 6648   4.386   3.442  16.260  0.2180  0.0419  0.3832
  442MPD2    H7 6649   4.366   3.352  16.303 -2.6045 -0.4728 -2.0519
  443TMC3    C1 6650   4.240   3.538  16.414 -0.3838  0.0453 -0.6957
  443TMC3    C2 6651   4.173   3.649  16.461 -0.1758  0.2308  0.4177
  443TMC3    C3 6652   4.045   3.637  16.492  0.4062 -0.1975  0.1740
  443TMC3    C4 6653   4.181   3.412  16.417 -0.2249 -0.1572 -0.3184
  443TMC3    C5 6654   4.050   3.411  16.457 -0.8031  0.6509  0.8733
  443TMC3    C6 6655   3.975   3.521  16.492 -0.4421  0.4943  0.0323
  443TMC3     C 6656   4.354   3.554  16.325 -0.1193 -0.2981 -0.0322
  443TMC3     O 6657   4.405   3.664  16.322 -0.1960  0.9398  0.2442
  443TMC3     H 6658   4.222   3.745  16.456  0.9831 -0.3711  0.0548
  443TMC3    H1 6659   4.234   3.319  16.400  1.1313  0.0907  2.5538
  443TMC3    H2 6660   3.871   3.513  16.519 -0.4595 -0.6994 -0.3864
  443TMC3    C7 6661   3.971   3.296  16.419 -0.1694 -0.1251  0.2323
  443TMC3    C8 6662   3.960   3.757  16.499 -0.2457  0.4837 -0.6010
  443TMC3    O1 6663   4.026   3.186  16.414  0.9098  0.4379  0.3167
  443TMC3    O2 6664   3.896   3.770  16.601  0.0408 -0.1760 -1.1442
  444MPD2     C 6665   0.047   2.954  16.602  0.1784 -1.1789 -0.0214
  444MPD2    C1 6666   4.702   2.852  16.558 -0.3275  0.1368  0.0580
  444MPD2    C2 6667   0.024   2.744  16.492 -0.1969 -0.2517  0.8082
  444MPD2    C3 6668   0.164   2.738  16.483  0.2588  0.2227  0.0928
  444MPD2    C4 6669   0.242   2.836  16.534  0.2658 -0.1108  0.4715
  444MPD2    C5 6670   0.182   2.950  16.592  0.1561  0.1084 -0.6033
  444MPD2     H 6671   4.703   2.669  16.442 -0.4363 -0.8914  2.0425
  444MPD2    H1 6672   0.350   2.837  16.531  0.2009  1.1905 -1.4668
  444MPD2    H2 6673   0.018   3.046  16.651  0.0776  1.1080 -4.4058
  444MPD2    H3 6674   0.235   3.035  16.633 -1.5539  0.3700  1.0911
  444MPD2     N 6675   0.212   2.616  16.430  0.3981 -0.2835  0.1264
  444MPD2    H5 6676   0.151   2.539  16.406 -1.4941  0.8868  1.2120
  444MPD2    N1 6677   4.563   2.850  16.583  0.5015 -0.2601 -0.7898
  444MPD2    H7 6678   4.519   2.759  16.575  1.8281 -1.1726  2.4030
  445TMC3    C1 6679   0.361   2.440  16.362 -0.6060 -0.3948  0.0978
  445TMC3    C2 6680   0.288   2.411  16.255 -0.8007 -0.0639 -0.2649
  445TMC3    C3 6681   0.329   2.299  16.182  0.4247 -0.1927 -0.6971
  445TMC3    C4 6682   0.479   2.379  16.391  0.0949 -0.4046 -0.1442
  445TMC3    C5 6683   0.509   2.261  16.320 -0.1057  0.2035  0.1798
  445TMC3    C6 6684   0.436   2.221  16.206 -0.5373  0.0655 -0.5508
  445TMC3     C 6685   0.343   2.569  16.430 -0.0250  0.2539  0.0378
  445TMC3     O 6686   0.442   2.619  16.489 -0.3469  0.4206  0.1858
  445TMC3     H 6687   0.196   2.460  16.225 -0.4079 -0.4504 -2.1438
  445TMC3    H1 6688   0.554   2.433  16.447 -0.4158 -1.0607  1.1755
  445TMC3    H2 6689   0.476   2.144  16.142 -2.2565 -0.1582 -1.3727
  445TMC3    C7 6690   0.655   2.212  16.313  0.1056  0.0179  0.0179
  445TMC3    C8 6691   0.243   2.263  16.077  0.6968  0.5114 -0.5771
  445TMC3    O1 6692   0.744   2.296  16.321 -0.0911 -0.0272 -0.0163
  445TMC3    O2 6693   0.178   2.348  16.017 -0.1017 -0.3162  0.6880
  446MPD2     C 6694   4.606   4.219  11.156 -0.1662  0.6021  0.6246
  446MPD2    C1 6695   4.548   4.340  11.133 -1.0953 -1.1627 -0.5957
  446MPD2    C2 6696   4.618   4.446  11.102  0.0505 -0.1114 -0.0809
  446MPD2    C3 6697   0.022   4.441  11.096 -0.0837 -0.1772  0.3689
  446MPD2    C4 6698   0.080   4.319  11.128 -0.2024  0.5376 -0.2000
  446MPD2    C5 6699   0.005   4.210  11.151 -0.0042  0.4331 -0.5011
  446MPD2     H 6700   4.560   4.535  11.081 -1.2101 -1.3018 -1.5807
  446MPD2    H1 6701   0.188   4.309  11.131 -0.0134  1.7245 -2.8436
  446MPD2    H2 6702   4.556   4.125  11.178  0.3677  0.3219  0.6264
  446MPD2    H3 6703   0.059   4.120  11.180  0.1446  0.3164 -1.1304
  446MPD2     N 6704   0.101   4.557  11.058  0.0309  0.4541  0.1179
  446MPD2    H5 6705   0.049   4.645  11.050 -1.3672 -0.5311 -1.8973
  446MPD2    N1 6706   4.406   4.354  11.137  0.2849  0.5726  0.7133
  446MPD2    H7 6707   4.375   4.450  11.121  0.4896  0.4043 -0.6873
  447TMC3    C1 6708   0.273   4.703  11.014  0.5011  1.4452  0.3857
  447TMC3    C2 6709   0.186   0.055  10.957  0.6043  0.0897  0.2255
  447TMC3    C3 6710   0.231   0.187  10.944 -0.6082  0.1886 -0.0384
  447TMC3    C4 6711   0.406   4.735  11.043 -0.2320 -0.1004  0.0424
  447TMC3    C5 6712   0.444   0.132  11.029 -0.4284  0.7458 -0.4386
  447TMC3    C6 6713   0.357   0.233  10.980 -0.0540 -0.6250  0.5394
  447TMC3     C 6714   0.231   4.562  11.020  0.4018 -0.1879 -0.3184
  447TMC3     O 6715   0.316   4.476  11.049  0.0822 -0.5917  0.6396
  447TMC3     H 6716   0.083   0.027  10.938  0.3541  1.1630 -0.0173
  447TMC3    H1 6717   0.482   4.663  11.068 -0.7269 -1.2938 -1.9077
  447TMC3    H2 6718   0.396   0.331  10.958  0.6825 -0.9098  0.5629
  447TMC3    C7 6719   0.584   0.166  11.041 -0.2439  0.0047  1.1483
  447TMC3    C8 6720   0.151   0.268  10.854  0.2477 -0.0875 -0.0517
  447TMC3    O1 6721   0.667   0.080  11.015  0.0338  0.0943  0.0763
  447TMC3    O2 6722   0.069   0.219  10.781 -0.2037  0.1845  0.0418
  448TMC3    C1 6723   3.033   4.065  17.047  0.0890  0.0683  0.4268
  448TMC3    C2 6724   3.043   3.935  16.997  0.0167 -0.0083  0.3857
  448TMC3    C3 6725   3.065   3.829  17.083  0.0088  0.7073  0.5314
  448TMC3    C4 6726   3.059   4.086  17.183  0.5002 -0.2522  1.0688
  448TMC3    C5 6727   3.094   3.981  17.263 -0.6544  0.4497  0.4546
  448TMC3    C6 6728   3.098   3.855  17.214 -0.2236  0.5984  0.0743
  448TMC3     C 6729   3.048   4.175  16.953  0.3587  0.3067  0.5277
  448TMC3     O 6730   3.108   4.144  16.854 -0.3642 -0.0155  0.0182
  448TMC3     H 6731   3.018   3.921  16.893  2.2055  5.7402 -0.9209
  448TMC3    H1 6732   3.044   4.185  17.224  0.1355  0.3838 -0.5803
  448TMC3    H2 6733   3.139   3.777  17.278 -1.0548 -0.2989 -0.4816
  448TMC3    C7 6734   3.181   4.023  17.371  0.4042 -0.0150 -0.4044
  448TMC3    C8 6735   3.038   3.688  17.051  0.6708 -0.0179  0.4058
  448TMC3    O1 6736   3.240   4.131  17.359  0.3867 -0.1542 -0.4140
  448TMC3    O2 6737   3.076   3.610  17.136 -0.2170  0.6113 -0.0293
  449MPD2     C 6738   4.426   2.287  13.914 -0.1787  0.2621 -0.4130
  449MPD2    C1 6739   4.324   2.369  13.911 -0.0299  0.3363  0.6470
  449MPD2    C2 6740   4.196   2.321  13.926 -0.0533  0.1884  0.2351
  449MPD2    C3 6741   4.169   2.192  13.965  0.2677 -0.2774  0.4892
  449MPD2    C4 6742   4.279   2.104  13.985  0.0883 -0.0176 -0.1801
  449MPD2    C5 6743   4.402   2.157  13.961 -0.6163 -0.0142  0.0081
  449MPD2     H 6744   4.110   2.384  13.906 -0.9219 -0.6076  1.4450
  449MPD2    H1 6745   4.275   2.002  14.019 -0.3335 -0.3024 -1.0720
  449MPD2    H2 6746   4.529   2.316  13.898  0.0673 -2.2318 -3.2712
  449MPD2    H3 6747   4.497   2.103  13.965  0.5324  2.0341  0.2223
  449MPD2     N 6748   4.034   2.158  13.970 -0.1096 -0.3684 -0.3197
  449MPD2    H5 6749   3.974   2.235  13.941 -0.4063  0.4296  2.3799
  449MPD2    N1 6750   4.329   2.505  13.879  0.5368 -0.3753  0.9387
  449MPD2    H7 6751   4.238   2.549  13.875  0.4552 -0.3571  3.1851
  450TMC3    C1 6752   4.408   2.717  13.808  0.2153  0.0198 -1.1861
  450TMC3    C2 6753   4.441   2.747  13.680 -0.6291 -0.2068 -0.4265
  450TMC3    C3 6754   4.340   2.798  13.599 -0.4401 -0.2506 -0.2582
  450TMC3    C4 6755   4.291   2.767  13.862 -0.3339  0.3670 -0.2670
  450TMC3    C5 6756   4.190   2.814  13.781  0.5543  0.2646  0.4313
  450TMC3    C6 6757   4.216   2.832  13.654 -0.1749  0.5818  0.7490
  450TMC3     C 6758   4.441   2.579  13.850 -0.2262 -0.3815  0.1078
  450TMC3     O 6759   4.551   2.536  13.845  0.0183 -0.6316 -0.2312
  450TMC3     H 6760   4.525   2.693  13.637 -0.1937  0.2804 -0.1845
  450TMC3    H1 6761   4.273   2.748  13.967 -0.1589  0.2761 -0.2537
  450TMC3    H2 6762   4.142   2.844  13.575  1.7635  0.3038 -1.1327
  450TMC3    C7 6763   4.061   2.758  13.811  0.1456 -0.2423  0.4629
  450TMC3    C8 6764   4.361   2.815  13.454 -0.2189 -0.1603 -0.4006
  450TMC3    O1 6765   4.062   2.664  13.889  0.2120  0.2183 -0.0670
  450TMC3    O2 6766   4.290   2.892  13.390  0.2192  0.2042 -0.0357
  451MPD2     C 6767   0.124   1.327   1.306  0.0150 -0.1655  0.2886
  451MPD2    C1 6768   0.185   1.206   1.316  0.2391  0.5880  0.2766
  451MPD2    C2 6769   0.314   1.192   1.274 -0.9165  0.2480  0.1100
  451MPD2    C3 6770   0.386   1.301   1.222 -0.2735  0.1244 -0.1874
  451MPD2    C4 6771   0.321   1.424   1.200  0.4545  0.0737  0.3533
  451MPD2    C5 6772   0.194   1.434   1.246 -0.0141  0.0548  0.3891
  451MPD2     H 6773   0.364   1.097   1.291  0.7448  1.0553 -0.2712
  451MPD2    H1 6774   0.366   1.514   1.159  0.7724 -1.0976 -1.9077
  451MPD2    H2 6775   0.020   1.340   1.335  0.2335  1.1059  0.4960
  451MPD2    H3 6776   0.142   1.528   1.234 -1.4730 -0.9554 -1.0230
  451MPD2     N 6777   0.519   1.284   1.182  0.3467 -0.0617  0.2275
  451MPD2    H5 6778   0.554   1.343   1.107  0.2922  0.4040  0.5669
  451MPD2    N1 6779   0.110   1.104   1.373  0.0740 -0.5219  0.3705
  451MPD2    H7 6780   0.010   1.122   1.383  0.3695  0.2738  1.8860
  452TMC3    C1 6781   0.714   1.161   1.135 -0.2860  0.4379  0.0386
  452TMC3    C2 6782   0.718   1.033   1.101 -0.9815  0.2643  0.0921
  452TMC3    C3 6783   0.786   0.993   0.989 -0.6705 -0.6548  0.5376
  452TMC3    C4 6784   0.755   1.262   1.052  1.0710 -0.0657 -0.1097
  452TMC3    C5 6785   0.837   1.226   0.944  0.3263  0.1145  0.2383
  452TMC3    C6 6786   0.841   1.095   0.909  0.2257  0.2381  0.2459
  452TMC3     C 6787   0.606   1.194   1.236  0.1529  0.0201  0.2087
  452TMC3     O 6788   0.586   1.117   1.325  0.0891 -0.1584 -0.4184
  452TMC3     H 6789   0.687   0.961   1.176 -0.7338 -1.6280 -1.6191
  452TMC3    H1 6790   0.748   1.366   1.081  0.4630  0.2225 -1.2870
  452TMC3    H2 6791   0.895   1.068   0.819 -2.6807 -0.0340 -1.4168
  452TMC3    C7 6792   0.882   1.316   0.839  0.2435 -0.3981 -0.3242
  452TMC3    C8 6793   0.731   0.885   0.908 -1.0026  0.4917 -0.6482
  452TMC3    O1 6794   0.869   1.277   0.724  0.1837 -0.3025 -0.1540
  452TMC3    O2 6795   0.742   0.890   0.788 -0.2611  0.4827 -0.0988
  453TMC3    C1 6796   1.906   3.376  12.149  0.0248 -0.2713  0.5719
  453TMC3    C2 6797   1.803   3.291  12.128 -0.1233  0.7200 -0.2845
  453TMC3    C3 6798   1.715   3.322  12.027  0.2312 -0.0426  0.3533
  453TMC3    C4 6799   1.935   3.492  12.069  0.3539  0.4250  0.1083
  453TMC3    C5 6800   1.844   3.514  11.970  0.4508 -0.4808 -0.0432
  453TMC3    C6 6801   1.735   3.433  11.951 -0.6109  0.0626 -0.8304
  453TMC3     C 6802   2.015   3.323  12.230  0.2671 -0.8466 -0.4279
  453TMC3     O 6803   2.121   3.386  12.233  0.2231 -0.1337 -0.0432
  453TMC3     H 6804   1.798   3.189  12.163 -1.8262  0.2510 -1.9097
  453TMC3    H1 6805   2.035   3.533  12.072 -0.5333  2.3941  2.7439
  453TMC3    H2 6806   1.670   3.445  11.865 -2.0013 -2.5560 -0.1243
  453TMC3    C7 6807   1.896   3.556  11.843 -0.4664 -0.2824 -0.2569
  453TMC3    C8 6808   1.635   3.223  11.959  0.5883 -1.2096 -0.1572
  453TMC3    O1 6809   1.858   3.486  11.750  0.3727  0.4584 -0.3744
  453TMC3    O2 6810   1.526   3.253  11.918  0.2368  0.5801  0.3943
  454MPD2     C 6811   0.964   2.708  16.124  0.0086  0.4926 -0.0289
  454MPD2    C1 6812   0.884   2.748  16.011  0.3342  0.5688 -0.7835
  454MPD2    C2 6813   0.818   2.867  16.018  0.7049 -0.6289  0.0626
  454MPD2    C3 6814   0.799   2.936  16.135 -0.4209 -0.6453  0.3827
  454MPD2    C4 6815   0.866   2.884  16.247 -0.5167 -0.8368 -0.6828
  454MPD2    C5 6816   0.946   2.774  16.238 -0.3455 -0.6668 -0.4056
  454MPD2     H 6817   0.785   2.909  15.924  0.3084  1.1280  0.9869
  454MPD2    H1 6818   0.838   2.924  16.344  1.3139  1.4521 -1.0712
  454MPD2    H2 6819   1.033   2.624  16.116 -1.7154 -1.3262  4.4392
  454MPD2    H3 6820   0.988   2.729  16.328 -2.0209 -1.8935 -0.2448
  454MPD2     N 6821   0.711   3.044  16.149  0.1324  0.5054 -0.3179
  454MPD2    H5 6822   0.674   3.075  16.238 -0.6037  0.9359 -0.7739
  454MPD2    N1 6823   0.888   2.679  15.887 -0.2158 -0.1167 -0.0288
  454MPD2    H7 6824   0.881   2.732  15.801 -0.9228 -0.8387 -0.4132
  455TMC3    C1 6825   0.513   3.153  16.070  0.1182 -0.1750 -0.5965
  455TMC3    C2 6826   0.487   3.167  16.206 -0.0124 -0.3094 -0.1834
  455TMC3    C3 6827   0.370   3.120  16.252 -0.2022 -0.1374 -0.5772
  455TMC3    C4 6828   0.425   3.088  15.988  0.1669 -0.1047  0.3941
  455TMC3    C5 6829   0.313   3.031  16.043 -0.2681  0.1071  0.4053
  455TMC3    C6 6830   0.288   3.043  16.176  0.3783  0.6832 -0.1476
  455TMC3     C 6831   0.644   3.108  16.038 -0.1814  0.7471 -0.5489
  455TMC3     O 6832   0.677   3.128  15.921  0.5487 -0.0348  0.1685
  455TMC3     H 6833   0.540   3.242  16.264 -0.0409 -1.1354  0.9127
  455TMC3    H1 6834   0.449   3.063  15.885  0.2448 -0.4092  0.4856
  455TMC3    H2 6835   0.205   2.996  16.227  0.1470  1.1225 -0.1186
  455TMC3    C7 6836   0.318   2.893  16.014 -0.2416  1.4345  0.3627
  455TMC3    C8 6837   0.332   3.176  16.382  0.1903  0.2323 -0.6833
  455TMC3    O1 6838   0.293   2.857  15.902  0.2153  0.0612  0.1573
  455TMC3    O2 6839   0.420   3.182  16.465 -0.5354  0.0772  0.2388
  456MPD2     C 6840   3.330   2.662  16.274 -0.9331  0.0360 -0.2790
  456MPD2    C1 6841   3.413   2.582  16.357  0.0780 -0.2706  0.0186
  456MPD2    C2 6842   3.407   2.586  16.496  0.4265  0.2232  0.1735
  456MPD2    C3 6843   3.310   2.660  16.550  0.5378  0.1886  0.4480
  456MPD2    C4 6844   3.232   2.745  16.476  0.1698 -0.0653 -0.1205
  456MPD2    C5 6845   3.237   2.744  16.333  0.6987 -0.0259 -0.6414
  456MPD2     H 6846   3.469   2.520  16.557  0.5547 -0.2986 -0.5241
  456MPD2    H1 6847   3.148   2.803  16.510  1.3445  0.9793  0.9856
  456MPD2    H2 6848   3.331   2.661  16.165  1.4695 -0.7382 -0.2538
  456MPD2    H3 6849   3.189   2.819  16.273  0.9574  0.1684 -0.6030
  456MPD2     N 6850   3.288   2.675  16.695 -0.1738  0.5704 -0.2365
  456MPD2    H5 6851   3.370   2.662  16.753 -1.5368 -2.3629  1.0384
  456MPD2    N1 6852   3.509   2.501  16.290  0.6574 -0.3094  0.8229
  456MPD2    H7 6853   3.506   2.510  16.189 -0.9244 -0.4515  0.8523
  457TMC3    C1 6854   3.210   2.810  16.869 -0.2691 -0.3109  0.7195
  457TMC3    C2 6855   3.147   2.928  16.874 -0.2037 -0.8730 -0.0447
  457TMC3    C3 6856   3.161   3.014  16.984  0.6534 -0.9126 -0.3736
  457TMC3    C4 6857   3.289   2.767  16.972 -0.0620 -0.0437 -0.4771
  457TMC3    C5 6858   3.307   2.851  17.079 -0.3201 -0.4176 -0.0813
  457TMC3    C6 6859   3.242   2.973  17.089 -0.2214  0.1626 -0.4435
  457TMC3     C 6860   3.173   2.721  16.759  0.8832 -0.2620  0.5176
  457TMC3     O 6861   3.066   2.741  16.713 -0.0643 -0.3856  0.2709
  457TMC3     H 6862   3.095   2.951  16.782 -2.0054  0.4659  1.3037
  457TMC3    H1 6863   3.355   2.681  16.974 -1.3812 -1.0589 -0.6428
  457TMC3    H2 6864   3.238   3.033  17.179 -3.4249  0.8500 -1.0194
  457TMC3    C7 6865   3.399   2.802  17.176 -0.4520 -0.4174  0.8624
  457TMC3    C8 6866   3.105   3.142  16.991 -0.1666  0.4890 -0.4937
  457TMC3    O1 6867   3.373   2.700  17.242  0.6466  0.1331 -0.3752
  457TMC3    O2 6868   3.142   3.211  17.083 -0.5014  0.2736  0.1669
  458MPD2     C 6869   0.375   2.189  12.650 -0.7505  0.2520  0.5072
  458MPD2    C1 6870   0.437   2.141  12.768  0.3002 -0.6400  0.2523
  458MPD2    C2 6871   0.363   2.075  12.864 -0.7571 -0.0747 -0.4815
  458MPD2    C3 6872   0.223   2.065  12.846  0.2937  0.4413  0.2418
  458MPD2    C4 6873   0.166   2.115  12.730 -0.3825 -0.0521 -0.1448
  458MPD2    C5 6874   0.239   2.177  12.634 -0.2399  0.6906  0.4678
  458MPD2     H 6875   0.403   2.039  12.958  0.8305 -1.4255 -1.6773
  458MPD2    H1 6876   0.060   2.105  12.708 -0.7194  2.7529  0.3133
  458MPD2    H2 6877   0.437   2.236  12.575 -0.8736  2.8716  2.0578
  458MPD2    H3 6878   0.193   2.210  12.542  1.4602 -0.1694 -0.7011
  458MPD2     N 6879   0.159   2.011  12.954  1.2221 -0.1703 -0.2465
  458MPD2    H5 6880   0.210   1.963  13.028 -0.1447  0.9203  1.4135
  458MPD2    N1 6881   0.574   2.155  12.778 -0.7449 -0.4029  0.2440
  458MPD2    H7 6882   0.623   2.197  12.700  0.0252 -0.3976  0.7409
  459TMC3    C1 6883   0.790   2.128  12.865 -0.6330  0.0936 -0.4194
  459TMC3    C2 6884   0.831   2.229  12.776 -0.0541 -0.3768  0.1719
  459TMC3    C3 6885   0.959   2.278  12.794  0.3126  0.7770  0.4521
  459TMC3    C4 6886   0.871   2.083  12.965 -0.1916  0.6056 -0.0983
  459TMC3    C5 6887   1.001   2.130  12.968  0.4218  0.0653 -0.0985
  459TMC3    C6 6888   1.046   2.231  12.894 -0.1203 -0.1011 -0.5354
  459TMC3     C 6889   0.646   2.113  12.886 -0.6723  0.3154 -0.5123
  459TMC3     O 6890   0.611   2.079  13.000 -0.3073 -0.5495  0.7518
  459TMC3     H 6891   0.777   2.248  12.684 -0.2622 -1.7523  0.0068
  459TMC3    H1 6892   0.843   1.996  13.023 -1.3978  0.7345 -0.4914
  459TMC3    H2 6893   1.142   2.278  12.913 -0.2836 -0.4746  1.2469
  459TMC3    C7 6894   1.086   2.072  13.073  0.0691  0.1565  0.0235
  459TMC3    C8 6895   1.003   2.384  12.706 -0.0257 -0.6989 -0.6103
  459TMC3    O1 6896   1.080   1.948  13.082  0.5588 -0.2669 -0.3376
  459TMC3    O2 6897   1.113   2.430  12.738  0.8572  0.2748 -0.1223
  460MPD2     C 6898   0.149   0.630  10.911  0.4959  0.8215 -0.0248
  460MPD2    C1 6899   0.105   0.516  10.848  0.3954 -0.1392  0.8026
  460MPD2    C2 6900   0.001   0.522  10.756 -0.3118  0.0210 -0.3098
  460MPD2    C3 6901   4.665   0.639  10.729 -0.2375 -0.2720 -0.3185
  460MPD2    C4 6902   4.702   0.746  10.809 -0.4520  1.0023  0.1601
  460MPD2    C5 6903   0.070   0.741  10.895 -0.0779  0.0239 -0.2146
  460MPD2     H 6904   4.717   0.425  10.711 -0.0465 -2.0296  4.0292
  460MPD2    H1 6905   4.645   0.838  10.813  1.8402  2.3463  1.6364
  460MPD2    H2 6906   0.240   0.616  10.967  0.4613 -0.3460 -0.2626
  460MPD2    H3 6907   0.094   0.840  10.931  1.5305 -1.5548  3.0394
  460MPD2     N 6908   4.558   0.644  10.643  0.1972 -0.4569  0.4663
  460MPD2    H5 6909   4.545   0.554  10.597  0.3956 -1.1229  1.7180
  460MPD2    N1 6910   0.176   0.397  10.886  0.4371 -0.2077  0.1343
  460MPD2    H7 6911   0.249   0.410  10.955 -0.4156 -0.3210  1.0458
  461TMC3    C1 6912   4.373   0.726  10.514 -0.2584 -0.0495 -0.3958
  461TMC3    C2 6913   4.319   0.601  10.490 -0.6113  0.0911  0.1796
  461TMC3    C3 6914   4.249   0.584  10.375  0.2276 -0.1952 -0.2092
  461TMC3    C4 6915   4.352   0.830  10.426 -0.4703 -0.1138 -0.6943
  461TMC3    C5 6916   4.279   0.803  10.313  0.4318  0.0133 -0.0663
  461TMC3    C6 6917   4.226   0.683  10.284  0.1607  0.1611  0.2166
  461TMC3     C 6918   4.480   0.752  10.612 -0.1839 -0.0301  0.5529
  461TMC3     O 6919   4.496   0.869  10.645 -0.3872 -0.0431  0.0292
  461TMC3     H 6920   4.330   0.517  10.558 -0.2059 -0.5932 -0.7268
  461TMC3    H1 6921   4.391   0.928  10.450 -0.3959 -0.9049  2.3605
  461TMC3    H2 6922   4.158   0.671  10.200 -0.5527  2.9026  0.4131
  461TMC3    C7 6923   4.248   0.911  10.221  0.2602 -0.4699 -0.3021
  461TMC3    C8 6924   4.206   0.449  10.338  0.2518  0.0090 -0.7328
  461TMC3    O1 6925   4.161   0.891  10.137 -0.2778  0.2062 -0.1986
  461TMC3    O2 6926   4.122   0.442  10.249  0.2794  0.0431 -0.1377
  462TMC3    C1 6927   4.279   1.022   0.128  0.1788  0.5892 -0.1873
  462TMC3    C2 6928   4.392   0.972   0.067 -0.6162  0.5286  0.2107
  462TMC3    C3 6929   4.414   0.839   0.084  0.3246  0.2010  0.2197
  462TMC3    C4 6930   4.200   0.947   0.214 -0.1405 -0.2385  0.2426
  462TMC3    C5 6931   4.240   0.821   0.244  0.5621 -0.4205  0.3214
  462TMC3    C6 6932   4.350   0.770   0.183  0.7443 -0.4124 -0.1047
  462TMC3     C 6933   4.211   1.132   0.072 -0.1647  0.0564 -0.0072
  462TMC3     O 6934   4.089   1.135   0.097 -0.2721 -0.0326  0.1345
  462TMC3     H 6935   4.456   1.033   0.004  1.0728  0.5381  1.8946
  462TMC3    H1 6936   4.111   0.989   0.260  0.7867  0.9283  0.9517
  462TMC3    H2 6937   4.369   0.663   0.188  0.6913 -0.3340  1.6167
  462TMC3    C7 6938   4.141   0.712   0.240 -0.5103 -0.3147 -0.0200
  462TMC3    C8 6939   4.473   0.765  17.714  0.6556  0.6691  0.4982
  462TMC3    O1 6940   4.174   0.597   0.239  0.3287 -0.5051 -0.1751
  462TMC3    O2 6941   4.452   0.818  17.607 -0.8738 -0.7793 -0.6337
  463MPD2     C 6942   0.561   4.481   1.566  0.1516 -0.4263  0.8932
  463MPD2    C1 6943   0.441   4.557   1.568  0.0785  0.4472 -0.7484
  463MPD2    C2 6944   0.441   4.681   1.636 -0.0664  0.0816 -0.1582
  463MPD2    C3 6945   0.558   4.728   1.688 -0.1893  0.2425  0.6343
  463MPD2    C4 6946   0.675   4.658   1.672  0.0615  0.1001 -0.2784
  463MPD2    C5 6947   0.674   4.535   1.615 -0.2781  0.0680 -0.6021
  463MPD2     H 6948   0.355   0.010   1.635 -0.9483 -1.0441  0.7800
  463MPD2    H1 6949   0.765   4.697   1.718 -1.0119 -0.5940  2.3575
  463MPD2    H2 6950   0.561   4.380   1.527  0.8644  0.3645 -1.1524
  463MPD2    H3 6951   0.768   4.483   1.601 -0.5767 -0.7122  0.3037
  463MPD2     N 6952   0.565   0.114   1.758 -0.1557 -0.4460  0.2682
  463MPD2    H5 6953   0.656   0.157   1.768  0.1526 -1.1155  0.2817
  463MPD2    N1 6954   0.322   4.519   1.509  0.4072  0.4520 -0.2197
  463MPD2    H7 6955   0.251   4.591   1.511 -0.3651 -0.3403  0.8031
  464TMC3    C1 6956   0.172   4.381   1.383 -0.2662 -0.5085  0.4542
  464TMC3    C2 6957   0.102   4.488   1.341 -0.0356  0.2949  0.4171
  464TMC3    C3 6958   4.721   4.459   1.273  1.2850 -0.4845  0.0999
  464TMC3    C4 6959   0.130   4.253   1.362  0.0651  0.0896 -0.0551
  464TMC3    C5 6960   0.008   4.229   1.304  0.1922  0.0681  0.1485
  464TMC3    C6 6961   4.668   4.336   1.254  0.6347 -0.6603  0.8914
  464TMC3     C 6962   0.294   4.396   1.464  0.4838 -0.4043  0.4126
  464TMC3     O 6963   0.361   4.295   1.476 -0.5435 -0.1947 -0.2771
  464TMC3     H 6964   0.143   4.588   1.351  0.3505 -0.0001  1.7934
  464TMC3    H1 6965   0.182   4.168   1.405  2.0795  1.5787  0.4700
  464TMC3    H2 6966   4.574   4.317   1.203  0.8159 -1.9906  1.0396
  464TMC3    C7 6967   4.671   4.110   1.332 -0.0648  0.2534  0.9312
  464TMC3    C8 6968   4.639   4.569   1.229 -0.5289  0.1215 -0.2263
  464TMC3    O1 6969   4.716   4.037   1.419 -0.0148  0.6157 -1.3896
  464TMC3    O2 6970   4.574   4.549   1.130  0.0633 -0.3009 -0.1379
  465MPD2     C 6971   2.583   2.586  16.554  0.5113  0.1383  0.2778
  465MPD2    C1 6972   2.508   2.649  16.657 -0.6123 -0.0214  1.1499
  465MPD2    C2 6973   2.406   2.733  16.621  1.2432  0.3475 -0.8522
  465MPD2    C3 6974   2.368   2.750  16.487  0.8142  0.2937  0.1456
  465MPD2    C4 6975   2.448   2.697  16.392 -0.0723 -0.1274 -0.3793
  465MPD2    C5 6976   2.556   2.616  16.424  0.3204  0.5079  0.5671
  465MPD2     H 6977   2.348   2.791  16.693  0.7867  0.0714 -1.0017
  465MPD2    H1 6978   2.427   2.703  16.285 -0.6907  0.0500 -0.2517
  465MPD2    H2 6979   2.665   2.520  16.579  0.8088 -0.3758 -2.0506
  465MPD2    H3 6980   2.611   2.578  16.339 -0.3804 -0.3728  0.5065
  465MPD2     N 6981   2.252   2.827  16.458  0.0142  0.1186 -0.1283
  465MPD2    H5 6982   2.206   2.858  16.543  1.1536 -0.3517  0.6575
  465MPD2    N1 6983   2.538   2.631  16.790 -0.2680 -0.2948  0.5067
  465MPD2    H7 6984   2.466   2.664  16.853 -1.0191  1.1619 -1.1076
  466TMC3    C1 6985   1.887   2.960  16.481 -0.1321  0.4121  0.0122
  466TMC3    C2 6986   1.866   3.082  16.423 -0.2267  0.6398 -0.3589
  466TMC3    C3 6987   1.963   3.123  16.328  0.4086  0.2216 -0.0295
  466TMC3    C4 6988   1.997   2.887  16.445  0.2356 -0.3645  0.0461
  466TMC3    C5 6989   2.087   2.936  16.352  0.1093 -0.9595 -0.7101
  466TMC3    C6 6990   2.066   3.048  16.281  0.1612 -0.1827 -0.1194
  466TMC3     C 6991   1.859   2.956  16.625 -0.8523  1.1195 -1.0285
  466TMC3     O 6992   1.928   2.875  16.684  0.2292 -0.1629  0.5208
  466TMC3     H 6993   1.778   3.143  16.440 -0.8608  0.4619 -2.9873
  466TMC3    H1 6994   2.018   2.794  16.497 -1.3563 -0.7696 -0.0362
  466TMC3    H2 6995   2.145   3.099  16.228 -0.2635 -0.1330 -0.7024
  466TMC3    C7 6996   2.212   2.871  16.338  0.4916 -0.0020  0.1213
  466TMC3    C8 6997   1.961   3.265  16.294 -0.1315  0.1426  0.2053
  466TMC3    O1 6998   2.284   2.891  16.240 -0.0462  0.1670 -0.0062
  466TMC3    O2 6999   2.025   3.301  16.199 -0.9948  0.0121 -0.8512
  467TMC3    C1 7000   3.170   1.517  13.822  0.1029  0.4454 -0.0799
  467TMC3    C2 7001   3.093   1.630  13.804 -0.1976 -0.0624 -0.0020
  467TMC3    C3 7002   2.964   1.623  13.840  0.0881  0.5229 -0.2777
  467TMC3    C4 7003   3.107   1.405  13.865  0.0009 -0.0102 -0.0676
  467TMC3    C5 7004   2.977   1.400  13.906 -0.3242 -0.7817 -0.2991
  467TMC3    C6 7005   2.898   1.511  13.878  0.1612  0.4373  0.3755
  467TMC3     C 7006   3.309   1.535  13.809  0.2439  0.0680 -0.2009
  467TMC3     O 7007   3.338   1.654  13.819 -0.0296  0.3506  0.6217
  467TMC3     H 7008   3.136   1.726  13.776  1.2960 -0.9828 -0.8621
  467TMC3    H1 7009   3.164   1.314  13.882  0.7361  0.1691 -1.5897
  467TMC3    H2 7010   2.793   1.526  13.900  0.1032  0.0623  0.3431
  467TMC3    C7 7011   2.973   1.357  14.045  0.5684 -0.6573 -0.0622
  467TMC3    C8 7012   2.887   1.735  13.799  0.7076 -0.3042  0.1408
  467TMC3    O1 7013   3.077   1.355  14.108 -0.4797 -0.3278  0.7315
  467TMC3    O2 7014   2.934   1.847  13.818 -0.0779 -0.3161  0.0233
  468MPD2     C 7015   1.666   0.217  10.587  0.2192 -0.3008  0.1065
  468MPD2    C1 7016   1.785   0.191  10.651  1.0282 -0.1363 -0.0687
  468MPD2    C2 7017   1.830   0.062  10.639 -0.1349  0.0306 -0.4801
  468MPD2    C3 7018   1.737   4.695  10.607 -0.2724  0.5607 -1.1962
  468MPD2    C4 7019   1.618   4.727  10.552  0.2178 -0.0939  0.6133
  468MPD2    C5 7020   1.589   0.119  10.537 -0.0608 -0.0897  0.4028
  468MPD2     H 7021   1.926   0.035  10.682 -1.2376 -2.6493  0.2919
  468MPD2    H1 7022   1.542   4.656  10.520  1.2627 -0.5079 -0.9930
  468MPD2    H2 7023   1.625   0.317  10.590  0.7926 -0.0885  1.1119
  468MPD2    H3 7024   1.491   0.149  10.502 -0.1595 -1.8707 -0.8227
  468MPD2     N 7025   1.771   4.557  10.624 -0.1434  0.0780  0.1170
  468MPD2    H5 7026   1.699   4.487  10.614 -1.0786  0.9519  0.7264
  468MPD2    N1 7027   1.868   0.296  10.711  0.1090 -0.4248 -0.2055
  468MPD2    H7 7028   1.955   0.258  10.746 -0.6336 -0.7975  1.2102
  469TMC3    C1 7029   1.926   0.489  10.835 -0.4507 -0.5542 -0.2518
  469TMC3    C2 7030   2.049   0.438  10.867 -0.3444 -0.3329 -0.2452
  469TMC3    C3 7031   2.118   0.490  10.970  0.4455  0.8416 -0.5256
  469TMC3    C4 7032   1.872   0.588  10.905 -0.4883  0.4668  0.4823
  469TMC3    C5 7033   1.936   0.629  11.023  0.3764  0.2275 -0.0152
  469TMC3    C6 7034   2.060   0.578  11.057 -0.6177 -0.8141  0.7229
  469TMC3     C 7035   1.837   0.430  10.731  0.6682  0.4484  0.3523
  469TMC3     O 7036   1.740   0.484  10.686  0.8107  0.2699  0.1364
  469TMC3     H 7037   2.101   0.382  10.789 -0.4203 -2.7879  1.4605
  469TMC3    H1 7038   1.773   0.623  10.877  1.0088  3.5072 -0.9565
  469TMC3    H2 7039   2.121   0.623  11.135  2.5602  0.5246 -2.5233
  469TMC3    C7 7040   1.860   0.716  11.116 -0.4727 -1.0216 -0.0797
  469TMC3    C8 7041   2.248   0.441  10.997  0.3524 -0.3333 -0.2067
  469TMC3    O1 7042   1.748   0.741  11.074 -0.2009 -0.4205  0.5142
  469TMC3    O2 7043   2.304   0.387  10.903 -0.3298  0.1836  0.7136
  470TMC3    C1 7044   3.553   0.270   0.434 -0.2529 -0.2098  0.8570
  470TMC3    C2 7045   3.605   0.348   0.542  0.3338  0.2804 -0.1255
  470TMC3    C3 7046   3.515   0.431   0.599  0.3373 -0.7056 -1.0586
  470TMC3    C4 7047   3.432   0.297   0.384 -0.4143 -0.3544 -0.2398
  470TMC3    C5 7048   3.342   0.375   0.454  1.3279  0.6284 -0.3591
  470TMC3    C6 7049   3.392   0.456   0.548  0.2276  0.0705  0.2909
  470TMC3     C 7050   3.597   0.129   0.403  0.2501 -0.3457  0.4186
  470TMC3     O 7051   3.551   0.079   0.297 -0.1378 -0.4904 -0.2179
  470TMC3     H 7052   3.704   0.331   0.583  0.0204 -0.9538  0.1074
  470TMC3    H1 7053   3.381   0.237   0.309  0.6222  1.8416 -2.6734
  470TMC3    H2 7054   3.331   0.541   0.577  1.1726  0.9326 -0.2605
  470TMC3    C7 7055   3.210   0.411   0.401 -0.4310  0.9782  0.2772
  470TMC3    C8 7056   3.570   0.547   0.655 -0.9204 -0.0382  0.2561
  470TMC3    O1 7057   3.195   0.399   0.280  0.0756 -0.2245 -0.5031
  470TMC3    O2 7058   3.500   0.611   0.731 -0.4377 -0.1284 -0.1838
  471MPD2     C 7059   4.346   1.614  16.777 -0.2665  0.2898  0.3708
  471MPD2    C1 7060   4.464   1.613  16.843 -0.1381 -0.2623 -1.2077
  471MPD2    C2 7061   4.466   1.560  16.973 -0.0914 -0.6959 -0.1307
  471MPD2    C3 7062   4.345   1.536  17.035 -0.2295  0.0082  0.4863
  471MPD2    C4 7063   4.228   1.525  16.965  0.1927  0.1157  0.3723
  471MPD2    C5 7064   4.233   1.560  16.832 -0.4656 -0.1985 -0.7399
  471MPD2     H 7065   4.562   1.551  17.023  1.0190  0.8943 -1.9309
  471MPD2    H1 7066   4.142   1.474  17.006 -1.4091  1.3667 -1.3664
  471MPD2    H2 7067   4.332   1.661  16.680  2.0656  1.0082  0.3814
  471MPD2    H3 7068   4.137   1.569  16.783 -0.1737 -1.3790 -1.5172
  471MPD2     N 7069   4.344   1.485  17.165  0.7650  0.6711  0.2083
  471MPD2    H5 7070   4.251   1.457  17.196  1.4893 -2.6370 -0.6191
  471MPD2    N1 7071   4.587   1.655  16.792 -0.7528 -0.0180  0.1330
  471MPD2    H7 7072   4.673   1.648  16.847  0.0083  0.0423 -1.0364
  472TMC3    C1 7073   0.012   1.680  16.629 -0.4034 -0.0332 -0.0338
  472TMC3    C2 7074   0.027   1.732  16.503  0.0810  0.0941  0.7936
  472TMC3    C3 7075   0.102   1.658  16.413  0.7533  0.3827  0.5976
  472TMC3    C4 7076   0.075   1.570  16.679  0.2643 -1.0153 -0.1210
  472TMC3    C5 7077   0.130   1.489  16.584 -0.0160 -0.0199 -0.4219
  472TMC3    C6 7078   0.146   1.533  16.455 -0.2575  0.1976 -0.0819
  472TMC3     C 7079   4.611   1.678  16.659  0.5276 -0.5803  0.4896
  472TMC3     O 7080   4.536   1.691  16.567 -0.0823 -0.7991 -0.4403
  472TMC3     H 7081   4.722   1.828  16.476 -1.3672 -0.6282  0.5064
  472TMC3    H1 7082   0.042   1.525  16.772  0.3693  0.0081  0.4049
  472TMC3    H2 7083   0.204   1.467  16.391  0.2899  0.7040 -0.1087
  472TMC3    C7 7084   0.057   1.369  16.591  0.1770  0.1667 -0.3102
  472TMC3    C8 7085   0.038   1.634  16.290 -0.3295 -1.1042 -0.2801
  472TMC3    O1 7086   0.039   1.320  16.704 -0.5683 -0.5629  0.8028
  472TMC3    O2 7087   0.102   1.573  16.206  0.8006  0.2531  0.4624
  473MPD2     C 7088   4.677   3.636  13.742 -1.3745 -0.1680  0.1809
  473MPD2    C1 7089   4.577   3.730  13.711 -0.4175  0.9751 -0.5539
  473MPD2    C2 7090   4.593   3.850  13.772 -0.4145 -0.2816  0.8374
  473MPD2    C3 7091   4.689   3.880  13.872 -0.5494 -0.3174  0.1409
  473MPD2    C4 7092   0.023   3.771  13.924  0.2944 -0.1803  0.0438
  473MPD2    C5 7093   0.021   3.650  13.854  0.6478 -0.5387 -0.3325
  473MPD2     H 7094   4.531   3.935  13.747  1.5357  0.7193 -0.5978
  473MPD2    H1 7095   0.094   3.771  14.005  1.2938 -0.4048 -0.8355
  473MPD2    H2 7096   4.679   3.540  13.692 -3.3721 -1.0373  1.7805
  473MPD2    H3 7097   0.071   3.557  13.880  0.0484 -1.0224 -0.9286
  473MPD2     N 7098   4.703   4.010  13.924 -0.2747 -0.6801 -0.2260
  473MPD2    H5 7099   0.024   4.023  14.006 -0.0512 -2.1171 -0.1678
  473MPD2    N1 7100   4.473   3.710  13.615 -0.2473  0.0679  0.1715
  473MPD2    H7 7101   4.414   3.792  13.602 -0.5880  0.0760  1.8567
  474TMC3    C1 7102   4.660   4.234  13.973 -0.1803  0.9830 -0.9749
  474TMC3    C2 7103   4.577   4.334  13.951  0.4960  0.4574 -0.3275
  474TMC3    C3 7104   4.606   4.451  14.010 -0.5713  0.0286 -0.0976
  474TMC3    C4 7105   0.017   4.231  14.075  0.4290  0.1806  0.1144
  474TMC3    C5 7106   0.027   4.349  14.151 -0.0134 -0.2648  0.3326
  474TMC3    C6 7107   4.700   4.463  14.107 -0.0947 -0.6388 -0.5898
  474TMC3     C 7108   4.640   4.121  13.888  0.1895 -0.5404 -0.1292
  474TMC3     O 7109   4.572   4.143  13.786  0.6152 -0.2665  0.1352
  474TMC3     H 7110   4.506   4.331  13.869 -0.3213  0.1735  0.3912
  474TMC3    H1 7111   0.070   4.146  14.115  0.3944  0.0694 -0.0776
  474TMC3    H2 7112   4.730   4.558  14.148  1.3609 -1.5453  0.4667
  474TMC3    C7 7113   0.147   4.354  14.233 -0.3228 -0.8352 -0.6383
  474TMC3    C8 7114   4.514   4.555  13.976  0.0114 -0.3745  0.3418
  474TMC3    O1 7115   0.244   4.293  14.194  0.2656  0.0217 -0.0767
  474TMC3    O2 7116   4.399   4.508  13.961  0.4963  0.1710 -0.4091
  475MPD2     C 7117   1.967   2.727  11.463  0.9350  0.3163  0.0642
  475MPD2    C1 7118   2.012   2.820  11.370 -0.4342 -1.1266  0.0028
  475MPD2    C2 7119   1.931   2.858  11.266 -0.5844  0.4533  0.1105
  475MPD2    C3 7120   1.803   2.801  11.246  0.0114  0.9031  0.2556
  475MPD2    C4 7121   1.758   2.707  11.341  0.2720 -0.2519  0.5906
  475MPD2    C5 7122   1.845   2.674  11.445  0.5293 -0.1276  0.4055
  475MPD2     H 7123   1.963   2.938  11.200  1.5452  0.8018  1.5814
  475MPD2    H1 7124   1.665   2.652  11.333 -0.8196  1.5965  0.4883
  475MPD2    H2 7125   2.022   2.689  11.548 -0.3712 -2.1994 -0.2138
  475MPD2    H3 7126   1.821   2.593  11.514 -1.7990  0.6429  0.4957
  475MPD2     N 7127   1.733   2.848  11.138 -0.8083  0.0091 -0.4504
  475MPD2    H5 7128   1.764   2.923  11.077 -0.3095 -0.5975 -0.9473
  475MPD2    N1 7129   2.124   2.906  11.390  0.3355  0.9976  0.4104
  475MPD2    H7 7130   2.130   2.981  11.323 -0.5337  2.1376  1.6161
  476TMC3    C1 7131   2.310   3.011  11.508  0.0436  0.0421 -0.6904
  476TMC3    C2 7132   2.323   3.089  11.398 -0.0560 -0.2939 -0.3921
  476TMC3    C3 7133   2.383   3.204  11.417 -0.7974 -0.3973 -0.0787
  476TMC3    C4 7134   2.358   3.049  11.630 -0.1296  0.1058  0.0719
  476TMC3    C5 7135   2.423   3.168  11.652 -0.2711 -0.1264  0.5525
  476TMC3    C6 7136   2.422   3.255  11.543  0.6083 -0.0082  1.2662
  476TMC3     C 7137   2.209   2.903  11.500 -0.6266  0.4061  0.3768
  476TMC3     O 7138   2.205   2.829  11.597 -0.2202  0.0008 -0.3869
  476TMC3     H 7139   2.274   3.058  11.307 -0.7491 -0.1660 -0.0588
  476TMC3    H1 7140   2.352   2.983  11.716  1.2928  1.0243  0.8609
  476TMC3    H2 7141   2.472   3.351  11.542 -1.2455  0.9662  0.6592
  476TMC3    C7 7142   2.561   3.143  11.700  0.2976 -0.3213  0.6434
  476TMC3    C8 7143   2.396   3.295  11.310 -0.4597 -0.3121 -0.3175
  476TMC3    O1 7144   2.595   3.027  11.694 -0.1511  0.0468  0.8977
  476TMC3    O2 7145   2.411   3.415  11.330  0.3873  0.3726  0.4337
  477MPD2     C 7146   0.886   4.333  11.836 -0.0328  0.4744 -1.1062
  477MPD2    C1 7147   0.834   4.224  11.768 -0.3884  0.2055 -0.2407
  477MPD2    C2 7148   0.815   4.111  11.840  0.5392 -0.2746 -0.3248
  477MPD2    C3 7149   0.846   4.093  11.974 -0.2612 -0.2598  0.0991
  477MPD2    C4 7150   0.904   4.207  12.044  0.4030 -0.2792  0.6614
  477MPD2    C5 7151   0.920   4.323  11.969  0.7722  0.1683  0.0424
  477MPD2     H 7152   0.781   4.023  11.786 -1.9390 -0.4082  1.4481
  477MPD2    H1 7153   0.935   4.202  12.148  0.4727 -1.1031  0.6031
  477MPD2    H2 7154   0.902   4.422  11.776 -3.8751  2.4543  0.8011
  477MPD2    H3 7155   0.985   4.400  12.010 -1.3951  1.5459  0.9400
  477MPD2     N 7156   0.822   3.963  12.029 -0.4048 -0.1963 -0.4466
  477MPD2    H5 7157   0.808   3.882  11.970 -2.5432 -0.8184  0.9091
  477MPD2    N1 7158   0.802   4.239  11.627  0.2552 -0.3851 -0.6144
  477MPD2    H7 7159   0.825   4.330  11.587  2.5918 -0.4963  0.4888
  478TMC3    C1 7160   0.677   4.207  11.426 -0.1056  0.2883 -0.3168
  478TMC3    C2 7161   0.630   4.337  11.425  0.7452  1.2743  0.5765
  478TMC3    C3 7162   0.537   4.356  11.330  0.0600 -0.6067 -0.2720
  478TMC3    C4 7163   0.628   4.111  11.338 -0.9416 -0.2481 -0.2520
  478TMC3    C5 7164   0.523   4.138  11.259 -0.4854 -0.2771  0.4421
  478TMC3    C6 7165   0.476   4.264  11.252  0.2137  0.2699 -0.2887
  478TMC3     C 7166   0.730   4.150  11.552 -0.2877 -1.2172 -0.1317
  478TMC3     O 7167   0.712   4.032  11.577  0.4343 -0.7269  0.1558
  478TMC3     H 7168   0.649   4.405  11.507  0.8495  0.4416  1.2403
  478TMC3    H1 7169   0.672   4.012  11.338 -0.3196  0.0296 -0.1293
  478TMC3    H2 7170   0.386   4.295  11.201 -1.6143 -2.0033  1.5637
  478TMC3    C7 7171   0.458   4.026  11.196  0.0574 -0.1406  0.2908
  478TMC3    C8 7172   0.449   4.467  11.362 -0.4688  0.1730  0.1253
  478TMC3    O1 7173   0.461   3.918  11.252  0.2610 -0.2810 -0.3808
  478TMC3    O2 7174   0.503   4.576  11.375 -0.1674  0.8183 -0.1346
  479MPD2     C 7175   4.134   1.188  15.470  0.0922  0.1086  0.1268
  479MPD2    C1 7176   4.086   1.094  15.559 -0.1431  0.7158 -0.3466
  479MPD2    C2 7177   4.107   1.113  15.697  0.4312 -0.2711 -0.4136
  479MPD2    C3 7178   4.176   1.221  15.743  0.4408  0.7418 -0.3216
  479MPD2    C4 7179   4.227   1.312  15.653  0.3459  0.4777  0.3309
  479MPD2    C5 7180   4.198   1.295  15.522 -0.0507 -0.3495 -1.0519
  479MPD2     H 7181   4.090   1.029  15.765  0.3265 -1.1445 -1.5201
  479MPD2    H1 7182   4.276   1.403  15.684 -3.5958  2.3690  1.0799
  479MPD2    H2 7183   4.116   1.180  15.363  0.7871  0.6048 -0.0263
  479MPD2    H3 7184   4.247   1.366  15.455 -0.4962 -0.6298 -1.6756
  479MPD2     N 7185   4.208   1.241  15.880  0.3979  0.3479  0.4081
  479MPD2    H5 7186   4.299   1.284  15.898  0.2803  0.0113  1.8184
  479MPD2    N1 7187   4.014   0.984  15.509  0.0515  0.3774  0.1997
  479MPD2    H7 7188   4.005   0.973  15.408 -1.0625 -2.9177  0.6875
  480TMC3    C1 7189   3.837   1.022  16.087 -0.4977  0.1893  0.6861
  480TMC3    C2 7190   3.736   1.091  16.023  0.6677  0.1889 -0.3769
  480TMC3    C3 7191   3.777   1.177  15.925 -0.4676  0.2932 -0.1500
  480TMC3    C4 7192   3.966   1.054  16.079 -0.2731  0.1839  0.8597
  480TMC3    C5 7193   4.006   1.146  15.982 -0.5630 -0.0770 -0.3456
  480TMC3    C6 7194   3.912   1.206  15.903  0.2285 -0.5364 -0.6040
  480TMC3     C 7195   3.799   0.893  16.146 -0.0488 -0.3070 -0.0421
  480TMC3     O 7196   3.891   0.852  16.212 -0.1613  0.5845 -0.0908
  480TMC3     H 7197   3.634   1.062  16.043  1.4236 -2.4184 -0.3270
  480TMC3    H1 7198   4.038   0.980  16.113 -1.1975 -1.2739 -0.3114
  480TMC3    H2 7199   3.944   1.284  15.836  1.7762 -1.0278 -0.4455
  480TMC3    C7 7200   4.147   1.177  15.992 -0.4895 -0.3579 -0.0279
  480TMC3    C8 7201   3.683   1.194  15.810 -0.0945 -0.5857 -0.7159
  480TMC3    O1 7202   4.190   1.181  16.105 -0.0895 -0.1995 -0.0621
  480TMC3    O2 7203   3.567   1.144  15.810 -0.3086  0.1895 -0.3665
  481MPD2     C 7204   1.535   0.729  13.927 -0.5564  0.1306 -0.2998
  481MPD2    C1 7205   1.417   0.750  13.995  0.7166 -0.4989 -1.0822
  481MPD2    C2 7206   1.367   0.657  14.081  0.2095 -0.3036 -0.3308
  481MPD2    C3 7207   1.424   0.534  14.096 -0.4635  0.3593 -0.1734
  481MPD2    C4 7208   1.538   0.513  14.027 -0.5273  0.5581  0.6038
  481MPD2    C5 7209   1.596   0.606  13.945 -0.8155 -0.5591  0.2392
  481MPD2     H 7210   1.283   0.681  14.145  1.3443 -0.4844  1.2319
  481MPD2    H1 7211   1.592   0.419  14.029 -1.9675 -0.2608  0.5500
  481MPD2    H2 7212   1.584   0.791  13.853 -3.7357  0.6753 -1.9167
  481MPD2    H3 7213   1.685   0.588  13.886 -0.9635  0.6699 -0.3599
  481MPD2     N 7214   1.371   0.425  14.171  0.3794  0.3673 -0.3788
  481MPD2    H5 7215   1.425   0.339  14.180  0.0436  0.2801  0.7804
  481MPD2    N1 7216   1.363   0.877  13.967 -0.3124  0.6203  0.4473
  481MPD2    H7 7217   1.406   0.918  13.885  2.7758 -1.3682  1.0720
  482TMC3    C1 7218   1.177   1.023  13.940 -0.4846  0.2282  0.4889
  482TMC3    C2 7219   1.054   0.978  13.907 -0.1924 -0.4043 -0.4967
  482TMC3    C3 7220   1.010   1.019  13.787  0.3111  0.1545  0.2322
  482TMC3    C4 7221   1.255   1.094  13.863  0.0131 -0.4777 -0.0036
  482TMC3    C5 7222   1.207   1.135  13.739 -0.0238 -0.4594  0.3864
  482TMC3    C6 7223   1.085   1.091  13.700  0.3551  0.0973 -1.1639
  482TMC3     C 7224   1.250   0.928  14.026 -0.1657  0.4685 -0.1154
  482TMC3     O 7225   1.193   0.896  14.128  0.6376  1.1978  0.1121
  482TMC3     H 7226   1.007   0.898  13.962 -2.0706  1.6094  0.8415
  482TMC3    H1 7227   1.350   1.131  13.898 -0.5688  0.9591  0.0370
  482TMC3    H2 7228   1.047   1.094  13.599  2.5788 -2.4681 -2.0668
  482TMC3    C7 7229   1.284   1.221  13.656  0.0451 -1.2068  0.0659
  482TMC3    C8 7230   0.876   0.980  13.750 -0.5565 -1.0906  0.0710
  482TMC3    O1 7231   1.404   1.238  13.680 -0.2717 -0.1348  0.6515
  482TMC3    O2 7232   0.826   0.899  13.825  0.0250 -0.2130 -0.2077
  483TMC3    C1 7233   4.046   4.602   1.137  0.0265  0.6719 -0.8336
  483TMC3    C2 7234   4.064   4.637   1.001  0.8998 -0.6424  0.6537
  483TMC3    C3 7235   4.182   4.599   0.945  0.7437  0.3516  0.6101
  483TMC3    C4 7236   4.152   4.555   1.213 -0.1505 -0.0057  0.5258
  483TMC3    C5 7237   4.270   4.517   1.153  0.3005  0.0616  0.7264
  483TMC3    C6 7238   4.281   4.535   1.016 -0.4311 -0.2826 -0.0909
  483TMC3     C 7239   3.911   4.551   1.165 -0.1075  0.0939 -0.2037
  483TMC3     O 7240   3.862   4.562   1.279 -0.3130 -0.5892 -0.1683
  483TMC3     H 7241   3.975   4.662   0.945  0.8496 -1.0253  0.5594
  483TMC3    H1 7242   4.140   4.519   1.315 -1.8217 -0.3043  0.2248
  483TMC3    H2 7243   4.374   4.513   0.964 -0.8959 -1.3950 -0.4392
  483TMC3    C7 7244   4.302   4.375   1.177  0.5574  0.0601 -0.3131
  483TMC3    C8 7245   4.174   4.601   0.797  0.1488  0.1155  0.2081
  483TMC3    O1 7246   4.332   4.307   1.078 -0.1333 -0.1524  0.0279
  483TMC3    O2 7247   4.078   4.657   0.747  0.8849 -0.2760  0.3013
  484MPD2     C 7248   0.852   2.573  12.427  0.6593 -0.4105 -0.2969
  484MPD2    C1 7249   0.949   2.508  12.498  0.7483 -0.3073  0.5041
  484MPD2    C2 7250   1.081   2.516  12.454 -0.2748  0.2996  0.0303
  484MPD2    C3 7251   1.119   2.589  12.339 -0.8644  0.1686  0.4459
  484MPD2    C4 7252   1.019   2.662  12.275  0.5012  0.8977 -0.7486
  484MPD2    C5 7253   0.888   2.643  12.314 -0.5129  0.1462 -0.1506
  484MPD2     H 7254   1.156   2.465  12.513 -0.7991 -1.8879 -1.1792
  484MPD2    H1 7255   1.042   2.719  12.185  1.6804  1.8113  0.1282
  484MPD2    H2 7256   0.746   2.567  12.447  0.7971 -0.6639  0.3802
  484MPD2    H3 7257   0.803   2.688  12.264 -0.4601  0.8714  0.4092
  484MPD2     N 7258   1.245   2.587  12.282 -0.2760  0.5684 -0.0208
  484MPD2    H5 7259   1.256   2.640  12.195 -0.5505 -2.7327 -2.0800
  484MPD2    N1 7260   0.913   2.432  12.614  0.0016  0.0939 -0.3347
  484MPD2    H7 7261   0.813   2.413  12.621 -0.1470  0.1696 -2.2557
  485TMC3    C1 7262   1.444   2.494  12.225 -0.7160  0.4040 -0.0199
  485TMC3    C2 7263   1.498   2.370  12.219  0.3695 -0.0224 -0.1264
  485TMC3    C3 7264   1.614   2.348  12.143 -0.2850  0.7562 -0.0103
  485TMC3    C4 7265   1.507   2.605  12.179  0.1024 -0.9987 -0.3419
  485TMC3    C5 7266   1.626   2.582  12.112  0.0419 -0.0475 -0.0254
  485TMC3    C6 7267   1.669   2.457  12.082 -0.5318 -0.1279  0.2179
  485TMC3     C 7268   1.347   2.514  12.326  0.0913  0.2024 -0.2935
  485TMC3     O 7269   1.361   2.449  12.427 -0.4754  0.6172  0.1882
  485TMC3     H 7270   1.463   2.298  12.292  0.1218 -0.0471 -0.2683
  485TMC3    H1 7271   1.474   2.707  12.197  0.3867 -1.1373  0.9440
  485TMC3    H2 7272   1.757   2.433  12.022  0.3735  0.2336  1.4055
  485TMC3    C7 7273   1.731   2.682  12.135  0.1684  0.2950  0.3395
  485TMC3    C8 7274   1.718   2.280  12.216  0.4763  0.4658 -0.4249
  485TMC3    O1 7275   1.709   2.795  12.174 -0.1742 -0.2886  0.1160
  485TMC3    O2 7276   1.831   2.319  12.205 -0.0489  0.2941 -0.0464
  486MPD2     C 7277   4.064   1.285  13.023  0.2547 -0.0428 -0.6326
  486MPD2    C1 7278   4.008   1.266  12.899  0.1665 -0.3476  0.4393
  486MPD2    C2 7279   3.899   1.341  12.862  0.4918 -0.0441  0.2366
  486MPD2    C3 7280   3.843   1.428  12.944  0.2673 -0.9371 -1.1726
  486MPD2    C4 7281   3.907   1.444  13.071 -0.0269  0.5003  0.4252
  486MPD2    C5 7282   4.010   1.365  13.112  0.2010  0.7532 -0.7360
  486MPD2     H 7283   3.863   1.333  12.760 -0.0485 -0.4270  0.4532
  486MPD2    H1 7284   3.866   1.501  13.153  0.0355  4.0898 -2.0398
  486MPD2    H2 7285   4.147   1.222  13.054  0.0120  0.0261  0.1620
  486MPD2    H3 7286   4.049   1.376  13.213  1.7688  2.9922 -1.5717
  486MPD2     N 7287   3.722   1.497  12.928 -0.4655  0.0609 -0.3286
  486MPD2    H5 7288   3.706   1.559  13.006  0.6892  0.4499 -0.4081
  486MPD2    N1 7289   4.063   1.162  12.827 -0.2480  0.8137  0.2880
  486MPD2    H7 7290   4.120   1.101  12.884  2.1417  2.0407 -0.7627
  487TMC3    C1 7291   4.072   0.961  12.712  0.1350  0.6786 -0.5464
  487TMC3    C2 7292   3.979   0.860  12.689  0.4168 -0.2937 -0.1207
  487TMC3    C3 7293   4.011   0.734  12.737  0.4560 -0.0639 -0.7195
  487TMC3    C4 7294   4.186   0.940  12.783  0.5058  0.1520 -0.3489
  487TMC3    C5 7295   4.203   0.818  12.842  0.0618 -0.2739  0.5474
  487TMC3    C6 7296   4.134   0.712  12.794  0.0174  0.3118 -0.3375
  487TMC3     C 7297   4.008   1.090  12.728 -0.2669 -0.4340 -0.5735
  487TMC3     O 7298   3.896   1.109  12.681 -0.2448  0.4205  0.1471
  487TMC3     H 7299   3.887   0.880  12.637  1.3068 -1.4197 -2.1246
  487TMC3    H1 7300   4.242   1.028  12.810 -1.4905  1.1323  0.6587
  487TMC3    H2 7301   4.161   0.617  12.838 -1.1537  0.7835  1.4273
  487TMC3    C7 7302   4.209   0.832  12.988 -0.1305  0.2086 -0.0934
  487TMC3    C8 7303   3.903   0.669  12.812  0.7213  0.2358 -0.3095
  487TMC3    O1 7304   4.232   0.949  13.033  1.5330  0.9286 -0.7896
  487TMC3    O2 7305   3.944   0.595  12.903  0.0966  0.3096  0.1472
  488MPD2     C 7306   4.400   2.819  16.245 -0.6889 -0.3055 -0.5212
  488MPD2    C1 7307   4.278   2.892  16.242  0.2915  0.1323  0.0650
  488MPD2    C2 7308   4.167   2.853  16.319  0.3606 -0.0663  0.0798
  488MPD2    C3 7309   4.179   2.744  16.395 -0.6356 -0.6441 -1.1012
  488MPD2    C4 7310   4.297   2.678  16.406  0.0226  0.0627 -0.9613
  488MPD2    C5 7311   4.402   2.706  16.329  0.0467  0.3348 -0.0061
  488MPD2     H 7312   4.080   2.917  16.327  1.0798  0.8749  0.3564
  488MPD2    H1 7313   4.311   2.590  16.466 -2.7446 -0.3011 -0.8641
  488MPD2    H2 7314   4.491   2.845  16.194 -0.7368 -0.9509 -0.9378
  488MPD2    H3 7315   4.491   2.645  16.337 -0.7809 -0.8802 -0.0623
  488MPD2     N 7316   4.062   2.700  16.454 -0.3217  0.0391 -0.3581
  488MPD2    H5 7317   3.972   2.741  16.430 -1.1947 -1.8211 -0.2879
  488MPD2    N1 7318   4.251   3.004  16.162 -0.3240  0.4270  0.3326
  488MPD2    H7 7319   4.162   3.053  16.164 -0.6968 -0.2615  0.3306
  489TMC3    C1 7320   3.908   2.573  16.550  0.5206 -0.0105 -0.5547
  489TMC3    C2 7321   3.831   2.613  16.450 -0.0522  0.4025  0.2141
  489TMC3    C3 7322   3.732   2.691  16.480  0.2965  0.0389 -0.5927
  489TMC3    C4 7323   3.863   2.559  16.681  0.0075  0.2673  0.3948
  489TMC3    C5 7324   3.735   2.614  16.704  0.4236 -0.2669  0.7281
  489TMC3    C6 7325   3.685   2.698  16.610 -0.4834  0.2496  0.1289
  489TMC3     C 7326   4.048   2.594  16.536 -0.7988  0.5459 -0.8081
  489TMC3     O 7327   4.125   2.513  16.590  0.1506  0.3096 -0.3171
  489TMC3     H 7328   3.863   2.626  16.347  1.1264  0.2579  0.5681
  489TMC3    H1 7329   3.934   2.530  16.758  1.2721 -1.7964 -1.5294
  489TMC3    H2 7330   3.599   2.762  16.631 -0.6563  0.4509 -1.1713
  489TMC3    C7 7331   3.661   2.597  16.833  0.2213  0.2587  0.1400
  489TMC3    C8 7332   3.736   2.817  16.405 -0.0676  0.1408 -0.4305
  489TMC3    O1 7333   3.545   2.629  16.844  0.3415  0.4152 -0.3230
  489TMC3    O2 7334   3.845   2.854  16.360  0.0930 -0.1468 -0.1811
  490MPD2     C 7335   4.616   2.361   0.273 -0.4408 -0.3648 -0.2599
  490MPD2    C1 7336   4.598   2.351   0.135  0.2517 -0.7188  0.1983
  490MPD2    C2 7337   4.607   2.461   0.050  0.0381 -0.5927 -0.4659
  490MPD2    C3 7338   4.624   2.583   0.111  1.2911 -0.1083 -0.3033
  490MPD2    C4 7339   4.641   2.596   0.243 -0.3129 -0.1694  0.1532
  490MPD2    C5 7340   4.637   2.484   0.324 -0.1718 -0.3151  0.3532
  490MPD2     H 7341   4.595   2.447  17.690 -0.9667 -0.3269 -0.3877
  490MPD2    H1 7342   4.661   2.693   0.288  1.0458 -0.2105 -0.3498
  490MPD2    H2 7343   4.611   2.284   0.349  1.6512  0.8924  1.1428
  490MPD2    H3 7344   4.653   2.483   0.431  0.0271  1.8406  0.3437
  490MPD2     N 7345   4.641   2.704   0.030 -0.2331 -0.0792 -0.0423
  490MPD2    H5 7346   4.696   2.778   0.072  1.1175 -0.6365 -0.8319
  490MPD2    N1 7347   4.562   2.229   0.072  0.2295  0.5247 -0.1644
  490MPD2    H7 7348   4.532   2.239  17.722 -1.4652  2.2788  0.5291
  491TMC3    C1 7349   4.575   1.999   0.023 -0.1929  1.4740 -0.5130
  491TMC3    C2 7350   4.594   1.878   0.080 -0.5592  0.0201  0.3198
  491TMC3    C3 7351   4.622   1.778  17.740  0.7859  0.3453  0.7302
  491TMC3    C4 7352   4.573   2.026  17.637 -0.3214  0.1719  0.2894
  491TMC3    C5 7353   4.619   1.929  17.553 -0.3952  0.8293  0.1946
  491TMC3    C6 7354   4.634   1.802  17.606 -0.8908  0.0478 -0.5197
  491TMC3     C 7355   4.586   2.105   0.126 -0.0485 -0.4558  0.0582
  491TMC3     O 7356   4.607   2.075   0.242  0.3713 -0.1733 -0.1374
  491TMC3     H 7357   4.614   1.858   0.185 -0.1598  0.1920  0.2750
  491TMC3    H1 7358   4.563   2.125  17.595  2.7954 -0.0352 -0.9122
  491TMC3    H2 7359   4.665   1.719  17.545  2.2336 -0.4004  1.7035
  491TMC3    C7 7360   4.567   1.921  17.419 -0.0586 -0.1408  0.2050
  491TMC3    C8 7361   4.695   1.670   0.049 -0.0204 -0.1347  0.0533
  491TMC3    O1 7362   4.480   1.841  17.402  0.2446  0.0837  0.1679
  491TMC3    O2 7363   0.052   1.625  17.732  0.5441 -0.1865  0.0492
  492MPD2     C 7364   0.172   2.530  11.743  0.1485  0.1323  0.2912
  492MPD2    C1 7365   0.093   2.496  11.644 -0.0978  0.1202 -0.0703
  492MPD2    C2 7366   4.727   2.421  11.678  0.1635 -0.3855 -0.3546
  492MPD2    C3 7367   4.708   2.372  11.807 -0.1473 -0.1250 -1.0466
  492MPD2    C4 7368   0.069   2.385  11.900  0.0741  0.2155  0.0992
  492MPD2    C5 7369   0.170   2.472  11.867  0.6456 -0.0429  1.0769
  492MPD2     H 7370   4.645   2.412  11.607 -1.1579 -1.7072  1.3589
  492MPD2    H1 7371   0.067   2.353  12.004 -0.1825  2.1577  0.6949
  492MPD2    H2 7372   0.246   2.606  11.723  0.9283 -0.4813  0.8624
  492MPD2    H3 7373   0.249   2.491  11.939  0.5977 -1.8537  1.5908
  492MPD2     N 7374   4.601   2.289  11.847  0.2532 -0.5539  0.5320
  492MPD2    H5 7375   4.599   2.260  11.944  1.0124 -1.3049  0.3240
  492MPD2    N1 7376   0.116   2.564  11.520 -0.2670  0.7834 -0.1465
  492MPD2    H7 7377   0.178   2.644  11.515 -0.9806  1.4160  1.0323
  493TMC3    C1 7378   0.058   2.631  11.310 -0.3466 -0.6245  0.3475
  493TMC3    C2 7379   0.155   2.724  11.309 -0.6516  0.1891 -0.2595
  493TMC3    C3 7380   0.153   2.831  11.226 -0.6329 -0.4661  0.1913
  493TMC3    C4 7381   4.691   2.638  11.219 -0.3009 -0.4067  0.1819
  493TMC3    C5 7382   4.681   2.751  11.139 -1.0231 -0.2235 -0.0949
  493TMC3    C6 7383   0.046   2.852  11.150 -0.0893  1.4102  0.0682
  493TMC3     C 7384   0.043   2.532  11.415 -0.1072 -0.4634 -0.1361
  493TMC3     O 7385   4.720   2.432  11.392 -0.4062 -0.0090 -0.7975
  493TMC3     H 7386   0.245   2.702  11.365 -1.9265 -0.6096  1.4931
  493TMC3    H1 7387   4.607   2.570  11.216 -0.8275  0.3274 -1.5975
  493TMC3    H2 7388   0.034   2.950  11.104  0.5638  1.1035 -0.7581
  493TMC3    C7 7389   4.572   2.762  11.041 -0.0167  0.4026  0.4740
  493TMC3    C8 7390   0.251   2.938  11.253 -0.1982  0.5824 -0.5631
  493TMC3    O1 7391   4.483   2.677  11.050 -0.0251 -0.9155 -0.6411
  493TMC3    O2 7392   0.313   2.920  11.355 -0.0458  0.3416  0.2703
  494TMC3    C1 7393   0.147   4.380   0.288 -1.1123  0.3114  0.1039
  494TMC3    C2 7394   0.127   4.266   0.346 -0.9907 -0.1446 -0.0732
  494TMC3    C3 7395   0.228   4.171   0.337  0.0868 -0.9885 -0.0573
  494TMC3    C4 7396   0.267   4.415   0.231 -0.1200  0.0310  0.3645
  494TMC3    C5 7397   0.363   4.326   0.240  0.2365  0.9692  0.7568
  494TMC3    C6 7398   0.349   4.198   0.278 -0.7061  0.0358  0.3024
  494TMC3     C 7399   0.051   4.476   0.331  0.7536  0.6145 -0.8562
  494TMC3     O 7400   0.007   4.478   0.443 -0.1114 -1.5560  0.0797
  494TMC3     H 7401   0.028   4.238   0.379 -0.9393 -1.0407 -0.6647
  494TMC3    H1 7402   0.281   4.513   0.185  0.4513  0.0688  0.6210
  494TMC3    H2 7403   0.440   4.141   0.293  0.6362  1.9658 -0.4597
  494TMC3    C7 7404   0.470   4.360   0.161 -0.9904  0.1908  0.1749
  494TMC3    C8 7405   0.218   4.046   0.415  0.2783 -0.4648  0.4283
  494TMC3    O1 7406   0.514   4.279   0.084 -0.0012 -0.3260  0.1375
  494TMC3    O2 7407   0.312   3.969   0.412 -0.0944  0.2721 -0.4537
  495TMC3    C1 7408   4.199   1.422  15.047 -0.4312  0.2566 -0.2435
  495TMC3    C2 7409   4.150   1.483  14.935  0.5698  0.5404  0.7673
  495TMC3    C3 7410   4.021   1.535  14.933 -0.3418 -0.0641  0.3614
  495TMC3    C4 7411   4.123   1.424  15.158  0.7538 -0.3593 -0.5729
  495TMC3    C5 7412   4.005   1.484  15.162  0.0173  0.4626  0.5333
  495TMC3    C6 7413   3.947   1.539  15.047 -0.5544 -0.7695 -0.1056
  495TMC3     C 7414   4.260   1.286  15.021 -0.3462 -0.3744  0.6416
  495TMC3     O 7415   4.225   1.196  15.094 -0.2373  0.2360 -0.1053
  495TMC3     H 7416   4.205   1.478  14.842  0.6010 -1.0107  0.8633
  495TMC3    H1 7417   4.146   1.356  15.240 -1.4611 -1.4903 -0.8977
  495TMC3    H2 7418   3.845   1.576  15.045 -0.4721 -0.8254 -4.7729
  495TMC3    C7 7419   3.934   1.483  15.284  0.1564  0.3296 -0.0731
  495TMC3    C8 7420   3.954   1.573  14.809 -0.4210  0.5545 -0.3558
  495TMC3    O1 7421   4.007   1.483  15.385 -0.1215 -0.2332  0.5788
  495TMC3    O2 7422   3.834   1.550  14.798 -0.6176  0.7352 -0.0511
  496MPD2     C 7423   1.368   1.563  15.227  0.1198 -0.0081 -0.4471
  496MPD2    C1 7424   1.379   1.542  15.364  0.1459  0.4876  0.2221
  496MPD2    C2 7425   1.287   1.457  15.424 -0.4241  0.1584 -0.2798
  496MPD2    C3 7426   1.178   1.402  15.358 -0.1473  0.4508 -0.2007
  496MPD2    C4 7427   1.178   1.417  15.223 -0.2154  0.2192  0.4168
  496MPD2    C5 7428   1.269   1.497  15.162 -0.4528 -0.1131 -0.2521
  496MPD2     H 7429   1.321   1.414  15.517 -0.0317  1.0485 -0.0088
  496MPD2    H1 7430   1.105   1.376  15.154 -0.5916  2.8533 -0.7373
  496MPD2    H2 7431   1.424   1.643  15.180  0.8239  0.8431  1.8418
  496MPD2    H3 7432   1.255   1.508  15.055  2.5805  1.1642 -0.5225
  496MPD2     N 7433   1.097   1.304  15.414  0.6169 -0.1619  0.4788
  496MPD2    H5 7434   1.067   1.233  15.347  0.1569 -0.1904  0.7166
  496MPD2    N1 7435   1.500   1.592  15.425 -0.7529  0.2440  0.1644
  496MPD2    H7 7436   1.571   1.634  15.366 -0.7121 -0.4523 -0.2722
  497TMC3    C1 7437   1.004   1.174  15.585  0.9143 -0.5895 -0.3928
  497TMC3    C2 7438   0.939   1.081  15.497 -0.0100  0.2641 -0.1274
  497TMC3    C3 7439   0.894   0.961  15.548  1.2281  0.1476 -0.4643
  497TMC3    C4 7440   1.024   1.134  15.718 -0.2078  0.6626 -0.2621
  497TMC3    C5 7441   0.998   1.005  15.755  0.3284 -0.0374  0.2502
  497TMC3    C6 7442   0.938   0.918  15.670  0.0700  0.1624  0.4978
  497TMC3     C 7443   1.067   1.297  15.548 -0.3526  0.1468  0.4909
  497TMC3     O 7444   1.095   1.382  15.632 -0.0639  1.0636 -0.0089
  497TMC3     H 7445   0.903   1.113  15.400 -0.0999  0.0160 -0.1754
  497TMC3    H1 7446   1.079   1.203  15.781 -1.3364 -0.8247  2.3334
  497TMC3    H2 7447   0.906   0.826  15.717  0.0015  0.0422  0.2127
  497TMC3    C7 7448   1.015   0.946  15.888  0.0556 -0.1906  0.0558
  497TMC3    C8 7449   0.845   0.869  15.448  0.3826 -0.1845  0.3367
  497TMC3    O1 7450   0.914   0.900  15.934  0.0826 -0.2226  0.1199
  497TMC3    O2 7451   0.760   0.903  15.367  0.5093  0.2202 -0.0228
  498MPD2     C 7452   2.068   3.367   9.977 -0.1782  0.1353 -0.0847
  498MPD2    C1 7453   2.111   3.316  10.096  0.2312 -0.2910  1.0217
  498MPD2    C2 7454   2.036   3.215  10.158  0.8640  0.2056  0.3393
  498MPD2    C3 7455   1.913   3.173  10.109 -0.4950 -0.5038  0.3729
  498MPD2    C4 7456   1.869   3.233   9.988  0.3205 -0.6483 -0.6304
  498MPD2    C5 7457   1.947   3.326   9.926  0.0426 -0.9641 -0.2146
  498MPD2     H 7458   2.070   3.185  10.257  0.3033 -1.5949 -0.0121
  498MPD2    H1 7459   1.773   3.218   9.939 -0.5172 -1.7227  1.3181
  498MPD2    H2 7460   2.122   3.451   9.935 -1.4002  1.3757  0.8419
  498MPD2    H3 7461   1.921   3.382   9.837  2.4349 -0.4162 -0.5663
  498MPD2     N 7462   1.834   3.080  10.182  0.1394 -0.7409  0.0886
  498MPD2    H5 7463   1.872   3.037  10.266  0.9235 -1.8684 -0.8579
  498MPD2    N1 7464   2.227   3.360  10.158 -0.6355  0.0034  0.2308
  498MPD2    H7 7465   2.260   3.306  10.237  0.9595 -0.4362 -0.7394
  499TMC3    C1 7466   2.419   3.491  10.188  0.2845  0.4082  0.6390
  499TMC3    C2 7467   2.456   3.411  10.287  0.2222  0.3433  0.4666
  499TMC3    C3 7468   2.570   3.440  10.356 -0.6089 -0.2926  0.1636
  499TMC3    C4 7469   2.490   3.604  10.141 -0.2225 -0.3283  0.4033
  499TMC3    C5 7470   2.607   3.622  10.209 -0.0388 -1.3116 -0.5587
  499TMC3    C6 7471   2.645   3.547  10.317 -0.1985  0.4568  0.4611
  499TMC3     C 7472   2.297   3.471  10.118  0.0479 -0.3849  0.4405
  499TMC3     O 7473   2.275   3.555  10.030 -0.5279  0.4516 -0.4967
  499TMC3     H 7474   2.389   3.335  10.327  0.0222  0.8955  1.1808
  499TMC3    H1 7475   2.458   3.665  10.056  0.0782  0.9197  1.1873
  499TMC3    H2 7476   2.734   3.571  10.374  1.6869 -0.9265 -1.8919
  499TMC3    C7 7477   2.681   3.743  10.181 -0.5803 -0.1582  0.5268
  499TMC3    C8 7478   2.633   3.326  10.420 -0.0403  0.4392 -0.4759
  499TMC3    O1 7479   2.800   3.734  10.211  0.2340 -0.2115  0.7453
  499TMC3    O2 7480   2.598   3.213  10.383  0.3903  0.2068  0.4836
  500MPD2     C 7481   3.414   3.541  11.448 -0.5051  0.0255  0.5134
  500MPD2    C1 7482   3.510   3.532  11.351  1.0438  0.4944 -0.0997
  500MPD2    C2 7483   3.476   3.492  11.225 -0.5121  0.1034  0.1926
  500MPD2    C3 7484   3.344   3.455  11.193 -0.1035 -0.7222  0.0631
  500MPD2    C4 7485   3.252   3.466  11.294 -0.2236  0.1420  0.6198
  500MPD2    C5 7486   3.286   3.512  11.416 -0.1221  0.4391  0.3804
  500MPD2     H 7487   3.551   3.492  11.147 -0.1569 -2.7907  0.5451
  500MPD2    H1 7488   3.145   3.453  11.285  0.0682  0.2937 -2.8670
  500MPD2    H2 7489   3.426   3.569  11.552 -3.0363  0.1037  0.7752
  500MPD2    H3 7490   3.204   3.516  11.487  1.6968  2.0380  2.3664
  500MPD2     N 7491   3.305   3.399  11.073  0.3774  0.0784 -0.6471
  500MPD2    H5 7492   3.207   3.375  11.066  0.4595 -0.8522  1.1804
  500MPD2    N1 7493   3.637   3.588  11.357  0.2532 -0.0891  0.0810
  500MPD2    H7 7494   3.697   3.584  11.275  0.3544  1.3360  0.0870
  501TMC3    C1 7495   3.826   3.691  11.463 -0.3000 -0.0993 -0.7756
  501TMC3    C2 7496   3.876   3.736  11.344  0.0881  0.1583  0.1551
  501TMC3    C3 7497   4.011   3.755  11.327 -0.2668  0.2667 -0.2756
  501TMC3    C4 7498   3.903   3.667  11.570  0.7373 -0.8077 -0.2326
  501TMC3    C5 7499   4.040   3.693  11.557 -0.0848  0.3745 -0.5062
  501TMC3    C6 7500   4.093   3.745  11.432  0.1932 -0.9954  0.3471
  501TMC3     C 7501   3.689   3.642  11.470 -0.0646  0.2913 -0.7723
  501TMC3     O 7502   3.650   3.633  11.587  0.7005 -0.1651 -0.2616
  501TMC3     H 7503   3.804   3.778  11.276  0.8542 -1.1709 -1.4711
  501TMC3    H1 7504   3.866   3.629  11.665 -2.1779 -0.6373 -1.3017
  501TMC3    H2 7505   4.199   3.765  11.424  0.8932 -3.5879  3.2124
  501TMC3    C7 7506   4.132   3.605  11.627 -0.4317  0.6347 -0.0710
  501TMC3    C8 7507   4.057   3.852  11.232 -0.4143 -0.3449  0.5734
  501TMC3    O1 7508   4.239   3.585  11.566  0.2154 -0.3790  0.3173
  501TMC3    O2 7509   4.153   3.919  11.257  0.3800 -0.2125  0.4363
  502TMC3    C1 7510   3.891   2.307  14.911 -0.1462 -0.4569 -0.0828
  502TMC3    C2 7511   3.864   2.437  14.900  0.4063  0.4820  0.1434
  502TMC3    C3 7512   3.731   2.466  14.893 -0.3120  0.0578  0.8111
  502TMC3    C4 7513   3.793   2.206  14.909  1.0145 -0.1512  0.0538
  502TMC3    C5 7514   3.658   2.242  14.910 -0.2105  0.1914  0.5784
  502TMC3    C6 7515   3.631   2.377  14.905  0.2034 -0.4840  0.4220
  502TMC3     C 7516   4.013   2.274  14.984  0.2583 -0.2484 -0.1500
  502TMC3     O 7517   4.106   2.352  14.962 -0.1254  0.3184 -0.1182
  502TMC3     H 7518   3.940   2.513  14.916 -0.3137  1.8858 -2.8977
  502TMC3    H1 7519   3.822   2.102  14.909  0.7973 -0.2097 -0.0965
  502TMC3    H2 7520   3.531   2.417  14.890  0.3851  0.5153  1.8817
  502TMC3    C7 7521   3.599   2.181  15.029  0.2412 -0.3876  0.3598
  502TMC3    C8 7522   3.716   2.606  14.919  0.1388 -0.0305  0.4386
  502TMC3    O1 7523   3.683   2.148  15.113 -0.5509  0.0566  0.5309
  502TMC3    O2 7524   3.778   2.687  14.854 -0.1938  0.0700  0.0041
  503MPD2     C 7525   1.216   3.352  16.746 -0.0419  0.4955 -0.1458
  503MPD2    C1 7526   1.169   3.355  16.875  0.3815 -0.1996  0.4111
  503MPD2    C2 7527   1.180   3.239  16.947 -0.1759 -0.2748  0.0600
  503MPD2    C3 7528   1.228   3.124  16.893 -0.2482  0.2494  0.3961
  503MPD2    C4 7529   1.268   3.130  16.763 -0.1964  0.9134  0.3154
  503MPD2    C5 7530   1.266   3.241  16.689 -0.1534  0.1786  0.0056
  503MPD2     H 7531   1.139   3.249  17.047  0.5550 -0.1164  0.3488
  503MPD2    H1 7532   1.296   3.038  16.714 -0.9693  1.4838 -1.1692
  503MPD2    H2 7533   1.231   3.445  16.693  1.8215  0.5230  0.4216
  503MPD2    H3 7534   1.284   3.242  16.582  0.3133  0.2993  0.0863
  503MPD2     N 7535   1.252   3.007  16.963 -0.0592 -0.1753  0.4444
  503MPD2    H5 7536   1.297   2.925  16.922 -1.0113  0.3242 -1.5905
  503MPD2    N1 7537   1.134   3.477  16.941 -0.2504 -0.7494 -0.2602
  503MPD2    H7 7538   1.122   3.468  17.042 -1.0601 -0.5317 -0.3390
  504TMC3    C1 7539   1.274   2.861  17.135 -0.6610 -0.4863  0.2800
  504TMC3    C2 7540   1.218   2.812  17.252  0.2915 -0.4219 -0.8276
  504TMC3    C3 7541   1.293   2.727  17.332 -0.8735  0.3323  0.7360
  504TMC3    C4 7542   1.400   2.819  17.097  0.6475 -0.2235  0.5390
  504TMC3    C5 7543   1.468   2.732  17.179 -0.0987 -1.0849  0.1890
  504TMC3    C6 7544   1.421   2.680  17.299  0.2714  0.8054  0.4973
  504TMC3     C 7545   1.236   2.996  17.099 -0.0553  0.1763 -0.1079
  504TMC3     O 7546   1.196   3.068  17.189  0.1825 -0.3052 -0.8274
  504TMC3     H 7547   1.122   2.841  17.292  1.2084  0.3928  0.8126
  504TMC3    H1 7548   1.453   2.863  17.013  1.0804  0.6979  1.3024
  504TMC3    H2 7549   1.466   2.594  17.346 -0.3615  0.7875  1.0669
  504TMC3    C7 7550   1.605   2.696  17.135 -0.3074 -0.0625  0.3648
  504TMC3    C8 7551   1.206   2.654  17.426 -0.3311  0.3095 -0.2435
  504TMC3    O1 7552   1.620   2.683  17.013 -0.4797  0.4775 -0.1836
  504TMC3    O2 7553   1.091   2.643  17.389 -0.1113 -0.0356 -0.5863
  505MPD2     C 7554   1.200   1.978  11.251 -0.5141  0.3703 -0.0270
  505MPD2    C1 7555   1.276   2.023  11.146  0.3181 -0.0173  0.2093
  505MPD2    C2 7556   1.371   2.120  11.167  0.0341  0.1799  0.9276
  505MPD2    C3 7557   1.415   2.160  11.297  0.0646  0.8087  0.3329
  505MPD2    C4 7558   1.341   2.112  11.404  0.4755 -0.2847  0.0553
  505MPD2    C5 7559   1.240   2.021  11.378 -0.6940  0.2112  0.1369
  505MPD2     H 7560   1.433   2.153  11.084  2.4712  2.2310  3.5242
  505MPD2    H1 7561   1.379   2.123  11.505  0.5896  1.0669 -0.1319
  505MPD2    H2 7562   1.134   1.892  11.242 -2.2462  1.6366  0.5271
  505MPD2    H3 7563   1.219   1.948  11.456 -2.0215  0.2040 -0.2215
  505MPD2     N 7564   1.535   2.225  11.323  0.2422 -0.0676  0.1472
  505MPD2    H5 7565   1.563   2.232  11.421  0.6315  1.6159 -0.0811
  505MPD2    N1 7566   1.264   1.967  11.013  0.2985  0.1136 -1.1308
  505MPD2    H7 7567   1.221   1.876  11.012  0.9858 -0.2137 -1.0951
  506TMC3    C1 7568   1.316   1.920  10.785 -1.1434 -0.0259 -0.8509
  506TMC3    C2 7569   1.338   1.986  10.670 -0.0067  0.3662 -0.6295
  506TMC3    C3 7570   1.419   1.928  10.578 -0.1477 -0.0517  0.1375
  506TMC3    C4 7571   1.380   1.811  10.815 -0.2515  0.5162 -0.1376
  506TMC3    C5 7572   1.462   1.745  10.723 -0.6529  0.3368 -0.3030
  506TMC3    C6 7573   1.487   1.806  10.604  0.1690 -0.5255 -0.6186
  506TMC3     C 7574   1.309   2.017  10.891 -0.3615 -0.3368 -0.4798
  506TMC3     O 7575   1.342   2.130  10.858  0.0624 -0.5452 -0.1446
  506TMC3     H 7576   1.285   2.079  10.652  0.2015  0.6901  0.4253
  506TMC3    H1 7577   1.402   1.792  10.919  0.5062  0.3238 -0.3305
  506TMC3    H2 7578   1.553   1.759  10.533  0.9933 -1.2560  0.6258
  506TMC3    C7 7579   1.576   1.684  10.792  0.1409  0.6547 -0.7200
  506TMC3    C8 7580   1.425   1.977  10.442 -0.1558 -0.5781  0.0189
  506TMC3    O1 7581   1.534   1.580  10.842 -0.1543  0.5153 -0.0625
  506TMC3    O2 7582   1.455   1.895  10.353 -0.3253 -0.3780  0.3653
  507TMC3    C1 7583   2.001   2.465  14.442 -0.6519  0.0469 -0.0451
  507TMC3    C2 7584   1.963   2.474  14.312  0.4544 -0.1197  0.0284
  507TMC3    C3 7585   2.053   2.537  14.223  0.2813 -0.4026  0.2323
  507TMC3    C4 7586   2.124   2.496  14.485  0.6813 -0.3312 -0.4281
  507TMC3    C5 7587   2.221   2.541  14.395 -0.3671  0.1458 -0.4329
  507TMC3    C6 7588   2.182   2.553  14.265  0.7544 -0.0461  0.5761
  507TMC3     C 7589   1.896   2.429  14.535 -0.1967 -0.3348  0.2448
  507TMC3     O 7590   1.785   2.417  14.486  0.4715 -0.0576 -0.4476
  507TMC3     H 7591   1.865   2.445  14.276  0.9449 -0.2345 -1.2260
  507TMC3    H1 7592   2.153   2.486  14.589 -0.4621 -1.5547 -0.2443
  507TMC3    H2 7593   2.260   2.578  14.194 -0.9187 -0.4515 -1.4207
  507TMC3    C7 7594   2.310   2.656  14.431 -0.7381  0.2879 -0.0571
  507TMC3    C8 7595   2.007   2.655  14.161 -0.2195 -0.3227  0.1300
  507TMC3    O1 7596   2.347   2.721  14.333 -0.4893  0.2096  0.1641
  507TMC3    O2 7597   1.885   2.656  14.145  0.1219  0.3468 -0.0378
  508MPD2     C 7598   2.968   4.609  15.767  0.6444  0.0829 -0.1885
  508MPD2    C1 7599   2.922   4.679  15.875 -0.4379  0.1617  0.0551
  508MPD2    C2 7600   2.850   0.057  15.856  0.0197  0.0122 -0.2058
  508MPD2    C3 7601   2.822   0.091  15.729 -0.1146 -0.2183  0.3006
  508MPD2    C4 7602   2.848   0.004  15.626  0.4944  1.0008  1.3194
  508MPD2    C5 7603   2.925   4.629  15.639 -0.1129  0.6610 -0.5804
  508MPD2     H 7604   2.810   0.120  15.934 -0.8646 -0.3100 -0.4088
  508MPD2    H1 7605   2.802   0.025  15.531  2.2114  2.1154  0.7447
  508MPD2    H2 7606   3.035   4.525  15.778  1.1120  0.3348 -1.1565
  508MPD2    H3 7607   2.966   4.555  15.570 -0.1890 -0.3091  0.4107
  508MPD2     N 7608   2.784   0.226  15.693  0.9479 -0.0297  0.3154
  508MPD2    H5 7609   2.783   0.285  15.776  0.2755  0.0370  0.2672
  508MPD2    N1 7610   2.967   4.631  15.999 -0.5836  0.0164 -0.4217
  508MPD2    H7 7611   3.030   4.551  16.001 -0.2528  0.2437 -1.8188
  509TMC3    C1 7612   2.717   0.650  15.592 -0.4544 -0.2657  0.0734
  509TMC3    C2 7613   2.801   0.689  15.696 -1.3992  0.0279 -0.5799
  509TMC3    C3 7614   2.886   0.594  15.745 -0.1129 -1.1477 -0.1042
  509TMC3    C4 7615   2.726   0.529  15.542 -0.4631  0.7835  0.7921
  509TMC3    C5 7616   2.798   0.433  15.608  0.1084 -0.2784  0.3877
  509TMC3    C6 7617   2.880   0.462  15.713  0.0883  0.6041  0.4735
  509TMC3     C 7618   2.638   0.743  15.514  0.1361 -0.8485 -0.0168
  509TMC3     O 7619   2.538   0.701  15.453 -0.8047 -0.1020  0.7000
  509TMC3     H 7620   2.807   0.794  15.723  0.4982  0.4935 -2.8064
  509TMC3    H1 7621   2.664   0.502  15.457 -1.3958 -0.6799  1.9322
  509TMC3    H2 7622   2.949   0.389  15.756 -1.4879 -0.6132  0.9352
  509TMC3    C7 7623   2.777   0.295  15.575 -0.6833 -0.1144 -0.1089
  509TMC3    C8 7624   2.979   0.633  15.853 -0.1497  0.1495 -0.1362
  509TMC3    O1 7625   2.789   0.258  15.458  0.0844  0.7320  0.4521
  509TMC3    O2 7626   3.039   0.540  15.907 -0.1350  0.5176 -0.2863
  510MPD2     C 7627   0.833   1.878  14.460 -0.0683  0.0852  0.2420
  510MPD2    C1 7628   0.894   1.755  14.501  0.9854  0.3647 -0.4660
  510MPD2    C2 7629   1.024   1.729  14.464  0.2885  0.4082 -0.5111
  510MPD2    C3 7630   1.090   1.820  14.381 -0.3832 -0.3458 -0.1254
  510MPD2    C4 7631   1.026   1.938  14.344  0.8113 -0.0844 -0.0731
  510MPD2    C5 7632   0.903   1.971  14.391  0.1402  0.0759 -0.0806
  510MPD2     H 7633   1.078   1.644  14.505  0.4856  0.7583 -0.0352
  510MPD2    H1 7634   1.076   2.017  14.289  0.6215  0.3563  0.3882
  510MPD2    H2 7635   0.735   1.906  14.499  0.2759  1.3761  0.1651
  510MPD2    H3 7636   0.856   2.063  14.360  1.2088  0.6409 -0.0356
  510MPD2     N 7637   1.224   1.801  14.359 -0.8012 -0.6105 -0.0520
  510MPD2    H5 7638   1.272   1.733  14.418 -1.4865 -1.0552 -0.0007
  510MPD2    N1 7639   0.812   1.667  14.580 -0.2770 -0.0482  0.1873
  510MPD2    H7 7640   0.729   1.701  14.628  2.0078  1.7206  2.9399
  511TMC3    C1 7641   0.763   1.479  14.712  0.1879  0.6117  0.3544
  511TMC3    C2 7642   0.720   1.548  14.821 -0.7093  0.5141  0.9066
  511TMC3    C3 7643   0.673   1.476  14.923  1.0619  0.4040  0.1103
  511TMC3    C4 7644   0.732   1.345  14.696  0.7434 -0.6502  0.2288
  511TMC3    C5 7645   0.672   1.280  14.801  0.2330 -0.5277  0.0146
  511TMC3    C6 7646   0.645   1.341  14.923  0.7309  0.0706  0.7265
  511TMC3     C 7647   0.851   1.536  14.610  0.4098  0.3468 -0.6539
  511TMC3     O 7648   0.933   1.462  14.556  0.7213 -0.6013 -0.4232
  511TMC3     H 7649   0.755   1.647  14.849 -1.0082  0.5407  1.1874
  511TMC3    H1 7650   0.751   1.300  14.600 -0.0661  2.7334 -1.5089
  511TMC3    H2 7651   0.602   1.293  15.011 -0.5144 -0.8732 -0.4045
  511TMC3    C7 7652   0.628   1.153  14.771 -0.5546 -0.1414 -0.6239
  511TMC3    C8 7653   0.650   1.551  15.044  0.2958  0.3052 -0.0116
  511TMC3    O1 7654   0.695   1.103  14.683  0.1906  0.4246 -0.0465
  511TMC3    O2 7655   0.595   1.661  15.025 -0.3666 -0.4528  0.5017
  512TMC3    C1 7656   4.375   1.449  13.364 -0.6867 -1.0515 -0.2537
  512TMC3    C2 7657   4.453   1.385  13.454  0.2447  0.3516  0.4712
  512TMC3    C3 7658   4.567   1.319  13.406 -0.4920 -0.0958  0.0921
  512TMC3    C4 7659   4.399   1.444  13.228  0.0282  0.7653  0.5218
  512TMC3    C5 7660   4.507   1.371  13.184  0.2764  0.1153  0.0378
  512TMC3    C6 7661   4.596   1.317  13.274 -0.1743  0.4999  0.5900
  512TMC3     C 7662   4.241   1.494  13.407  0.0089  0.5596 -0.1700
  512TMC3     O 7663   4.187   1.442  13.503 -0.0507 -0.3875 -0.7111
  512TMC3     H 7664   4.424   1.382  13.558  2.8249  0.4418  1.2084
  512TMC3    H1 7665   4.322   1.474  13.158  0.8575 -1.2803 -1.2473
  512TMC3    H2 7666   4.680   1.259  13.237 -2.1338 -2.9289  1.4277
  512TMC3    C7 7667   4.503   1.315  13.050 -0.2910 -0.0059  0.5296
  512TMC3    C8 7668   4.637   1.223  13.488 -0.3517  0.1985 -0.1207
  512TMC3    O1 7669   4.461   1.380  12.954 -0.0278 -0.0973 -0.4002
  512TMC3    O2 7670   4.692   1.132  13.427  1.1039 -0.0295 -0.2433
  513MPD2     C 7671   1.665   0.963  13.338 -0.4827 -0.3158  0.1481
  513MPD2    C1 7672   1.762   0.893  13.272 -0.0992 -0.4948  0.4318
  513MPD2    C2 7673   1.891   0.910  13.309 -1.1518  0.1493  0.5705
  513MPD2    C3 7674   1.925   1.009  13.398  0.4066 -0.8160 -0.2082
  513MPD2    C4 7675   1.830   1.084  13.459  0.0780 -0.1270  0.4293
  513MPD2    C5 7676   1.696   1.054  13.436  0.6841 -0.2675  0.2788
  513MPD2     H 7677   1.968   0.849  13.264 -0.1252  1.1584  0.9623
  513MPD2    H1 7678   1.844   1.155  13.540 -0.7119  1.0122 -0.4418
  513MPD2    H2 7679   1.561   0.946  13.311 -0.3482 -0.4010 -0.3048
  513MPD2    H3 7680   1.626   1.098  13.505  1.4032 -0.7687  1.3300
  513MPD2     N 7681   2.060   1.029  13.421  0.2627 -0.0838  0.1510
  513MPD2    H5 7682   2.123   0.974  13.364 -1.0183  0.5139 -1.8049
  513MPD2    N1 7683   1.714   0.794  13.185 -0.2894  0.4661  0.4312
  513MPD2    H7 7684   1.617   0.765  13.193  0.0201 -0.0581  2.2543
  514TMC3    C1 7685   1.911   0.769  13.033  0.2497  0.1775 -0.7577
  514TMC3    C2 7686   1.912   0.890  12.970 -0.5368  1.1084 -0.1185
  514TMC3    C3 7687   1.989   0.914  12.865 -0.3693 -0.1088  0.2600
  514TMC3    C4 7688   1.998   0.673  12.982 -0.1010 -0.3516 -0.2564
  514TMC3    C5 7689   2.087   0.706  12.887  0.4298  0.0724  0.9209
  514TMC3    C6 7690   2.084   0.822  12.819 -0.3166 -0.5286  0.8949
  514TMC3     C 7691   1.786   0.725  13.088 -0.4313 -0.4953  0.2087
  514TMC3     O 7692   1.759   0.614  13.049  0.2136 -0.0209 -0.3915
  514TMC3     H 7693   1.842   0.965  13.007  0.0220  1.0319  1.0773
  514TMC3    H1 7694   1.986   0.566  12.998  0.3148 -0.4195 -0.3987
  514TMC3    H2 7695   2.150   0.838  12.735  1.2964 -1.3678  2.0048
  514TMC3    C7 7696   2.143   0.591  12.811  0.2168 -0.4233  0.0501
  514TMC3    C8 7697   1.988   1.048  12.814 -0.4727  0.0223 -0.0580
  514TMC3    O1 7698   2.058   0.535  12.745 -0.6572  0.0912 -0.3570
  514TMC3    O2 7699   1.963   1.135  12.893  0.2996 -0.2159  0.0893
  515MPD2     C 7700   4.651   2.824  14.926 -0.1041 -0.3014  0.4015
  515MPD2    C1 7701   4.667   2.838  14.788 -0.0869  0.5343 -0.1377
  515MPD2    C2 7702   4.726   2.954  14.742 -0.0684 -0.0033  0.1888
  515MPD2    C3 7703   0.046   3.039  14.832  0.3239 -0.5702  0.0648
  515MPD2    C4 7704   0.040   3.020  14.975 -0.1759  0.6872  0.1825
  515MPD2    C5 7705   4.712   2.910  15.017  0.3017  0.3532  0.5292
  515MPD2     H 7706   4.726   2.977  14.636 -1.4275 -0.6472  0.0528
  515MPD2    H1 7707   0.090   3.083  15.047  0.1280  0.0051  0.5681
  515MPD2    H2 7708   4.604   2.735  14.966  0.3003  0.3118  2.2278
  515MPD2    H3 7709   4.715   2.881  15.121  1.3908  0.2552  0.4754
  515MPD2     N 7710   0.128   3.148  14.799 -0.1531 -0.1074 -0.1239
  515MPD2    H5 7711   0.180   3.190  14.875  2.7186  0.2898 -2.2652
  515MPD2    N1 7712   4.623   2.745  14.688 -0.2286  0.2326  0.5724
  515MPD2    H7 7713   4.610   2.773  14.591 -0.2700  0.3074  0.5996
  516TMC3    C1 7714   4.504   2.556  14.614 -0.0897  0.2381 -0.0064
  516TMC3    C2 7715   4.429   2.639  14.532  0.4113 -0.6361  0.7967
  516TMC3    C3 7716   4.329   2.573  14.472 -0.3228  0.5282  0.0243
  516TMC3    C4 7717   4.490   2.418  14.630 -0.0525 -0.2465  0.1753
  516TMC3    C5 7718   4.378   2.358  14.564 -0.1214  0.9224  0.3493
  516TMC3    C6 7719   4.296   2.436  14.485 -0.3452 -0.6497 -0.3464
  516TMC3     C 7720   4.586   2.616  14.720  0.0153  0.7401 -0.2970
  516TMC3     O 7721   4.608   2.558  14.823  0.4304  0.2703 -0.4350
  516TMC3     H 7722   4.427   2.747  14.546 -2.1514 -0.5059 -0.6192
  516TMC3    H1 7723   4.555   2.363  14.696  0.5833 -0.0822 -0.3115
  516TMC3    H2 7724   4.215   2.396  14.425 -1.1225 -0.6185  0.6928
  516TMC3    C7 7725   4.340   2.229  14.617 -0.1347  0.1565 -0.0096
  516TMC3    C8 7726   4.278   2.637  14.352  0.3647 -0.1436  0.2242
  516TMC3    O1 7727   4.420   2.174  14.693  0.2301 -0.1767 -0.3232
  516TMC3    O2 7728   4.185   2.586  14.287  0.4250 -0.0442  0.1082
  517MPD2     C 7729   3.595   4.219  17.303  0.3422 -0.0155  0.9274
  517MPD2    C1 7730   3.724   4.239  17.322  0.0127 -0.1584  0.5182
  517MPD2    C2 7731   3.764   4.343  17.403 -0.0458 -0.2564 -0.6608
  517MPD2    C3 7732   3.678   4.434  17.465 -0.1457 -0.1181  0.2721
  517MPD2    C4 7733   3.545   4.421  17.428  0.0348  0.1990 -0.0161
  517MPD2    C5 7734   3.504   4.311  17.352  0.0357 -1.1959  0.0467
  517MPD2     H 7735   3.872   4.353  17.411 -0.1414  1.0453 -0.9404
  517MPD2    H1 7736   3.470   4.493  17.458  0.2918 -0.5698  2.4552
  517MPD2    H2 7737   3.551   4.151  17.231 -1.1518 -0.3158  2.1229
  517MPD2    H3 7738   3.397   4.305  17.334 -0.0392  1.8855 -0.5429
  517MPD2     N 7739   3.710   4.540  17.556  0.1869  0.0964  0.1322
  517MPD2    H5 7740   3.633   4.592  17.594  0.5700  0.1238  0.8660
  517MPD2    N1 7741   3.827   4.164  17.255  0.3650  0.0068  0.2094
  517MPD2    H7 7742   3.918   4.204  17.272 -0.0176  2.2283 -3.0858
  518TMC3    C1 7743   3.937   4.007  17.106 -0.1920  0.0066  0.0408
  518TMC3    C2 7744   3.939   3.886  17.036  0.0534 -0.0424  0.0149
  518TMC3    C3 7745   4.059   3.833  16.997  0.0576 -0.0026  0.8157
  518TMC3    C4 7746   4.046   4.083  17.113 -0.3834  0.5890  0.5151
  518TMC3    C5 7747   4.170   4.035  17.058 -0.3617 -0.1476  0.6672
  518TMC3    C6 7748   4.178   3.910  17.002 -0.6986 -0.1965  0.6582
  518TMC3     C 7749   3.814   4.048  17.175 -0.5333  0.2736 -0.1637
  518TMC3     O 7750   3.716   3.976  17.157 -0.1903  0.5163 -0.4414
  518TMC3     H 7751   3.845   3.833  17.029 -0.1047  0.3012 -0.4952
  518TMC3    H1 7752   4.049   4.187  17.145  3.1337  0.9405 -0.9182
  518TMC3    H2 7753   4.270   3.869  16.961 -1.1343 -0.9941  0.4885
  518TMC3    C7 7754   4.280   4.134  17.054 -0.4813 -0.2777  0.7012
  518TMC3    C8 7755   4.061   3.697  16.923  0.0408  0.6902  0.3665
  518TMC3    O1 7756   4.263   4.253  17.060 -0.3475 -0.0815  0.2425
  518TMC3    O2 7757   4.163   3.650  16.872 -0.3632 -0.0328  0.0840
  519MPD2     C 7758   1.224   2.988  14.235  0.3859 -0.5148 -0.6891
  519MPD2    C1 7759   1.129   2.898  14.206 -0.0003  0.0941  0.6987
  519MPD2    C2 7760   1.163   2.767  14.239 -0.1909 -0.0368 -0.4276
  519MPD2    C3 7761   1.282   2.729  14.310  0.3172  0.9754  0.5730
  519MPD2    C4 7762   1.376   2.834  14.333  0.1326 -0.3626 -0.4790
  519MPD2    C5 7763   1.345   2.958  14.295  0.5960  0.6353  0.1877
  519MPD2     H 7764   1.083   2.704  14.200 -2.6523  2.5809  0.3456
  519MPD2    H1 7765   1.468   2.805  14.382  0.1189 -0.6135 -0.6004
  519MPD2    H2 7766   1.192   3.091  14.221 -1.8072 -1.1180 -0.0901
  519MPD2    H3 7767   1.418   3.038  14.307  1.6407 -0.1494 -1.0073
  519MPD2     N 7768   1.297   2.603  14.358  0.5098 -0.5694 -0.1356
  519MPD2    H5 7769   1.390   2.567  14.374  1.5501  1.9434 -0.5021
  519MPD2    N1 7770   1.000   2.925  14.156 -0.3680  0.5604  0.2206
  519MPD2    H7 7771   0.948   2.838  14.153  0.5993 -0.0204  0.6191
  520TMC3    C1 7772   1.211   2.385  14.348 -0.5286 -0.4545 -0.3198
  520TMC3    C2 7773   1.143   2.361  14.236  0.7347 -0.2026  0.3686
  520TMC3    C3 7774   1.197   2.273  14.149  0.3623 -1.1219  0.3725
  520TMC3    C4 7775   1.328   2.328  14.374  0.0593  0.3851 -0.3453
  520TMC3    C5 7776   1.372   2.229  14.297  0.2382  0.4347  0.5218
  520TMC3    C6 7777   1.313   2.201  14.176  0.7377 -0.1219 -0.2950
  520TMC3     C 7778   1.183   2.528  14.380 -0.3814  0.3976 -0.5531
  520TMC3     O 7779   1.066   2.560  14.380 -0.6264  0.5232  0.2183
  520TMC3     H 7780   1.053   2.410  14.203 -0.2691 -1.3995  1.3382
  520TMC3    H1 7781   1.376   2.346  14.469  0.7352 -1.7478 -0.2895
  520TMC3    H2 7782   1.350   2.126  14.108  1.3230  0.8326 -1.0376
  520TMC3    C7 7783   1.514   2.203  14.317  0.0793  0.6898 -0.1805
  520TMC3    C8 7784   1.145   2.260  14.015  0.5003 -0.5477  0.2316
  520TMC3    O1 7785   1.543   2.142  14.420 -0.7524  0.1273  0.0825
  520TMC3    O2 7786   1.215   2.192  13.942 -0.1245 -0.3447 -0.3998
  521MPD2     C 7787   1.928   0.319   0.001  0.0196  0.3896 -0.0584
  521MPD2    C1 7788   1.898   0.378  17.625 -0.4888  0.2812 -0.1075
  521MPD2    C2 7789   1.982   0.345  17.519 -0.5525 -0.3984  0.6087
  521MPD2    C3 7790   2.084   0.252  17.527 -0.0064 -1.2970  0.1241
  521MPD2    C4 7791   2.113   0.203  17.656 -0.7268  0.0646 -0.6217
  521MPD2    C5 7792   2.031   0.237   0.012 -0.9819  0.0352  0.0497
  521MPD2     H 7793   1.956   0.382  17.421 -1.4665 -0.6581  0.7602
  521MPD2    H1 7794   2.199   0.141  17.678  0.7962  2.5985  0.6954
  521MPD2    H2 7795   1.852   0.327   0.079  0.5105  0.3753  0.4211
  521MPD2    H3 7796   2.058   0.197   0.110 -0.9812 -2.6970 -1.0503
  521MPD2     N 7797   2.146   0.212  17.411  0.7278 -0.2757 -0.1620
  521MPD2    H5 7798   2.115   0.255  17.325 -0.5238  0.1672  0.4986
  521MPD2    N1 7799   1.778   0.456  17.614  0.4670 -0.1522  0.5772
  521MPD2    H7 7800   1.712   0.462  17.691 -0.7475  1.6516 -0.5904
  522TMC3    C1 7801   2.276   0.098  17.262  0.2381 -0.3491  0.2830
  522TMC3    C2 7802   2.312   4.704  17.233 -0.0987  0.2925  0.5742
  522TMC3    C3 7803   2.389   4.696  17.123 -0.5789  0.5016 -0.5177
  522TMC3    C4 7804   2.279   0.203  17.170 -0.0983  0.0762 -0.0631
  522TMC3    C5 7805   2.327   0.174  17.043 -0.0702 -0.1580  0.4748
  522TMC3    C6 7806   2.399   0.063  17.035  0.0313  0.4140 -1.3797
  522TMC3     C 7807   2.242   0.120  17.403 -0.3389  0.2369 -0.0275
  522TMC3     O 7808   2.302   0.054  17.488  0.0490 -0.3051 -0.7139
  522TMC3     H 7809   2.318   4.629  17.311  0.1574  1.1997  1.4369
  522TMC3    H1 7810   2.253   0.304  17.198  0.4791  0.3418 -0.4803
  522TMC3    H2 7811   2.431   0.047  16.933  1.6602  1.8773 -1.1132
  522TMC3    C7 7812   2.363   0.290  16.963  0.2332  0.1665  0.3971
  522TMC3    C8 7813   2.438   4.565  17.083 -0.2474  0.4118 -0.7518
  522TMC3    O1 7814   2.478   0.290  16.924  0.0859 -0.5267 -0.3394
  522TMC3    O2 7815   2.387   4.467  17.136 -0.0860  0.6101  0.4704
  523MPD2     C 7816   4.477   1.196  10.129 -0.0669 -0.0305  0.0781
  523MPD2    C1 7817   4.360   1.121  10.143 -0.1324 -0.2871 -0.2653
  523MPD2    C2 7818   4.253   1.167  10.074  0.1393  0.1138 -0.5795
  523MPD2    C3 7819   4.264   1.282   9.990 -0.6357  0.2007 -0.5055
  523MPD2    C4 7820   4.386   1.357   9.977  0.0366  0.7524 -0.0141
  523MPD2    C5 7821   4.490   1.305  10.049  0.2456  0.1765  0.6107
  523MPD2     H 7822   4.157   1.117  10.082 -0.6202  1.8921  1.3603
  523MPD2    H1 7823   4.387   1.439   9.906  1.0063  2.9475  2.5676
  523MPD2    H2 7824   4.561   1.147  10.177  0.9833 -0.5922 -2.3232
  523MPD2    H3 7825   4.590   1.347  10.047  0.8867 -1.2823  2.0261
  523MPD2     N 7826   4.160   1.332   9.905 -0.3595 -0.5779 -0.3336
  523MPD2    H5 7827   4.175   1.409   9.840  2.5713  0.4151  1.5019
  523MPD2    N1 7828   4.355   1.003  10.223  0.3099  0.0300  0.3917
  523MPD2    H7 7829   4.441   0.970  10.265 -0.2142 -1.7001  0.0937
  524TMC3    C1 7830   3.948   1.396   9.839  0.4192  0.7374 -0.3772
  524TMC3    C2 7831   3.816   1.365   9.813 -0.2366  0.1994 -0.7494
  524TMC3    C3 7832   3.733   1.470   9.773 -0.1708  0.3733  0.5520
  524TMC3    C4 7833   3.990   1.527   9.849  0.3222  0.0036 -0.1652
  524TMC3    C5 7834   3.906   1.629   9.807  0.3765  0.1453  0.0673
  524TMC3    C6 7835   3.776   1.603   9.776  0.2818  0.1072 -0.6554
  524TMC3     C 7836   4.027   1.297   9.908 -0.0799  0.0460 -0.0583
  524TMC3     O 7837   3.972   1.192   9.943  0.6838  0.1862 -0.2746
  524TMC3     H 7838   3.794   1.260   9.804 -0.8670  0.2414  0.2270
  524TMC3    H1 7839   4.085   1.565   9.886  0.4222 -0.6767  0.2598
  524TMC3    H2 7840   3.708   1.687   9.762 -0.0593 -0.2908 -1.3757
  524TMC3    C7 7841   3.953   1.762   9.829 -0.3688 -0.4057 -0.5229
  524TMC3    C8 7842   3.652   1.442   9.658  0.1088 -0.4473 -0.1977
  524TMC3    O1 7843   4.068   1.782   9.864  0.1396  0.3176 -0.0506
  524TMC3    O2 7844   3.579   1.535   9.613  0.0922 -0.4184  0.2184
  525MPD2     C 7845   2.488   2.127  14.641  0.3787  0.2147 -0.2993
  525MPD2    C1 7846   2.623   2.148  14.659  0.4435 -0.0852  0.0708
  525MPD2    C2 7847   2.689   2.250  14.597  0.0474 -0.2917 -0.5122
  525MPD2    C3 7848   2.623   2.315  14.496 -0.5277  0.2850  0.1946
  525MPD2    C4 7849   2.491   2.289  14.467 -0.1915 -0.6164 -0.2086
  525MPD2    C5 7850   2.421   2.196  14.546  0.1899  0.6113  0.3398
  525MPD2     H 7851   2.796   2.260  14.604  0.1335 -2.9051  1.8388
  525MPD2    H1 7852   2.439   2.335  14.384  1.0482 -2.5815 -2.0986
  525MPD2    H2 7853   2.428   2.061  14.703  0.1973  2.1825  1.6212
  525MPD2    H3 7854   2.323   2.156  14.523 -0.0418  1.4454 -0.0969
  525MPD2     N 7855   2.681   2.415  14.411 -0.3316  0.0280  0.5844
  525MPD2    H5 7856   2.629   2.457  14.335  0.9843  0.8434  0.1479
  525MPD2    N1 7857   2.698   2.076  14.755  0.6174 -0.0548 -0.8013
  525MPD2    H7 7858   2.797   2.092  14.763  0.5563  0.0061 -0.1189
  526TMC3    C1 7859   2.742   1.915  14.927  0.1553 -0.1760  0.6381
  526TMC3    C2 7860   2.688   1.873  15.040 -0.0349  0.1633 -0.5005
  526TMC3    C3 7861   2.766   1.847  15.148 -0.1595  0.5249 -0.3342
  526TMC3    C4 7862   2.877   1.932  14.910 -0.1349  0.0920 -0.1682
  526TMC3    C5 7863   2.960   1.902  15.015 -0.3497  0.2553  1.6368
  526TMC3    C6 7864   2.903   1.868  15.134  0.1574  0.6801 -0.0649
  526TMC3     C 7865   2.646   1.976  14.838 -0.3405  0.8916  0.1801
  526TMC3     O 7866   2.531   1.944  14.851 -0.3149  0.5390 -0.0853
  526TMC3     H 7867   2.582   1.855  15.050  0.0564  0.3310  0.7230
  526TMC3    H1 7868   2.921   1.958  14.814 -2.9872 -0.7283 -1.7077
  526TMC3    H2 7869   2.967   1.849  15.220 -1.0714  2.5856  1.2768
  526TMC3    C7 7870   3.098   1.870  14.995  0.5821  0.6037 -0.4319
  526TMC3    C8 7871   2.714   1.864  15.281  0.4806 -0.3134  0.2990
  526TMC3    O1 7872   3.170   1.846  15.088  0.3051 -0.2052 -0.3348
  526TMC3    O2 7873   2.788   1.833  15.374  0.3798 -0.1022 -0.1539
  527MPD2     C 7874   0.299   0.553   1.576 -0.0150  0.1927 -0.1106
  527MPD2    C1 7875   0.241   0.464   1.486 -0.2855  0.2415 -0.6126
  527MPD2    C2 7876   0.321   0.364   1.433 -0.0356  0.0388 -0.3057
  527MPD2    C3 7877   0.456   0.353   1.457  0.5431 -0.5300  0.5396
  527MPD2    C4 7878   0.507   0.442   1.547  0.6679 -0.2692 -0.4746
  527MPD2    C5 7879   0.431   0.544   1.596  0.2491 -0.2640 -0.4307
  527MPD2     H 7880   0.283   0.290   1.364 -1.0119 -0.1422  0.4208
  527MPD2    H1 7881   0.615   0.441   1.559  0.5713  0.7242  0.4380
  527MPD2    H2 7882   0.246   0.642   1.607 -0.3057 -1.0917  3.0763
  527MPD2    H3 7883   0.484   0.623   1.647 -1.5670 -0.4602  1.7513
  527MPD2     N 7884   0.530   0.255   1.389 -0.3734  0.3119 -0.2917
  527MPD2    H5 7885   0.479   0.200   1.321 -0.1004 -2.1160  1.4502
  527MPD2    N1 7886   0.113   0.474   1.432  0.2882 -0.8105  0.0972
  527MPD2    H7 7887   0.078   0.403   1.369 -1.3361  0.5804 -0.5685
  528TMC3    C1 7888   4.647   0.573   1.374 -0.2984  0.4457 -0.4791
  528TMC3    C2 7889   4.667   0.533   1.244 -0.0069  0.0113  0.8711
  528TMC3    C3 7890   4.558   0.535   1.164 -0.1911  0.3753  1.3862
  528TMC3    C4 7891   4.529   0.626   1.425  0.3661  0.2455 -0.3193
  528TMC3    C5 7892   4.420   0.631   1.334  0.5385  0.4317  0.3052
  528TMC3    C6 7893   4.439   0.582   1.207  0.7120  0.3178  0.5997
  528TMC3     C 7894   0.025   0.570   1.465  0.9649 -0.7308 -0.4068
  528TMC3     O 7895   0.016   0.626   1.574  0.1989  0.5780  0.3296
  528TMC3     H 7896   0.024   0.505   1.200  0.5197  0.5058  1.6837
  528TMC3    H1 7897   4.529   0.667   1.525 -0.3696  0.1358 -0.2740
  528TMC3    H2 7898   4.353   0.561   1.144  1.1715 -2.0001  0.7467
  528TMC3    C7 7899   4.282   0.656   1.377  0.2323 -0.3003 -0.1272
  528TMC3    C8 7900   4.579   0.516   1.019 -0.7395 -0.6465 -0.4423
  528TMC3    O1 7901   4.197   0.614   1.302  0.8817  0.6358  0.1992
  528TMC3    O2 7902   4.685   0.472   0.983 -0.1175  0.0460 -0.0933
  529MPD2     C 7903   3.085   2.979   0.532 -0.5617  0.6256  0.0520
  529MPD2    C1 7904   3.113   3.075   0.624 -0.2481  0.4728  0.1071
  529MPD2    C2 7905   3.082   3.205   0.594  0.6564 -0.3551  0.6038
  529MPD2    C3 7906   3.025   3.246   0.473  0.1548 -0.3167 -0.3732
  529MPD2    C4 7907   2.989   3.144   0.384  1.6413 -0.2958  0.0127
  529MPD2    C5 7908   3.022   3.014   0.412  0.1394  0.1482 -0.0895
  529MPD2     H 7909   3.109   3.265   0.680  0.3213 -0.8863  1.0841
  529MPD2    H1 7910   2.937   3.164   0.291  0.9358 -0.0623  0.4578
  529MPD2    H2 7911   3.098   2.871   0.536 -2.8125  0.3900  0.8143
  529MPD2    H3 7912   2.992   2.944   0.336  0.8322  1.2720 -1.3976
  529MPD2     N 7913   3.009   3.379   0.445  0.3379 -0.2929  0.3075
  529MPD2    H5 7914   2.987   3.404   0.349 -1.7579 -1.5161  0.4854
  529MPD2    N1 7915   3.163   3.049   0.755 -0.3508  0.0745 -0.1422
  529MPD2    H7 7916   3.161   3.129   0.817  2.9281 -0.0667  0.1665
  530TMC3    C1 7917   3.259   2.914   0.931  0.6611  0.2284  0.6141
  530TMC3    C2 7918   3.319   2.795   0.950  0.0135 -0.0926  0.1007
  530TMC3    C3 7919   3.282   2.724   1.063 -0.3492  1.0098  0.5140
  530TMC3    C4 7920   3.171   2.966   1.017  0.0631 -0.1579 -0.6610
  530TMC3    C5 7921   3.137   2.894   1.126  0.0834 -0.3226 -0.4104
  530TMC3    C6 7922   3.196   2.772   1.154  0.6080  0.0080  0.2502
  530TMC3     C 7923   3.235   2.938   0.790  0.3033  0.5007  1.0595
  530TMC3     O 7924   3.258   2.838   0.720 -0.0209  0.0167 -0.3634
  530TMC3     H 7925   3.378   2.747   0.873  0.2382 -0.0832  0.2675
  530TMC3    H1 7926   3.100   3.046   0.999  1.0707  1.4502  2.5873
  530TMC3    H2 7927   3.178   2.714   1.244 -0.4068 -0.6568 -0.3919
  530TMC3    C7 7928   3.023   2.939   1.196 -0.0382 -0.6590 -0.6777
  530TMC3    C8 7929   3.317   2.583   1.074  0.5686 -1.0225 -0.2185
  530TMC3    O1 7930   3.001   3.061   1.203 -0.3148  0.3886  0.5013
  530TMC3    O2 7931   3.237   2.516   1.142  0.0086  0.0406 -0.0102
  531MPD2     C 7932   2.594   0.737  13.020 -0.1692  0.2511  0.7108
  531MPD2    C1 7933   2.468   0.749  13.072 -0.2094  0.2441  0.1968
  531MPD2    C2 7934   2.365   0.695  13.005  0.7775  0.9012 -0.0009
  531MPD2    C3 7935   2.383   0.639  12.873  0.0362  0.6875 -0.1806
  531MPD2    C4 7936   2.513   0.636  12.820 -0.3148  0.0485  0.3742
  531MPD2    C5 7937   2.623   0.680  12.896 -0.0420 -0.0525 -0.8954
  531MPD2     H 7938   2.264   0.713  13.041 -0.0890 -0.8889 -1.5723
  531MPD2    H1 7939   2.524   0.589  12.723 -2.8628  0.5111 -0.1472
  531MPD2    H2 7940   2.677   0.780  13.075  0.1291 -0.7103  1.0122
  531MPD2    H3 7941   2.723   0.686  12.856  0.8497 -1.6923  1.0507
  531MPD2     N 7942   2.282   0.580  12.791  0.2235 -0.1588 -0.0678
  531MPD2    H5 7943   2.314   0.524  12.713  0.5712 -0.6631  0.4432
  531MPD2    N1 7944   2.454   0.827  13.189  0.4038 -0.6559 -0.1412
  531MPD2    H7 7945   2.540   0.861  13.229  0.5055 -1.8162  0.6365
  532TMC3    C1 7946   2.364   0.995  13.337  0.0899 -0.0887  0.0249
  532TMC3    C2 7947   2.268   1.088  13.348 -0.3562 -0.2747  0.2684
  532TMC3    C3 7948   2.253   1.152  13.465 -0.0494  0.1208  0.8195
  532TMC3    C4 7949   2.453   0.971  13.440 -0.0692 -0.2973 -0.1307
  532TMC3    C5 7950   2.433   1.044  13.552 -0.4930 -0.0419  0.0016
  532TMC3    C6 7951   2.339   1.143  13.562 -0.8853  0.0788 -0.0810
  532TMC3     C 7952   2.339   0.890  13.232  0.2041  0.4360 -0.6692
  532TMC3     O 7953   2.232   0.889  13.183  0.1763  0.0159 -0.2412
  532TMC3     H 7954   2.209   1.105  13.259 -0.9037 -0.3657  0.6136
  532TMC3    H1 7955   2.531   0.896  13.433  0.4577  0.2674 -0.2453
  532TMC3    H2 7956   2.340   1.194  13.658  0.2696 -0.3458  0.1393
  532TMC3    C7 7957   2.546   1.059  13.637  0.0837 -0.1755 -0.7257
  532TMC3    C8 7958   2.120   1.119  13.503  0.4120 -0.0455 -0.0941
  532TMC3    O1 7959   2.586   1.173  13.642  0.2580 -0.1048  0.2989
  532TMC3    O2 7960   2.067   1.204  13.572  0.1230  0.0232  0.4659
  533TMC3    C1 7961   2.816   2.595  14.390 -0.3608 -0.4948 -0.2798
  533TMC3    C2 7962   2.940   2.652  14.364  0.3412  0.1385 -0.0486
  533TMC3    C3 7963   2.951   2.790  14.360  0.0506  0.2893 -0.8413
  533TMC3    C4 7964   2.720   2.675  14.442  0.4145  0.7665 -0.6795
  533TMC3    C5 7965   2.745   2.807  14.460  0.5401 -0.3549 -0.6488
  533TMC3    C6 7966   2.852   2.871  14.407 -0.2702  0.1762  0.1802
  533TMC3     C 7967   2.814   2.460  14.423  0.5300 -1.0916  0.4286
  533TMC3     O 7968   2.913   2.417  14.477  0.6321  0.6596 -0.1390
  533TMC3     H 7969   3.012   2.585  14.320  0.5407  0.2186  0.1580
  533TMC3    H1 7970   2.618   2.649  14.466  0.9660 -0.7149  0.0935
  533TMC3    H2 7971   2.871   2.975  14.431 -0.7911  0.3350 -0.0936
  533TMC3    C7 7972   2.750   2.805  14.605  0.5024  0.0028 -0.1141
  533TMC3    C8 7973   3.080   2.849  14.345  0.0182 -0.2582 -0.4615
  533TMC3    O1 7974   2.729   2.695  14.656 -0.2892 -0.1241 -0.1326
  533TMC3    O2 7975   3.176   2.803  14.401 -0.2202 -0.5468 -0.0134
  534MPD2     C 7976   4.502   3.858   1.307  0.2577 -1.1986 -0.3324
  534MPD2    C1 7977   4.508   3.962   1.212  0.3017  0.3904 -0.2060
  534MPD2    C2 7978   4.447   3.939   1.094  0.0057  0.4305  0.5137
  534MPD2    C3 7979   4.378   3.824   1.061  0.0319  0.5887 -0.3963
  534MPD2    C4 7980   4.374   3.721   1.147 -0.3269  0.6081  0.8708
  534MPD2    C5 7981   4.435   3.744   1.268 -0.5789  0.2974 -0.2522
  534MPD2     H 7982   4.438   4.021   1.024 -1.3164 -0.1862 -0.0450
  534MPD2    H1 7983   4.343   3.621   1.116  1.4038  0.9928 -2.0670
  534MPD2    H2 7984   4.548   3.866   1.404 -1.4138 -1.0397  0.4489
  534MPD2    H3 7985   4.439   3.664   1.341  3.8033  1.5605  0.8988
  534MPD2     N 7986   4.301   3.803   0.945 -0.4161 -0.2248 -0.1127
  534MPD2    H5 7987   4.249   3.717   0.929 -0.8467  0.2016 -1.0347
  534MPD2    N1 7988   4.587   4.077   1.226 -0.5967 -0.0657  0.1357
  534MPD2    H7 7989   4.577   4.140   1.147 -1.3599 -1.7982 -1.1228
  535TMC3    C1 7990   4.260   3.815   0.715 -0.1653 -0.3300 -0.3904
  535TMC3    C2 7991   4.227   3.680   0.725 -0.7124  0.3626  0.1169
  535TMC3    C3 7992   4.256   3.593   0.627  0.0069  0.6863  0.4408
  535TMC3    C4 7993   4.321   3.861   0.600 -0.4378  0.2104 -0.2488
  535TMC3    C5 7994   4.339   3.773   0.497  0.6329 -0.2629  0.1885
  535TMC3    C6 7995   4.310   3.640   0.508  0.1103  0.0292  0.8859
  535TMC3     C 7996   4.298   3.891   0.833 -0.6535  0.2073 -0.1701
  535TMC3     O 7997   4.315   4.007   0.824  0.0822 -0.5215 -0.2270
  535TMC3     H 7998   4.178   3.639   0.813  3.7327 -0.4942  2.1906
  535TMC3    H1 7999   4.365   3.959   0.589 -2.2133  0.7414 -2.7182
  535TMC3    H2 8000   4.334   3.579   0.421 -0.8659  2.2318 -0.9208
  535TMC3    C7 8001   4.451   3.802   0.408  0.3924  0.4833 -0.3825
  535TMC3    C8 8002   4.217   3.455   0.639 -0.4088  0.0233  0.0833
  535TMC3    O1 8003   4.529   3.710   0.395  0.3197 -0.9566  0.3611
  535TMC3    O2 8004   4.196   3.393   0.534  0.1797 -0.0514 -0.1338
  536MPD2     C 8005   4.289   1.935  16.314 -0.0188 -0.2738  0.4934
  536MPD2    C1 8006   4.157   1.957  16.356 -0.4652  0.0057  0.1217
  536MPD2    C2 8007   4.059   1.958  16.264 -0.5364  0.2546  0.3534
  536MPD2    C3 8008   4.084   1.940  16.127 -0.6548  0.2485  0.4814
  536MPD2    C4 8009   4.219   1.933  16.084 -0.6480  0.0809 -0.2588
  536MPD2    C5 8010   4.317   1.925  16.186  0.7854 -0.1794  1.0886
  536MPD2     H 8011   3.956   1.975  16.294 -0.5364  0.8779 -0.0150
  536MPD2    H1 8012   4.249   1.913  15.982 -2.5370  1.2061 -1.0540
  536MPD2    H2 8013   4.374   1.913  16.377  0.4821 -0.6616 -0.3189
  536MPD2    H3 8014   4.421   1.914  16.154  0.7524 -1.1149  1.3089
  536MPD2     N 8015   3.976   1.941  16.029  0.3409 -0.0103  0.0671
  536MPD2    H5 8016   4.006   1.963  15.935 -1.6882  0.8742 -0.3840
  536MPD2    N1 8017   4.136   1.955  16.493  0.1837  0.5052 -0.4949
  536MPD2    H7 8018   4.213   1.935  16.556 -1.5638 -0.9597  1.2156
  537TMC3    C1 8019   4.015   1.951  16.695  0.3785  0.3056  0.3335
  537TMC3    C2 8020   4.134   1.949  16.763 -0.1174  0.1673 -0.7762
  537TMC3    C3 8021   4.131   1.882  16.885  0.1783 -0.0665 -0.0621
  537TMC3    C4 8022   3.894   1.904  16.744 -0.1365 -0.3871 -0.0874
  537TMC3    C5 8023   3.894   1.835  16.863 -0.0791  0.1593  0.5679
  537TMC3    C6 8024   4.014   1.822  16.931 -0.6359 -0.6621 -0.2531
  537TMC3     C 8025   4.016   1.989  16.559  0.1409  0.8222 -0.4256
  537TMC3     O 8026   3.909   2.031  16.515 -0.0617  0.6432  0.4077
  537TMC3     H 8027   4.220   2.003  16.724 -0.0474  0.2732 -0.4694
  537TMC3    H1 8028   3.810   1.898  16.675 -1.4316  0.5216  1.4264
  537TMC3    H2 8029   3.997   1.780  17.029 -0.6472  1.1649  0.5351
  537TMC3    C7 8030   3.778   1.752  16.885 -0.6388 -0.2421 -0.7266
  537TMC3    C8 8031   4.247   1.896  16.974 -0.2317 -0.7271  0.9553
  537TMC3    O1 8032   3.665   1.799  16.869 -0.0408  0.2468  0.2649
  537TMC3    O2 8033   4.213   1.870  17.090 -0.7622 -0.3417  0.5594
  538TMC3    C1 8034   0.417   0.955  11.337  0.1448  0.2103  0.1246
  538TMC3    C2 8035   0.527   0.882  11.298 -1.0689  0.0259  0.3406
  538TMC3    C3 8036   0.569   0.902  11.171 -0.4480 -0.7426  0.1991
  538TMC3    C4 8037   0.349   1.039  11.250  0.2216  0.0742  0.0945
  538TMC3    C5 8038   0.393   1.038  11.123  0.4925 -0.5927 -0.2473
  538TMC3    C6 8039   0.506   0.983  11.082 -0.5601  0.4884  0.6186
  538TMC3     C 8040   0.351   0.912  11.460 -0.7620  0.2062  0.4077
  538TMC3     O 8041   0.253   0.976  11.492 -0.2259  0.0281 -0.2549
  538TMC3     H 8042   0.577   0.811  11.362  1.9268  1.4663 -0.3638
  538TMC3    H1 8043   0.253   1.081  11.277 -0.3719  0.6709 -2.9030
  538TMC3    H2 8044   0.538   0.979  10.978 -1.3829 -0.0692  0.3803
  538TMC3    C7 8045   0.296   1.077  11.018  0.2095 -0.1204 -0.7466
  538TMC3    C8 8046   0.707   0.867  11.140 -0.4884  1.0527 -0.1835
  538TMC3    O1 8047   0.181   1.108  11.059 -1.0259 -0.4598  0.2094
  538TMC3    O2 8048   0.771   0.852  11.245 -0.3257  0.4863  0.4852
  539MPD2     C 8049   0.112   4.451  11.503  0.8318 -0.7746 -0.1070
  539MPD2    C1 8050   0.223   4.515  11.447 -0.3232  0.3604 -0.1610
  539MPD2    C2 8051   0.222   4.658  11.435  0.5587 -0.4121  0.1191
  539MPD2    C3 8052   0.112   4.727  11.482  0.4732 -0.6284 -0.5517
  539MPD2    C4 8053   0.001   4.664  11.543 -0.4673 -0.5576  0.0557
  539MPD2    C5 8054   0.002   4.530  11.534 -0.0422 -0.3563 -0.4504
  539MPD2     H 8055   0.298   4.708  11.376  0.3858  0.5230  0.6974
  539MPD2    H1 8056   4.662   4.732  11.581  1.8863  0.8596  2.2345
  539MPD2    H2 8057   0.094   4.344  11.506 -1.8244 -0.2713  1.3706
  539MPD2    H3 8058   4.647   4.476  11.554  0.0830  0.4014  2.2064
  539MPD2     N 8059   0.095   0.132  11.473 -0.7214  0.2491  0.0514
  539MPD2    H5 8060   0.025   0.173  11.534  0.2536  1.4357  0.3611
  539MPD2    N1 8061   0.325   4.431  11.401  0.0603 -0.7765  0.4624
  539MPD2    H7 8062   0.305   4.332  11.400  0.4520 -0.8543  0.2596
  540TMC3    C1 8063   0.074   0.333  11.360  0.1669 -0.0626  0.8376
  540TMC3    C2 8064   0.023   0.350  11.234 -0.6432  0.1552  0.7637
  540TMC3    C3 8065   4.667   0.447  11.226  0.2997 -0.7536  0.2393
  540TMC3    C4 8066   0.038   0.411  11.470  0.1154  0.8360  0.1953
  540TMC3    C5 8067   4.687   0.510  11.457 -0.2168  0.1170 -0.0517
  540TMC3    C6 8068   4.633   0.535  11.331 -0.9633 -0.3846  0.4994
  540TMC3     C 8069   0.149   0.214  11.379  0.1453  0.1971 -0.4194
  540TMC3     O 8070   0.215   0.170  11.286  0.0995  0.2781 -0.0827
  540TMC3     H 8071   0.038   0.277  11.155 -0.9612  0.5725  0.3147
  540TMC3    H1 8072   0.080   0.390  11.568  1.5019  0.4955 -0.4800
  540TMC3    H2 8073   4.566   0.616  11.305 -2.3479 -1.3497  0.9816
  540TMC3    C7 8074   4.613   0.550  11.573 -0.7057 -0.7876  0.8014
  540TMC3    C8 8075   4.568   0.447  11.120  0.6359  0.1205  0.4640
  540TMC3    O1 8076   4.622   0.476  11.672  0.4677 -0.2484 -0.2238
  540TMC3    O2 8077   4.488   0.536  11.100  0.2030 -0.1902  0.3307
  541MPD2     C 8078   3.864   0.993  13.206 -0.1767  0.1555  0.0114
  541MPD2    C1 8079   3.746   1.018  13.269  0.0104 -0.2583 -0.0188
  541MPD2    C2 8080   3.632   1.056  13.198  0.8898 -0.0712  0.3916
  541MPD2    C3 8081   3.640   1.076  13.059  0.0426  0.6440 -0.0596
  541MPD2    C4 8082   3.761   1.054  12.996 -0.7026 -0.2076  0.2195
  541MPD2    C5 8083   3.871   1.010  13.068 -0.3546 -0.4214 -0.2431
  541MPD2     H 8084   3.535   1.061  13.247 -0.0749 -1.9526 -1.3019
  541MPD2    H1 8085   3.767   1.073  12.890 -1.0266  0.0420  0.2448
  541MPD2    H2 8086   3.950   0.964  13.265  1.3164  0.4513 -2.0298
  541MPD2    H3 8087   3.962   0.981  13.017  1.6478  3.9592  0.8501
  541MPD2     N 8088   3.532   1.120  12.976  0.7468 -0.3124  0.1123
  541MPD2    H5 8089   3.547   1.142  12.878 -1.6686 -3.4231 -0.9321
  541MPD2    N1 8090   3.741   0.994  13.408  0.1450  0.5280 -0.4242
  541MPD2    H7 8091   3.819   0.943  13.448 -0.7788  0.5123  1.3925
  542TMC3    C1 8092   3.316   1.213  12.918  0.4516  0.0617 -0.2695
  542TMC3    C2 8093   3.332   1.166  12.787 -0.2647  0.2641 -0.0997
  542TMC3    C3 8094   3.241   1.218  12.696 -0.2754  0.0035  0.0266
  542TMC3    C4 8095   3.223   1.306  12.966  0.6751  0.0888 -0.4853
  542TMC3    C5 8096   3.132   1.353  12.870 -0.3509 -0.1513 -0.1467
  542TMC3    C6 8097   3.149   1.314  12.740  0.0580 -0.0415 -0.1409
  542TMC3     C 8098   3.403   1.148  13.023 -0.0480 -0.1792  0.0688
  542TMC3     O 8099   3.351   1.133  13.132 -0.3759 -0.1797 -0.6674
  542TMC3     H 8100   3.397   1.082  12.761 -1.2576  0.2746 -2.6437
  542TMC3    H1 8101   3.209   1.321  13.073  1.8844  3.1333 -0.7530
  542TMC3    H2 8102   3.088   1.369  12.669 -0.2817  0.2671  0.3899
  542TMC3    C7 8103   3.041   1.454  12.922 -0.2084  1.0493  0.2981
  542TMC3    C8 8104   3.270   1.221  12.553 -0.1005  0.1625  0.0450
  542TMC3    O1 8105   3.050   1.479  13.041  0.1446 -0.4122 -0.6578
  542TMC3    O2 8106   3.243   1.327  12.498 -0.8124 -0.5582 -0.7223
  543TMC3    C1 8107   2.741   2.912  17.189  0.1213 -0.5728 -0.2880
  543TMC3    C2 8108   2.791   2.798  17.242  0.0509  0.6813  0.1569
  543TMC3    C3 8109   2.761   2.770  17.375  0.0184 -0.0647  0.0824
  543TMC3    C4 8110   2.668   3.000  17.256 -0.4088  0.2320  0.1382
  543TMC3    C5 8111   2.633   2.963  17.382  0.3302  1.2826 -0.1346
  543TMC3    C6 8112   2.679   2.850  17.448 -0.2071 -0.5705  0.1586
  543TMC3     C 8113   2.784   2.940  17.056 -0.2285  0.2355  0.0876
  543TMC3     O 8114   2.900   2.901  17.035 -0.4088 -0.2898  0.1981
  543TMC3     H 8115   2.866   2.747  17.184  1.8620  1.8600  1.4678
  543TMC3    H1 8116   2.639   3.095  17.212  1.0631  1.5565  1.9845
  543TMC3    H2 8117   2.672   2.834  17.555 -1.9199  1.9095  0.4189
  543TMC3    C7 8118   2.601   3.074  17.470  0.2022 -0.1724 -0.1917
  543TMC3    C8 8119   2.815   2.645  17.430 -0.1972 -0.0032 -0.2530
  543TMC3    O1 8120   2.541   3.051  17.571 -0.2054 -0.6580  0.3816
  543TMC3    O2 8121   2.922   2.601  17.395 -0.2910 -0.2878  0.4438
  544MPD2     C 8122   2.700   2.176  17.591 -0.5174  0.6584  0.0951
  544MPD2    C1 8123   2.810   2.220  17.516 -0.3619  0.5240  0.1752
  544MPD2    C2 8124   2.811   2.355  17.485 -0.1824  0.4338  0.4646
  544MPD2    C3 8125   2.720   2.446  17.534  0.4902 -0.3507 -0.2513
  544MPD2    C4 8126   2.619   2.402  17.614 -0.5340 -0.3514 -0.1780
  544MPD2    C5 8127   2.612   2.273  17.648 -0.0931 -0.1604 -0.0772
  544MPD2     H 8128   2.877   2.375  17.401 -1.9408  0.7887 -0.8422
  544MPD2    H1 8129   2.543   2.471  17.650 -2.4588 -2.7040  0.2498
  544MPD2    H2 8130   2.684   2.071  17.613  0.0974  0.2885 -1.2247
  544MPD2    H3 8131   2.532   2.236  17.710  1.8543 -3.1730  0.6541
  544MPD2     N 8132   2.721   2.584  17.506  0.2143  0.1570  0.0522
  544MPD2    H5 8133   2.647   2.648  17.534  1.1378  0.8330  0.9694
  544MPD2    N1 8134   2.893   2.115  17.478  0.7777  0.0765 -0.3378
  544MPD2    H7 8135   2.871   2.024  17.516  1.7664 -1.0161 -2.3400
  545TMC3    C1 8136   3.068   2.000  17.373  1.1185  0.7392  0.0022
  545TMC3    C2 8137   3.148   1.998  17.259  0.2542 -0.3910  0.0324
  545TMC3    C3 8138   3.223   1.885  17.243  0.6945 -0.0176  0.5626
  545TMC3    C4 8139   3.052   1.894  17.452 -0.0474 -0.1581  0.7791
  545TMC3    C5 8140   3.140   1.792  17.442  0.4990 -0.5133 -0.4924
  545TMC3    C6 8141   3.238   1.789  17.344 -0.1272 -0.3157 -0.3192
  545TMC3     C 8142   3.002   2.126  17.395  0.0634 -0.7827  0.1467
  545TMC3     O 8143   3.034   2.220  17.324  0.0508  0.1143  0.1411
  545TMC3     H 8144   3.145   2.083  17.191 -0.7260  0.1391  0.7300
  545TMC3    H1 8145   2.967   1.880  17.517 -0.8798  1.5931  0.0594
  545TMC3    H2 8146   3.304   1.704  17.335  2.4326  1.5512  0.8997
  545TMC3    C7 8147   3.118   1.678  17.531 -0.2512 -0.5712  0.8725
  545TMC3    C8 8148   3.299   1.851  17.127  0.2876  0.1176 -0.0820
  545TMC3    O1 8149   3.042   1.706  17.626  0.2211 -0.1474  0.3601
  545TMC3    O2 8150   3.375   1.760  17.140 -0.1685 -0.3543  0.0011
  546MPD2     C 8151   4.299   2.220  17.108  0.4767  0.0564 -0.3376
  546MPD2    C1 8152   4.184   2.258  17.033  0.1550 -0.2975 -0.7288
  546MPD2    C2 8153   4.188   2.376  16.959  0.7373  0.2514  0.4040
  546MPD2    C3 8154   4.297   2.464  16.962  0.1862  0.1650  0.2919
  546MPD2    C4 8155   4.404   2.420  17.032  0.6959 -0.3125  0.4234
  546MPD2    C5 8156   4.408   2.300  17.107  0.1905  0.3225  0.0652
  546MPD2     H 8157   4.098   2.409  16.908  1.5946 -3.1866 -3.2825
  546MPD2    H1 8158   4.491   2.484  17.037 -0.0732  0.7438  0.1292
  546MPD2    H2 8159   4.291   2.122  17.154  2.4000 -1.1436 -2.5595
  546MPD2    H3 8160   4.500   2.294  17.164 -0.6838 -1.5751  1.2974
  546MPD2     N 8161   4.304   2.586  16.897 -0.8818  0.1677  0.0753
  546MPD2    H5 8162   4.396   2.628  16.897  0.2334 -2.2442  1.9375
  546MPD2    N1 8163   4.067   2.183  17.042  0.7715  0.6699  0.1716
  546MPD2    H7 8164   4.069   2.115  17.117 -0.4826 -0.1028 -0.4907
  547TMC3    C1 8165   3.828   2.153  17.024 -0.4562 -0.0552 -0.3344
  547TMC3    C2 8166   3.717   2.209  16.976 -0.2666  0.8871  0.3656
  547TMC3    C3 8167   3.595   2.169  17.024  0.4832 -0.0127 -0.3262
  547TMC3    C4 8168   3.828   2.051  17.118 -0.4752 -0.6164  0.3434
  547TMC3    C5 8169   3.705   2.014  17.166  0.7438  0.1332 -0.6115
  547TMC3    C6 8170   3.590   2.078  17.127 -0.0814 -0.2911  0.4387
  547TMC3     C 8171   3.953   2.197  16.969 -0.3305 -0.0620  1.0733
  547TMC3     O 8172   3.942   2.252  16.861 -0.1903  0.2846 -0.0803
  547TMC3     H 8173   3.731   2.286  16.900  2.7110  1.4427  1.4620
  547TMC3    H1 8174   3.917   2.002  17.154 -0.1556 -1.1607 -1.1879
  547TMC3    H2 8175   3.495   2.046  17.166  0.1018 -0.3900  0.8001
  547TMC3    C7 8176   3.707   1.886  17.234 -0.3736  0.2874  0.3968
  547TMC3    C8 8177   3.476   2.217  16.968 -0.2115 -0.0457 -0.2918
  547TMC3    O1 8178   3.811   1.820  17.227  0.1885 -0.6247  0.2116
  547TMC3    O2 8179   3.483   2.253  16.853  0.5445  0.8240 -0.3534
  548MPD2     C 8180   3.680   2.771  13.310 -0.6526  0.0324 -0.2996
  548MPD2    C1 8181   3.629   2.668  13.241 -0.7822 -0.4610 -0.2528
  548MPD2    C2 8182   3.708   2.608  13.146  0.3740 -0.3218  0.0447
  548MPD2    C3 8183   3.833   2.661  13.116 -0.7155 -0.5843 -0.0153
  548MPD2    C4 8184   3.883   2.771  13.190  0.2153 -0.9423  0.1311
  548MPD2    C5 8185   3.800   2.816  13.285  0.4817  0.6572 -0.4002
  548MPD2     H 8186   3.678   2.521  13.089 -0.2675 -0.1638  0.1428
  548MPD2    H1 8187   3.977   2.822  13.170 -0.3582 -0.4441 -1.3043
  548MPD2    H2 8188   3.619   2.819  13.386  1.3932 -0.0302  1.3778
  548MPD2    H3 8189   3.833   2.899  13.346  0.8027  2.6579 -3.2564
  548MPD2     N 8190   3.905   2.600  13.007  0.4962  0.4833 -0.2810
  548MPD2    H5 8191   3.852   2.529  12.959  1.2408  1.0518 -1.9625
  548MPD2    N1 8192   3.496   2.629  13.279  0.3993  0.0585  0.8868
  548MPD2    H7 8193   3.442   2.691  13.339 -0.8477 -1.0460  0.9003
  549TMC3    C1 8194   3.291   2.514  13.280 -0.7639 -0.0025  0.3262
  549TMC3    C2 8195   3.215   2.625  13.274 -0.5354  0.4027  0.3673
  549TMC3    C3 8196   3.083   2.616  13.284 -0.0083  0.3759 -0.9656
  549TMC3    C4 8197   3.235   2.388  13.291  0.2023  0.2456 -0.1630
  549TMC3    C5 8198   3.092   2.385  13.295  0.2262  0.0270 -0.5607
  549TMC3    C6 8199   3.010   2.497  13.286 -0.2464  0.3454 -0.0688
  549TMC3     C 8200   3.432   2.515  13.240 -0.7540  0.9652  0.4168
  549TMC3     O 8201   3.480   2.413  13.188 -0.0506 -0.3130 -0.3690
  549TMC3     H 8202   3.250   2.724  13.248  1.3656 -0.3912 -0.1125
  549TMC3    H1 8203   3.302   2.307  13.315 -1.3537 -0.3268  2.1968
  549TMC3    H2 8204   2.904   2.496  13.310 -0.2746 -0.2496 -0.2255
  549TMC3    C7 8205   3.018   2.259  13.310  0.0700  0.3232  0.3390
  549TMC3    C8 8206   3.018   2.730  13.240 -0.4405  0.0451 -0.5831
  549TMC3    O1 8207   2.898   2.270  13.344 -0.2037  0.4171  0.1578
  549TMC3    O2 8208   2.948   2.708  13.143 -0.4428 -0.3720 -0.3829
  550TMC3    C1 8209   3.048   0.871  12.347 -0.0524 -0.8376  0.1374
  550TMC3    C2 8210   2.988   0.891  12.471  0.2172 -0.2086 -0.4769
  550TMC3    C3 8211   2.945   1.015  12.507  0.9083 -0.0305 -0.1714
  550TMC3    C4 8212   3.050   0.976  12.259 -0.4311  1.1594  0.1013
  550TMC3    C5 8213   2.996   1.095  12.291 -0.7668  0.2235 -0.0609
  550TMC3    C6 8214   2.956   1.119  12.419  0.6152 -0.3605  0.2835
  550TMC3     C 8215   3.034   0.733  12.289 -0.4420 -0.2559 -0.4108
  550TMC3     O 8216   3.033   0.641  12.368  0.0687 -0.1700  0.2228
  550TMC3     H 8217   2.982   0.811  12.544 -1.3927  0.6915  0.3840
  550TMC3    H1 8218   3.096   0.959  12.163  1.5231 -0.7168  1.3499
  550TMC3    H2 8219   2.907   1.212  12.446 -1.5958 -0.9018 -1.8552
  550TMC3    C7 8220   2.896   1.117  12.196  0.6102  0.4389 -0.4378
  550TMC3    C8 8221   2.825   1.028  12.587 -0.4178 -0.9201  0.2188
  550TMC3    O1 8222   2.841   1.015  12.154  0.3110  0.6406 -0.4132
  550TMC3    O2 8223   2.788   1.131  12.639  0.5263  0.2665 -0.1019
  551TMC3    C1 8224   0.059   3.698  13.264 -0.4862 -0.1587  0.7175
  551TMC3    C2 8225   0.158   3.621  13.211  0.2622 -0.8470  0.2274
  551TMC3    C3 8226   0.269   3.598  13.287 -0.0902 -0.8408 -0.4079
  551TMC3    C4 8227   0.071   3.774  13.376 -0.3980  0.2221 -1.1134
  551TMC3    C5 8228   0.175   3.743  13.456  0.0910  0.0244  0.2465
  551TMC3    C6 8229   0.274   3.652  13.410 -0.3404 -0.6000  0.4924
  551TMC3     C 8230   4.662   3.678  13.207  0.1408  0.5540 -0.1316
  551TMC3     O 8231   4.600   3.775  13.168 -0.7019  0.4679  0.3572
  551TMC3     H 8232   0.154   3.570  13.116  0.3738  0.1762 -0.3310
  551TMC3    H1 8233   4.721   3.818  13.423 -1.5714 -1.7623 -1.4169
  551TMC3    H2 8234   0.368   3.643  13.463 -0.0294  1.5827  0.3177
  551TMC3    C7 8235   0.195   3.797  13.584 -0.2438 -0.2010 -0.4803
  551TMC3    C8 8236   0.383   3.636  13.213  0.3559 -0.1784 -0.1544
  551TMC3    O1 8237   0.273   3.738  13.655  0.1617  0.7963  0.1764
  551TMC3    O2 8238   0.425   3.564  13.126  0.0492  0.2688 -0.2113
  552MPD2     C 8239   2.200   1.146  14.004  0.5384  0.0350  0.0539
  552MPD2    C1 8240   2.169   1.040  14.082 -0.4509 -0.7067 -0.9299
  552MPD2    C2 8241   2.259   0.996  14.176  0.9799 -0.3369 -0.5071
  552MPD2    C3 8242   2.380   1.064  14.205  0.2268 -0.3897 -0.3212
  552MPD2    C4 8243   2.405   1.174  14.129 -0.1062  0.5611  0.0376
  552MPD2    C5 8244   2.318   1.214  14.027 -0.3333 -0.4658  0.3322
  552MPD2     H 8245   2.233   0.909  14.235 -1.4602  0.4090 -0.5139
  552MPD2    H1 8246   2.503   1.219  14.137  0.5025 -0.6916 -0.4603
  552MPD2    H2 8247   2.138   1.186  13.925 -0.4568  1.0633  1.3612
  552MPD2    H3 8248   2.345   1.301  13.967  2.1245 -1.6809 -0.3294
  552MPD2     N 8249   2.477   1.021  14.307 -0.4737 -0.0703 -0.0560
  552MPD2    H5 8250   2.562   1.076  14.312 -0.0687 -0.5691 -1.7062
  552MPD2    N1 8251   2.055   0.960  14.055 -0.3966  0.1453  0.3453
  552MPD2    H7 8252   2.045   0.873  14.108 -1.4990  0.9881  1.5032
  553TMC3    C1 8253   1.901   0.860  13.901 -0.8987 -0.2853 -0.0462
  553TMC3    C2 8254   1.890   0.851  13.766  0.2691  0.6080 -0.3551
  553TMC3    C3 8255   1.915   0.735  13.701  0.1586  0.4171  0.2907
  553TMC3    C4 8256   1.916   0.746  13.973  0.6615  0.9552  0.3179
  553TMC3    C5 8257   1.944   0.627  13.910 -0.0566 -0.4646  0.5036
  553TMC3    C6 8258   1.952   0.627  13.772 -0.6572  0.0299 -0.1721
  553TMC3     C 8259   1.968   0.981  13.954 -0.6797 -0.3653 -0.5134
  553TMC3     O 8260   1.943   1.079  13.890  0.2596 -0.3645  0.5675
  553TMC3     H 8261   1.906   0.942  13.709 -0.4281  0.7551 -0.3162
  553TMC3    H1 8262   1.921   0.743  14.081 -0.8070  1.4711  0.3969
  553TMC3    H2 8263   1.991   0.541  13.719  1.5527  0.8128  0.1801
  553TMC3    C7 8264   2.072   0.594  13.968 -0.3973 -0.1463  0.1922
  553TMC3    C8 8265   2.030   0.748  13.610 -0.1124  0.5403 -0.1056
  553TMC3    O1 8266   2.071   0.556  14.082 -0.9746 -0.1456 -0.1246
  553TMC3    O2 8267   2.128   0.804  13.659 -0.1871  0.5602  0.0273
  554TMC3    C1 8268   4.137   0.455  11.367  0.3893  0.0158  0.6280
  554TMC3    C2 8269   4.008   0.430  11.330 -0.2435  0.3701 -0.0997
  554TMC3    C3 8270   3.928   0.547  11.326 -0.6947  0.3752 -0.1160
  554TMC3    C4 8271   4.187   0.585  11.378 -0.3733  0.0559  0.6065
  554TMC3    C5 8272   4.099   0.688  11.396 -0.3054 -0.2507 -0.0615
  554TMC3    C6 8273   3.965   0.672  11.371 -0.1352  0.1396 -0.3191
  554TMC3     C 8274   4.209   0.368  11.443  0.2373  0.2883  0.0949
  554TMC3     O 8275   4.324   0.398  11.472  0.2439  0.0122 -0.2868
  554TMC3     H 8276   3.974   0.335  11.290  1.2551 -0.0885 -0.2700
  554TMC3    H1 8277   4.293   0.607  11.380 -0.4794  0.8333 -2.1999
  554TMC3    H2 8278   3.896   0.756  11.363  1.3594  1.1552 -2.5934
  554TMC3    C7 8279   4.152   0.802  11.342 -0.1062 -0.3458  0.4628
  554TMC3    C8 8280   3.808   0.540  11.237  0.1418  0.4296 -0.5197
  554TMC3    O1 8281   4.232   0.796  11.253 -0.5342  0.1574  0.2562
  554TMC3    O2 8282   3.780   0.652  11.191  0.4225  0.3880  0.6605
  555TMC3    C1 8283   3.139   4.428  15.048  0.3623  0.0880  0.0757
  555TMC3    C2 8284   3.148   4.506  15.159  0.9121 -0.1690 -0.2690
  555TMC3    C3 8285   3.143   4.445  15.279 -1.1081  0.1816 -0.1456
  555TMC3    C4 8286   3.131   4.288  15.054  0.3741 -0.0338 -0.5903
  555TMC3    C5 8287   3.129   4.231  15.178  0.7642 -1.0267 -0.3553
  555TMC3    C6 8288   3.121   4.310  15.287  0.0198 -0.1657 -0.4567
  555TMC3     C 8289   3.094   4.491  14.923 -0.6075 -0.6216  0.0797
  555TMC3     O 8290   3.161   4.585  14.883 -0.5640 -0.4847 -0.2994
  555TMC3     H 8291   3.156   4.613  15.145 -3.4231  0.0195 -1.1178
  555TMC3    H1 8292   3.112   4.230  14.964 -0.5297 -1.8156  0.7637
  555TMC3    H2 8293   3.074   4.272  15.376 -0.0828 -1.3305 -1.0068
  555TMC3    C7 8294   3.102   4.089  15.186 -0.0882  0.1203 -0.0774
  555TMC3    C8 8295   3.177   4.530  15.393  0.5332 -0.0481  0.7447
  555TMC3    O1 8296   3.085   4.063  15.302  0.1539 -0.0484 -0.2730
  555TMC3    O2 8297   3.180   4.652  15.377 -0.0470  0.6197 -0.4504
  556MPD2     C 8298   1.115   1.594  10.732  0.6040  0.4981 -0.0140
  556MPD2    C1 8299   1.096   1.478  10.807  0.2314  0.7513 -0.2259
  556MPD2    C2 8300   1.086   1.363  10.733  0.3978  0.3784 -0.5211
  556MPD2    C3 8301   1.079   1.357  10.594 -0.3241  0.4937  0.0228
  556MPD2    C4 8302   1.102   1.481  10.522 -0.0977 -0.0261 -0.0642
  556MPD2    C5 8303   1.122   1.594  10.590 -0.3678  0.8480  0.2708
  556MPD2     H 8304   1.074   1.272  10.792 -0.3226  0.6540 -0.2325
  556MPD2    H1 8305   1.102   1.491  10.415  0.2080  0.7972  0.0165
  556MPD2    H2 8306   1.134   1.690  10.778  3.5710 -0.5987  1.0450
  556MPD2    H3 8307   1.125   1.689  10.538  1.1533  0.7879  0.2639
  556MPD2     N 8308   1.057   1.239  10.533  0.1702 -0.0969 -0.3599
  556MPD2    H5 8309   1.068   1.162  10.599 -3.2256 -0.0426  0.2857
  556MPD2    N1 8310   1.108   1.484  10.949  0.0820 -0.0515 -0.6610
  556MPD2    H7 8311   1.093   1.399  11.002  1.9752 -0.6701 -1.1365
  557TMC3    C1 8312   0.993   1.098  10.361  0.3460 -0.0424  0.3158
  557TMC3    C2 8313   0.914   1.083  10.248 -0.3010  0.3172  0.5962
  557TMC3    C3 8314   0.871   0.957  10.222 -0.3438 -0.5070 -0.2248
  557TMC3    C4 8315   1.033   0.993  10.433  0.4569 -0.3744  0.0584
  557TMC3    C5 8316   0.971   0.870  10.411  0.4290  0.0634 -0.7468
  557TMC3    C6 8317   0.882   0.851  10.309 -0.1564  0.1157  0.1573
  557TMC3     C 8318   1.007   1.232  10.409 -0.2517  0.0707  0.6847
  557TMC3     O 8319   0.963   1.318  10.339 -0.1116  0.3772 -0.1304
  557TMC3     H 8320   0.883   1.170  10.190 -1.8953  0.4241  1.6159
  557TMC3    H1 8321   1.089   1.008  10.525  1.7958 -0.1354 -0.7968
  557TMC3    H2 8322   0.837   0.753  10.300 -2.4993  1.0855  1.4353
  557TMC3    C7 8323   0.933   0.805  10.532 -0.0611  0.1215  0.4448
  557TMC3    C8 8324   0.811   0.935  10.090 -0.3775  0.2132 -0.1877
  557TMC3    O1 8325   0.821   0.757  10.529 -0.5668  0.0201 -0.5119
  557TMC3    O2 8326   0.815   1.025  10.009  0.0809 -0.7647 -0.6512
  558TMC3    C1 8327   3.308   3.360  10.834  0.4991 -0.5928 -0.5444
  558TMC3    C2 8328   3.182   3.421  10.836  0.1585  0.2372  0.5200
  558TMC3    C3 8329   3.128   3.486  10.727 -0.8315 -0.0333 -0.1592
  558TMC3    C4 8330   3.375   3.371  10.717  0.4648  0.7707  0.0024
  558TMC3    C5 8331   3.321   3.443  10.610 -0.5597  0.1020 -0.3408
  558TMC3    C6 8332   3.193   3.491  10.609 -0.4496 -0.2369  0.2285
  558TMC3     C 8333   3.382   3.380  10.961  0.4670  0.7777 -0.1371
  558TMC3     O 8334   3.499   3.402  10.944 -0.0286 -0.0451 -0.2725
  558TMC3     H 8335   3.108   3.403  10.913 -1.1863  2.8772 -0.1419
  558TMC3    H1 8336   3.475   3.328  10.722  0.2209 -0.0204 -1.9967
  558TMC3    H2 8337   3.155   3.549  10.526  1.0096 -0.1122 -0.3466
  558TMC3    C7 8338   3.420   3.502  10.522 -0.6057 -0.4397  0.8963
  558TMC3    C8 8339   3.051   3.603  10.756  0.3164 -0.5665 -0.2326
  558TMC3    O1 8340   3.537   3.470  10.545 -0.0062 -0.7464 -0.2024
  558TMC3    O2 8341   2.980   3.660  10.674 -0.0412  0.8182 -0.0099
  559MPD2     C 8342   3.585   4.732  10.685 -0.6058 -0.0795 -0.5956
  559MPD2    C1 8343   3.522   4.615  10.731 -0.4979  0.0509  0.4682
  559MPD2    C2 8344   3.599   4.533  10.810 -0.4715 -0.1328 -0.3382
  559MPD2    C3 8345   3.731   4.550  10.841  0.7012  0.5675  0.2708
  559MPD2    C4 8346   3.795   4.661  10.785  0.6697  0.1566  0.0189
  559MPD2    C5 8347   3.718   0.016  10.717 -0.3127 -0.1237  0.6310
  559MPD2     H 8348   3.546   4.462  10.873 -1.2495  1.1196  0.4268
  559MPD2    H1 8349   3.901   4.679  10.783  0.4715  1.3396  0.2048
  559MPD2    H2 8350   3.534   0.069  10.624  1.1076  1.2906 -0.3651
  559MPD2    H3 8351   3.754   0.111  10.679 -0.1939 -0.9581 -1.3324
  559MPD2     N 8352   3.804   4.459  10.923  0.3314  0.3649  0.4212
  559MPD2    H5 8353   3.764   4.372  10.954  1.5853 -0.3837 -0.0426
  559MPD2    N1 8354   3.383   4.606  10.719  0.1392 -0.0321  1.0691
  559MPD2    H7 8355   3.334   4.690  10.690 -2.0445 -2.0987 -1.3209
  560TMC3    C1 8356   3.998   4.379  11.054  0.1488  0.2131 -0.3971
  560TMC3    C2 8357   3.915   4.309  11.135  0.0858 -0.5659  0.6338
  560TMC3    C3 8358   3.963   4.247  11.247  0.4200  0.2210 -0.4850
  560TMC3    C4 8359   4.131   4.379  11.065 -0.1158  0.3446 -0.2142
  560TMC3    C5 8360   4.180   4.299  11.169  0.2435 -0.9831 -0.2828
  560TMC3    C6 8361   4.099   4.237  11.265  0.1894  0.7443  0.5775
  560TMC3     C 8362   3.940   4.476  10.962 -0.3481 -0.3602 -0.3574
  560TMC3     O 8363   4.014   4.573  10.951  0.0555  0.3631  0.1372
  560TMC3     H 8364   3.809   4.326  11.120  0.3588 -0.3330 -1.0047
  560TMC3    H1 8365   4.189   4.419  10.983 -1.8384  3.0727 -0.1065
  560TMC3    H2 8366   4.134   4.182  11.352 -0.4542 -1.0571 -0.3104
  560TMC3    C7 8367   4.323   4.258  11.182 -0.5972  0.0393 -0.4179
  560TMC3    C8 8368   3.867   4.185  11.338  0.1259 -0.3681 -0.2269
  560TMC3    O1 8369   4.349   4.151  11.237 -0.6168 -0.2358  0.0825
  560TMC3    O2 8370   3.749   4.199  11.303  0.3385  0.1421  0.1854
  561TMC3    C1 8371   1.232   3.445  11.044  0.6957  0.1739  0.0577
  561TMC3    C2 8372   1.223   3.379  11.164  0.0363  0.1929 -0.5147
  561TMC3    C3 8373   1.201   3.460  11.278  0.6363 -0.6208  0.1715
  561TMC3    C4 8374   1.231   3.588  11.033 -0.4142 -0.2756  1.0899
  561TMC3    C5 8375   1.217   3.663  11.151 -0.1798 -0.2579  0.1163
  561TMC3    C6 8376   1.183   3.598  11.269  0.0997  0.5758  0.7141
  561TMC3     C 8377   1.201   3.369  10.924 -0.3532  0.0655  0.2543
  561TMC3     O 8378   1.150   3.258  10.950  0.0072  0.1928 -0.4751
  561TMC3     H 8379   1.234   3.271  11.160  1.9738  0.3764 -0.5834
  561TMC3    H1 8380   1.249   3.647  10.944 -0.2307 -0.0096  1.3074
  561TMC3    H2 8381   1.145   3.652  11.355 -0.6979  0.0352  0.6941
  561TMC3    C7 8382   1.243   3.798  11.164 -0.8809 -0.2793 -0.3372
  561TMC3    C8 8383   1.219   3.387  11.400 -0.7568 -0.7434  0.1048
  561TMC3    O1 8384   1.190   3.864  11.255  0.6596  0.1401 -0.3221
  561TMC3    O2 8385   1.288   3.287  11.398  0.2315  0.6653  0.3356
  562TMC3    C1 8386   2.754   4.186  16.241  0.9902  1.0257 -0.5792
  562TMC3    C2 8387   2.684   4.303  16.232 -0.2508  0.1266 -0.4909
  562TMC3    C3 8388   2.696   4.374  16.116  0.4892 -1.0358 -0.5045
  562TMC3    C4 8389   2.842   4.135  16.142 -0.1975 -0.0487 -0.3040
  562TMC3    C5 8390   2.851   4.217  16.030 -0.5428  0.3925 -0.3217
  562TMC3    C6 8391   2.782   4.337  16.022  0.3410  0.0685 -0.1102
  562TMC3     C 8392   2.719   4.107  16.356 -0.6954 -0.1975 -0.1063
  562TMC3     O 8393   2.701   4.166  16.461  0.3965 -0.4208  0.2685
  562TMC3     H 8394   2.616   4.335  16.311  0.6110 -0.1461  0.3681
  562TMC3    H1 8395   2.899   4.047  16.169  1.0595  1.1280  0.8456
  562TMC3    H2 8396   2.797   4.401  15.936  0.8252  0.9361  0.6168
  562TMC3    C7 8397   2.946   4.179  15.926 -0.1871  0.5024 -0.8946
  562TMC3    C8 8398   2.623   4.496  16.115 -0.2573  0.3772  0.3509
  562TMC3    O1 8399   2.981   4.270  15.851  0.1336 -0.1669  0.1724
  562TMC3    O2 8400   2.567   4.513  16.222 -0.0972  0.5707 -0.1142
  563MPD2     C 8401   0.557   1.221  15.720 -0.3600  0.3109 -0.2903
  563MPD2    C1 8402   0.562   1.201  15.857 -0.5142  0.5329  0.5330
  563MPD2    C2 8403   0.577   1.068  15.900  0.4023  0.2933 -0.5544
  563MPD2    C3 8404   0.574   0.961  15.813  0.2219  0.0712 -0.3385
  563MPD2    C4 8405   0.564   0.982  15.677  0.0447 -0.2380 -0.3673
  563MPD2    C5 8406   0.552   1.119  15.638  0.0200 -0.7650 -0.0191
  563MPD2     H 8407   0.602   1.049  16.004 -0.6586  2.3566  0.0976
  563MPD2    H1 8408   0.521   0.910  15.608 -1.0201 -0.2403  0.3107
  563MPD2    H2 8409   0.540   1.318  15.673 -1.8104  1.2311  2.1053
  563MPD2    H3 8410   0.535   1.129  15.531 -1.5434 -1.3125  0.1781
  563MPD2     N 8411   0.597   0.830  15.858  0.8847 -0.1728 -0.0650
  563MPD2    H5 8412   0.608   0.816  15.958 -0.4170 -0.8907 -0.0274
  563MPD2    N1 8413   0.549   1.322  15.934 -0.7408  0.6820  0.4080
  563MPD2    H7 8414   0.564   1.404  15.876  0.7136 -0.7061 -1.2085
  564TMC3    C1 8415   0.436   1.221  16.114 -0.0598 -0.4601 -0.5524
  564TMC3    C2 8416   0.321   1.193  16.041 -0.3692  0.4506 -0.4410
  564TMC3    C3 8417   0.210   1.147  16.105 -0.1559  0.4874 -0.9722
  564TMC3    C4 8418   0.444   1.203  16.250  0.0460  0.1290 -0.2125
  564TMC3    C5 8419   0.326   1.157  16.313  0.2062  0.9041 -0.0471
  564TMC3    C6 8420   0.209   1.137  16.241 -0.2041 -0.6747  0.5200
  564TMC3     C 8421   0.529   1.323  16.071  0.0751  0.6591  0.1702
  564TMC3     O 8422   0.566   1.407  16.153 -0.3271  0.4388 -0.4758
  564TMC3     H 8423   0.319   1.215  15.935 -0.5708  0.6432 -0.3989
  564TMC3    H1 8424   0.541   1.199  16.299 -0.6528  2.4184  1.3310
  564TMC3    H2 8425   0.119   1.109  16.295  0.2739 -0.0804  1.6410
  564TMC3    C7 8426   0.360   1.029  16.380 -0.5448 -0.1701  0.4553
  564TMC3    C8 8427   0.117   1.056  16.043 -0.0838 -0.1304 -1.1389
  564TMC3    O1 8428   0.465   1.028  16.440 -0.1755  0.0683 -0.2771
  564TMC3    O2 8429   0.049   0.989  16.122 -0.5822  0.6753 -0.4164
  565TMC3    C1 8430   0.284   2.822  10.338 -0.6249 -0.5917 -0.4218
  565TMC3    C2 8431   0.340   2.764  10.443  0.2216  0.9090 -1.0958
  565TMC3    C3 8432   0.314   2.632  10.472 -0.2681  0.5047  0.6742
  565TMC3    C4 8433   0.188   2.754  10.263 -0.0645  0.6180  0.3110
  565TMC3    C5 8434   0.154   2.625  10.304 -0.0250  0.4091 -0.5823
  565TMC3    C6 8435   0.228   2.557  10.396  0.2877  0.4516  0.5065
  565TMC3     C 8436   0.353   2.933  10.262 -0.7038  0.2298 -0.5636
  565TMC3     O 8437   0.292   2.963  10.163  0.1753 -0.3678 -0.2358
  565TMC3     H 8438   0.418   2.807  10.504 -1.2291 -0.0217  1.4005
  565TMC3    H1 8439   0.136   2.803  10.182 -1.8608 -0.7354  0.6592
  565TMC3    H2 8440   0.181   2.479  10.455 -1.2146  1.0784  0.1292
  565TMC3    C7 8441   0.036   2.562  10.249 -0.0742  1.0901 -0.1218
  565TMC3    C8 8442   0.380   2.578  10.588 -0.5879  0.4661  0.2515
  565TMC3    O1 8443   4.708   2.629  10.173  0.0186  0.6021 -0.1225
  565TMC3    O2 8444   0.421   2.662  10.671 -0.7344  0.1397 -0.0367
  566MPD2     C 8445   2.165   4.238  14.509  0.5315  0.3347 -0.5987
  566MPD2    C1 8446   2.184   4.345  14.426  0.7005  0.4358 -0.3621
  566MPD2    C2 8447   2.095   4.351  14.322  0.5438 -0.0283  0.0337
  566MPD2    C3 8448   1.984   4.270  14.307  0.4999 -0.5460 -0.5221
  566MPD2    C4 8449   1.962   4.173  14.400 -0.1796  0.5302 -0.7052
  566MPD2    C5 8450   2.043   4.163  14.508  0.4781  0.8622  0.5192
  566MPD2     H 8451   2.128   4.411  14.238 -1.9792  0.4651 -0.5991
  566MPD2    H1 8452   1.874   4.110  14.392  1.5638 -1.9366 -0.3525
  566MPD2    H2 8453   2.243   4.208  14.578  0.5632 -2.5304 -1.8623
  566MPD2    H3 8454   2.034   4.078  14.575 -2.5765  1.2090  0.5393
  566MPD2     N 8455   1.911   4.296  14.189 -0.7582 -0.3860 -0.2430
  566MPD2    H5 8456   1.944   4.372  14.131 -0.2977 -2.1368 -2.2596
  566MPD2    N1 8457   2.300   4.420  14.427  0.7183  0.4704 -0.2910
  566MPD2    H7 8458   2.384   4.387  14.474  1.4844  3.6370  0.5774
  567TMC3    C1 8459   2.459   4.582  14.336 -0.4119  0.8343 -0.3450
  567TMC3    C2 8460   2.469   4.648  14.222  0.1475 -0.2259  0.3041
  567TMC3    C3 8461   2.588   4.646  14.161 -0.0502  0.4036  0.0201
  567TMC3    C4 8462   2.561   4.516  14.390 -0.1446 -0.4142 -0.7410
  567TMC3    C5 8463   2.683   4.511  14.325 -1.5182  0.7914 -0.4413
  567TMC3    C6 8464   2.697   4.576  14.201  0.1848  0.4451  0.7469
  567TMC3     C 8465   2.316   4.540  14.357 -0.7852  0.2478  0.2624
  567TMC3     O 8466   2.230   4.615  14.304 -0.5584 -0.0544  0.1034
  567TMC3     H 8467   2.388   4.692  14.165 -0.1198  0.0418  0.8986
  567TMC3    H1 8468   2.549   4.461  14.482 -2.7418 -1.5188 -1.7545
  567TMC3    H2 8469   2.793   4.592  14.153 -0.6994  0.3883 -1.0381
  567TMC3    C7 8470   2.755   4.385  14.331 -0.0169  0.6176 -0.3174
  567TMC3    C8 8471   2.584   4.715  14.035 -0.8305  0.1811  0.4594
  567TMC3    O1 8472   2.793   4.344  14.225  0.4864  0.2922 -0.1751
  567TMC3    O2 8473   2.495   4.683  13.955  0.1410 -0.2902 -0.1178
  568MPD2     C 8474   0.052   4.321  16.104 -0.4606 -0.6908 -0.1873
  568MPD2    C1 8475   0.044   4.410  16.211 -0.3337 -0.3867  0.5078
  568MPD2    C2 8476   0.009   4.540  16.170 -0.4469  0.0001 -0.0494
  568MPD2    C3 8477   4.708   4.578  16.046 -0.2159 -0.4168  0.0526
  568MPD2    C4 8478   4.728   4.486  15.949 -1.0783  0.4675 -0.4188
  568MPD2    C5 8479   0.024   4.360  15.975  0.7262  0.1396 -0.0466
  568MPD2     H 8480   0.011   4.619  16.244 -0.1313  0.5517 -0.6413
  568MPD2    H1 8481   4.704   4.513  15.846  1.1467 -1.4900 -1.4595
  568MPD2    H2 8482   0.069   4.215  16.116  1.4449 -0.4545 -0.7747
  568MPD2    H3 8483   0.037   4.286  15.897 -0.0008  1.5502 -1.4960
  568MPD2     N 8484   4.655   4.710  16.027  0.6256 -0.2717  0.1035
  568MPD2    H5 8485   4.627   0.022  16.112 -0.1060 -1.4155  0.5281
  568MPD2    N1 8486   0.064   4.370  16.344  0.0059  0.9125 -0.2444
  568MPD2    H7 8487   0.103   4.277  16.355 -2.5132 -0.1654 -0.5444
  569TMC3    C1 8488   4.579   0.166  15.933 -0.2622 -0.5193 -0.0328
  569TMC3    C2 8489   4.512   0.192  16.050  0.1010  0.2562 -0.6244
  569TMC3    C3 8490   4.464   0.322  16.060 -0.0006  0.0098 -0.1128
  569TMC3    C4 8491   4.608   0.273  15.839 -0.1094  0.0223  0.7359
  569TMC3    C5 8492   4.571   0.398  15.876  0.3402 -0.4500  0.1719
  569TMC3    C6 8493   4.494   0.424  15.984 -0.1114  0.4751  0.2496
  569TMC3     C 8494   4.657   0.041  15.911 -0.2935  0.5575  0.5339
  569TMC3     O 8495   4.731   0.030  15.816  0.5341  0.2546  0.4231
  569TMC3     H 8496   4.480   0.113  16.116 -0.1266  0.5487 -0.3892
  569TMC3    H1 8497   4.664   0.260  15.748 -1.4362  0.9267 -0.2220
  569TMC3    H2 8498   4.456   0.525  15.997  3.1387  1.5283  1.6102
  569TMC3    C7 8499   4.599   0.509  15.785 -0.0525  0.2285  0.6676
  569TMC3    C8 8500   4.438   0.347  16.201 -0.1040  0.2504 -0.0890
  569TMC3    O1 8501   4.610   0.488  15.666  0.0339  0.0470 -0.3679
  569TMC3    O2 8502   4.345   0.285  16.247 -0.1989  0.2699 -0.4278
  570TMC3    C1 8503   4.291   3.159  15.982 -0.0623  0.1174  0.4792
  570TMC3    C2 8504   4.365   3.183  15.873 -0.2835 -0.2908 -0.7005
  570TMC3    C3 8505   4.349   3.307  15.814 -0.0547  0.4392  0.1675
  570TMC3    C4 8506   4.204   3.250  16.037  0.4493 -0.3370  0.0228
  570TMC3    C5 8507   4.190   3.370  15.973  0.6616  0.3662  0.0128
  570TMC3    C6 8508   4.265   3.407  15.861 -0.1571  0.1345 -0.2670
  570TMC3     C 8509   4.325   3.035  16.050  0.0687 -0.1733 -0.7974
  570TMC3     O 8510   4.409   2.966  15.993  0.0568 -0.1074 -0.4877
  570TMC3     H 8511   4.448   3.115  15.858  0.7610  0.3402  2.1989
  570TMC3    H1 8512   4.154   3.221  16.129 -0.3236  0.9503  0.0065
  570TMC3    H2 8513   4.242   3.495  15.801 -0.1179  0.9526  0.9100
  570TMC3    C7 8514   4.105   3.470  16.041 -0.6514  0.3978 -0.4349
  570TMC3    C8 8515   4.435   3.348  15.708  0.6359  0.3048  1.0481
  570TMC3    O1 8516   4.042   3.438  16.139 -0.7649 -0.0327 -0.1151
  570TMC3    O2 8517   4.436   3.472  15.687 -0.1403 -0.8316 -0.4445
  571MPD2     C 8518   1.136   0.051   0.688 -0.1010  0.1243  0.1789
  571MPD2    C1 8519   1.196   0.150   0.617 -0.2596 -0.1973  0.2458
  571MPD2    C2 8520   1.201   0.278   0.668  0.0762  0.0508 -0.1330
  571MPD2    C3 8521   1.138   0.308   0.783  0.0428  0.0027 -0.5599
  571MPD2    C4 8522   1.073   0.207   0.859 -0.3988  0.2252 -0.5284
  571MPD2    C5 8523   1.066   0.080   0.806  0.1794 -0.1600 -0.1903
  571MPD2     H 8524   1.264   0.348   0.614 -0.2953 -0.4560 -1.2245
  571MPD2    H1 8525   1.016   0.222   0.950  1.6339  0.7281  0.6784
  571MPD2    H2 8526   1.125   4.689   0.645  0.4213  0.1689 -0.0566
  571MPD2    H3 8527   1.019   4.735   0.859  3.1594 -1.6649  0.1232
  571MPD2     N 8528   1.138   0.436   0.842 -0.3895 -0.3070  0.3036
  571MPD2    H5 8529   1.083   0.457   0.926  0.0265 -0.3677  0.5907
  571MPD2    N1 8530   1.255   0.105   0.491 -0.4125  0.3468  0.1424
  571MPD2    H7 8531   1.239   0.009   0.466 -0.6154  0.3972  0.0784
  572TMC3    C1 8532   1.166   0.674   0.842  0.5998  0.0067 -0.1997
  572TMC3    C2 8533   1.122   0.691   0.969  0.3335 -1.2576  0.0412
  572TMC3    C3 8534   1.136   0.815   1.030  0.0487  0.0546  0.1781
  572TMC3    C4 8535   1.196   0.784   0.771  0.2702  0.2223 -0.0549
  572TMC3    C5 8536   1.197   0.904   0.828  0.3122  0.1327 -0.2122
  572TMC3    C6 8537   1.160   0.927   0.957  0.4900  0.2072  0.2645
  572TMC3     C 8538   1.199   0.545   0.787  0.1347  0.3409  0.1207
  572TMC3     O 8539   1.275   0.546   0.691 -0.1042  0.3286  0.4690
  572TMC3     H 8540   1.122   0.602   1.031 -1.4835 -0.0985  1.6859
  572TMC3    H1 8541   1.222   0.769   0.667  1.0049 -1.9369  0.4496
  572TMC3    H2 8542   1.163   1.023   1.007  0.6751 -0.1851  1.0208
  572TMC3    C7 8543   1.231   1.013   0.739  0.5791 -0.4591 -0.0528
  572TMC3    C8 8544   1.137   0.827   1.180  0.4822 -0.6904 -0.2860
  572TMC3    O1 8545   1.250   0.977   0.624  0.0754  0.2704 -0.2075
  572TMC3    O2 8546   1.181   0.730   1.241  0.0502 -0.1956  0.0208
  573MPD2     C 8547   2.596   0.808  17.086 -0.2560 -0.3443 -0.5485
  573MPD2    C1 8548   2.647   0.807  17.213 -0.4311  0.1061  0.2617
  573MPD2    C2 8549   2.780   0.788  17.229 -0.2311  0.7029  0.2062
  573MPD2    C3 8550   2.869   0.789  17.119 -0.1230  0.2376  0.0838
  573MPD2    C4 8551   2.809   0.797  16.992  0.3300  0.4169  0.1791
  573MPD2    C5 8552   2.674   0.810  16.974  0.2781  0.0123  0.0347
  573MPD2     H 8553   2.816   0.778  17.331 -0.6542  0.5566  0.3427
  573MPD2    H1 8554   2.871   0.801  16.904  1.5875  1.5092  1.1170
  573MPD2    H2 8555   2.490   0.828  17.069 -0.2607  0.9831  1.0429
  573MPD2    H3 8556   2.628   0.819  16.876  1.5025  2.9772 -0.2642
  573MPD2     N 8557   3.011   0.797  17.127 -0.0530  0.4522  0.0063
  573MPD2    H5 8558   3.066   0.820  17.045 -1.4828  2.8506 -0.2831
  573MPD2    N1 8559   2.559   0.813  17.321  0.6926  0.6520  0.1143
  573MPD2    H7 8560   2.459   0.820  17.303  0.2606  1.5696  2.9437
  574TMC3    C1 8561   3.217   0.804  17.244  0.2766  0.9449  0.6108
  574TMC3    C2 8562   3.258   0.870  17.357 -0.6761 -0.3298 -0.4735
  574TMC3    C3 8563   3.353   0.969  17.342  0.6654  0.5035  0.3295
  574TMC3    C4 8564   3.283   0.806  17.126 -0.0285 -0.4674 -0.2311
  574TMC3    C5 8565   3.387   0.889  17.113 -0.3074  0.4756  0.3938
  574TMC3    C6 8566   3.416   0.971  17.222  0.0873  0.8151  0.6292
  574TMC3     C 8567   3.081   0.759  17.244 -0.5691 -0.0911  0.5613
  574TMC3     O 8568   3.026   0.726  17.349 -0.3679  0.0532 -0.5884
  574TMC3     H 8569   3.201   0.854  17.448 -0.5793  1.3879 -0.1230
  574TMC3    H1 8570   3.252   0.739  17.047 -3.6659  1.7563 -0.7114
  574TMC3    H2 8571   3.504   1.035  17.214  0.4593  0.2051 -0.2201
  574TMC3    C7 8572   3.475   0.886  17.000  0.1831 -0.0388  0.2478
  574TMC3    C8 8573   3.346   1.092  17.416  0.2256  0.1571  0.1437
  574TMC3    O1 8574   3.566   0.964  17.012  0.3569 -0.2310 -0.2086
  574TMC3    O2 8575   3.403   1.185  17.360  0.0788 -0.2709 -0.1181
  575TMC3    C1 8576   0.589   2.634  11.430  0.1569 -0.3893  0.2594
  575TMC3    C2 8577   0.579   2.524  11.512 -0.1263 -0.0417 -0.1343
  575TMC3    C3 8578   0.538   2.410  11.452  0.2029 -0.7057 -0.8395
  575TMC3    C4 8579   0.584   2.625  11.301 -0.1318 -0.3340  1.6196
  575TMC3    C5 8580   0.563   2.506  11.237 -0.1086 -0.0614 -0.7232
  575TMC3    C6 8581   0.542   2.394  11.313 -0.8946  0.7783  0.1481
  575TMC3     C 8582   0.616   2.758  11.506  0.7707 -0.7474 -0.2379
  575TMC3     O 8583   0.577   2.759  11.619  0.5469  0.1679 -0.2197
  575TMC3     H 8584   0.561   2.542  11.617 -0.9789 -0.3995 -0.2245
  575TMC3    H1 8585   0.584   2.713  11.239 -3.1297 -1.0854  0.4997
  575TMC3    H2 8586   0.526   2.295  11.274 -0.3287  0.4328  0.7903
  575TMC3    C7 8587   0.549   2.505  11.096 -0.1574 -0.0022  0.1799
  575TMC3    C8 8588   0.536   2.289  11.529 -0.1400 -0.7615  0.5416
  575TMC3    O1 8589   0.569   2.607  11.032  0.4927  0.0016  0.1239
  575TMC3    O2 8590   0.482   2.194  11.477  0.2092 -0.1262  0.3450
  576MPD2     C 8591   0.468   3.498  12.665 -0.4256 -1.1536  0.9793
  576MPD2    C1 8592   0.518   3.628  12.638 -0.4668 -0.2008  1.2236
  576MPD2    C2 8593   0.485   3.732  12.721  0.4575 -0.3971 -0.3732
  576MPD2    C3 8594   0.392   3.717  12.820 -1.0906  0.1437  0.6743
  576MPD2    C4 8595   0.332   3.597  12.835  0.1239  0.1002  1.5076
  576MPD2    C5 8596   0.369   3.488  12.761 -0.7119 -0.1074  0.1516
  576MPD2     H 8597   0.528   3.830  12.703  3.3229 -1.7889 -1.1912
  576MPD2    H1 8598   0.244   3.583  12.897  0.4957 -0.2927  1.9488
  576MPD2    H2 8599   0.495   3.410  12.607 -0.3101 -0.9264  0.6882
  576MPD2    H3 8600   0.327   3.392  12.789  1.0106  0.1972  3.8178
  576MPD2     N 8601   0.350   3.835  12.880  0.0328  0.6661 -0.0224
  576MPD2    H5 8602   0.412   3.915  12.874  1.3011 -0.4438 -1.6496
  576MPD2    N1 8603   0.597   3.668  12.530 -0.5784  0.1100  0.2041
  576MPD2    H7 8604   0.625   3.764  12.515 -1.1877  0.4671  1.3461
  577TMC3    C1 8605   0.742   3.634  12.338  0.0408  0.2352  0.0667
  577TMC3    C2 8606   0.786   3.544  12.249 -0.1724 -0.3734 -0.2424
  577TMC3    C3 8607   0.843   3.589  12.131  0.1474 -0.1763 -0.2836
  577TMC3    C4 8608   0.740   3.761  12.304 -0.6355 -0.1453 -0.6615
  577TMC3    C5 8609   0.805   3.805  12.196  0.3752  0.4274 -0.2293
  577TMC3    C6 8610   0.850   3.720  12.098 -0.3306 -0.2329  0.3933
  577TMC3     C 8611   0.665   3.580  12.449 -0.5112  0.4193 -0.1680
  577TMC3     O 8612   0.683   3.458  12.462  0.0928  0.3071 -0.0355
  577TMC3     H 8613   0.786   3.437  12.267  4.2943 -0.0775  1.5018
  577TMC3    H1 8614   0.673   3.835  12.347  2.8587  2.2217  0.7029
  577TMC3    H2 8615   0.921   3.757  12.025 -0.7267  2.1250  1.2073
  577TMC3    C7 8616   0.786   3.943  12.159  0.6997  0.4230 -0.0495
  577TMC3    C8 8617   0.939   3.507  12.072  0.0128 -0.3403  0.5572
  577TMC3    O1 8618   0.757   4.024  12.244  0.2002  0.5418  0.2218
  577TMC3    O2 8619   0.988   3.427  12.150 -0.4646 -0.5012 -0.1866
  578MPD2     C 8620   3.362   3.381   0.305  0.0185 -0.5399 -0.0035
  578MPD2    C1 8621   3.421   3.409   0.422  0.2808  0.2626  0.3398
  578MPD2    C2 8622   3.452   3.313   0.514 -0.0902 -0.2290 -0.1504
  578MPD2    C3 8623   3.428   3.178   0.479 -0.0125 -0.2082 -0.2983
  578MPD2    C4 8624   3.361   3.152   0.361  0.1856  0.3776  0.4434
  578MPD2    C5 8625   3.329   3.250   0.273  0.0491  0.2744 -0.2407
  578MPD2     H 8626   3.494   3.334   0.612 -0.7654  1.2465 -0.1839
  578MPD2    H1 8627   3.340   3.051   0.328 -1.6107  1.4999 -1.8197
  578MPD2    H2 8628   3.334   3.456   0.232  3.6073  1.4156  0.5956
  578MPD2    H3 8629   3.284   3.236   0.175  0.8952  0.2375 -0.6258
  578MPD2     N 8630   3.474   3.077   0.562  0.0773 -0.0159  0.4013
  578MPD2    H5 8631   3.527   3.111   0.642 -1.2105  1.6529  0.5357
  578MPD2    N1 8632   3.456   3.546   0.444 -0.2156 -0.4038  0.3329
  578MPD2    H7 8633   3.447   3.605   0.362 -1.6436 -0.7831  0.2210
  579TMC3    C1 8634   3.600   2.879   0.605 -0.9996  0.2270 -0.0114
  579TMC3    C2 8635   3.693   2.960   0.657 -0.1685  0.1979 -0.8643
  579TMC3    C3 8636   3.814   2.908   0.693 -0.3778  0.1531 -0.1903
  579TMC3    C4 8637   3.631   2.751   0.572 -0.2281 -0.4324 -0.0747
  579TMC3    C5 8638   3.750   2.704   0.607 -0.1614 -0.2972  0.3935
  579TMC3    C6 8639   3.845   2.769   0.675  0.6743  0.5789  1.0279
  579TMC3     C 8640   3.495   2.946   0.527  0.1419 -0.6705  0.9642
  579TMC3     O 8641   3.453   2.873   0.434 -0.0655  0.3513  0.3646
  579TMC3     H 8642   3.682   3.065   0.682 -3.0555 -1.0085  2.8083
  579TMC3    H1 8643   3.562   2.698   0.507 -0.3826  0.7886 -0.9216
  579TMC3    H2 8644   3.947   2.734   0.662 -0.5579 -3.5247  2.3255
  579TMC3    C7 8645   3.771   2.564   0.577 -0.0700 -0.0515  0.0079
  579TMC3    C8 8646   3.919   3.008   0.691 -0.1451 -0.2101 -0.0925
  579TMC3    O1 8647   3.886   2.522   0.572  0.4149 -0.7054 -0.0733
  579TMC3    O2 8648   3.895   3.113   0.630  0.1279  0.3449  0.7150
  580TMC3    C1 8649   3.096   2.722  12.807 -0.1478 -0.2376 -0.1242
  580TMC3    C2 8650   3.225   2.759  12.850  0.6198  0.1667  0.4250
  580TMC3    C3 8651   3.299   2.664  12.909 -0.6015 -0.3235  0.1624
  580TMC3    C4 8652   3.052   2.588  12.807 -0.4393  0.3706 -0.2049
  580TMC3    C5 8653   3.133   2.502  12.877 -0.0134 -0.6643 -1.3429
  580TMC3    C6 8654   3.257   2.533  12.927 -0.0142 -0.2879  0.2434
  580TMC3     C 8655   3.018   2.828  12.749  0.2811 -0.0582  0.6503
  580TMC3     O 8656   3.075   2.939  12.733  0.0862  0.2717  0.0486
  580TMC3     H 8657   3.271   2.852  12.819  0.7560 -0.3838 -1.0274
  580TMC3    H1 8658   2.963   2.557  12.754  0.1901 -1.3775 -0.2278
  580TMC3    H2 8659   3.319   2.448  12.955  1.0187  1.0460  1.9604
  580TMC3    C7 8660   3.140   2.362  12.853 -0.1306  0.0600  0.2447
  580TMC3    C8 8661   3.440   2.663  12.887 -0.2278 -0.2365  0.1061
  580TMC3    O1 8662   3.163   2.283  12.946  0.5674 -0.0365 -0.3863
  580TMC3    O2 8663   3.494   2.566  12.844  0.0939  0.7279  0.1834
  581MPD2     C 8664   0.857   1.947  14.837  0.5068 -0.8479  0.4843
  581MPD2    C1 8665   0.916   2.047  14.761  0.6464 -0.2062 -0.3823
  581MPD2    C2 8666   0.839   2.145  14.704 -0.8587  0.4987  0.1567
  581MPD2    C3 8667   0.706   2.153  14.738  0.2795  0.2069  0.2801
  581MPD2    C4 8668   0.641   2.044  14.796 -0.6330  0.3279 -0.0922
  581MPD2    C5 8669   0.721   1.941  14.841 -0.0248 -0.4247 -0.0531
  581MPD2     H 8670   0.887   2.221  14.643 -1.5578 -0.6630 -1.8462
  581MPD2    H1 8671   0.533   2.037  14.800 -0.4159 -1.9844  1.5102
  581MPD2    H2 8672   0.918   1.869  14.882 -0.4607 -1.9662 -0.1439
  581MPD2    H3 8673   0.668   1.857  14.885  0.9330 -1.1129 -0.2193
  581MPD2     N 8674   0.645   2.269  14.694  0.0693 -0.0715  0.3550
  581MPD2    H5 8675   0.703   2.321  14.629 -1.2153  1.0467  0.1033
  581MPD2    N1 8676   1.055   2.037  14.749  0.2596  0.3210 -0.0451
  581MPD2    H7 8677   1.100   1.964  14.803  0.5888 -0.5472 -1.4776
  582TMC3    C1 8678   1.268   2.071  14.687  0.0490  0.2601 -0.2021
  582TMC3    C2 8679   1.359   2.139  14.767 -0.3295  0.2474  0.3598
  582TMC3    C3 8680   1.457   2.074  14.828  0.5498 -0.4499  0.7460
  582TMC3    C4 8681   1.278   1.935  14.678 -0.1635  0.9587 -0.0575
  582TMC3    C5 8682   1.356   1.868  14.759 -0.2068 -0.1170  0.2197
  582TMC3    C6 8683   1.453   1.937  14.828  1.2939 -0.0447  0.5379
  582TMC3     C 8684   1.135   2.126  14.676  0.0274 -0.8411  0.4381
  582TMC3     O 8685   1.119   2.244  14.640  0.1504 -0.3623  0.1202
  582TMC3     H 8686   1.354   2.245  14.787 -0.6899  0.1749  0.6603
  582TMC3    H1 8687   1.201   1.886  14.619  0.1285  0.8777 -0.3708
  582TMC3    H2 8688   1.521   1.882  14.893  0.7155 -2.5806 -1.0166
  582TMC3    C7 8689   1.272   1.789  14.845 -1.0479 -0.3209 -0.1802
  582TMC3    C8 8690   1.477   2.130  14.958  0.4819  0.8128 -0.3578
  582TMC3    O1 8691   1.177   1.733  14.790 -0.1642  0.6284 -0.1494
  582TMC3    O2 8692   1.370   2.158  15.011  0.7004  0.0007  0.2307
  583MPD2     C 8693   1.348   3.829  16.929 -0.8320 -0.8290 -0.1035
  583MPD2    C1 8694   1.307   3.940  16.855 -0.9266  0.2856 -0.2805
  583MPD2    C2 8695   1.233   4.040  16.913 -0.2911  0.5653 -0.4270
  583MPD2    C3 8696   1.189   4.030  17.041  0.0229  0.6471 -0.5709
  583MPD2    C4 8697   1.227   3.920  17.119 -0.5744  0.3874  0.5580
  583MPD2    C5 8698   1.304   3.820  17.062 -0.0535  0.0892  1.1773
  583MPD2     H 8699   1.216   4.129  16.854 -1.6477  0.7466  0.2450
  583MPD2    H1 8700   1.187   3.896  17.217 -0.7557  0.4753  0.5065
  583MPD2    H2 8701   1.402   3.746  16.886 -0.6052 -0.0898 -1.2392
  583MPD2    H3 8702   1.335   3.731  17.117 -0.8292 -1.3558 -0.7355
  583MPD2     N 8703   1.110   4.141  17.087  0.1729  0.0260 -0.1989
  583MPD2    H5 8704   1.109   4.214  17.017  0.0116 -0.3211 -0.5614
  583MPD2    N1 8705   1.354   3.952  16.723  0.2268 -0.0905 -0.1678
  583MPD2    H7 8706   1.339   4.043  16.679  1.6183 -0.2152 -0.9015
  584TMC3    C1 8707   1.000   4.289  17.242  0.7491  0.1327  0.2381
  584TMC3    C2 8708   1.033   4.398  17.167  0.5514 -0.8417 -0.5586
  584TMC3    C3 8709   0.988   4.521  17.201 -0.1111 -0.1796 -0.8891
  584TMC3    C4 8710   0.941   4.303  17.361  0.8204 -0.1309 -0.4692
  584TMC3    C5 8711   0.912   4.427  17.404  0.0328 -0.2142  0.4076
  584TMC3    C6 8712   0.925   4.540  17.322 -0.4913 -0.1800 -0.0296
  584TMC3     C 8713   1.044   4.151  17.204  0.4337  0.7219  0.5373
  584TMC3     O 8714   1.034   4.063  17.289 -0.1416  0.1068 -0.1089
  584TMC3     H 8715   1.074   4.378  17.069  1.4245  0.9674 -0.5640
  584TMC3    H1 8716   0.903   4.213  17.409 -1.2706  0.0261 -1.8243
  584TMC3    H2 8717   0.888   4.640  17.342 -1.1104 -0.2879 -0.6186
  584TMC3    C7 8718   0.846   4.435  17.525  0.1559 -0.1062 -0.1389
  584TMC3    C8 8719   1.023   4.634  17.109 -0.2776  0.6031  0.0738
  584TMC3    O1 8720   0.826   4.330  17.583  0.4821  0.6666 -0.2001
  584TMC3    O2 8721   1.050   4.611  16.993 -0.2873 -0.4213 -0.3067
  585MPD2     C 8722   0.359   3.322   0.266  0.9080 -0.2349  0.1736
  585MPD2    C1 8723   0.378   3.347   0.133 -0.3515 -0.0563  0.0809
  585MPD2    C2 8724   0.342   3.253   0.040  0.3742  0.3443 -0.6876
  585MPD2    C3 8725   0.289   3.132   0.082 -0.0248 -0.3320 -0.7140
  585MPD2    C4 8726   0.285   3.096   0.219 -0.3211 -0.6266 -0.8674
  585MPD2    C5 8727   0.326   3.195   0.305  0.2640  0.9111 -0.2330
  585MPD2     H 8728   0.351   3.266  17.680 -0.5534 -0.0219 -0.8121
  585MPD2    H1 8729   0.243   3.009   0.269  0.6509  1.5331  3.6385
  585MPD2    H2 8730   0.387   3.390   0.347 -1.3021  0.7145  0.1563
  585MPD2    H3 8731   0.324   3.178   0.412  1.8634 -2.7740 -0.8063
  585MPD2     N 8732   0.231   3.036   0.002  0.6270 -0.0568  0.5278
  585MPD2    H5 8733   0.190   2.954   0.047 -0.2985  0.0612 -0.0956
  585MPD2    N1 8734   0.425   3.464   0.079  0.4320 -0.3025 -0.1407
  585MPD2    H7 8735   0.439   3.454  17.726  1.8655  1.4601 -0.1055
  586TMC3    C1 8736   0.152   2.929  17.561  0.0455 -0.4172 -0.0769
  586TMC3    C2 8737   0.190   2.891  17.437  0.8965  0.0054 -0.4169
  586TMC3    C3 8738   0.122   2.784  17.383  0.2500 -0.4461  0.3685
  586TMC3    C4 8739   0.047   2.880  17.632  0.2085 -0.5085 -0.9565
  586TMC3    C5 8740   4.709   2.794  17.570  0.6791 -0.2963 -0.2067
  586TMC3    C6 8741   0.003   2.741  17.443  0.0043  0.3871 -0.0472
  586TMC3     C 8742   0.215   3.045  17.610  0.2285 -0.7332  0.0900
  586TMC3     O 8743   0.259   3.126  17.529  0.3235  0.3387  0.2511
  586TMC3     H 8744   0.287   2.919  17.397  0.4676  1.5628 -0.3633
  586TMC3    H1 8745   0.029   2.912  17.734  1.5254 -2.5833 -0.0543
  586TMC3    H2 8746   4.682   2.661  17.396  0.9413 -0.7207  0.6803
  586TMC3    C7 8747   4.619   2.709  17.645 -0.0457  0.4383  0.1662
  586TMC3    C8 8748   0.201   2.662  17.348 -0.2832  0.1849  0.1345
  586TMC3    O1 8749   4.550   2.640  17.571 -0.4482 -0.1578  0.2646
  586TMC3    O2 8750   0.157   2.549  17.365 -0.2318  0.2054 -0.4113
  587TMC3    C1 8751   2.561   1.633  16.034  0.7036 -0.0167 -0.0045
  587TMC3    C2 8752   2.646   1.706  16.114 -0.5558 -0.2377  0.5380
  587TMC3    C3 8753   2.740   1.636  16.188  0.3938 -0.5536  0.0742
  587TMC3    C4 8754   2.545   1.503  16.060  0.8812 -0.0155 -0.0456
  587TMC3    C5 8755   2.629   1.437  16.142  0.0855  0.4621 -0.8919
  587TMC3    C6 8756   2.731   1.502  16.211  0.7615  0.2242 -0.2607
  587TMC3     C 8757   2.435   1.695  16.021  0.4989 -0.2449 -0.1655
  587TMC3     O 8758   2.440   1.808  15.974  0.5884 -0.1494  0.7966
  587TMC3     H 8759   2.666   1.806  16.077 -0.4452 -1.0820 -1.6659
  587TMC3    H1 8760   2.478   1.449  15.995  1.9666 -0.3653 -0.8861
  587TMC3    H2 8761   2.794   1.445  16.278 -0.1211  0.6414  0.9237
  587TMC3    C7 8762   2.595   1.297  16.176  0.1510  0.3871 -0.1205
  587TMC3    C8 8763   2.797   1.717  16.298  0.5368 -0.2575  0.6012
  587TMC3    O1 8764   2.532   1.244  16.083  0.4164 -0.6834  0.0240
  587TMC3    O2 8765   2.871   1.667  16.380 -0.2920  0.0846  0.4552
  588TMC3    C1 8766   4.624   4.354  10.026 -0.1563  0.7040 -0.0409
  588TMC3    C2 8767   4.589   4.236   9.975  0.2524  0.2881 -0.0023
  588TMC3    C3 8768   4.682   4.134   9.979 -0.6103 -0.1859  0.7159
  588TMC3    C4 8769   0.011   4.381  10.082  0.4302  0.6166 -0.4436
  588TMC3    C5 8770   0.106   4.279  10.079  0.2815 -0.0915  0.7099
  588TMC3    C6 8771   0.073   4.155  10.033 -0.6384  0.5496 -0.5554
  588TMC3     C 8772   4.553   4.480   9.973  0.8709 -0.1356  0.6398
  588TMC3     O 8773   4.437   4.480   9.937 -0.3570  0.1908 -0.0304
  588TMC3     H 8774   4.498   4.222   9.917  0.5505  0.1670 -0.4339
  588TMC3    H1 8775   0.030   4.471  10.140 -0.2350 -0.5979  1.6628
  588TMC3    H2 8776   0.150   4.079  10.041 -2.1503 -0.9786 -0.6214
  588TMC3    C7 8777   0.215   4.288  10.171  0.2486  0.6279  0.3068
  588TMC3    C8 8778   4.613   4.014  10.004 -0.1689  0.9489 -0.2308
  588TMC3    O1 8779   0.271   4.194  10.221  0.0823 -0.5250 -0.4270
  588TMC3    O2 8780   4.491   4.009   9.993 -0.7906  0.2324 -0.2969
  589TMC3    C1 8781   3.545   1.370   0.994  0.0713 -0.2755  0.3469
  589TMC3    C2 8782   3.662   1.404   1.055  0.1818 -0.1878  0.5125
  589TMC3    C3 8783   3.776   1.335   1.012 -0.8303  1.0604  0.3631
  589TMC3    C4 8784   3.540   1.280   0.898  0.0133 -0.1909 -0.2787
  589TMC3    C5 8785   3.654   1.225   0.846 -0.7600 -0.3731 -0.7398
  589TMC3    C6 8786   3.777   1.253   0.900  0.1166 -0.4140  0.3195
  589TMC3     C 8787   3.418   1.386   1.071 -0.1068  0.1319  1.1175
  589TMC3     O 8788   3.310   1.376   1.009  0.6654  0.2064  0.0007
  589TMC3     H 8789   3.669   1.486   1.126  1.3575 -0.0731  0.2709
  589TMC3    H1 8790   3.443   1.262   0.853 -0.5484  1.2796  0.3589
  589TMC3    H2 8791   3.873   1.227   0.856 -0.9914  0.4370 -2.5912
  589TMC3    C7 8792   3.631   1.104   0.763  0.8365 -0.5409 -0.4706
  589TMC3    C8 8793   3.899   1.380   1.061  0.0923  0.2373 -0.5880
  589TMC3    O1 8794   3.527   1.044   0.775 -0.1194 -0.3605 -0.1438
  589TMC3    O2 8795   3.906   1.502   1.074 -0.1036 -0.6005 -0.4399
  590MPD2     C 8796   3.464   4.275  16.566 -0.8930 -0.6615  0.4445
  590MPD2    C1 8797   3.412   4.375  16.487  0.0330 -0.0436  0.0481
  590MPD2    C2 8798   3.502   4.473  16.444  0.8342  0.0047 -0.0498
  590MPD2    C3 8799   3.635   4.473  16.477 -0.4226  0.0210 -0.4919
  590MPD2    C4 8800   3.685   4.361  16.541 -0.1247 -0.4115 -0.6327
  590MPD2    C5 8801   3.597   4.269  16.595 -0.5001  0.1732  0.0165
  590MPD2     H 8802   3.469   4.553  16.379 -0.8550 -0.7830 -0.1808
  590MPD2    H1 8803   3.788   4.360  16.575  0.7255  2.9333 -3.0937
  590MPD2    H2 8804   3.399   4.198  16.606 -1.4110  0.3599  1.5789
  590MPD2    H3 8805   3.631   4.194  16.664 -2.8017  0.7146  1.7199
  590MPD2     N 8806   3.712   4.581  16.434 -0.1036  0.1755 -0.4961
  590MPD2    H5 8807   3.665   4.656  16.386  0.7636  0.6857 -0.5562
  590MPD2    N1 8808   3.281   4.363  16.437  0.4590  0.1573 -0.1845
  590MPD2    H7 8809   3.226   4.287  16.477 -0.5078  0.5450 -0.8101
  591TMC3    C1 8810   3.901   4.705  16.382  0.3939  0.2873 -0.6909
  591TMC3    C2 8811   3.988   4.705  16.282  0.3185 -0.1232 -0.4230
  591TMC3    C3 8812   4.011   0.083  16.219  0.0552  0.5145  1.0338
  591TMC3    C4 8813   3.824   0.073  16.422  0.5073 -0.7564 -0.0782
  591TMC3    C5 8814   3.845   0.192  16.354  0.0360  0.3390  0.2842
  591TMC3    C6 8815   3.940   0.199  16.251 -0.5260 -0.3169  0.2119
  591TMC3     C 8816   3.849   4.583  16.432  0.2564 -0.1285 -0.1543
  591TMC3     O 8817   3.923   4.488  16.443 -0.0702  0.3307  0.0116
  591TMC3     H 8818   4.045   4.615  16.261  0.1695 -0.7466  1.8235
  591TMC3    H1 8819   3.755   0.082  16.505  0.8095 -0.4169  0.1369
  591TMC3    H2 8820   3.953   0.297  16.206 -0.3147 -0.1650  0.6065
  591TMC3    C7 8821   3.720   0.273  16.355 -0.2115 -0.0834 -0.2696
  591TMC3    C8 8822   4.103   0.082  16.104  0.3207 -0.4536 -0.0940
  591TMC3    O1 8823   3.613   0.217  16.366 -0.3607 -0.0430 -0.3153
  591TMC3    O2 8824   4.174   4.722  16.093 -0.4869 -0.2626 -0.0414
  592MPD2     C 8825   3.971   2.397  11.682 -0.2037 -0.3755  0.3552
  592MPD2    C1 8826   4.009   2.387  11.815 -0.7900  0.1095  0.0077
  592MPD2    C2 8827   3.950   2.294  11.899 -0.5955 -0.2518 -0.0315
  592MPD2    C3 8828   3.845   2.215  11.845  1.0704  0.2155  0.1732
  592MPD2    C4 8829   3.821   2.222  11.710  0.7627 -0.0097 -0.0893
  592MPD2    C5 8830   3.879   2.313  11.629 -0.1556 -0.0984 -0.3198
  592MPD2     H 8831   3.977   2.280  12.003 -1.3947  0.0310  0.2119
  592MPD2    H1 8832   3.752   2.150  11.668  0.2035  0.3343  0.2484
  592MPD2    H2 8833   4.019   2.462  11.609 -0.6579  1.9304  2.1168
  592MPD2    H3 8834   3.847   2.331  11.527  1.7389  1.6500 -0.6191
  592MPD2     N 8835   3.774   2.122  11.933  0.4210 -0.5728  0.2161
  592MPD2    H5 8836   3.814   2.114  12.026  0.4909  1.0653  0.3266
  592MPD2    N1 8837   4.118   2.467  11.861  0.4213 -0.1587 -0.5009
  592MPD2    H7 8838   4.162   2.525  11.790  0.7384 -2.1292 -1.9085
  593TMC3    C1 8839   4.274   2.549  12.013  0.1669 -0.7078  0.3296
  593TMC3    C2 8840   4.296   2.576  12.142  0.7588  0.2541 -0.2769
  593TMC3    C3 8841   4.426   2.608  12.176 -0.7180 -0.1874  0.5115
  593TMC3    C4 8842   4.376   2.556  11.919  0.5051  0.2604  0.6747
  593TMC3    C5 8843   4.501   2.590  11.953 -0.5483 -0.5381  0.0089
  593TMC3    C6 8844   4.527   2.609  12.084 -0.5314  0.9288 -0.6899
  593TMC3     C 8845   4.154   2.479  11.994  0.1644  0.2697 -0.5403
  593TMC3     O 8846   4.097   2.438  12.094  0.5853  0.2081  0.0447
  593TMC3     H 8847   4.220   2.588  12.217  3.4444 -0.0412  2.4908
  593TMC3    H1 8848   4.350   2.524  11.819 -2.7306 -0.4009  1.7154
  593TMC3    H2 8849   4.630   2.623  12.115 -1.0612  1.3589  0.8291
  593TMC3    C7 8850   4.571   2.689  11.874 -0.4867 -0.5317 -0.2983
  593TMC3    C8 8851   4.417   2.728  12.252  0.6012  0.1162  0.0504
  593TMC3    O1 8852   4.651   2.752  11.941 -0.3231  0.2682  0.1587
  593TMC3    O2 8853   4.309   2.791  12.246  0.4900 -0.0016 -0.2205
  594MPD2     C 8854   3.064   0.877  14.100 -0.5105  0.0575  0.0898
  594MPD2    C1 8855   3.052   0.936  14.223  0.0252 -0.9516  0.9734
  594MPD2    C2 8856   3.144   1.035  14.259 -0.0242  0.2200 -0.5901
  594MPD2    C3 8857   3.243   1.074  14.162 -0.2209 -0.1250  0.1374
  594MPD2    C4 8858   3.254   1.010  14.039  0.6394  0.9245  0.5945
  594MPD2    C5 8859   3.162   0.909  14.009  0.4574 -0.0080 -0.4659
  594MPD2     H 8860   3.119   1.101  14.341  1.2631  1.1668 -0.9539
  594MPD2    H1 8861   3.332   1.037  13.969 -0.0203  2.2232  0.3705
  594MPD2    H2 8862   2.988   0.808  14.066 -0.0643 -1.0803  1.4192
  594MPD2    H3 8863   3.183   0.856  13.917  1.9816  2.3673 -1.4917
  594MPD2     N 8864   3.314   1.190  14.194 -0.2390  0.3801 -0.6164
  594MPD2    H5 8865   3.296   1.236  14.282 -0.5740  1.5015 -1.2735
  594MPD2    N1 8866   2.942   0.894  14.301  0.0906 -0.4439 -0.0017
  594MPD2    H7 8867   2.873   0.831  14.262  1.2604  0.9497 -4.3644
  595TMC3    C1 8868   3.593   1.574  14.194 -0.2956  0.0278  0.3421
  595TMC3    C2 8869   3.560   1.447  14.144  0.5226  0.2512  0.6058
  595TMC3    C3 8870   3.442   1.395  14.169  0.0285  0.0283 -0.1484
  595TMC3    C4 8871   3.526   1.639  14.290  0.0203  0.2921  0.2004
  595TMC3    C5 8872   3.405   1.575  14.330  0.0775  0.0190  1.0225
  595TMC3    C6 8873   3.366   1.454  14.271 -0.9157  0.1861  0.4337
  595TMC3     C 8874   3.736   1.611  14.199 -0.2794 -0.3776  0.3748
  595TMC3     O 8875   3.794   1.657  14.101  0.1093 -0.1924  0.0357
  595TMC3     H 8876   3.626   1.411  14.066 -1.0727 -1.9115  0.2737
  595TMC3    H1 8877   3.566   1.724  14.345  0.7342  1.0387 -1.4738
  595TMC3    H2 8878   3.264   1.422  14.289  0.0989 -3.0480  0.3153
  595TMC3    C7 8879   3.346   1.611  14.457  0.1804  0.7840  0.2067
  595TMC3    C8 8880   3.411   1.257  14.124 -0.0445 -0.7608  0.1386
  595TMC3    O1 8881   3.227   1.583  14.471  0.3276 -0.1832 -0.0914
  595TMC3    O2 8882   3.477   1.203  14.039 -0.2207 -0.5489 -0.0711
  596MPD2     C 8883   2.083   3.806  17.055  0.5444  0.0484  0.7163
  596MPD2    C1 8884   2.064   3.924  16.992 -0.7948 -0.2070  0.0542
  596MPD2    C2 8885   2.094   3.932  16.860  0.0549  0.5742  0.2456
  596MPD2    C3 8886   2.135   3.819  16.788 -0.1029  0.0311  0.5227
  596MPD2    C4 8887   2.152   3.702  16.851 -0.1542 -0.1274  0.5302
  596MPD2    C5 8888   2.129   3.700  16.984 -0.1539  0.8925 -0.1222
  596MPD2     H 8889   2.082   4.026  16.808  0.6224  0.5125  0.0010
  596MPD2    H1 8890   2.183   3.615  16.795  0.0691  0.9143 -0.9737
  596MPD2    H2 8891   2.068   3.791  17.162  3.5682  1.5521  1.3546
  596MPD2    H3 8892   2.145   3.605  17.034 -0.9290  0.1431 -1.2690
  596MPD2     N 8893   2.159   3.820  16.650  0.5261  0.0941  0.7690
  596MPD2    H5 8894   2.180   3.726  16.617 -0.8852  0.0209  0.0549
  596MPD2    N1 8895   1.995   4.039  17.050  0.4570 -0.5319 -0.2674
  596MPD2    H7 8896   1.961   4.114  16.991  0.7993 -1.6292 -1.8768
  597TMC3    C1 8897   1.923   4.181  17.219  0.2233 -1.0209 -0.0306
  597TMC3    C2 8898   1.964   4.287  17.141 -0.4364 -0.1615  0.9806
  597TMC3    C3 8899   1.927   4.417  17.172  0.0857 -0.2128 -0.1153
  597TMC3    C4 8900   1.832   4.199  17.319 -0.1913  0.7902 -0.1741
  597TMC3    C5 8901   1.782   4.326  17.336  0.0404  0.2426 -0.5180
  597TMC3    C6 8902   1.830   4.438  17.268 -0.2543 -0.2834 -0.3677
  597TMC3     C 8903   1.961   4.049  17.179  0.8369 -0.4086 -0.0889
  597TMC3     O 8904   1.968   3.964  17.264 -0.0099 -0.4738 -0.1950
  597TMC3     H 8905   2.055   4.281  17.082 -0.1686 -0.3343  1.4116
  597TMC3    H1 8906   1.789   4.119  17.378  1.3781 -0.4774 -0.7555
  597TMC3    H2 8907   1.802   4.537  17.300 -0.7460 -0.5175 -0.0799
  597TMC3    C7 8908   1.647   4.337  17.390 -0.3064  0.7871 -0.2446
  597TMC3    C8 8909   1.931   4.518  17.065 -0.5105 -0.0987 -0.1451
  597TMC3    O1 8910   1.602   4.235  17.442 -0.0871 -0.3876 -0.2039
  597TMC3    O2 8911   1.836   4.598  17.054  0.2803 -0.1066  0.0617
  598TMC3    C1 8912   0.085   0.583  15.322  1.0067 -0.1084  0.1520
  598TMC3    C2 8913   0.007   0.471  15.328 -0.5167  0.2959 -0.4186
  598TMC3    C3 8914   4.731   0.405  15.206 -0.5046 -0.7186  0.1817
  598TMC3    C4 8915   0.150   0.627  15.206  0.1751 -0.4080  0.6869
  598TMC3    C5 8916   0.146   0.546  15.087 -0.9418 -0.2575 -0.3138
  598TMC3    C6 8917   0.068   0.433  15.093 -0.6600  0.4634 -0.2321
  598TMC3     C 8918   0.146   0.638  15.447  0.8595  0.1571  0.3841
  598TMC3     O 8919   0.203   0.748  15.433 -0.5454  0.2353  0.3311
  598TMC3     H 8920   4.696   0.458  15.424 -1.2466  1.1762 -0.6640
  598TMC3    H1 8921   0.213   0.714  15.213 -0.8084  0.3441  0.1760
  598TMC3    H2 8922   0.036   0.385  15.001 -1.8832  1.3309 -0.2669
  598TMC3    C7 8923   0.198   0.592  14.956  0.0351 -0.2339 -0.1213
  598TMC3    C8 8924   4.638   0.292  15.200  0.7681 -0.0841  0.3237
  598TMC3    O1 8925   0.180   0.521  14.863 -0.3439 -0.1182 -0.0126
  598TMC3    O2 8926   4.678   0.209  15.120  0.0295  0.4704 -0.1214
  599MPD2     C 8927   0.373   2.643  15.384  0.3576 -0.4237  0.2481
  599MPD2    C1 8928   0.425   2.672  15.504  0.0088 -0.6106  0.3175
  599MPD2    C2 8929   0.345   2.734  15.598 -0.4376 -0.7898 -0.0085
  599MPD2    C3 8930   0.210   2.757  15.576 -0.3906  0.4591 -0.9309
  599MPD2    C4 8931   0.169   2.732  15.451  0.1385  0.0262  0.9302
  599MPD2    C5 8932   0.247   2.682  15.353  0.2658 -0.0651  0.6653
  599MPD2     H 8933   0.379   2.745  15.700 -0.3952 -1.0861  0.0119
  599MPD2    H1 8934   0.071   2.773  15.431  0.2235 -0.6789 -0.9357
  599MPD2    H2 8935   0.431   2.593  15.307 -1.2441 -4.9814  1.9816
  599MPD2    H3 8936   0.208   2.670  15.253  0.1064 -0.6001  0.7898
  599MPD2     N 8937   0.125   2.812  15.677 -0.2959  0.1978  0.0316
  599MPD2    H5 8938   0.173   2.825  15.766  0.9970  1.2424 -0.8223
  599MPD2    N1 8939   0.547   2.624  15.552 -0.3326 -0.5521  0.2071
  599MPD2    H7 8940   0.574   2.655  15.645 -1.2231  0.6980  0.0434
  600TMC3    C1 8941   4.682   2.839  15.812 -0.1641 -0.5710 -0.2158
  600TMC3    C2 8942   4.670   2.722  15.883 -0.1794 -0.4220 -0.0201
  600TMC3    C3 8943   4.677   2.732  16.021  0.6141  0.4488  0.3988
  600TMC3    C4 8944   4.711   2.959  15.868  0.3422  0.5028  0.0706
  600TMC3    C5 8945   4.724   2.957  16.003  0.1773  0.2142  0.5418
  600TMC3    C6 8946   4.717   2.847  16.083  0.3487 -0.1334 -0.2048
  600TMC3     C 8947   4.724   2.814  15.679 -0.4203 -0.0634 -0.4657
  600TMC3     O 8948   4.638   2.786  15.597 -0.6137  0.8169 -0.0622
  600TMC3     H 8949   4.631   2.633  15.836 -0.6843  0.9901 -2.2844
  600TMC3    H1 8950   0.009   3.043  15.809 -1.0372  1.2184  0.2624
  600TMC3    H2 8951   0.007   2.841  16.188  2.3274 -0.3687 -0.7420
  600TMC3    C7 8952   4.718   3.085  16.075  1.0612  0.3926 -0.4801
  600TMC3    C8 8953   4.675   2.603  16.095  0.3591  0.4169  0.1800
  600TMC3    O1 8954   4.704   3.074  16.197  0.2466  0.0155  0.1936
  600TMC3    O2 8955   0.014   2.591  16.190 -0.3600 -0.1065 -0.9442
  601MPD2     C 8956   1.336   1.506   0.676 -0.3742  0.0505 -0.3606
  601MPD2    C1 8957   1.319   1.410   0.575 -0.0723 -0.2259 -0.0159
  601MPD2    C2 8958   1.305   1.283   0.617  0.7133  0.4742  0.2719
  601MPD2    C3 8959   1.278   1.257   0.756  0.0062 -0.8223  0.6369
  601MPD2    C4 8960   1.295   1.358   0.848 -0.2010 -0.2480 -0.5393
  601MPD2    C5 8961   1.338   1.479   0.809 -0.1398  0.3962  0.5123
  601MPD2     H 8962   1.289   1.205   0.544 -3.3548  1.5518  0.0088
  601MPD2    H1 8963   1.287   1.328   0.952  0.2744  1.3889 -0.0293
  601MPD2    H2 8964   1.375   1.605   0.653 -0.9779  0.8601  2.0846
  601MPD2    H3 8965   1.350   1.562   0.877  1.8230 -0.8868  1.7294
  601MPD2     N 8966   1.246   1.132   0.810  0.4246  0.1400  1.0205
  601MPD2    H5 8967   1.253   1.120   0.911 -0.7614  0.2713  1.1203
  601MPD2    N1 8968   1.323   1.436   0.439 -0.4454  0.0077 -1.0553
  601MPD2    H7 8969   1.306   1.358   0.377 -1.1925 -0.1629 -0.6381
  602TMC3    C1 8970   1.419   1.521   0.251 -0.3194 -0.6112 -0.2359
  602TMC3    C2 8971   1.533   1.562   0.192  0.4598  0.2415 -0.1818
  602TMC3    C3 8972   1.542   1.567   0.055 -0.1181  0.2980  0.0655
  602TMC3    C4 8973   1.309   1.488   0.177 -0.8510  0.4486  0.2471
  602TMC3    C5 8974   1.314   1.494   0.039  0.1449 -0.7882  0.1829
  602TMC3    C6 8975   1.427   1.542  17.725 -0.4231 -0.2677 -0.4256
  602TMC3     C 8976   1.394   1.539   0.386  0.8294 -0.1141  0.5597
  602TMC3     O 8977   1.458   1.630   0.442 -0.7180  0.0805  0.1287
  602TMC3     H 8978   1.623   1.584   0.248  2.0612  1.2481 -3.1836
  602TMC3    H1 8979   1.215   1.470   0.227 -1.5771 -0.2157 -1.3766
  602TMC3    H2 8980   1.436   1.533  17.618 -1.4575 -2.5357 -0.3090
  602TMC3    C7 8981   1.194   1.505  17.704  0.1296  0.0841 -0.4450
  602TMC3    C8 8982   1.660   1.627  17.746  0.3589  0.3835 -0.9831
  602TMC3    O1 8983   1.105   1.423  17.718 -0.9404  0.3566 -0.5588
  602TMC3    O2 8984   1.765   1.631   0.063 -0.5752  0.3698  0.4418
  603TMC3    C1 8985   0.185   1.914  11.034  0.1904  0.2047  0.7317
  603TMC3    C2 8986   0.212   1.863  11.160  0.1286  0.1309 -0.5316
  603TMC3    C3 8987   0.215   1.962  11.255 -0.1712  0.6703  0.1060
  603TMC3    C4 8988   0.167   2.049  11.014  0.6830 -0.2113  0.8891
  603TMC3    C5 8989   0.170   2.140  11.117 -0.0684 -0.2097  0.1742
  603TMC3    C6 8990   0.192   2.096  11.239  0.9619  0.7422  0.0766
  603TMC3     C 8991   0.257   1.856  10.925  0.0403 -0.0065  0.2101
  603TMC3     O 8992   0.201   1.877  10.818 -0.8236 -0.3641 -0.4163
  603TMC3     H 8993   0.231   1.759  11.186 -2.0008 -0.5717 -1.7117
  603TMC3    H1 8994   0.151   2.094  10.917  0.3643 -0.1846  0.9547
  603TMC3    H2 8995   0.234   2.168  11.308 -0.0384  0.3490  1.1046
  603TMC3    C7 8996   0.176   2.284  11.094  0.0392  0.7392 -0.3720
  603TMC3    C8 8997   0.237   1.915  11.393  0.6488 -0.4433  0.1154
  603TMC3    O1 8998   0.248   2.349  11.171  0.3424  0.1250  0.1483
  603TMC3    O2 8999   0.302   1.813  11.411  0.1689  0.2109 -0.3605
  604MPD2     C 9000   1.324   0.460  16.572  0.1262 -0.4691 -0.0918
  604MPD2    C1 9001   1.222   0.383  16.520 -0.2819 -0.8416 -0.1137
  604MPD2    C2 9002   1.245   0.308  16.405 -0.0171  0.6675 -0.5835
  604MPD2    C3 9003   1.367   0.336  16.336 -0.3310  0.6116 -1.1247
  604MPD2    C4 9004   1.467   0.402  16.394  0.2349  0.3702  0.2689
  604MPD2    C5 9005   1.441   0.471  16.506 -0.1054  0.5182 -0.2932
  604MPD2     H 9006   1.175   0.233  16.369  0.5244  0.6763 -1.6618
  604MPD2    H1 9007   1.567   0.418  16.355  0.2086  0.1479  0.1131
  604MPD2    H2 9008   1.315   0.518  16.663  0.8478 -0.2297 -0.1723
  604MPD2    H3 9009   1.508   0.545  16.548  1.0758 -1.6439  1.6480
  604MPD2     N 9010   1.379   0.271  16.218 -0.4815  0.1672 -0.4807
  604MPD2    H5 9011   1.304   0.225  16.168  0.8504 -1.0376 -1.3952
  604MPD2    N1 9012   1.101   0.381  16.591 -0.0566 -0.6808 -0.1429
  604MPD2    H7 9013   1.107   0.408  16.689  0.6331 -0.1412 -0.3359
  605TMC3    C1 9014   0.873   0.366  16.639  0.1165  0.0980 -0.2478
  605TMC3    C2 9015   0.925   0.381  16.767 -0.4966  0.8068 -0.3387
  605TMC3    C3 9016   0.878   0.480  16.842  0.0352 -0.2579 -0.3462
  605TMC3    C4 9017   0.760   0.416  16.598  0.3766  0.8020  0.2549
  605TMC3    C5 9018   0.698   0.505  16.682  0.2920 -0.4705  0.0935
  605TMC3    C6 9019   0.766   0.549  16.797  0.3832  0.5137  0.1729
  605TMC3     C 9020   0.976   0.356  16.536  0.0185 -0.5732  0.6289
  605TMC3     O 9021   0.948   0.337  16.418  0.5730  0.4904 -0.7143
  605TMC3     H 9022   1.002   0.314  16.803 -1.3035 -0.9665 -1.9280
  605TMC3    H1 9023   0.719   0.376  16.506  1.0278 -2.2600  1.3141
  605TMC3    H2 9024   0.716   0.605  16.875  0.0724 -0.0950  0.4133
  605TMC3    C7 9025   0.593   0.593  16.624  0.0142  0.3527 -0.5841
  605TMC3    C8 9026   0.984   0.573  16.863  0.1025  0.0269  0.1726
  605TMC3    O1 9027   0.578   0.704  16.671 -0.5260 -0.8900  0.4208
  605TMC3    O2 9028   1.096   0.524  16.838  0.1654 -0.6756 -0.1143
  606TMC3    C1 9029   2.610   4.204  17.347  0.1663  0.3956 -0.2359
  606TMC3    C2 9030   2.521   4.200  17.450 -0.0933  0.1949  0.6009
  606TMC3    C3 9031   2.443   4.092  17.464  0.4229 -0.1972 -0.6399
  606TMC3    C4 9032   2.610   4.111  17.250  0.3044 -0.5743 -0.0155
  606TMC3    C5 9033   2.514   4.009  17.261 -0.3102 -0.3978 -0.3979
  606TMC3    C6 9034   2.430   3.998  17.370  0.7652  0.4292  0.2164
  606TMC3     C 9035   2.700   4.313  17.332  0.8254  0.8446  0.1179
  606TMC3     O 9036   2.794   4.302  17.254  0.2054  0.0637  0.6016
  606TMC3     H 9037   2.532   4.269  17.533  0.1796  0.6163  0.2158
  606TMC3    H1 9038   2.675   4.110  17.164  1.2139 -0.3261  0.6753
  606TMC3    H2 9039   2.361   3.914  17.376 -1.1859  2.0929  1.0291
  606TMC3    C7 9040   2.533   3.896  17.171  0.4236  0.2608  0.3219
  606TMC3    C8 9041   2.456   4.033  17.600  0.3582  0.3315  0.3638
  606TMC3    O1 9042   2.622   3.904  17.087 -0.0740  0.3165 -0.4105
  606TMC3    O2 9043   2.553   4.066  17.667 -0.3509  0.0626 -0.4665
  607MPD2     C 9044   3.895   1.735  11.829  0.8205 -0.3216 -0.1384
  607MPD2    C1 9045   4.012   1.752  11.898  0.1153  0.2527 -0.3808
  607MPD2    C2 9046   4.038   1.676  12.009 -0.6198  0.7867 -0.0454
  607MPD2    C3 9047   3.950   1.584  12.059 -0.0287 -0.1253 -0.4928
  607MPD2    C4 9048   3.829   1.566  11.988 -0.4379 -0.2894 -0.2144
  607MPD2    C5 9049   3.804   1.642  11.878  0.5386 -0.0179 -0.0338
  607MPD2     H 9050   4.129   1.701  12.061 -0.3736  1.0771 -0.6220
  607MPD2    H1 9051   3.748   1.506  12.028  0.1026  0.2510  1.7193
  607MPD2    H2 9052   3.872   1.802  11.747  1.7458 -1.7110 -1.5280
  607MPD2    H3 9053   3.713   1.638  11.819 -0.0437 -0.2732  0.8786
  607MPD2     N 9054   3.979   1.512  12.172 -0.0049  0.2302  0.4781
  607MPD2    H5 9055   4.059   1.534  12.231 -0.2925  2.1919  0.1210
  607MPD2    N1 9056   4.106   1.856  11.877  0.0327 -0.3983  0.0807
  607MPD2    H7 9057   4.181   1.853  11.945 -0.1495 -1.2967  0.2483
  608TMC3    C1 9058   4.187   2.068  11.848 -0.0596  0.3687 -0.1595
  608TMC3    C2 9059   4.170   2.086  11.979  0.7226 -0.8629  0.1474
  608TMC3    C3 9060   4.265   2.162  12.051  1.3089 -0.4513  0.4854
  608TMC3    C4 9061   4.302   2.098  11.782 -0.0769  0.5356  0.3378
  608TMC3    C5 9062   4.398   2.164  11.854 -0.3697  0.8202 -0.6159
  608TMC3    C6 9063   4.374   2.211  11.983 -0.1476 -0.1417  0.2110
  608TMC3     C 9064   4.104   1.962  11.793 -0.2498  0.8649  0.1740
  608TMC3     O 9065   4.044   1.979  11.686 -0.3804  0.1362  0.3440
  608TMC3     H 9066   4.074   2.060  12.023  0.2382  0.3262 -0.2022
  608TMC3    H1 9067   4.313   2.073  11.676 -1.7583 -0.7340  0.4637
  608TMC3    H2 9068   4.438   2.271  12.047 -0.1141 -0.7664  0.7595
  608TMC3    C7 9069   4.498   2.228  11.774 -0.0136  0.5469 -0.4502
  608TMC3    C8 9070   4.254   2.148  12.193  0.5652  0.1716 -0.5518
  608TMC3    O1 9071   4.467   2.247  11.658  0.1391  0.2280 -0.3408
  608TMC3    O2 9072   4.296   2.242  12.258 -0.6297 -0.1445 -0.5496
  609TMC3    C1 9073   2.425   1.836   9.467 -0.0498  0.1521 -0.2785
  609TMC3    C2 9074   2.395   1.860   9.336  0.3085 -0.7508  0.5770
  609TMC3    C3 9075   2.492   1.817   9.245 -0.6268  0.1007 -0.4617
  609TMC3    C4 9076   2.525   1.754   9.508 -0.4797  0.1887 -0.1840
  609TMC3    C5 9077   2.615   1.700   9.420  0.4215  0.3380 -0.1954
  609TMC3    C6 9078   2.605   1.740   9.287  0.4705 -0.1827  0.3466
  609TMC3     C 9079   2.356   1.921   9.563  0.4365  0.0322  0.1313
  609TMC3     O 9080   2.247   1.975   9.536  0.0128 -0.8225 -0.0099
  609TMC3     H 9081   2.325   1.936   9.303 -0.9826 -1.7811  0.9093
  609TMC3    H1 9082   2.539   1.732   9.613 -1.4109 -1.7129 -0.4638
  609TMC3    H2 9083   2.679   1.700   9.220 -2.1521  1.0083 -3.2296
  609TMC3    C7 9084   2.723   1.611   9.467 -0.5625  0.1506  0.5891
  609TMC3    C8 9085   2.475   1.861   9.109  0.7055 -0.0567 -0.0370
  609TMC3    O1 9086   2.766   1.624   9.581 -0.1645 -0.3345  0.2775
  609TMC3    O2 9087   2.367   1.911   9.076  0.0120 -0.7039  0.2148
  610TMC3    C1 9088   4.576   1.856  12.704 -0.1234 -0.0412  0.3378
  610TMC3    C2 9089   4.589   1.923  12.585 -0.0675  0.1738 -0.7036
  610TMC3    C3 9090   4.707   1.909  12.519  0.1955 -0.1451 -0.2214
  610TMC3    C4 9091   4.668   1.772  12.757 -0.1660 -0.4805 -0.0291
  610TMC3    C5 9092   0.053   1.770  12.690 -0.5769  0.5878 -0.1647
  610TMC3    C6 9093   0.075   1.841  12.573 -0.1807  0.2633  0.3504
  610TMC3     C 9094   4.462   1.875  12.789  1.0366 -0.3660 -0.7298
  610TMC3     O 9095   4.445   1.786  12.871 -0.2531 -0.1778  0.1984
  610TMC3     H 9096   4.509   1.973  12.530  0.1079  1.0186 -0.1846
  610TMC3    H1 9097   4.649   1.701  12.836  0.9312 -1.3907 -0.5743
  610TMC3    H2 9098   0.170   1.822  12.523  0.5651 -1.6270  2.4648
  610TMC3    C7 9099   0.170   1.712  12.754  0.4103 -0.2814 -0.2837
  610TMC3    C8 9100   4.737   2.015  12.422  0.1008 -0.2651  0.0561
  610TMC3    O1 9101   0.279   1.732  12.708  0.6002  0.5750 -0.8361
  610TMC3    O2 9102   4.677   2.123  12.421  0.0490  0.1557 -0.1538
  611MPD2     C 9103   4.095   2.061  10.518  0.0371 -0.3257 -0.4649
  611MPD2    C1 9104   4.020   2.178  10.515 -0.1741 -0.1169  0.6657
  611MPD2    C2 9105   4.083   2.295  10.469  0.6747  0.3075 -0.4228
  611MPD2    C3 9106   4.220   2.301  10.464  0.2454 -0.1936 -0.1587
  611MPD2    C4 9107   4.284   2.180  10.474 -0.3133  0.3293  0.0769
  611MPD2    C5 9108   4.229   2.061  10.491  0.5720  0.0061  0.1619
  611MPD2     H 9109   4.022   2.384  10.457  0.5947  0.6832  2.7583
  611MPD2    H1 9110   4.393   2.179  10.469 -0.1999 -0.0843  2.7731
  611MPD2    H2 9111   4.058   1.960  10.531  0.0873 -0.4531 -1.2887
  611MPD2    H3 9112   4.291   1.973  10.479 -0.9062 -1.1557  1.1101
  611MPD2     N 9113   4.293   2.417  10.446  0.4057 -0.1775  0.4582
  611MPD2    H5 9114   4.394   2.409  10.456  0.4970  1.3971  0.7271
  611MPD2    N1 9115   3.883   2.173  10.542  0.1762  0.2085 -0.6670
  611MPD2    H7 9116   3.849   2.089  10.589 -2.7395  1.8623  0.1863
  612TMC3    C1 9117   4.357   2.630  10.396  0.5068  0.1002  0.6945
  612TMC3    C2 9118   4.449   2.633  10.498  0.1142 -0.4709 -0.1618
  612TMC3    C3 9119   4.553   2.720  10.477  0.2688 -0.0870  0.8419
  612TMC3    C4 9120   4.352   2.714  10.290  0.5347  0.6567 -0.4931
  612TMC3    C5 9121   4.455   2.805  10.274  0.4331 -0.1611  0.3006
  612TMC3    C6 9122   4.553   2.804  10.366 -0.0639 -0.2763 -0.4648
  612TMC3     C 9123   4.247   2.539  10.413  0.0596  1.3573  0.2262
  612TMC3     O 9124   4.142   2.565  10.360  0.0504  0.0303 -0.4096
  612TMC3     H 9125   4.435   2.575  10.588 -0.4345  1.6285  1.1009
  612TMC3    H1 9126   4.275   2.698  10.216  0.8042 -0.2299 -0.5885
  612TMC3    H2 9127   4.631   2.880  10.359  0.1913 -0.3820  1.1269
  612TMC3    C7 9128   4.441   2.917  10.191  0.2202 -0.8793 -0.0259
  612TMC3    C8 9129   4.671   2.722  10.563 -0.0922  0.2915 -0.3989
  612TMC3    O1 9130   4.540   2.973  10.142 -0.4237  1.3297 -0.1359
  612TMC3    O2 9131   0.018   2.810  10.542  0.8033  0.0560  0.0825
  613MPD2     C 9132   3.114   3.695  16.527 -0.3811  0.5662  0.4010
  613MPD2    C1 9133   3.127   3.739  16.398 -0.5121  0.0625  0.0900
  613MPD2    C2 9134   3.097   3.653  16.295  0.1983  0.0233  0.0297
  613MPD2    C3 9135   3.060   3.526  16.322 -0.4868 -0.0616 -0.2089
  613MPD2    C4 9136   3.062   3.477  16.450 -0.3019 -0.4225 -0.9115
  613MPD2    C5 9137   3.093   3.562  16.556  0.3918 -0.2543 -0.8163
  613MPD2     H 9138   3.107   3.684  16.192  1.0161  0.0913  0.1276
  613MPD2    H1 9139   3.032   3.374  16.459 -0.2594 -0.2280  1.6804
  613MPD2    H2 9140   3.133   3.755  16.616 -2.9467  0.9848  0.6630
  613MPD2    H3 9141   3.108   3.522  16.656 -0.7207  1.7345  0.1481
  613MPD2     N 9142   3.053   3.432  16.215  0.2407  0.1195  0.1058
  613MPD2    H5 9143   3.064   3.334  16.239  0.7833  0.0267 -0.5324
  613MPD2    N1 9144   3.177   3.870  16.377  0.1475 -0.4656  0.0328
  613MPD2    H7 9145   3.234   3.898  16.456 -0.1711  0.2796 -0.0005
  614TMC3    C1 9146   3.299   4.015  16.241  0.1459  0.1410  0.2586
  614TMC3    C2 9147   3.409   3.993  16.323  1.0906  0.3016  0.7754
  614TMC3    C3 9148   3.530   4.031  16.280  0.1334  0.2779  1.2375
  614TMC3    C4 9149   3.316   4.096  16.127 -0.1045 -0.1732  0.0907
  614TMC3    C5 9150   3.432   4.163  16.110  0.7530 -0.0711 -0.6340
  614TMC3    C6 9151   3.543   4.134  16.189  0.6302  0.5434 -0.0654
  614TMC3     C 9152   3.189   3.931  16.250 -0.3563  0.3973  0.4759
  614TMC3     O 9153   3.101   3.933  16.164 -0.3032 -0.0482 -0.4127
  614TMC3     H 9154   3.404   3.911  16.394  1.9474 -0.9789 -0.6547
  614TMC3    H1 9155   3.224   4.102  16.071  0.3904  0.2784 -0.6701
  614TMC3    H2 9156   3.635   4.189  16.166  2.4334 -1.7149  1.8230
  614TMC3    C7 9157   3.441   4.295  16.043 -0.9288  0.2325  0.1833
  614TMC3    C8 9158   3.614   3.918  16.252 -0.0734  0.4650  0.3368
  614TMC3    O1 9159   3.523   4.377  16.078 -0.0110  0.1409 -0.3810
  614TMC3    O2 9160   3.595   3.813  16.314  0.5002 -0.8064  0.4077
  615MPD2     C 9161   2.750   0.613  16.089 -0.2022  0.9859 -0.4335
  615MPD2    C1 9162   2.697   0.737  16.053 -0.3654 -0.1115 -0.4031
  615MPD2    C2 9163   2.582   0.742  15.981  0.6585  0.6903  0.3558
  615MPD2    C3 9164   2.525   0.624  15.929 -0.5237 -1.2031  0.1078
  615MPD2    C4 9165   2.582   0.500  15.962  0.5049 -0.2238 -0.1096
  615MPD2    C5 9166   2.690   0.494  16.041 -0.9216 -0.3454  0.7828
  615MPD2     H 9167   2.542   0.837  15.950 -1.5193  0.0259  1.1167
  615MPD2    H1 9168   2.547   0.404  15.927 -2.8404  1.2542 -0.7565
  615MPD2    H2 9169   2.844   0.602  16.143  1.3365  4.0688 -2.4865
  615MPD2    H3 9170   2.741   0.400  16.058 -3.5193 -1.8277  0.2165
  615MPD2     N 9171   2.400   0.636  15.858  0.0269 -0.2524 -0.1638
  615MPD2    H5 9172   2.358   0.728  15.843  0.0876  0.2651  2.8254
  615MPD2    N1 9173   2.759   0.859  16.094  0.8074 -0.2741  0.0579
  615MPD2    H7 9174   2.731   0.944  16.046  1.2324  0.4410  1.0768
  616TMC3    C1 9175   2.905   1.004  16.207 -0.3321 -0.0254  0.1615
  616TMC3    C2 9176   2.948   1.046  16.328  0.3476 -0.3758  0.3654
  616TMC3    C3 9177   3.046   1.142  16.318  0.3781 -0.7132  0.1840
  616TMC3    C4 9178   2.923   1.078  16.089 -0.4055 -0.1774  0.5101
  616TMC3    C5 9179   2.998   1.192  16.097 -0.4325 -0.3881 -0.1953
  616TMC3    C6 9180   3.075   1.221  16.209  0.2001 -0.2150  0.8454
  616TMC3     C 9181   2.848   0.869  16.196 -0.4864  0.0363  0.0063
  616TMC3     O 9182   2.860   0.791  16.292 -0.2806  0.0378  0.0717
  616TMC3     H 9183   2.932   0.990  16.420  0.2261 -0.1874  0.4580
  616TMC3    H1 9184   2.883   1.053  15.991 -1.8588 -2.1421  1.6164
  616TMC3    H2 9185   3.147   1.301  16.222  1.3841 -1.3547  1.2439
  616TMC3    C7 9186   2.996   1.299  15.997  0.1931 -0.2681  0.9759
  616TMC3    C8 9187   3.114   1.188  16.443  0.7509 -0.6706 -0.1665
  616TMC3    O1 9188   3.071   1.395  16.021  0.8061 -0.3920 -0.3994
  616TMC3    O2 9189   3.048   1.184  16.547 -0.1710 -0.2441 -0.5785
  617MPD2     C 9190   0.765   4.004  13.530  0.5353 -0.1826 -0.0547
  617MPD2    C1 9191   0.835   3.898  13.577  0.5689 -0.3554 -1.0772
  617MPD2    C2 9192   0.761   3.805  13.654 -0.0769 -0.5635 -0.6808
  617MPD2    C3 9193   0.622   3.817  13.673  0.0059 -0.2385 -0.1749
  617MPD2    C4 9194   0.564   3.933  13.630  0.4252  0.0541 -1.1717
  617MPD2    C5 9195   0.630   4.023  13.555 -0.3814 -0.1377  0.0158
  617MPD2     H 9196   0.801   3.708  13.681 -0.0535  0.2601  2.2001
  617MPD2    H1 9197   0.457   3.925  13.645  0.5364  0.5658 -0.1296
  617MPD2    H2 9198   0.813   4.077  13.466  2.5744 -1.0291  0.5236
  617MPD2    H3 9199   0.583   4.110  13.511  1.4364  1.0835  0.5049
  617MPD2     N 9200   0.552   3.714  13.730  0.5621  0.2192 -0.8919
  617MPD2    H5 9201   0.451   3.726  13.728  0.4831 -0.5731 -1.3388
  617MPD2    N1 9202   0.971   3.876  13.556 -0.1283 -0.2917 -0.1186
  617MPD2    H7 9203   1.007   3.790  13.596 -1.2572 -1.5660 -1.8448
  618TMC3    C1 9204   1.181   3.891  13.474  0.3671  0.0394 -0.1357
  618TMC3    C2 9205   1.200   3.763  13.496 -0.3971  0.0764  0.3231
  618TMC3    C3 9206   1.329   3.721  13.494  0.7235 -0.3999 -0.2523
  618TMC3    C4 9207   1.291   3.973  13.457 -0.0730 -0.4945 -0.2378
  618TMC3    C5 9208   1.418   3.918  13.457 -0.0485 -1.3485  1.0903
  618TMC3    C6 9209   1.450   3.787  13.473 -0.6944  0.5025 -0.6653
  618TMC3     C 9210   1.055   3.955  13.487  0.2542  0.1934 -0.8454
  618TMC3     O 9211   1.045   4.074  13.451  0.0679  0.3722 -0.0556
  618TMC3     H 9212   1.117   3.694  13.491 -0.2456  0.1557 -3.3283
  618TMC3    H1 9213   1.278   4.077  13.429  0.1682 -0.2469  0.5855
  618TMC3    H2 9214   1.550   3.749  13.491 -0.9497 -0.1169 -0.5532
  618TMC3    C7 9215   1.519   4.027  13.444  0.8474  0.1758  0.5908
  618TMC3    C8 9216   1.340   3.575  13.488  0.5265  0.7481  0.1843
  618TMC3    O1 9217   1.484   4.129  13.501 -0.6209 -0.3188  0.1329
  618TMC3    O2 9218   1.244   3.500  13.507 -0.0645 -0.0233 -0.3225
  619MPD2     C 9219   2.283   0.192  14.095  0.2715  0.0188  0.3035
  619MPD2    C1 9220   2.278   0.211  13.961  0.1805 -0.5292  0.7599
  619MPD2    C2 9221   2.152   0.181  13.904  1.0627  0.3884  0.3173
  619MPD2    C3 9222   2.034   0.161  13.976 -0.0182  0.5937  0.5754
  619MPD2    C4 9223   2.050   0.149  14.111 -0.8113 -0.0929 -0.1659
  619MPD2    C5 9224   2.175   0.162  14.169 -0.3950 -0.0609  0.1858
  619MPD2     H 9225   2.148   0.185  13.795  2.1377  2.1375  0.3420
  619MPD2    H1 9226   1.969   0.131  14.181  1.4798  2.0458  3.0708
  619MPD2    H2 9227   2.379   0.208  14.142  0.0960  0.3648  0.5372
  619MPD2    H3 9228   2.186   0.153  14.277  0.0222 -0.0921  0.1416
  619MPD2     N 9229   1.907   0.141  13.918 -0.2048 -0.0518  0.2585
  619MPD2    H5 9230   1.840   0.100  13.981 -0.5125  0.5115  0.3014
  619MPD2    N1 9231   2.386   0.270  13.889 -0.3488 -0.1785  0.2417
  619MPD2    H7 9232   2.380   0.283  13.789  0.0889  0.8779  0.3556
  620TMC3    C1 9233   2.596   0.361  13.831 -0.9173 -0.5359 -0.9907
  620TMC3    C2 9234   2.532   0.408  13.717  0.8055 -0.0964  0.2575
  620TMC3    C3 9235   2.606   0.479  13.627 -0.6437  0.2160 -0.0277
  620TMC3    C4 9236   2.718   0.405  13.867  0.4117 -0.2005 -0.0448
  620TMC3    C5 9237   2.788   0.493  13.785  0.3378 -0.2376  0.1835
  620TMC3    C6 9238   2.736   0.525  13.665 -0.4065  0.1568  0.3191
  620TMC3     C 9239   2.511   0.304  13.933 -0.8873 -0.4369 -0.4552
  620TMC3     O 9240   2.564   0.297  14.040 -0.2328 -0.1034 -0.8506
  620TMC3     H 9241   2.429   0.384  13.689  1.1864 -2.1585  0.6174
  620TMC3    H1 9242   2.752   0.384  13.968 -1.0154  2.1216  0.9245
  620TMC3    H2 9243   2.792   0.590  13.598  0.8882 -0.6211  0.6692
  620TMC3    C7 9244   2.928   0.529  13.814 -0.7579  0.7644  0.8351
  620TMC3    C8 9245   2.524   0.566  13.540 -0.2323  0.5928  0.0156
  620TMC3    O1 9246   2.990   0.451  13.884  1.2914 -0.0397 -0.0641
  620TMC3    O2 9247   2.518   0.686  13.560 -0.0336  0.5461  0.0707
  621MPD2     C 9248   2.156   0.507   9.487  0.5978  0.0722  0.5949
  621MPD2    C1 9249   2.151   0.561   9.612  0.1338  0.0960  0.4779
  621MPD2    C2 9250   2.187   0.693   9.631 -0.6928 -0.0510 -0.0530
  621MPD2    C3 9251   2.228   0.771   9.528  0.0345  0.2718  0.3362
  621MPD2    C4 9252   2.222   0.726   9.396  0.3384 -0.6152 -0.1700
  621MPD2    C5 9253   2.181   0.594   9.384  0.5980 -0.0096  0.3255
  621MPD2     H 9254   2.194   0.729   9.733  1.1997  0.6558 -0.4305
  621MPD2    H1 9255   2.264   0.782   9.313 -0.8712 -0.3486 -0.5981
  621MPD2    H2 9256   2.143   0.401   9.470  2.4819  0.0024 -0.5484
  621MPD2    H3 9257   2.179   0.547   9.287  1.8606 -0.7262  0.6441
  621MPD2     N 9258   2.273   0.900   9.555  0.4100 -0.3891  0.2236
  621MPD2    H5 9259   2.284   0.920   9.654 -1.0577 -0.9502  0.4986
  621MPD2    N1 9260   2.106   0.473   9.712 -0.5827 -0.1537 -0.6840
  621MPD2    H7 9261   2.101   0.375   9.686 -1.1101 -0.1952 -0.4276
  622TMC3    C1 9262   2.088   0.411   9.940  0.2505 -0.1241  0.6332
  622TMC3    C2 9263   2.117   0.445  10.070 -0.2258 -0.4130 -0.0910
  622TMC3    C3 9264   2.124   0.346  10.154 -0.2925 -0.2250  0.5968
  622TMC3    C4 9265   2.080   0.278   9.901 -0.4518 -0.1825  0.0359
  622TMC3    C5 9266   2.088   0.178   9.994 -0.2998 -0.1633 -0.1983
  622TMC3    C6 9267   2.108   0.210  10.121 -0.2988  0.3896 -0.5414
  622TMC3     C 9268   2.076   0.518   9.842 -0.3587 -0.1200  0.6648
  622TMC3     O 9269   2.065   0.630   9.885  0.0820  0.2745 -0.1228
  622TMC3     H 9270   2.141   0.545  10.104  0.9257 -0.8842  0.4827
  622TMC3    H1 9271   2.044   0.252   9.802  1.1978 -0.6471 -0.4492
  622TMC3    H2 9272   2.121   0.131  10.195  1.2549  1.3877  0.2520
  622TMC3    C7 9273   2.050   0.038   9.966 -0.5718  0.1906  0.5788
  622TMC3    C8 9274   2.158   0.375  10.296  0.6301 -0.1343  0.5461
  622TMC3    O1 9275   2.120   4.694  10.021  0.2251  0.1240  0.2114
  622TMC3    O2 9276   2.220   0.292  10.364  0.0489 -0.4004 -0.0446
  623MPD2     C 9277   1.357   0.588  15.904  0.5485  0.6067 -0.2562
  623MPD2    C1 9278   1.273   0.609  16.011  0.4723  0.7760 -0.3098
  623MPD2    C2 9279   1.330   0.639  16.134 -0.9005 -1.1587 -0.2955
  623MPD2    C3 9280   1.467   0.669  16.148 -0.3273 -0.3474  0.3753
  623MPD2    C4 9281   1.547   0.642  16.042  0.0129  0.0945  0.3192
  623MPD2    C5 9282   1.491   0.610  15.920  0.1433  0.0557  0.5599
  623MPD2     H 9283   1.278   0.651  16.228 -0.4775 -1.2563 -0.0489
  623MPD2    H1 9284   1.654   0.633  16.059  0.4350  2.0680 -1.3685
  623MPD2    H2 9285   1.325   0.555  15.806 -0.8124  0.1728  0.3413
  623MPD2    H3 9286   1.560   0.597  15.838  1.1536  0.7049  1.3023
  623MPD2     N 9287   1.519   0.709  16.276  0.0346 -0.1819  0.2978
  623MPD2    H5 9288   1.458   0.717  16.357  1.8713 -4.1573  2.0439
  623MPD2    N1 9289   1.133   0.569  16.007  0.1138  0.2504 -0.6197
  623MPD2    H7 9290   1.080   0.578  16.093  2.8141  0.4145  1.0192
  624TMC3    C1 9291   1.785   0.735  16.637 -0.0361 -0.1553  0.6231
  624TMC3    C2 9292   1.675   0.752  16.714 -0.1347 -0.5695  0.1667
  624TMC3    C3 9293   1.573   0.816  16.648 -0.0031 -0.2793 -0.5684
  624TMC3    C4 9294   1.788   0.730  16.502  0.0798 -0.3751 -0.7636
  624TMC3    C5 9295   1.671   0.768  16.445 -0.4772 -0.1147  0.4128
  624TMC3    C6 9296   1.566   0.825  16.509  0.2328 -0.4975  0.9738
  624TMC3     C 9297   1.893   0.663  16.711 -0.3765  0.2241  0.1441
  624TMC3     O 9298   1.875   0.635  16.829  0.3993 -0.2087  0.1033
  624TMC3     H 9299   1.666   0.751  16.822 -0.9725  2.9111  0.1393
  624TMC3    H1 9300   1.873   0.693  16.446 -0.3238  0.7896 -2.1544
  624TMC3    H2 9301   1.483   0.871  16.456 -0.2196 -1.3620  0.9259
  624TMC3    C7 9302   1.651   0.739  16.306 -0.5608  0.4402  0.4990
  624TMC3    C8 9303   1.448   0.812  16.723 -0.2244 -0.1856  0.3171
  624TMC3    O1 9304   1.752   0.713  16.243 -0.5248 -0.3642 -0.2862
  624TMC3    O2 9305   1.439   0.722  16.810  0.2297  0.4820  0.0897
  625MPD2     C 9306   1.749   2.044   0.885 -0.0634  0.0518  0.0565
  625MPD2    C1 9307   1.802   2.101   0.768  0.8101 -0.2290 -0.5629
  625MPD2    C2 9308   1.913   2.060   0.707  0.1500  0.5828  0.0732
  625MPD2    C3 9309   1.978   1.949   0.763 -0.0118 -0.7836 -0.2547
  625MPD2    C4 9310   1.909   1.874   0.860 -1.0565 -0.0802  0.2162
  625MPD2    C5 9311   1.813   1.930   0.931  0.5446 -0.7161  0.0273
  625MPD2     H 9312   1.949   2.106   0.616  0.0302 -0.5820 -0.5714
  625MPD2    H1 9313   1.958   1.790   0.910 -3.3278 -0.8081  1.2093
  625MPD2    H2 9314   1.661   2.082   0.934  0.9742 -0.3046  2.1910
  625MPD2    H3 9315   1.787   1.878   1.022  0.7543  1.2169  1.2026
  625MPD2     N 9316   2.106   1.914   0.715 -0.5691 -0.2907 -0.1176
  625MPD2    H5 9317   2.137   1.977   0.642  0.5564  2.5589  2.8327
  625MPD2    N1 9318   1.723   2.216   0.725  1.5746 -0.8414  0.1967
  625MPD2    H7 9319   1.634   2.219   0.773  1.0205  2.4847 -1.0113
  626TMC3    C1 9320   1.632   2.377   0.572  1.2357 -0.0573 -0.9383
  626TMC3    C2 9321   1.618   2.423   0.444  0.2309 -0.2226  0.7422
  626TMC3    C3 9322   1.500   2.485   0.413 -0.0352 -0.6757 -0.9237
  626TMC3    C4 9323   1.539   2.404   0.670  0.1519  0.6206 -0.1619
  626TMC3    C5 9324   1.427   2.478   0.638 -0.2015  0.4188 -0.0002
  626TMC3    C6 9325   1.401   2.503   0.506  0.1632 -0.0965 -0.2770
  626TMC3     C 9326   1.743   2.284   0.604 -0.1438 -0.2990 -0.0461
  626TMC3     O 9327   1.828   2.266   0.518  0.5968 -0.4833 -0.1719
  626TMC3     H 9328   1.696   2.402   0.372  2.1259  2.7481  1.9064
  626TMC3    H1 9329   1.551   2.379   0.775 -1.8254  0.5120  0.0338
  626TMC3    H2 9330   1.311   2.557   0.478  0.9110  0.8319 -0.8713
  626TMC3    C7 9331   1.340   2.510   0.752 -0.1675 -0.1479  0.0363
  626TMC3    C8 9332   1.460   2.484   0.270  0.1538 -1.1513 -0.1534
  626TMC3    O1 9333   1.379   2.491   0.863 -0.7122 -0.2067  0.4273
  626TMC3    O2 9334   1.553   2.481   0.188 -0.2466  0.1820 -0.0251
  627MPD2     C 9335   4.682   2.430  14.295  0.0883  0.1460  1.2168
  627MPD2    C1 9336   0.004   2.368  14.400  0.6005 -0.0043 -0.3629
  627MPD2    C2 9337   4.704   2.238  14.427  0.0469  0.5675  0.7236
  627MPD2    C3 9338   4.588   2.179  14.374  0.0330  0.4279  0.0631
  627MPD2    C4 9339   4.525   2.248  14.269 -0.2643 -0.5774  0.3475
  627MPD2    C5 9340   4.575   2.372  14.230 -0.1525  0.1639 -0.2987
  627MPD2     H 9341   0.019   2.184  14.506 -0.2593 -1.2117 -0.3028
  627MPD2    H1 9342   4.438   2.203  14.221 -0.8558  2.2326 -1.2235
  627MPD2    H2 9343   4.733   2.516  14.253  0.1086 -1.1973 -1.5241
  627MPD2    H3 9344   4.535   2.429  14.147  1.8399  0.8400 -0.7861
  627MPD2     N 9345   4.557   2.046  14.412  0.5537  0.2513 -0.2196
  627MPD2    H5 9346   4.617   2.005  14.482  1.0227  0.8984 -0.2505
  627MPD2    N1 9347   0.117   2.410  14.467  0.4411  0.5802  0.1681
  627MPD2    H7 9348   0.171   2.338  14.514 -0.7146  0.1482  0.8451
  628TMC3    C1 9349   0.316   2.529  14.500 -0.4041 -0.6929 -1.0553
  628TMC3    C2 9350   0.353   2.421  14.577  0.5510  0.0962  0.2013
  628TMC3    C3 9351   0.484   2.429  14.618 -0.4507 -0.1109  0.1378
  628TMC3    C4 9352   0.389   2.642  14.478  0.6896 -1.0530  0.5909
  628TMC3    C5 9353   0.524   2.625  14.509 -0.6989 -0.5672 -0.8490
  628TMC3    C6 9354   0.579   2.515  14.571 -0.1677  0.1876 -0.2214
  628TMC3     C 9355   0.179   2.530  14.452  0.6833 -0.0143 -0.6971
  628TMC3     O 9356   0.144   2.631  14.395 -0.4988 -0.7329  0.1926
  628TMC3     H 9357   0.288   2.345  14.618 -0.9107  0.3669 -1.6005
  628TMC3    H1 9358   0.344   2.727  14.428 -0.5152 -1.0404  1.6933
  628TMC3    H2 9359   0.664   2.523  14.638 -0.7300 -0.7192  0.5987
  628TMC3    C7 9360   0.609   2.739  14.490  0.3611 -0.5862  0.3710
  628TMC3    C8 9361   0.519   2.319  14.712 -0.0898  0.1830  0.5264
  628TMC3    O1 9362   0.714   2.734  14.555 -0.6962 -0.1922  0.2775
  628TMC3    O2 9363   0.433   2.274  14.781  0.2107 -0.3322  0.4946
  629MPD2     C 9364   3.553   1.230  16.722 -0.6036 -0.7702 -0.1133
  629MPD2    C1 9365   3.588   1.235  16.586 -0.4552  0.8051  0.3899
  629MPD2    C2 9366   3.486   1.221  16.490  0.0899  0.1697  0.2503
  629MPD2    C3 9367   3.352   1.203  16.533  0.2033  0.2137  0.2919
  629MPD2    C4 9368   3.329   1.194  16.667 -0.2273 -0.2095 -0.4488
  629MPD2    C5 9369   3.426   1.220  16.758  0.2534 -0.0217  0.3424
  629MPD2     H 9370   3.514   1.220  16.385 -0.5569  2.3212  0.0551
  629MPD2    H1 9371   3.226   1.186  16.699  0.3704 -0.9282  1.2895
  629MPD2    H2 9372   3.619   1.224  16.807 -1.2417 -0.7355  0.3818
  629MPD2    H3 9373   3.395   1.225  16.861  1.0471 -0.0045  0.5805
  629MPD2     N 9374   3.252   1.184  16.428  0.2075  0.4097  0.4750
  629MPD2    H5 9375   3.289   1.196  16.334 -0.1567 -1.0522  0.1443
  629MPD2    N1 9376   3.720   1.244  16.551  0.4838 -0.1083  1.3709
  629MPD2    H7 9377   3.787   1.252  16.627  1.4754  0.9475  0.3767
  630TMC3    C1 9378   3.922   1.216  16.432  0.1552 -0.2524  0.4228
  630TMC3    C2 9379   3.980   1.325  16.371 -0.0308  0.8613 -0.1238
  630TMC3    C3 9380   4.096   1.370  16.423 -0.4078 -0.1864  0.0851
  630TMC3    C4 9381   3.982   1.155  16.537  0.7101  0.1009 -0.2544
  630TMC3    C5 9382   4.096   1.204  16.588  0.0275 -0.4217  0.4802
  630TMC3    C6 9383   4.147   1.320  16.542  0.1827  0.0679  0.8968
  630TMC3     C 9384   3.778   1.224  16.429  0.3412  0.3655  0.8414
  630TMC3     O 9385   3.739   1.226  16.312  0.3008 -0.0494  0.6159
  630TMC3     H 9386   3.928   1.365  16.284 -1.2308  0.3038  0.3376
  630TMC3    H1 9387   3.916   1.093  16.596 -2.1124  0.5715 -2.9176
  630TMC3    H2 9388   4.243   1.359  16.573  1.1743 -1.4442 -0.3026
  630TMC3    C7 9389   4.155   1.137  16.701 -0.8386 -0.5475 -0.2023
  630TMC3    C8 9390   4.150   1.489  16.378  0.0898 -0.0888 -0.3031
  630TMC3    O1 9391   4.115   1.027  16.728 -0.0626  0.1181 -0.0748
  630TMC3    O2 9392   4.200   1.561  16.465 -0.1279 -0.1842  0.3528
  631MPD2     C 9393   1.676   1.166  15.945  0.5266 -0.1695  0.0359
  631MPD2    C1 9394   1.770   1.207  15.857  0.1134  0.6130  0.6739
  631MPD2    C2 9395   1.855   1.116  15.793 -0.3295 -0.1784 -0.4080
  631MPD2    C3 9396   1.839   0.985  15.825  0.3122 -0.0344 -0.3002
  631MPD2    C4 9397   1.746   0.940  15.915 -0.5467  0.4417  0.0585
  631MPD2    C5 9398   1.666   1.032  15.979  0.2313  0.9139  0.5167
  631MPD2     H 9399   1.920   1.148  15.713  1.7833 -2.5260  0.3544
  631MPD2    H1 9400   1.743   0.842  15.961  0.1215  0.4781  0.1702
  631MPD2    H2 9401   1.604   1.238  15.983 -0.9760 -2.6299  1.8861
  631MPD2    H3 9402   1.581   0.998  16.038  0.1565 -0.0959 -0.1707
  631MPD2     N 9403   1.934   0.906  15.754  0.1442 -0.2209 -0.0508
  631MPD2    H5 9404   1.978   0.946  15.671 -0.3648  0.0259 -0.2003
  631MPD2    N1 9405   1.784   1.346  15.843  0.3091 -0.4865  0.8483
  631MPD2    H7 9406   1.705   1.399  15.879  3.0339  2.1118  2.9396
  632TMC3    C1 9407   1.835   1.535  15.707 -0.0858  0.1450  0.0537
  632TMC3    C2 9408   1.702   1.566  15.707  0.2977  0.3653  0.1077
  632TMC3    C3 9409   1.656   1.639  15.599 -0.1362  0.1210 -0.3754
  632TMC3    C4 9410   1.920   1.589  15.606 -0.5104 -0.0420 -0.5629
  632TMC3    C5 9411   1.861   1.670  15.507  0.3390  0.3626 -0.4865
  632TMC3    C6 9412   1.728   1.691  15.500 -0.2225  0.0962  0.4083
  632TMC3     C 9413   1.884   1.413  15.773  0.5324  0.2469  0.2635
  632TMC3     O 9414   1.986   1.366  15.734 -0.0543  0.0647  0.3379
  632TMC3     H 9415   1.633   1.536  15.785 -0.1848 -0.2936 -0.5765
  632TMC3    H1 9416   2.021   1.552  15.597  0.2017  1.3849  1.5498
  632TMC3    H2 9417   1.682   1.760  15.431  2.0027 -0.7442 -1.9129
  632TMC3    C7 9418   1.930   1.687  15.384 -0.3039 -0.3858  0.0799
  632TMC3    C8 9419   1.522   1.601  15.561 -0.3113  0.3453 -0.1692
  632TMC3    O1 9420   1.860   1.701  15.283 -0.5038  0.7908 -0.1521
  632TMC3    O2 9421   1.454   1.551  15.649 -0.1364  0.1058 -0.5014
  633MPD2     C 9422   1.851   3.721  17.484 -0.1747  0.4981 -1.0442
  633MPD2    C1 9423   1.807   3.630  17.387 -0.2236 -0.7654 -0.2058
  633MPD2    C2 9424   1.847   3.493  17.399 -0.6930 -1.0716  0.4516
  633MPD2    C3 9425   1.919   3.454  17.508 -0.4062  0.2827 -0.3539
  633MPD2    C4 9426   1.956   3.545  17.602  0.4554 -0.0007 -0.1815
  633MPD2    C5 9427   1.927   3.675  17.587  0.0918  0.2650 -0.0626
  633MPD2     H 9428   1.814   3.435  17.314  1.0014 -3.4176  1.4103
  633MPD2    H1 9429   2.022   3.517  17.684 -0.7001 -0.2648  0.6583
  633MPD2    H2 9430   1.829   3.827  17.481  1.0256  0.8228  1.0414
  633MPD2    H3 9431   1.957   3.737  17.671  1.8393 -1.9252  0.9430
  633MPD2     N 9432   1.975   3.323  17.518 -0.3767 -0.0127  0.0072
  633MPD2    H5 9433   2.043   3.308  17.592  0.5915 -0.2217 -0.9328
  633MPD2    N1 9434   1.745   3.670  17.268 -0.6532  0.5526 -0.1383
  633MPD2    H7 9435   1.726   3.594  17.203  0.4040  1.7066 -1.7876
  634TMC3    C1 9436   1.688   3.829  17.102  0.2515  0.7809  0.4897
  634TMC3    C2 9437   1.747   3.743  17.011 -0.2535 -0.4041  0.3398
  634TMC3    C3 9438   1.749   3.791  16.886  0.2053 -0.2695  0.3937
  634TMC3    C4 9439   1.628   3.952  17.078  0.7384  0.7647  0.6876
  634TMC3    C5 9440   1.637   3.996  16.946 -0.2451  0.2537 -0.1612
  634TMC3    C6 9441   1.696   3.913  16.846  0.1409 -0.1950  0.2327
  634TMC3     C 9442   1.703   3.799  17.247 -0.2525 -0.1124  0.1039
  634TMC3     O 9443   1.689   3.889  17.327 -0.1907  0.7622  0.6305
  634TMC3     H 9444   1.794   3.648  17.032  1.1984 -0.0466 -1.2936
  634TMC3    H1 9445   1.566   4.003  17.151 -1.9049 -0.3966 -0.7188
  634TMC3    H2 9446   1.696   3.944  16.742 -1.0108 -1.0636 -0.0251
  634TMC3    C7 9447   1.595   4.123  16.902  0.4571  0.4535  0.3255
  634TMC3    C8 9448   1.780   3.691  16.781  0.4513 -0.0738  1.0301
  634TMC3    O1 9449   1.654   4.161  16.802 -0.0559 -0.1516 -0.3134
  634TMC3    O2 9450   1.787   3.575  16.818  0.0971  0.2688  0.2500
  635TMC3    C1 9451   1.362   0.101   0.286  0.1274  0.1952  0.0315
  635TMC3    C2 9452   1.383   4.695   0.298 -0.0697 -0.4698  0.1212
  635TMC3    C3 9453   1.446   4.632   0.190 -0.0478  0.1700  0.4238
  635TMC3    C4 9454   1.403   0.174   0.174  0.3547 -0.5124 -0.3817
  635TMC3    C5 9455   1.477   0.107   0.080 -0.7847 -0.2900  0.5675
  635TMC3    C6 9456   1.497   4.707   0.089 -0.5294 -0.0884  0.3501
  635TMC3     C 9457   1.326   0.179   0.398 -0.2046 -0.1914 -0.6430
  635TMC3     O 9458   1.353   0.300   0.410 -0.3626  0.6776  0.1923
  635TMC3     H 9459   1.369   4.646   0.393 -3.2772  0.1768 -0.0110
  635TMC3    H1 9460   1.392   0.281   0.166 -0.4682 -0.6339 -0.8792
  635TMC3    H2 9461   1.551   4.653   0.012  0.8827  0.5125  0.9146
  635TMC3    C7 9462   1.480   0.148  17.687  0.1636  1.1740 -0.0695
  635TMC3    C8 9463   1.457   4.487   0.189  0.0725  0.4611 -0.7503
  635TMC3    O1 9464   1.390   0.230  17.668 -0.1453  0.5992  0.3172
  635TMC3    O2 9465   1.544   4.446   0.115  0.8078 -0.1403 -0.1956
  636MPD2     C 9466   3.120   4.051  15.724 -0.7127  0.2581  0.0087
  636MPD2    C1 9467   3.062   3.986  15.834 -0.1819 -0.6087 -0.5844
  636MPD2    C2 9468   3.066   3.851  15.843  0.4167  0.4628 -0.6699
  636MPD2    C3 9469   3.117   3.770  15.737 -0.2705 -0.1510 -0.0013
  636MPD2    C4 9470   3.156   3.834  15.620 -0.6267 -0.1006  0.1488
  636MPD2    C5 9471   3.163   3.974  15.621  0.2760 -0.2429  0.0978
  636MPD2     H 9472   3.016   3.808  15.930  0.4920 -0.6286 -1.1717
  636MPD2    H1 9473   3.201   3.779  15.538 -1.0962  1.7586 -1.3534
  636MPD2    H2 9474   3.104   4.155  15.698 -0.1443  0.9825  2.5149
  636MPD2    H3 9475   3.181   4.026  15.528  0.9064  1.5309  1.2128
  636MPD2     N 9476   3.118   3.635  15.770  1.0780  0.2440 -0.5085
  636MPD2    H5 9477   3.093   3.613  15.866 -2.9589 -0.8376 -1.8440
  636MPD2    N1 9478   2.976   4.049  15.925 -0.4796  0.1808  0.3775
  636MPD2    H7 9479   2.936   3.995  16.001  2.7119 -1.7994  0.6533
  637TMC3    C1 9480   3.190   3.420  15.782 -0.2480  0.0693 -0.2838
  637TMC3    C2 9481   3.090   3.413  15.873  0.2796 -0.5406 -0.2283
  637TMC3    C3 9482   3.118   3.382  15.998  0.0062  0.2815  0.4343
  637TMC3    C4 9483   3.325   3.411  15.819 -0.7564  0.5678 -0.0363
  637TMC3    C5 9484   3.350   3.384  15.954 -0.0717 -0.2304  0.8063
  637TMC3    C6 9485   3.246   3.359  16.044 -0.4200 -0.3762  0.2733
  637TMC3     C 9486   3.181   3.537  15.705  0.3507 -0.1437  0.0769
  637TMC3     O 9487   3.226   3.546  15.590  0.1840  0.7342  0.0783
  637TMC3     H 9488   2.991   3.431  15.831  0.2268  1.4634  0.7408
  637TMC3    H1 9489   3.395   3.464  15.755 -1.3635  2.0905  0.5637
  637TMC3    H2 9490   3.267   3.327  16.146 -2.8249 -0.9875  0.5771
  637TMC3    C7 9491   3.464   3.446  16.015  0.2087 -0.3765  0.4970
  637TMC3    C8 9492   3.039   3.465  16.080  0.5743  0.5407  0.1206
  637TMC3    O1 9493   3.441   3.492  16.126  0.4928  0.0814 -0.4622
  637TMC3    O2 9494   3.003   3.570  16.023 -0.1314  0.9234  0.2401
  638MPD2     C 9495   2.926   3.027  14.836  0.3356 -0.6119  0.6675
  638MPD2    C1 9496   2.841   2.933  14.795  0.5138  0.2229 -0.2093
  638MPD2    C2 9497   2.789   2.849  14.896  0.1484 -0.3826 -0.0047
  638MPD2    C3 9498   2.831   2.855  15.027  0.7694 -0.3957 -0.3616
  638MPD2    C4 9499   2.935   2.941  15.052 -0.4871 -0.7196  0.0991
  638MPD2    C5 9500   2.979   3.031  14.957  0.3388  0.1023 -0.0106
  638MPD2     H 9501   2.711   2.778  14.869  0.3764 -0.9913  0.9543
  638MPD2    H1 9502   2.991   2.956  15.143 -1.0188 -1.6522  0.5791
  638MPD2    H2 9503   2.972   3.094  14.764 -0.7568 -1.3082 -0.6761
  638MPD2    H3 9504   3.054   3.104  14.985 -0.1384  0.3383  0.6530
  638MPD2     N 9505   2.791   2.760  15.132 -0.5692  0.1703 -0.5360
  638MPD2    H5 9506   2.853   2.751  15.212  0.2854  0.5762 -1.1499
  638MPD2    N1 9507   2.815   2.916  14.657 -0.3935 -0.3635 -0.2881
  638MPD2    H7 9508   2.829   2.993  14.592  0.0666  0.4538  0.7777
  639TMC3    C1 9509   2.694   2.568  15.219 -0.9400 -0.1710 -0.6399
  639TMC3    C2 9510   2.588   2.476  15.207 -0.1652 -0.3474  0.4158
  639TMC3    C3 9511   2.607   2.352  15.245  0.4093 -0.0623  0.3011
  639TMC3    C4 9512   2.821   2.525  15.266  0.0859  0.0454  0.1301
  639TMC3    C5 9513   2.836   2.389  15.284  0.5791 -0.2335 -0.0935
  639TMC3    C6 9514   2.731   2.309  15.273 -0.0002 -0.3106 -0.0857
  639TMC3     C 9515   2.687   2.673  15.123 -0.6488 -0.1463  0.1973
  639TMC3     O 9516   2.607   2.659  15.034 -0.3517  0.9360  0.6648
  639TMC3     H 9517   2.496   2.519  15.170  1.2862  0.8338 -1.8245
  639TMC3    H1 9518   2.903   2.587  15.299 -1.0058  0.8410  1.3394
  639TMC3    H2 9519   2.747   2.207  15.304  0.2838 -0.5571 -1.0507
  639TMC3    C7 9520   2.958   2.341  15.350 -0.3542  0.5490 -0.4440
  639TMC3    C8 9521   2.524   2.260  15.172 -0.2905  0.2192 -0.2996
  639TMC3    O1 9522   2.948   2.283  15.457 -0.2069  0.6326  0.5747
  639TMC3    O2 9523   2.565   2.151  15.143  0.1562 -0.1091  0.2709
  640MPD2     C 9524   2.711   2.256  10.643 -0.3633 -0.2114 -0.2097
  640MPD2    C1 9525   2.771   2.355  10.574  0.1746  0.6277  0.4249
  640MPD2    C2 9526   2.706   2.480  10.556  0.1963 -0.5677 -0.1854
  640MPD2    C3 9527   2.576   2.501  10.594 -0.2769  0.6409  0.0720
  640MPD2    C4 9528   2.512   2.388  10.653 -0.5244  0.7915  0.1661
  640MPD2    C5 9529   2.576   2.270  10.677  0.0631 -0.0165 -0.6766
  640MPD2     H 9530   2.761   2.564  10.516  2.0670 -1.5024  0.3915
  640MPD2    H1 9531   2.406   2.389  10.672 -1.0600 -0.8781 -2.7477
  640MPD2    H2 9532   2.765   2.167  10.672 -0.3267  0.2735  1.2196
  640MPD2    H3 9533   2.519   2.183  10.708  1.6035 -1.2991 -1.4064
  640MPD2     N 9534   2.493   2.615  10.572  0.1951 -0.0674  0.1505
  640MPD2    H5 9535   2.393   2.599  10.584 -0.4286  2.1909 -1.8589
  640MPD2    N1 9536   2.904   2.331  10.522 -0.4410  0.0344  0.1654
  640MPD2    H7 9537   2.946   2.242  10.546 -3.2015 -1.1668  0.4520
  641TMC3    C1 9538   3.097   2.369  10.393 -0.1223  0.1841 -0.4012
  641TMC3    C2 9539   3.124   2.233  10.374 -0.2255 -0.3930 -0.3066
  641TMC3    C3 9540   3.250   2.192  10.337  0.2192 -0.1604 -0.2936
  641TMC3    C4 9541   3.188   2.462  10.348 -0.3867 -0.1316  0.3758
  641TMC3    C5 9542   3.317   2.419  10.319  0.3290 -0.5053 -0.2783
  641TMC3    C6 9543   3.344   2.286  10.301 -0.1565 -0.2124 -0.1106
  641TMC3     C 9544   2.966   2.412  10.431  0.1563  0.2783  0.4615
  641TMC3     O 9545   2.936   2.524  10.392  0.5836  0.0774  0.1187
  641TMC3     H 9546   3.043   2.164  10.396 -0.1601  0.0222  1.2283
  641TMC3    H1 9547   3.151   2.564  10.353 -0.5600 -0.1915  0.3144
  641TMC3    H2 9548   3.441   2.257  10.262  1.2556  2.3101  1.5534
  641TMC3    C7 9549   3.418   2.516  10.273 -0.0423 -0.3798 -0.4659
  641TMC3    C8 9550   3.264   2.060  10.285 -1.1309  0.8463 -0.0216
  641TMC3    O1 9551   3.528   2.471  10.246  0.2559 -0.0561 -0.6826
  641TMC3    O2 9552   3.355   2.028  10.212  0.4701  0.2360 -0.1316
  642TMC3    C1 9553   4.049   2.601  12.814  0.0515  0.5477  0.3362
  642TMC3    C2 9554   4.172   2.635  12.763  0.0127  0.2387  0.4070
  642TMC3    C3 9555   4.214   2.576  12.644 -0.6177 -0.0317 -1.1309
  642TMC3    C4 9556   3.976   2.505  12.750  0.2101 -0.5088  0.0083
  642TMC3    C5 9557   4.010   2.456  12.627  0.2634  0.0436  0.2497
  642TMC3    C6 9558   4.131   2.487  12.572  0.3137  0.1520 -0.3742
  642TMC3     C 9559   4.021   2.649  12.950  0.3344  0.6144 -0.9919
  642TMC3     O 9560   4.085   2.751  12.976  0.4428  0.2498 -0.2293
  642TMC3     H 9561   4.249   2.683  12.823  0.0797 -0.7115  1.0762
  642TMC3    H1 9562   3.876   2.486  12.786  1.2927  0.5672  3.5364
  642TMC3    H2 9563   4.160   2.433  12.483  0.3602 -0.6584  0.1275
  642TMC3    C7 9564   3.937   2.348  12.569 -0.5179 -0.3000 -0.2599
  642TMC3    C8 9565   4.354   2.568  12.612  0.2813  0.2786  0.4311
  642TMC3    O1 9566   3.941   2.339  12.449 -0.0319 -0.5140  0.1800
  642TMC3    O2 9567   4.397   2.463  12.563  0.1213 -0.7161 -0.2954
  643TMC3    C1 9568   3.369   1.636   0.408  0.2173  0.5453  0.0665
  643TMC3    C2 9569   3.249   1.700   0.425  0.2782  0.6616  0.1860
  643TMC3    C3 9570   3.181   1.754   0.321  0.2109 -0.0122 -0.4410
  643TMC3    C4 9571   3.413   1.628   0.277 -0.2562 -0.1319  0.2719
  643TMC3    C5 9572   3.340   1.671   0.174  0.5389  0.4538  0.9413
  643TMC3    C6 9573   3.226   1.739   0.194 -0.3247 -0.5946 -0.5226
  643TMC3     C 9574   3.463   1.681   0.502 -0.2015 -0.1287 -0.4735
  643TMC3     O 9575   3.441   1.796   0.541  0.1604 -0.4489 -0.2464
  643TMC3     H 9576   3.213   1.727   0.524 -0.6416  3.6160 -0.9661
  643TMC3    H1 9577   3.517   1.606   0.256 -0.3758 -0.4043 -0.0294
  643TMC3    H2 9578   3.173   1.777   0.107 -2.0174 -3.3777 -0.7007
  643TMC3    C7 9579   3.412   1.705   0.056  0.0348  1.0886 -0.3520
  643TMC3    C8 9580   3.127   1.882   0.344  0.4694 -0.7686 -1.2130
  643TMC3    O1 9581   3.404   1.823   0.029  0.1652  0.0717  0.1265
  643TMC3    O2 9582   3.054   1.901   0.444 -0.1363 -0.0112  0.2407
  644MPD2     C 9583   3.476   3.038   9.748  0.0187  0.1185  0.4397
  644MPD2    C1 9584   3.360   2.967   9.762  0.5744  0.2539  0.0828
  644MPD2    C2 9585   3.248   3.043   9.790 -0.4899 -0.5160  0.0782
  644MPD2    C3 9586   3.240   3.184   9.798  0.0305  0.1918 -0.3795
  644MPD2    C4 9587   3.360   3.246   9.770 -0.0987 -0.2372 -0.1176
  644MPD2    C5 9588   3.477   3.174   9.742  0.3852  0.3985 -0.5057
  644MPD2     H 9589   3.156   2.986   9.793  0.9107 -2.8685 -1.4270
  644MPD2    H1 9590   3.366   3.354   9.769 -0.7118 -0.1810  1.3900
  644MPD2    H2 9591   3.561   2.980   9.712 -0.3560 -0.8603  1.1300
  644MPD2    H3 9592   3.566   3.232   9.723 -0.0990  1.0851 -0.7029
  644MPD2     N 9593   3.122   3.261   9.821 -0.3725 -0.8661  0.5620
  644MPD2    H5 9594   3.043   3.214   9.863 -2.7865  3.4111  0.8026
  644MPD2    N1 9595   3.366   2.828   9.765  0.3066 -0.2657 -0.6454
  644MPD2    H7 9596   3.462   2.795   9.762  0.4472  0.0752  0.0851
  645TMC3    C1 9597   2.980   3.451   9.840  0.6222  0.4278  0.0536
  645TMC3    C2 9598   2.968   3.592   9.853  0.8130 -0.6066 -0.1027
  645TMC3    C3 9599   2.845   3.653   9.849 -0.0762  0.1183 -0.1839
  645TMC3    C4 9600   2.864   3.378   9.830 -0.2364  0.4787  0.4703
  645TMC3    C5 9601   2.743   3.440   9.851  0.1898 -0.1708 -0.0112
  645TMC3    C6 9602   2.731   3.577   9.855  0.2456  0.1414 -0.4239
  645TMC3     C 9603   3.111   3.398   9.802  0.5744  0.2313  0.0051
  645TMC3     O 9604   3.191   3.487   9.778  0.1552  0.6971  0.0579
  645TMC3     H 9605   3.053   3.658   9.843  0.1292  0.1309 -0.9684
  645TMC3    H1 9606   2.859   3.273   9.806 -1.2379  0.6157  0.0933
  645TMC3    H2 9607   2.636   3.616   9.887  1.0336  0.6649  1.2651
  645TMC3    C7 9608   2.628   3.365   9.891 -0.2570  0.8191  0.1472
  645TMC3    C8 9609   2.844   3.792   9.796 -0.1188  0.4789  0.1481
  645TMC3    O1 9610   2.515   3.400   9.862  0.5850  0.4561 -0.2990
  645TMC3    O2 9611   2.947   3.859   9.804 -0.6314  0.1869  0.0174
  646MPD2     C 9612   2.989   1.622  14.695 -0.6478  0.4980 -0.6514
  646MPD2    C1 9613   2.901   1.588  14.795  0.3716 -0.0478 -0.0323
  646MPD2    C2 9614   2.759   1.609  14.768  0.2401  0.1343  0.1347
  646MPD2    C3 9615   2.715   1.655  14.648 -0.1407 -0.6128  0.2277
  646MPD2    C4 9616   2.807   1.680  14.546 -0.2593  0.7169 -0.3298
  646MPD2    C5 9617   2.943   1.666  14.570  0.2850 -0.3799 -0.6500
  646MPD2     H 9618   2.693   1.584  14.850 -0.8255  1.2595 -0.3816
  646MPD2    H1 9619   2.773   1.709  14.447 -0.6245 -1.1981 -0.7809
  646MPD2    H2 9620   3.094   1.595  14.703 -1.0265 -0.3631  1.2366
  646MPD2    H3 9621   3.013   1.693  14.491 -1.4617 -1.3296 -2.5437
  646MPD2     N 9622   2.578   1.698  14.632  0.1487  0.2610  0.3655
  646MPD2    H5 9623   2.519   1.679  14.712 -2.0355  1.0898 -1.0818
  646MPD2    N1 9624   2.961   1.543  14.919  0.6250  0.5665 -0.2477
  646MPD2    H7 9625   3.062   1.539  14.925  0.6138  1.9520  0.8957
  647TMC3    C1 9626   2.991   1.479  15.155 -0.3493 -0.0908  0.4187
  647TMC3    C2 9627   2.935   1.492  15.279  0.6807  0.4057 -0.4947
  647TMC3    C3 9628   2.987   1.413  15.386 -0.0388 -0.1587  0.1629
  647TMC3    C4 9629   3.101   1.402  15.129  0.2029  0.2875 -0.0949
  647TMC3    C5 9630   3.159   1.330  15.235 -0.5062 -0.5554  0.1732
  647TMC3    C6 9631   3.105   1.342  15.360  0.6368 -0.3574 -0.1653
  647TMC3     C 9632   2.901   1.521  15.043 -0.3787  0.2395  0.1771
  647TMC3     O 9633   2.785   1.539  15.079 -0.3016  0.6760 -1.0226
  647TMC3     H 9634   2.840   1.540  15.301  0.1545 -0.8871  0.0764
  647TMC3    H1 9635   3.146   1.421  15.032 -2.1899 -0.8198 -1.4102
  647TMC3    H2 9636   3.142   1.288  15.446  1.0897 -1.9556 -1.3641
  647TMC3    C7 9637   3.253   1.217  15.221 -0.6223  0.6303  0.2027
  647TMC3    C8 9638   2.900   1.329  15.454  0.2397  0.0377  0.4506
  647TMC3    O1 9639   3.279   1.154  15.322  0.2550 -0.4822  0.2916
  647TMC3    O2 9640   2.942   1.259  15.546 -0.2186 -0.5867 -0.2727
  648TMC3    C1 9641   2.183   3.885  16.415  0.3657 -0.5069  0.4650
  648TMC3    C2 9642   2.245   3.770  16.393  0.1208  0.3033 -1.2973
  648TMC3    C3 9643   2.281   3.744  16.264  0.0530  0.6302 -0.2668
  648TMC3    C4 9644   2.141   3.971  16.316  0.3692 -0.5613  0.1340
  648TMC3    C5 9645   2.161   3.933  16.188 -0.5158 -0.4647  0.4325
  648TMC3    C6 9646   2.239   3.828  16.157 -0.3996 -0.2495 -0.4785
  648TMC3     C 9647   2.151   3.923  16.554 -0.2774 -0.2986 -0.0928
  648TMC3     O 9648   2.103   4.033  16.574  0.3232  0.1280 -0.0878
  648TMC3     H 9649   2.309   3.713  16.461  0.1100  2.6232  0.6577
  648TMC3    H1 9650   2.105   4.070  16.341 -0.5423 -0.9725  0.4367
  648TMC3    H2 9651   2.251   3.798  16.054  2.4811 -2.6569  0.5613
  648TMC3    C7 9652   2.117   4.024  16.084  0.3715  0.5017 -0.8136
  648TMC3    C8 9653   2.346   3.621  16.229 -0.5417 -0.1896  0.4111
  648TMC3    O1 9654   2.180   4.027  15.981 -0.3828  0.5243 -0.7094
  648TMC3    O2 9655   2.348   3.534  16.313  0.3051 -0.4796  0.2462
  649TMC3    C1 9656   1.278   0.478  12.905  0.1835 -0.7215 -1.0455
  649TMC3    C2 9657   1.339   0.599  12.902 -0.0240  0.1497  0.2410
  649TMC3    C3 9658   1.335   0.687  13.007  0.2753 -0.3587 -0.3107
  649TMC3    C4 9659   1.222   0.439  13.021 -0.3266  0.5921 -0.4212
  649TMC3    C5 9660   1.213   0.532  13.116 -0.2718 -0.6202 -0.5165
  649TMC3    C6 9661   1.269   0.653  13.116  0.1399 -0.2578  0.4485
  649TMC3     C 9662   1.225   0.427  12.783 -0.2468  0.0218 -0.2479
  649TMC3     O 9663   1.111   0.386  12.763  0.3522  0.1439 -0.8677
  649TMC3     H 9664   1.387   0.642  12.815  1.1382 -0.7429  0.4459
  649TMC3    H1 9665   1.160   0.351  13.028 -1.7983  1.6969  0.5324
  649TMC3    H2 9666   1.250   0.724  13.196  2.1654  0.2845  0.4483
  649TMC3    C7 9667   1.113   0.505  13.219 -0.2373  0.6038 -0.3692
  649TMC3    C8 9668   1.407   0.814  13.013  0.7001  0.4167  0.6297
  649TMC3    O1 9669   1.011   0.573  13.205  0.2012 -0.4624 -0.7307
  649TMC3    O2 9670   1.435   0.848  13.127 -0.5900  0.3009  0.0868
  650TMC3    C1 9671   3.525   1.580  12.840 -0.1136  0.3701  0.7267
  650TMC3    C2 9672   3.485   1.598  12.972  0.3923 -0.2055 -0.4555
  650TMC3    C3 9673   3.359   1.646  12.991  0.0299  0.0648 -0.0141
  650TMC3    C4 9674   3.444   1.616  12.736 -0.3022  0.6291 -0.5241
  650TMC3    C5 9675   3.325   1.675  12.767 -0.0224  0.5470  0.2089
  650TMC3    C6 9676   3.281   1.701  12.892  0.3546  0.2233 -0.1974
  650TMC3     C 9677   3.647   1.503  12.818 -0.5504 -0.3897 -0.3635
  650TMC3     O 9678   3.657   1.463  12.698  0.1351  0.2952  0.7522
  650TMC3     H 9679   3.538   1.554  13.056  0.6591 -0.3787 -0.7159
  650TMC3    H1 9680   3.471   1.610  12.632  2.3785 -2.1475  0.3116
  650TMC3    H2 9681   3.183   1.742  12.912  0.4163  0.0071  0.5528
  650TMC3    C7 9682   3.269   1.755  12.657  0.0935 -0.3461 -0.0390
  650TMC3    C8 9683   3.335   1.716  13.115  0.3067 -0.1363 -0.8384
  650TMC3    O1 9684   3.243   1.696  12.554  0.2827  0.1285 -0.1240
  650TMC3    O2 9685   3.421   1.786  13.164 -0.6063  0.6349  0.0720
  651MPD2     C 9686   2.464   4.066  10.764 -0.7176  0.6600  0.6311
  651MPD2    C1 9687   2.416   4.191  10.769 -0.1761 -0.4964  0.2214
  651MPD2    C2 9688   2.515   4.286  10.796 -0.8626  0.1563 -0.0625
  651MPD2    C3 9689   2.648   4.248  10.812  0.8066 -0.3827 -0.3224
  651MPD2    C4 9690   2.688   4.119  10.815  0.7438  0.4418  0.5642
  651MPD2    C5 9691   2.591   4.027  10.792  0.0191 -0.3605  0.3523
  651MPD2     H 9692   2.485   4.390  10.798  0.3781  0.4858  1.1578
  651MPD2    H1 9693   2.791   4.088  10.832  1.6175  1.4910 -2.7203
  651MPD2    H2 9694   2.391   3.986  10.756 -2.3177  2.1195  0.5818
  651MPD2    H3 9695   2.609   3.922  10.813 -0.7862 -0.2586  1.4940
  651MPD2     N 9696   2.739   4.357  10.827 -0.4807  0.3464  0.4986
  651MPD2    H5 9697   2.705   4.450  10.804 -0.3745  0.8019  2.1824
  651MPD2    N1 9698   2.280   4.230  10.752 -0.8276 -0.2488  0.1850
  651MPD2    H7 9699   2.257   4.328  10.743  1.3945  0.4422  1.8636
  652TMC3    C1 9700   3.168   4.525  10.744 -0.6952  0.0067  0.4870
  652TMC3    C2 9701   3.087   4.449  10.821 -0.5802  0.3930  0.1483
  652TMC3    C3 9702   2.954   4.450  10.802 -0.8692 -0.3999  0.1128
  652TMC3    C4 9703   3.126   4.610  10.646 -0.2501 -1.1613 -0.5925
  652TMC3    C5 9704   2.989   4.618  10.631  0.5340  0.1025  0.3975
  652TMC3    C6 9705   2.905   4.547  10.716 -0.4078 -0.4306  0.0569
  652TMC3     C 9706   3.308   4.500  10.758 -0.2268  0.2239 -0.8442
  652TMC3     O 9707   3.338   4.392  10.810  0.4884 -0.1242 -0.5457
  652TMC3     H 9708   3.121   4.370  10.886 -1.2055  0.0601  0.0665
  652TMC3    H1 9709   3.191   4.646  10.567  1.6246 -1.5108  0.7772
  652TMC3    H2 9710   2.799   4.566  10.727 -0.4193 -0.5180  0.0988
  652TMC3    C7 9711   2.938   4.731  10.558 -0.6553 -0.0594  0.1752
  652TMC3    C8 9712   2.875   4.334  10.844  0.0629 -0.0440  0.0968
  652TMC3    O1 9713   3.020   0.076  10.515  0.0196 -0.0054  0.5339
  652TMC3    O2 9714   2.941   4.238  10.879  0.0795  0.6652 -0.3155
  653MPD2     C 9715   0.892   3.882   0.056  0.3523 -0.1204  0.4239
  653MPD2    C1 9716   0.899   3.986  17.721 -0.1655 -0.0436 -0.2226
  653MPD2    C2 9717   0.904   3.965  17.584 -0.5745  0.6266  0.5428
  653MPD2    C3 9718   0.914   3.835  17.535 -0.2185  0.4110  0.6330
  653MPD2    C4 9719   0.896   3.726  17.617 -0.2846  0.1577 -0.2446
  653MPD2    C5 9720   0.885   3.755   0.005 -0.1598  0.0518  0.1834
  653MPD2     H 9721   0.907   4.047  17.513  0.6952 -1.5973 -1.9554
  653MPD2    H1 9722   0.883   3.621  17.591  3.4786  0.0718 -1.6363
  653MPD2    H2 9723   0.868   3.892   0.161 -0.1656 -0.3948  0.3306
  653MPD2    H3 9724   0.877   3.670   0.072  3.1860 -1.0863 -0.8676
  653MPD2     N 9725   0.913   3.821  17.392 -0.1747  0.3174  1.2916
  653MPD2    H5 9726   0.911   3.912  17.347 -0.5884 -0.1076  0.4489
  653MPD2    N1 9727   0.900   4.121   0.021 -0.1124 -0.3584 -0.0376
  653MPD2    H7 9728   0.901   4.194  17.697 -0.4171  0.1503  0.4822
  654TMC3    C1 9729   0.949   3.738  17.181 -0.3510  0.4744  0.6386
  654TMC3    C2 9730   0.837   3.798  17.126 -0.0826 -0.7148 -0.4908
  654TMC3    C3 9731   0.821   3.791  16.991 -0.4299  0.5662 -0.4633
  654TMC3    C4 9732   1.042   3.672  17.106  0.2099  0.7717 -0.1277
  654TMC3    C5 9733   1.026   3.674  16.968 -0.2102  0.2851  0.0522
  654TMC3    C6 9734   0.913   3.733  16.910  0.0323  0.2119 -0.5148
  654TMC3     C 9735   0.942   3.708  17.324 -0.5032 -0.4198 -0.2491
  654TMC3     O 9736   1.001   3.611  17.364  0.2687 -0.3723  0.2319
  654TMC3     H 9737   0.750   3.827  17.184 -0.0032 -1.9727  0.2411
  654TMC3    H1 9738   1.121   3.616  17.155  0.0740  1.7081  1.1672
  654TMC3    H2 9739   0.900   3.738  16.802 -1.2465 -1.6968 -0.4588
  654TMC3    C7 9740   1.095   3.589  16.879 -0.1199  0.5779  0.0348
  654TMC3    C8 9741   0.686   3.822  16.938  0.3603  0.1140  0.3894
  654TMC3    O1 9742   1.077   3.612  16.757 -0.2273 -0.0485 -0.1724
  654TMC3    O2 9743   0.614   3.903  16.995 -0.2985  0.2326 -0.2730
  655MPD2     C 9744   2.669   3.907  15.879 -0.5719  0.7326  0.4112
  655MPD2    C1 9745   2.634   4.023  15.814  0.0010  0.2473  0.3043
  655MPD2    C2 9746   2.677   4.047  15.685  0.5309  0.2712  0.0890
  655MPD2    C3 9747   2.754   3.949  15.622 -0.0546  0.7441 -0.2469
  655MPD2    C4 9748   2.767   3.830  15.682  0.2342 -0.2130  0.8637
  655MPD2    C5 9749   2.739   3.810  15.815 -0.2689  0.9690 -0.2582
  655MPD2     H 9750   2.656   4.145  15.643  2.3653  0.9925  0.8566
  655MPD2    H1 9751   2.840   3.758  15.646 -0.6933 -0.7395  0.0477
  655MPD2    H2 9752   2.641   3.885  15.981  0.3172 -1.8041  0.1177
  655MPD2    H3 9753   2.765   3.716  15.862  2.0785  2.0855  0.6772
  655MPD2     N 9754   2.795   3.948  15.487 -0.2820  1.1734  0.0716
  655MPD2    H5 9755   2.833   3.861  15.454  1.4774  1.1416  2.1601
  655MPD2    N1 9756   2.555   4.128  15.877 -0.1764 -0.2128 -0.2373
  655MPD2    H7 9757   2.539   4.210  15.820 -0.8247 -1.1098 -1.3348
  656TMC3    C1 9758   2.426   4.242  16.036 -0.1113 -0.0722 -0.4452
  656TMC3    C2 9759   2.359   4.251  16.153  0.1576  0.1384 -0.4841
  656TMC3    C3 9760   2.279   4.359  16.174 -0.7007 -0.0100 -0.4902
  656TMC3    C4 9761   2.395   4.332  15.933 -0.8535  0.5060 -0.7931
  656TMC3    C5 9762   2.311   4.435  15.957  0.7065  0.0081 -0.1887
  656TMC3    C6 9763   2.256   4.463  16.084  0.1867 -1.0333  0.2351
  656TMC3     C 9764   2.500   4.125  16.003  0.0217 -1.0653 -1.4413
  656TMC3     O 9765   2.495   4.036  16.088  0.0930  0.4769 -1.1460
  656TMC3     H 9766   2.378   4.174  16.227 -1.5721  0.2705  0.1139
  656TMC3    H1 9767   2.431   4.314  15.833  2.1952  2.0915  0.0146
  656TMC3    H2 9768   2.195   4.550  16.104  3.4681  1.1665  0.5860
  656TMC3    C7 9769   2.257   4.507  15.837 -0.2041  0.1151 -0.9795
  656TMC3    C8 9770   2.227   4.366  16.307 -0.5748  0.8227 -0.4661
  656TMC3    O1 9771   2.305   4.473  15.729  0.4608 -0.8349 -0.1322
  656TMC3    O2 9772   2.236   4.273  16.382  0.0847 -0.1953 -0.1237
  657TMC3    C1 9773   1.693   3.152  15.018 -0.9734 -0.5811 -0.2378
  657TMC3    C2 9774   1.647   3.024  15.049  0.0844 -0.7351  0.5367
  657TMC3    C3 9775   1.513   2.999  15.037  0.2162 -0.2687  0.4067
  657TMC3    C4 9776   1.609   3.245  14.956 -0.4847  0.5159 -0.3073
  657TMC3    C5 9777   1.486   3.206  14.925  1.1772 -0.1221  0.0356
  657TMC3    C6 9778   1.429   3.091  14.973  0.1497  0.2368 -0.1844
  657TMC3     C 9779   1.838   3.181  15.020 -0.7011  0.2873 -0.0237
  657TMC3     O 9780   1.882   3.275  14.959  0.1934  0.0174  0.0909
  657TMC3     H 9781   1.714   2.947  15.083  0.3147 -1.5076 -1.6933
  657TMC3    H1 9782   1.649   3.339  14.918  1.4198 -0.8398 -1.6457
  657TMC3    H2 9783   1.324   3.071  14.956  0.1453 -0.5153  0.6765
  657TMC3    C7 9784   1.392   3.310  14.870 -0.3004  0.4466 -0.1955
  657TMC3    C8 9785   1.455   2.877  15.085  0.2817  0.2819  0.3364
  657TMC3    O1 9786   1.287   3.268  14.823  0.2074 -0.1732 -0.5457
  657TMC3    O2 9787   1.347   2.845  15.036 -0.2547  0.2966 -0.0894
  658MPD2     C 9788   2.869   3.959  14.582 -0.8773 -0.4708  0.2647
  658MPD2    C1 9789   2.834   4.049  14.674 -0.0617 -0.3235  0.0643
  658MPD2    C2 9790   2.803   4.178  14.633 -0.0071  0.3518  0.2103
  658MPD2    C3 9791   2.810   4.207  14.500  0.4285  0.0766 -0.1202
  658MPD2    C4 9792   2.849   4.115  14.404  0.0725  0.3013 -0.3533
  658MPD2    C5 9793   2.884   3.991  14.451  1.0006 -0.7624 -0.3427
  658MPD2     H 9794   2.756   4.252  14.697  0.6007 -0.0955  1.1837
  658MPD2    H1 9795   2.853   4.138  14.298  0.8961  2.8729  0.2175
  658MPD2    H2 9796   2.888   3.855  14.608  0.5124 -0.2388  0.1708
  658MPD2    H3 9797   2.910   3.918  14.374 -2.1159 -1.7012 -0.5224
  658MPD2     N 9798   2.752   4.329  14.458 -0.0791 -0.3087  0.0819
  658MPD2    H5 9799   2.712   4.389  14.529  0.1043 -0.3051  0.1807
  658MPD2    N1 9800   2.810   4.004  14.805 -0.3115  0.6124 -0.0898
  658MPD2    H7 9801   2.813   3.903  14.820 -0.6454  1.2314  3.8733
  659TMC3    C1 9802   2.739   4.009  15.028  0.1048 -0.3484 -0.0038
  659TMC3    C2 9803   2.785   4.057  15.154 -0.0479 -0.2759  0.7788
  659TMC3    C3 9804   2.758   3.976  15.261 -0.0893  0.1962 -0.6327
  659TMC3    C4 9805   2.685   3.887  15.006 -0.7369 -0.2532  0.5704
  659TMC3    C5 9806   2.666   3.810  15.119  0.2726 -0.0382 -0.9321
  659TMC3    C6 9807   2.701   3.856  15.241  0.4932 -0.8033  0.4741
  659TMC3     C 9808   2.787   4.081  14.913  0.0655 -0.0876  0.8242
  659TMC3     O 9809   2.795   4.202  14.925  0.1873 -0.3578  0.4974
  659TMC3     H 9810   2.824   4.158  15.163 -1.0096  0.1328  0.4145
  659TMC3    H1 9811   2.641   3.858  14.911  0.2811  2.0027 -0.5722
  659TMC3    H2 9812   2.680   3.799  15.331 -0.1167  2.2017  2.2186
  659TMC3    C7 9813   2.558   3.720  15.114  0.0205 -0.9357 -0.4610
  659TMC3    C8 9814   2.762   4.037  15.390  0.1454 -0.8881  0.3076
  659TMC3    O1 9815   2.513   3.677  15.220 -0.4795  0.2102  0.0687
  659TMC3    O2 9816   2.718   4.154  15.402 -0.6320 -0.1068 -0.0546
  660MPD2     C 9817   0.800   2.780  12.819  0.4279 -0.3450  0.3446
  660MPD2    C1 9818   0.661   2.804  12.823  0.2973 -0.7902 -0.4677
  660MPD2    C2 9819   0.572   2.706  12.865 -0.4438  0.2559 -0.2740
  660MPD2    C3 9820   0.631   2.590  12.926  0.5813 -0.5862 -0.1452
  660MPD2    C4 9821   0.769   2.577  12.941  0.3784 -0.2815 -0.4346
  660MPD2    C5 9822   0.853   2.671  12.889  0.2102 -0.4525  0.6621
  660MPD2     H 9823   0.465   2.722  12.872 -0.6421  0.2751 -3.6211
  660MPD2    H1 9824   0.810   2.493  12.997  2.7116  0.0973 -1.5752
  660MPD2    H2 9825   0.858   2.862  12.779 -1.6531  1.3712  0.7911
  660MPD2    H3 9826   0.960   2.659  12.899  0.4402  1.8118  0.8746
  660MPD2     N 9827   0.552   2.493  12.994  0.7260 -0.0863 -0.1446
  660MPD2    H5 9828   0.595   2.444  13.073  0.6285  0.1655  0.0656
  660MPD2    N1 9829   0.621   2.922  12.756 -0.4135  0.2760  0.1167
  660MPD2    H7 9830   0.691   2.985  12.719 -0.5943 -0.2952 -1.1970
  661TMC3    C1 9831   0.458   3.052  12.631  0.5763  0.7888  0.0098
  661TMC3    C2 9832   0.549   3.066  12.527  0.0512 -0.0809  0.0794
  661TMC3    C3 9833   0.525   3.153  12.426  0.3079  0.6861 -0.6291
  661TMC3    C4 9834   0.343   3.127  12.634 -0.2545 -0.3491  0.0061
  661TMC3    C5 9835   0.318   3.204  12.530 -0.5417 -0.5462 -0.1968
  661TMC3    C6 9836   0.402   3.216  12.426  0.3801 -0.0306 -0.7469
  661TMC3     C 9837   0.492   2.969  12.749 -0.3527 -1.1396 -0.2274
  661TMC3     O 9838   0.401   2.941  12.825 -0.1078 -0.0636 -0.3172
  661TMC3     H 9839   0.621   2.985  12.520  2.5973  2.2688 -0.8156
  661TMC3    H1 9840   0.271   3.115  12.713  0.7756  0.3783  1.0579
  661TMC3    H2 9841   0.370   3.271  12.338  1.3478  0.6401 -0.6839
  661TMC3    C7 9842   0.179   3.215  12.493 -0.8446  0.2556 -0.4466
  661TMC3    C8 9843   0.607   3.138  12.310  0.1045 -0.1046  0.6621
  661TMC3    O1 9844   0.135   3.326  12.468  0.1634  0.2145  0.4481
  661TMC3    O2 9845   0.562   3.150  12.199  1.0150  0.3477 -0.1320
  662MPD2     C 9846   0.639   2.464  17.168 -0.5659  0.0913 -0.0730
  662MPD2    C1 9847   0.536   2.402  17.237 -0.0600 -0.6394  0.8004
  662MPD2    C2 9848   0.420   2.472  17.267  0.6840 -0.3961  0.1573
  662MPD2    C3 9849   0.420   2.610  17.243 -0.3019  0.0327  0.1427
  662MPD2    C4 9850   0.531   2.667  17.178 -0.4588 -0.2706  0.0448
  662MPD2    C5 9851   0.638   2.595  17.128  0.6136  0.1350  0.5714
  662MPD2     H 9852   0.329   2.425  17.302  0.4386  0.1276  0.2368
  662MPD2    H1 9853   0.534   2.775  17.169 -0.0876 -0.4193 -1.5720
  662MPD2    H2 9854   0.737   2.418  17.158 -0.9547 -0.9188  0.7338
  662MPD2    H3 9855   0.719   2.637  17.068 -1.0348  1.2447 -0.8686
  662MPD2     N 9856   0.323   2.700  17.297  0.0396  0.6582 -0.0686
  662MPD2    H5 9857   0.340   2.799  17.283 -2.0809  1.0047 -0.0728
  662MPD2    N1 9858   0.549   2.270  17.290  0.5269  0.6386  0.2655
  662MPD2    H7 9859   0.470   2.236  17.346  0.8333 -1.9035 -0.8173
  663TMC3    C1 9860   0.650   2.063  17.356 -0.2703 -0.6566 -0.4994
  663TMC3    C2 9861   0.573   2.077  17.464 -0.4356 -0.4067 -0.5799
  663TMC3    C3 9862   0.525   1.965  17.526 -0.5047 -0.5796 -0.5979
  663TMC3    C4 9863   0.689   1.947  17.297  0.1316 -0.0778 -0.3357
  663TMC3    C5 9864   0.639   1.839  17.361  0.1190  0.9129  0.4279
  663TMC3    C6 9865   0.550   1.845  17.462 -0.1476 -0.3598  0.3507
  663TMC3     C 9866   0.655   2.187  17.277  0.6922  0.4637 -0.5375
  663TMC3     O 9867   0.752   2.191  17.202 -0.2837  0.1853 -0.8467
  663TMC3     H 9868   0.567   2.173  17.512  0.8179 -0.2766 -0.7001
  663TMC3    H1 9869   0.767   1.944  17.221 -1.4997 -1.9739 -1.9023
  663TMC3    H2 9870   0.512   1.754  17.507 -1.8132 -0.2269 -0.7846
  663TMC3    C7 9871   0.639   1.728  17.259  0.7271 -0.3604 -0.2936
  663TMC3    C8 9872   0.568   1.961  17.671 -0.2998 -0.1436  0.3780
  663TMC3    O1 9873   0.667   1.757  17.147  0.3727  0.0105 -0.1762
  663TMC3    O2 9874   0.672   2.019  17.704 -0.3571 -0.1362 -0.0635
  664MPD2     C 9875   3.582   0.520  17.048  0.2172  0.6089 -0.5674
  664MPD2    C1 9876   3.616   0.591  17.165 -0.2130  0.1954  0.1171
  664MPD2    C2 9877   3.541   0.574  17.281  0.1012 -0.2019  0.9957
  664MPD2    C3 9878   3.422   0.499  17.273  0.1170 -0.0955 -0.0508
  664MPD2    C4 9879   3.391   0.432  17.158 -0.3614  0.1192  0.6313
  664MPD2    C5 9880   3.469   0.440  17.045  0.0749 -1.0418 -0.5835
  664MPD2     H 9881   3.579   0.626  17.368  1.9155 -0.1995  0.1978
  664MPD2    H1 9882   3.297   0.378  17.154 -0.6167  0.5314  1.1606
  664MPD2    H2 9883   3.643   0.517  16.958 -1.1574 -0.3620 -1.4572
  664MPD2    H3 9884   3.453   0.385  16.953  0.6299  0.2297 -1.4310
  664MPD2     N 9885   3.341   0.489  17.392  0.3407 -0.7575 -0.1296
  664MPD2    H5 9886   3.390   0.532  17.471 -1.1228  0.3087  0.1876
  664MPD2    N1 9887   3.730   0.671  17.177  0.1910 -0.6098  0.8528
  664MPD2    H7 9888   3.733   0.742  17.249  1.6304 -1.1674  1.3252
  665TMC3    C1 9889   3.159   0.446  17.536 -0.3163 -0.0555  0.3842
  665TMC3    C2 9890   3.028   0.424  17.540 -0.2904  0.2192  0.1705
  665TMC3    C3 9891   2.956   0.496  17.640  1.0538  0.5557 -0.2347
  665TMC3    C4 9892   3.226   0.522  17.632  0.2849  0.3077 -0.1766
  665TMC3    C5 9893   3.159   0.571  17.739  0.3836  0.3565 -0.6302
  665TMC3    C6 9894   3.020   0.572  17.737  0.2146  0.2425  0.5690
  665TMC3     C 9895   3.216   0.425  17.406  0.0538 -0.3094  0.0777
  665TMC3     O 9896   3.137   0.383  17.320 -0.1300 -0.3706  0.0215
  665TMC3     H 9897   2.985   0.349  17.475  0.5363  1.7116 -2.1145
  665TMC3    H1 9898   3.333   0.536  17.643  0.7188 -1.9823 -1.5343
  665TMC3    H2 9899   2.967   0.644   0.051 -0.9765 -0.5659  0.4866
  665TMC3    C7 9900   3.236   0.686   0.046  0.6040 -0.3778 -0.0269
  665TMC3    C8 9901   2.810   0.494  17.620 -0.5099 -0.5089  0.0883
  665TMC3    O1 9902   3.297   0.756  17.709 -0.5681 -0.3205 -0.2722
  665TMC3    O2 9903   2.740   0.518  17.720 -0.1205  0.2681 -0.0659
  666TMC3    C1 9904   2.371   1.111   9.538 -0.1982 -0.2002  0.1980
  666TMC3    C2 9905   2.507   1.090   9.563 -0.5095  0.1845 -1.2580
  666TMC3    C3 9906   2.587   1.195   9.608 -0.1399 -0.1206  0.2762
  666TMC3    C4 9907   2.324   1.241   9.542 -0.1447  0.3787  0.3072
  666TMC3    C5 9908   2.413   1.346   9.574  0.7695 -0.0123  0.3623
  666TMC3    C6 9909   2.541   1.323   9.605  0.1816 -0.0953 -0.5804
  666TMC3     C 9910   2.296   1.009   9.472  0.4031  0.1296 -0.0749
  666TMC3     O 9911   2.281   1.015   9.357 -0.3915  0.1289 -0.3500
  666TMC3     H 9912   2.545   0.988   9.568 -0.8661  0.1179  0.0300
  666TMC3    H1 9913   2.220   1.260   9.521 -0.5359  0.7265  2.5817
  666TMC3    H2 9914   2.600   1.413   9.615  0.0651 -0.0233 -0.5451
  666TMC3    C7 9915   2.368   1.457   9.648 -0.9215 -0.2553 -0.5031
  666TMC3    C8 9916   2.707   1.165   9.681 -0.3777 -0.0469 -0.2528
  666TMC3    O1 9917   2.440   1.496   9.738  1.0990 -0.4077 -0.1418
  666TMC3    O2 9918   2.754   1.051   9.664 -0.4088 -0.0645 -0.3679
  667MPD2     C 9919   4.487   0.500  14.840 -0.2496  0.1511  0.6351
  667MPD2    C1 9920   4.383   0.500  14.927 -0.1420 -0.7493  0.7547
  667MPD2    C2 9921   4.288   0.393  14.918 -0.0990  0.7445  0.6421
  667MPD2    C3 9922   4.294   0.300  14.814  0.2745  0.0417  0.0786
  667MPD2    C4 9923   4.397   0.305  14.721 -0.1191  0.3707  0.1598
  667MPD2    C5 9924   4.495   0.408  14.734 -0.8145  1.3885 -0.4743
  667MPD2     H 9925   4.208   0.389  14.990 -2.0838 -0.4912 -1.6182
  667MPD2    H1 9926   4.405   0.244  14.632 -0.5227 -1.7016  1.5491
  667MPD2    H2 9927   4.578   0.557  14.848 -1.2710  1.9212 -0.2777
  667MPD2    H3 9928   4.573   0.423  14.661 -1.7458 -0.1331 -1.7860
  667MPD2     N 9929   4.195   0.206  14.775  0.3515 -0.0288  0.4522
  667MPD2    H5 9930   4.215   0.148  14.694 -0.8968  0.6290 -0.3326
  667MPD2    N1 9931   4.377   0.585  15.041 -0.1960 -0.0239 -0.2887
  667MPD2    H7 9932   4.297   0.577  15.102 -0.8484 -0.0368 -1.1396
  668TMC3    C1 9933   4.432   0.787  15.165  0.0369 -0.2306  0.6184
  668TMC3    C2 9934   4.490   0.907  15.151 -0.1401  0.1573  0.3217
  668TMC3    C3 9935   4.463   0.993  15.252  0.4755 -0.4818  0.2514
  668TMC3    C4 9936   4.355   0.749  15.280 -0.6547  0.3861  0.6340
  668TMC3    C5 9937   4.342   0.836  15.377 -0.3962  0.3286  0.8932
  668TMC3    C6 9938   4.388   0.966  15.368  0.1966 -0.3631  0.6109
  668TMC3     C 9939   4.472   0.688  15.063 -0.1136  0.6118 -0.5108
  668TMC3     O 9940   4.584   0.700  15.013  0.4546  0.0660  0.4606
  668TMC3     H 9941   4.528   0.937  15.053  1.4405  2.4794  1.6387
  668TMC3    H1 9942   4.311   0.650  15.286 -2.1129  1.0019  0.1189
  668TMC3    H2 9943   4.369   1.041  15.443  1.1975  0.3503  0.1483
  668TMC3    C7 9944   4.299   0.788  15.509  0.5082 -0.1327 -0.2118
  668TMC3    C8 9945   4.521   1.134  15.249 -0.0117  0.0267 -0.2456
  668TMC3    O1 9946   4.239   0.683  15.510 -0.0660 -1.0445 -0.2822
  668TMC3    O2 9947   4.494   1.202  15.345  0.0249  0.2913 -0.1227
  669TMC3    C1 9948   2.684   0.836  14.666  0.3109 -0.6049  0.1987
  669TMC3    C2 9949   2.571   0.843  14.589 -0.1145  0.4432 -0.6403
  669TMC3    C3 9950   2.574   0.872  14.453 -1.0468  0.3606  0.1244
  669TMC3    C4 9951   2.807   0.860  14.619  0.3762 -0.3134 -0.5541
  669TMC3    C5 9952   2.806   0.888  14.485 -0.4381  0.5050 -0.6021
  669TMC3    C6 9953   2.694   0.895  14.404 -0.1000  1.2444  0.3098
  669TMC3     C 9954   2.674   0.748  14.781 -0.4359 -0.2889  0.0829
  669TMC3     O 9955   2.562   0.723  14.825 -0.4476 -0.0494  0.3814
  669TMC3     H 9956   2.475   0.827  14.636  0.2232 -0.9218 -0.4271
  669TMC3    H1 9957   2.898   0.843  14.676 -0.3059 -0.9736  0.3508
  669TMC3    H2 9958   2.700   0.930  14.301 -0.0921 -0.1511 -0.1630
  669TMC3    C7 9959   2.929   0.931  14.429  0.1356 -0.2282 -0.0547
  669TMC3    C8 9960   2.451   0.918  14.394  0.4108  0.2736  0.2538
  669TMC3    O1 9961   3.016   0.962  14.509  0.2651  0.2075 -0.8756
  669TMC3    O2 9962   2.340   0.869  14.426  0.1932 -0.1931  0.1055
  670MPD2     C 9963   0.750   3.445  13.311 -0.2391 -0.8093  0.1440
  670MPD2    C1 9964   0.859   3.370  13.345  0.5454 -1.7047  0.2033
  670MPD2    C2 9965   0.861   3.311  13.468 -0.2650  0.4160 -0.1817
  670MPD2    C3 9966   0.753   3.310  13.553 -0.0090  0.1142 -0.5890
  670MPD2    C4 9967   0.640   3.383  13.512  0.5034  0.0587 -0.0658
  670MPD2    C5 9968   0.643   3.450  13.393 -0.3106  0.0692 -0.3199
  670MPD2     H 9969   0.943   3.248  13.500 -1.6409 -1.3587 -0.1192
  670MPD2    H1 9970   0.552   3.384  13.575  0.0711 -0.5600 -0.6545
  670MPD2    H2 9971   0.748   3.501  13.218 -2.7925 -0.0515  0.6850
  670MPD2    H3 9972   0.555   3.512  13.376 -1.6211 -1.3069  1.4149
  670MPD2     N 9973   0.764   3.236  13.676  0.0961  0.4418  0.1566
  670MPD2    H5 9974   0.855   3.202  13.703 -0.6322  0.1484  2.2413
  670MPD2    N1 9975   0.971   3.346  13.273  0.0494  0.5440 -0.3139
  670MPD2    H7 9976   1.038   3.281  13.311 -2.0047 -1.8303 -0.7941
  671TMC3    C1 9977   0.697   3.075  13.833  0.2775  0.0789  0.7929
  671TMC3    C2 9978   0.813   3.088  13.900  0.0385 -0.2847 -0.1878
  671TMC3    C3 9979   0.830   3.015  14.012  0.5536  0.1702 -0.4052
  671TMC3    C4 9980   0.602   2.979  13.871  1.0002  0.6110  0.0111
  671TMC3    C5 9981   0.642   2.894  13.966 -0.0312  0.1115  0.1059
  671TMC3    C6 9982   0.754   2.907  14.042  0.7209  0.2142  0.0022
  671TMC3     C 9983   0.654   3.178  13.736  0.5380  0.5306 -0.2405
  671TMC3     O 9984   0.541   3.161  13.697 -0.3456  0.2406 -0.1545
  671TMC3     H 9985   0.873   3.177  13.888  0.3862 -0.7854 -2.2028
  671TMC3    H1 9986   0.507   2.951  13.827  1.6619 -1.6066 -0.0289
  671TMC3    H2 9987   0.764   2.835  14.123  0.1253  0.9333  0.7262
  671TMC3    C7 9988   0.541   2.790  13.996  0.7527 -0.3818  0.8532
  671TMC3    C8 9989   0.962   3.038  14.084 -0.8026  0.5615 -0.6875
  671TMC3    O1 9990   0.570   2.678  13.962  0.1486  0.2892 -0.3720
  671TMC3    O2 9991   1.014   3.149  14.078  0.4667  0.9446 -0.1717
  672MPD2     C 9992   0.491   3.331   1.419  0.1081  0.0673  0.3888
  672MPD2    C1 9993   0.546   3.396   1.309 -0.2753 -0.3378  0.2868
  672MPD2    C2 9994   0.662   3.472   1.332 -0.4364 -0.0778  0.5606
  672MPD2    C3 9995   0.709   3.493   1.455  1.2021 -0.3035 -0.9982
  672MPD2    C4 9996   0.645   3.440   1.561 -0.0844 -0.9770  0.1877
  672MPD2    C5 9997   0.535   3.359   1.546 -0.3877  0.0986 -0.2457
  672MPD2     H 9998   0.714   3.504   1.242 -0.5266  0.9507  0.8763
  672MPD2    H1 9999   0.691   3.459   1.658  0.7536 -0.7346 -0.2591
  672MPD2    H210000   0.402   3.270   1.406 -0.4301  0.6325  1.4213
  672MPD2    H310001   0.497   3.305   1.632 -1.7794  1.4367 -0.0338
  672MPD2     N10002   0.824   3.568   1.479  0.3781  0.2575  0.2461
  672MPD2    H510003   0.856   3.570   1.575  0.2664  1.6762  0.2557
  672MPD2    N110004   0.505   3.386   1.172 -0.5243 -0.2639 -0.3119
  672MPD2    H710005   0.562   3.422   1.096 -2.3311  1.1681 -1.0049
  673TMC3    C110006   0.355   3.329   0.993 -0.7558 -1.0767  0.4725
  673TMC3    C210007   0.457   3.306   0.903 -0.1314 -0.2992 -0.0961
  673TMC3    C310008   0.439   3.362   0.777 -0.3042 -0.5670 -0.0866
  673TMC3    C410009   0.243   3.393   0.963  0.4526 -0.4404  0.0025
  673TMC3    C510010   0.219   3.442   0.838 -0.3953  0.3130 -0.9752
  673TMC3    C610011   0.316   3.421   0.741 -0.2209 -0.4922  0.1067
  673TMC3     C10012   0.387   3.318   1.138 -1.0647  0.4486  0.0737
  673TMC3     O10013   0.296   3.290   1.218  0.1998 -0.4823 -0.3069
  673TMC3     H10014   0.547   3.255   0.936  1.0001  0.8413 -1.4278
  673TMC3    H110015   0.171   3.417   1.040  0.4904 -1.4857  0.3603
  673TMC3    H210016   0.308   3.455   0.638  0.5325  1.5945  0.7286
  673TMC3    C710017   0.118   3.541   0.830 -0.5720 -0.8632 -0.0128
  673TMC3    C810018   0.530   3.308   0.668 -0.9186 -0.4409 -0.2299
  673TMC3    O110019   0.022   3.523   0.909  0.0479 -0.6819  0.2605
  673TMC3    O210020   0.482   3.307   0.555 -0.5839  0.1023  0.3852
  674MPD2     C10021   0.718   3.394  17.097  0.2303 -0.2076  0.3938
  674MPD2    C110022   0.754   3.354  17.221  0.7044  0.8152 -0.5349
  674MPD2    C210023   0.721   3.439  17.330 -0.0427  0.5636  0.3108
  674MPD2    C310024   0.651   3.561  17.321 -0.4493 -0.2262  0.9749
  674MPD2    C410025   0.606   3.591  17.193  0.2331  0.6732  0.4288
  674MPD2    C510026   0.649   3.513  17.090  0.0499 -0.5403 -0.6779
  674MPD2     H10027   0.754   3.403  17.427 -0.4276 -0.8190 -0.0638
  674MPD2    H110028   0.543   3.676  17.175  1.0293  1.0819 -0.4514
  674MPD2    H210029   0.734   3.328  17.012 -1.1886 -1.5613  1.1906
  674MPD2    H310030   0.603   3.542  16.996  0.3622  1.4168 -0.2235
  674MPD2     N10031   0.609   3.633  17.440  0.2600 -0.0926 -0.2957
  674MPD2    H510032   0.630   3.587  17.529 -0.9047 -2.1117 -1.0687
  674MPD2    N110033   0.818   3.224  17.239 -0.0714  0.4368 -0.2984
  674MPD2    H710034   0.812   3.156  17.164 -1.3900 -0.4642  0.6282
  675TMC3    C110035   0.895   3.049  17.374 -0.7232 -0.5055 -0.1210
  675TMC3    C210036   0.778   2.975  17.380  0.0300 -0.5489 -0.2803
  675TMC3    C310037   0.770   2.879  17.483 -1.0187  0.3034 -0.3888
  675TMC3    C410038   0.993   3.026  17.463  0.0798 -0.6487 -0.1718
  675TMC3    C510039   0.978   2.928  17.558 -0.2617 -0.1496 -0.4952
  675TMC3    C610040   0.867   2.848  17.576  0.2690 -0.1471 -0.2352
  675TMC3     C10041   0.872   3.190  17.359 -0.0835 -0.0586 -0.0909
  675TMC3     O10042   0.919   3.261  17.445 -0.4963  0.1816  0.0189
  675TMC3     H10043   0.685   2.997  17.330 -1.0603 -1.0020  1.5525
  675TMC3    H110044   1.094   3.063  17.448  1.2436 -3.5012  0.6269
  675TMC3    H210045   0.875   2.759  17.638 -0.5127  0.9655  1.4635
  675TMC3    C710046   1.098   2.906  17.642 -0.0417 -0.2123  0.9501
  675TMC3    C810047   0.635   2.831  17.510  0.0944  0.0449 -0.6057
  675TMC3    O110048   1.204   2.955  17.605 -0.3979 -0.3518  0.3371
  675TMC3    O210049   0.545   2.836  17.427 -0.4433 -0.2241  0.2674
  676MPD2     C10050   3.627   1.880  11.524  0.8251 -0.2146  0.4293
  676MPD2    C110051   3.495   1.850  11.501  0.4015 -0.2927 -0.0845
  676MPD2    C210052   3.465   1.739  11.422 -0.1272 -0.6537 -0.7320
  676MPD2    C310053   3.578   1.664  11.366  0.2806  0.4452 -0.3109
  676MPD2    C410054   3.703   1.706  11.386  0.3525 -0.9612  0.3930
  676MPD2    C510055   3.727   1.808  11.473 -0.2277 -0.0179  0.2909
  676MPD2     H10056   3.365   1.710  11.394 -1.3598  2.5919  0.3277
  676MPD2    H110057   3.786   1.658  11.336  0.2306 -0.7690  0.0038
  676MPD2    H210058   3.660   1.968  11.579  2.5526 -0.3479 -0.3928
  676MPD2    H310059   3.822   1.849  11.505 -1.4410  2.6265  0.5525
  676MPD2     N10060   3.557   1.552  11.279 -0.0612  0.2930 -0.2807
  676MPD2    H510061   3.642   1.536  11.226 -0.4048 -0.4414 -0.6017
  676MPD2    N110062   3.395   1.928  11.563 -0.2400 -0.0972 -0.5667
  676MPD2    H710063   3.428   2.003  11.622 -1.0549  1.2779 -1.8657
  677TMC3    C110064   3.182   1.968  11.655 -0.8272 -0.2265  0.0203
  677TMC3    C210065   3.056   1.909  11.663  0.5658 -0.2482  0.0872
  677TMC3    C310066   2.977   1.941  11.770  0.1566  0.2435 -0.5265
  677TMC3    C410067   3.240   2.039  11.756 -0.5513  0.6564 -0.0089
  677TMC3    C510068   3.155   2.066  11.860  0.3849  0.3484 -0.4190
  677TMC3    C610069   3.026   2.017  11.871 -0.7994 -0.0705 -0.6975
  677TMC3     C10070   3.259   1.916  11.540 -0.0130  0.2607 -0.5827
  677TMC3     O10071   3.199   1.864  11.445  0.7468  0.0559  0.6613
  677TMC3     H10072   3.014   1.839  11.592  0.4555 -0.4274  0.3293
  677TMC3    H110073   3.336   2.088  11.746 -0.6127  0.9403  0.8630
  677TMC3    H210074   2.956   2.036  11.951  0.5749  0.6664  0.3304
  677TMC3    C710075   3.199   2.121  11.982 -0.0983  0.6334  0.7616
  677TMC3    C810076   2.849   1.867  11.780 -0.3764 -0.1988  0.7303
  677TMC3    O110077   3.122   2.108  12.073 -0.0312  0.3088 -0.4431
  677TMC3    O210078   2.774   1.887  11.684  0.1601 -0.0509 -0.2670
  678MPD2     C10079   4.338   1.304   1.301 -0.2042 -0.0246 -0.0158
  678MPD2    C110080   4.295   1.182   1.259  0.3485 -0.5072  0.4032
  678MPD2    C210081   4.183   1.179   1.189  0.0243  0.6093 -0.5619
  678MPD2    C310082   4.106   1.292   1.161 -0.2379 -0.0753 -1.0190
  678MPD2    C410083   4.155   1.409   1.205 -0.6239 -0.4281  0.0282
  678MPD2    C510084   4.267   1.415   1.283 -0.0336  0.3215 -0.0390
  678MPD2     H10085   4.158   1.084   1.142 -2.5904 -0.0296  2.1373
  678MPD2    H110086   4.101   1.501   1.189 -0.9269 -0.4414  0.9523
  678MPD2    H210087   4.428   1.317   1.359  1.1560  0.0248 -2.1316
  678MPD2    H310088   4.302   1.510   1.323 -5.7226  1.7234  1.7444
  678MPD2     N10089   3.985   1.278   1.085  0.6325  0.0767 -0.1163
  678MPD2    H510090   3.955   1.184   1.064  1.1632 -0.2565  0.6018
  678MPD2    N110091   4.374   1.068   1.272  0.7230  0.1304  0.5168
  678MPD2    H710092   4.335   0.994   1.214 -1.3044 -0.7543  2.9694
  679TMC3    C110093   0.060   0.882   1.341 -1.0418 -0.5718  0.2886
  679TMC3    C210094   4.671   0.919   1.375  0.2688 -0.5979 -0.3312
  679TMC3    C310095   4.572   0.942   1.292  0.3297 -0.1122  0.4405
  679TMC3    C410096   0.079   0.865   1.207 -0.5335  0.3446 -0.0121
  679TMC3    C510097   4.719   0.887   1.116  0.4351  0.1197 -0.1420
  679TMC3    C610098   4.598   0.932   1.155 -0.1901  0.4187  0.3462
  679TMC3     C10099   0.157   0.977   1.382  0.9506  0.8307 -0.2525
  679TMC3     O10100   0.274   0.934   1.388  0.6299  0.2596  0.8234
  679TMC3     H10101   4.666   0.939   1.481  2.9411  2.6993 -0.8484
  679TMC3    H110102   0.172   0.820   1.175  0.0790  0.7285  1.2449
  679TMC3    H210103   4.515   0.954   1.088 -0.6753 -1.1107  0.4533
  679TMC3    C710104   0.019   0.943   0.991 -0.3431 -0.0645  0.2555
  679TMC3    C810105   4.495   1.058   1.333  0.6856  0.2168  0.0906
  679TMC3    O110106   4.666   0.969   0.912  0.1178 -0.3825 -0.1384
  679TMC3    O210107   4.542   1.125   1.422  0.9098 -0.0282  0.1764
  680MPD2     C10108   0.435   0.948  13.498  0.7446  0.9167  0.3297
  680MPD2    C110109   0.497   0.864  13.579  0.6363 -0.1619 -0.8378
  680MPD2    C210110   0.623   0.903  13.623 -0.5578 -0.1319 -0.1487
  680MPD2    C310111   0.685   1.020  13.593  0.2140  0.0675  0.5365
  680MPD2    C410112   0.618   1.101  13.505 -0.4918  0.1079 -0.2126
  680MPD2    C510113   0.495   1.070  13.463  0.3516  0.2418 -0.0308
  680MPD2     H10114   0.676   0.829  13.680  0.0988  2.5982  2.7951
  680MPD2    H110115   0.664   1.194  13.472  0.9896 -1.0463 -1.3848
  680MPD2    H210116   0.339   0.931  13.452  0.0454 -0.9037  2.4905
  680MPD2    H310117   0.443   1.136  13.395  1.5313  1.9074  0.6901
  680MPD2     N10118   0.818   1.047  13.639  0.7511 -0.5951  0.5402
  680MPD2    H510119   0.862   1.125  13.591 -2.1523 -0.0953 -1.3076
  680MPD2    N110120   0.463   0.734  13.616  0.3868  0.2266  0.2725
  680MPD2    H710121   0.528   0.680  13.673 -0.2555 -0.5940  0.2090
  681TMC3    C110122   0.363   0.527  13.596 -0.5625 -0.0266 -0.5716
  681TMC3    C210123   0.262   0.475  13.678  0.4762  0.1279  0.0121
  681TMC3    C310124   0.311   0.390  13.771 -0.4534  0.5233  0.0851
  681TMC3    C410125   0.493   0.491  13.593  0.5183  0.2091 -0.2298
  681TMC3    C510126   0.521   0.390  13.679 -0.1930  0.3730  0.2268
  681TMC3    C610127   0.441   0.343  13.771  0.5961 -0.3229  0.2331
  681TMC3     C10128   0.347   0.672  13.573  0.2649  0.1104 -0.2645
  681TMC3     O10129   0.243   0.710  13.519  0.2015  1.2858  0.6946
  681TMC3     H10130   0.163   0.518  13.686 -1.1871 -3.4496 -1.1493
  681TMC3    H110131   0.565   0.527  13.520  1.7230 -1.8891 -0.1082
  681TMC3    H210132   0.468   0.261  13.836 -0.1709 -1.9926 -1.5344
  681TMC3    C710133   0.656   0.328  13.685  0.1300 -0.3048  0.0434
  681TMC3    C810134   0.216   0.357  13.877 -0.2201  0.3704  0.2960
  681TMC3    O110135   0.684   0.254  13.778 -0.1140 -0.4109 -0.1484
  681TMC3    O210136   0.101   0.384  13.859  0.5196  0.1212  0.1237
  682MPD2     C10137   2.257   2.142  10.773  0.6863 -0.8296 -0.2765
  682MPD2    C110138   2.241   2.001  10.776 -0.0555  1.0507 -0.5929
  682MPD2    C210139   2.246   1.929  10.899  0.8847 -0.3598  0.3003
  682MPD2    C310140   2.274   1.995  11.015  0.0257  0.1693  0.2265
  682MPD2    C410141   2.290   2.134  11.013 -0.5637 -0.4601  0.2141
  682MPD2    C510142   2.269   2.206  10.897  0.3157  0.0634  0.0041
  682MPD2     H10143   2.225   1.823  10.905  1.2275 -0.4631 -0.2556
  682MPD2    H110144   2.302   2.198  11.100  1.2016  1.2629 -1.2934
  682MPD2    H210145   2.245   2.201  10.683  1.1582 -2.3230 -1.3125
  682MPD2    H310146   2.284   2.313  10.899  1.1870 -0.0393 -0.8829
  682MPD2     N10147   2.283   1.914  11.134 -0.9885  0.7739  0.1113
  682MPD2    H510148   2.286   1.815  11.109  1.9271  1.2167 -1.3617
  682MPD2    N110149   2.214   1.925  10.658 -0.5437  0.3134 -0.1411
  682MPD2    H710150   2.211   1.825  10.677  2.3683  0.5626  1.7838
  683TMC3    C110151   2.366   1.802  11.589  0.3440  0.2178  0.1499
  683TMC3    C210152   2.333   1.669  11.561  0.5400 -0.0628  1.2245
  683TMC3    C310153   2.307   1.643  11.433  0.1136 -0.3210  0.3932
  683TMC3    C410154   2.352   1.890  11.485  0.1392  0.5123  0.0981
  683TMC3    C510155   2.327   1.858  11.356 -0.6326  0.2534 -0.6152
  683TMC3    C610156   2.308   1.728  11.324  0.3880 -0.0310 -0.0679
  683TMC3     C10157   2.395   1.852  11.722 -1.0325  0.9222 -0.3499
  683TMC3     O10158   2.397   1.971  11.740  0.4011  0.1431 -0.0376
  683TMC3     H10159   2.324   1.589  11.633 -0.2635 -1.2281 -0.1514
  683TMC3    H110160   2.346   1.996  11.506  1.1485  0.4159  0.8446
  683TMC3    H210161   2.271   1.696  11.227  0.2189  0.9163 -0.3201
  683TMC3    C710162   2.306   1.957  11.260 -0.2537  0.1794  0.2182
  683TMC3    C810163   2.214   1.534  11.415 -0.0983  0.2667  0.8672
  683TMC3    O110164   2.322   2.071  11.300  0.3770 -0.0973  0.5831
  683TMC3    O210165   2.125   1.544  11.332 -0.1815 -0.3957 -0.4906
  684MPD2     C10166   0.763   0.811  16.430 -0.1769 -0.5290 -0.6433
  684MPD2    C110167   0.769   0.844  16.297 -0.1585 -0.3217  0.4697
  684MPD2    C210168   0.791   0.978  16.263  0.5883  0.5022  0.3348
  684MPD2    C310169   0.810   1.075  16.359 -0.1708 -0.0303 -0.0535
  684MPD2    C410170   0.822   1.035  16.492 -0.4859  0.8744  0.5624
  684MPD2    C510171   0.794   0.901  16.525 -0.6475  0.0563 -0.4013
  684MPD2     H10172   0.778   1.007  16.159 -0.5820  1.8410  0.8557
  684MPD2    H110173   0.853   1.103  16.570  0.9426 -0.8429  1.5052
  684MPD2    H210174   0.760   0.709  16.466  2.0474  0.4629  2.3314
  684MPD2    H310175   0.812   0.876  16.629 -0.0595 -0.4165 -0.6128
  684MPD2     N10176   0.834   1.212  16.330 -0.5109 -0.4089  0.0791
  684MPD2    H510177   0.873   1.266  16.407  1.8453 -0.1471 -1.2992
  684MPD2    N110178   0.740   0.748  16.195 -0.3894 -0.0901  0.1233
  684MPD2    H710179   0.742   0.772  16.096  1.1819  0.2987  0.2462
  685TMC3    C110180   0.740   0.553  16.083  0.1085 -0.0232  0.0262
  685TMC3    C210181   0.665   0.616  15.990  0.7536 -0.6410  0.2320
  685TMC3    C310182   0.704   0.623  15.861 -0.0808 -0.1981  0.0597
  685TMC3    C410183   0.869   0.517  16.054  0.3450 -0.4121 -0.4562
  685TMC3    C510184   0.917   0.544  15.926  0.3035  0.3527  0.0030
  685TMC3    C610185   0.834   0.598  15.830 -0.3783 -1.1165 -0.3023
  685TMC3     C10186   0.729   0.616  16.217 -0.1368 -0.4854 -0.1303
  685TMC3     O10187   0.739   0.547  16.317 -0.1737  0.0722  0.0707
  685TMC3     H10188   0.564   0.639  16.022  0.4563 -0.4486 -0.8540
  685TMC3    H110189   0.927   0.468  16.132  1.8133 -0.2909 -1.4796
  685TMC3    H210190   0.865   0.607  15.726  1.3727 -3.6040  0.0033
  685TMC3    C710191   1.055   0.547  15.896 -0.1239 -0.3603 -0.8193
  685TMC3    C810192   0.628   0.720  15.778  0.6401 -0.1662  0.3353
  685TMC3    O110193   1.091   0.548  15.779 -0.4142 -0.0633  0.5157
  685TMC3    O210194   0.627   0.707  15.656  0.2817  0.0490 -0.3992
  686MPD2     C10195   2.222   1.230  15.564  0.6260 -0.3981 -0.3118
  686MPD2    C110196   2.233   1.103  15.625 -0.0899  0.0753 -0.0895
  686MPD2    C210197   2.235   0.989  15.548  0.3411 -0.0700  0.6995
  686MPD2    C310198   2.207   0.991  15.419  0.5206 -0.2803  0.6508
  686MPD2    C410199   2.194   1.112  15.355 -0.0400  0.1334  0.0686
  686MPD2    C510200   2.202   1.230  15.427 -1.3777 -0.0520  0.2846
  686MPD2     H10201   2.268   0.900  15.601  0.0495  0.0122  1.0224
  686MPD2    H110202   2.182   1.116  15.248 -0.7656  1.0581  0.1850
  686MPD2    H210203   2.216   1.328  15.610  0.3477 -1.0269  0.9886
  686MPD2    H310204   2.182   1.325  15.379  0.3109 -0.2448 -0.7902
  686MPD2     N10205   2.204   0.876  15.336 -0.1667 -0.2428 -0.3450
  686MPD2    H510206   2.207   0.897  15.237 -3.0041 -1.6513 -0.7139
  686MPD2    N110207   2.224   1.096  15.771  0.5288 -0.3187 -0.2343
  686MPD2    H710208   2.206   1.185  15.817  0.8622  0.0922 -0.8948
  687TMC3    C110209   2.177   0.706  15.510  0.3894  0.3575 -0.4603
  687TMC3    C210210   2.066   0.753  15.578 -0.3137 -0.4764  0.1920
  687TMC3    C310211   2.047   0.709  15.702 -0.2086  0.9832 -0.3333
  687TMC3    C410212   2.260   0.609  15.567  0.2669  0.4202 -0.7802
  687TMC3    C510213   2.230   0.568  15.694  0.2802  0.0619 -0.4580
  687TMC3    C610214   2.119   0.610  15.761 -0.8400  0.7265  0.5438
  687TMC3     C10215   2.198   0.738  15.372 -0.5388  0.1271 -0.5858
  687TMC3     O10216   2.204   0.646  15.294  0.1023  0.3583  0.1028
  687TMC3     H10217   1.989   0.815  15.534 -2.0900 -0.4276  3.4155
  687TMC3    H110218   2.352   0.578  15.518 -0.0788 -1.3908 -0.3043
  687TMC3    H210219   2.105   0.568  15.859 -1.2109  0.8080  0.5242
  687TMC3    C710220   2.355   0.541  15.771 -0.2893  0.4090 -0.3864
  687TMC3    C810221   1.955   0.779  15.791 -0.0209 -0.2813 -0.6589
  687TMC3    O110222   2.417   0.444  15.734  0.1116 -0.7435  0.0176
  687TMC3    O210223   1.905   0.712  15.883  0.0601 -0.3026  0.3028
  688MPD2     C10224   1.237   4.643  17.479 -0.5488 -0.2921  0.0456
  688MPD2    C110225   1.281   4.533  17.553  0.1127  0.1854  0.8986
  688MPD2    C210226   1.399   4.461  17.515  0.3467  0.1121  0.5575
  688MPD2    C310227   1.467   4.505  17.401  0.1213 -0.3732  0.1179
  688MPD2    C410228   1.422   4.616  17.330  0.6291 -0.3925 -0.9954
  688MPD2    C510229   1.308   4.681  17.373  0.6401  0.4597 -0.7059
  688MPD2     H10230   1.421   4.364  17.559  1.1542  0.7192  1.4969
  688MPD2    H110231   1.471   4.657  17.243  1.7783  2.2837  0.8917
  688MPD2    H210232   1.160   4.712  17.511  0.3654  0.6601  0.1912
  688MPD2    H310233   1.280   0.031  17.316 -1.0485  0.4414  0.1130
  688MPD2     N10234   1.588   4.453  17.351 -0.4252  0.3658 -0.0387
  688MPD2    H510235   1.638   4.509  17.282  1.1885  1.4035  1.9654
  688MPD2    N110236   1.214   4.482  17.665  0.1588 -0.6005  0.3975
  688MPD2    H710237   1.240   4.388  17.692 -0.1696 -1.3694 -1.9300
  689TMC3    C110238   1.051   4.488   0.091  0.4652 -0.2603  0.3621
  689TMC3    C210239   1.008   4.556   0.198 -0.1757  0.0791 -0.3092
  689TMC3    C310240   0.937   4.479   0.290  0.6047  0.4724 -0.1284
  689TMC3    C410241   1.024   4.358   0.069 -0.7510 -0.5894 -0.6645
  689TMC3    C510242   0.940   4.296   0.158 -0.0119 -0.2892 -0.9259
  689TMC3    C610243   0.900   4.355   0.272 -0.3297  0.4391  0.1441
  689TMC3     C10244   1.135   4.566  17.746  0.1211 -0.9366  0.9827
  689TMC3     O10245   1.134   4.688   0.007  0.4177  0.2293  0.0353
  689TMC3     H10246   1.042   4.647   0.246 -3.0159  0.6577  0.5542
  689TMC3    H110247   1.077   4.296  17.744 -0.6809 -0.6030 -0.6021
  689TMC3    H210248   0.855   4.291   0.348  2.5228  0.2049  1.6628
  689TMC3    C710249   0.915   4.158   0.149  0.2160  0.7477  0.1447
  689TMC3    C810250   0.877   4.541   0.410  0.7407 -0.3527 -0.4763
  689TMC3    O110251   0.905   4.098   0.253  0.0769 -0.3680  0.3886
  689TMC3    O210252   0.823   4.474   0.495  0.1130 -0.7502  0.3211
  690MPD2     C10253   3.989   1.619  15.938 -0.1024  0.2967  0.0196
  690MPD2    C110254   3.898   1.611  15.835 -0.1915  0.2016 -0.6490
  690MPD2    C210255   3.932   1.668  15.707  0.1680  1.2247  0.3790
  690MPD2    C310256   4.057   1.717  15.684 -0.7738 -0.1013  0.1602
  690MPD2    C410257   4.145   1.707  15.791 -0.0843  0.0734  0.1351
  690MPD2    C510258   4.111   1.667  15.912 -0.4883  0.3563 -0.3069
  690MPD2     H10259   3.858   1.665  15.628  2.3394  2.6340 -1.7045
  690MPD2    H110260   4.248   1.739  15.783  0.0150 -0.2102  0.2756
  690MPD2    H210261   3.964   1.602  16.043 -1.4507  1.8944 -0.0363
  690MPD2    H310262   4.183   1.671  15.993 -0.0455 -1.6312 -0.5980
  690MPD2     N10263   4.096   1.762  15.556  0.7186  0.1545 -0.2647
  690MPD2    H510264   4.023   1.761  15.486  0.5483 -0.5589 -0.0782
  690MPD2    N110265   3.765   1.579  15.856 -0.1173  0.0984 -0.2317
  690MPD2    H710266   3.708   1.581  15.772  1.3660  0.3700 -1.2433
  691TMC3    C110267   3.580   1.498  15.965  0.2329  0.4593  0.5069
  691TMC3    C210268   3.512   1.560  15.872 -0.3270 -0.3691 -0.1436
  691TMC3    C310269   3.389   1.506  15.841 -0.0094  0.0217 -0.0021
  691TMC3    C410270   3.534   1.389  16.024  0.1557 -0.6053  0.2981
  691TMC3    C510271   3.410   1.335  15.998  0.6303 -0.1651  0.2761
  691TMC3    C610272   3.337   1.396  15.899  0.4300  0.2048  0.0253
  691TMC3     C10273   3.718   1.529  15.975  0.0100  0.3191  0.2434
  691TMC3     O10274   3.779   1.489  16.073 -0.0544  0.4869  0.0655
  691TMC3     H10275   3.550   1.644  15.815  0.6266 -0.8833 -0.2606
  691TMC3    H110276   3.593   1.347  16.105  0.5957  1.0324  0.8245
  691TMC3    H210277   3.237   1.367  15.869  0.9830 -0.9075 -0.7735
  691TMC3    C710278   3.368   1.208  16.056  0.5019 -0.0597 -0.5256
  691TMC3    C810279   3.322   1.554  15.727 -0.3937  0.1262  0.1297
  691TMC3    O110280   3.405   1.186  16.166  0.1668  0.5077 -0.2689
  691TMC3    O210281   3.259   1.478  15.650 -0.3458 -0.4263 -0.1085
  692TMC3    C110282   0.742   2.491  15.561  0.5400  0.4477 -0.3016
  692TMC3    C210283   0.789   2.557  15.663 -0.7567 -0.8401  0.2348
  692TMC3    C310284   0.889   2.498  15.737  0.0788 -0.1070  0.1214
  692TMC3    C410285   0.765   2.357  15.536 -0.2024  0.3550  0.2216
  692TMC3    C510286   0.842   2.288  15.628 -0.1391  0.5037 -0.0827
  692TMC3    C610287   0.898   2.359  15.730  0.4915  0.6190 -0.7921
  692TMC3     C10288   0.628   2.538  15.484 -0.2673  0.2179 -0.5526
  692TMC3     O10289   0.602   2.467  15.385 -0.5264  0.2813 -0.2975
  692TMC3     H10290   0.771   2.664  15.659  1.0078 -0.5404  0.6797
  692TMC3    H110291   0.728   2.305  15.448  1.5996  1.5769 -1.2459
  692TMC3    H210292   0.988   2.314  15.772 -0.6636 -1.2679 -0.3283
  692TMC3    C710293   0.912   2.170  15.583  0.1894  0.4536 -0.2285
  692TMC3    C810294   0.917   2.549  15.874  0.2296 -0.3963 -0.1096
  692TMC3    O110295   0.949   2.164  15.468 -0.8561 -0.0539 -0.5703
  692TMC3    O210296   0.927   2.459  15.959 -0.0540  0.1898 -0.3619
  693MPD2     C10297   0.126   1.175  10.545  0.5728  0.3683 -0.9255
  693MPD2    C110298   0.060   1.153  10.662 -0.1918  0.4541 -0.4311
  693MPD2    C210299   0.131   1.128  10.775 -0.0194 -0.0002  0.2119
  693MPD2    C310300   0.268   1.106  10.772 -0.0427 -0.0059  0.2176
  693MPD2    C410301   0.332   1.107  10.651 -0.8816  0.0850  0.2004
  693MPD2    C510302   0.259   1.137  10.537  0.0524  0.4539 -0.0211
  693MPD2     H10303   0.074   1.123  10.868  0.7425  3.4714  0.8281
  693MPD2    H110304   0.439   1.095  10.643 -1.0127 -1.0570  0.1068
  693MPD2    H210305   0.077   1.193  10.450 -0.1640  0.2290 -0.5749
  693MPD2    H310306   0.299   1.151  10.437  2.2583 -0.3712  0.7407
  693MPD2     N10307   0.346   1.083  10.890  0.0342  0.5475  0.1166
  693MPD2    H510308   0.446   1.068  10.883  0.0844 -0.1702  2.3341
  693MPD2    N110309   4.666   1.202  10.677  0.2892 -0.6782  0.2013
  693MPD2    H710310   4.642   1.216  10.775  3.8309 -1.2838  1.1375
  694TMC3    C110311   4.447   1.249  10.632 -0.3016 -0.9160  0.1457
  694TMC3    C210312   4.337   1.229  10.554  0.5150  0.5672  0.2862
  694TMC3    C310313   4.216   1.245  10.612 -0.3028  0.2747  0.2593
  694TMC3    C410314   4.443   1.284  10.765 -0.3935 -0.8014  0.2585
  694TMC3    C510315   4.314   1.287  10.813  0.7137  0.5473 -0.1481
  694TMC3    C610316   4.202   1.268  10.745  0.5739  0.2176  0.1744
  694TMC3     C10317   4.572   1.212  10.581 -0.3728  1.1638 -0.6275
  694TMC3     O10318   4.580   1.183  10.464 -0.2272  0.0854 -0.3739
  694TMC3     H10319   4.343   1.198  10.450  1.1316 -0.7635  0.7234
  694TMC3    H110320   4.526   1.305  10.831 -1.5363 -1.6184  1.9747
  694TMC3    H210321   4.101   1.263  10.784  1.4859  0.4677  2.5876
  694TMC3    C710322   4.303   1.308  10.961  0.3219 -0.0007  0.5320
  694TMC3    C810323   4.113   1.163  10.556 -1.0409  0.6124 -0.1345
  694TMC3    O110324   4.363   1.413  10.996  0.3071  0.2606 -0.0531
  694TMC3    O210325   4.049   1.101  10.639 -0.0876 -0.7165  0.0734
  695MPD2     C10326   1.018   2.266  13.743  0.5792  0.6914  0.6843
  695MPD2    C110327   0.952   2.299  13.862 -0.3069 -0.6307 -0.5632
  695MPD2    C210328   0.814   2.332  13.844  0.2459  0.3853 -0.5022
  695MPD2    C310329   0.751   2.327  13.721 -0.5049 -0.0681 -0.4489
  695MPD2    C410330   0.821   2.291  13.610 -0.4142  0.5294  0.1408
  695MPD2    C510331   0.950   2.254  13.625  0.1941 -0.2238  0.5839
  695MPD2     H10332   0.758   2.366  13.930  1.1120 -0.8413  0.5488
  695MPD2    H110333   0.762   2.273  13.521  0.8926  0.4663 -0.7091
  695MPD2    H210334   1.124   2.245  13.742  0.5966  0.9176 -1.6981
  695MPD2    H310335   0.996   2.212  13.536  0.0896  0.9099 -0.0022
  695MPD2     N10336   0.609   2.362  13.715  0.0701 -0.4192  0.7410
  695MPD2    H510337   0.562   2.391  13.800  0.6585 -0.7664  1.1807
  695MPD2    N110338   1.017   2.307  13.988  0.2281  0.3746 -0.1901
  695MPD2    H710339   0.956   2.344  14.061  0.9836 -0.3715  0.8193
  696TMC3    C110340   0.401   2.408  13.653  0.3157  0.3054  0.5288
  696TMC3    C210341   0.355   2.371  13.771 -0.5147  0.7341 -0.0423
  696TMC3    C310342   0.225   2.386  13.800 -0.4262  0.3234 -0.1726
  696TMC3    C410343   0.327   2.492  13.567  0.2601 -0.0188 -0.9604
  696TMC3    C510344   0.197   2.514  13.603 -0.3561 -0.0528 -0.6465
  696TMC3    C610345   0.143   2.449  13.713  0.6788 -0.4578  0.0099
  696TMC3     C10346   0.523   2.351  13.609 -0.5183  0.0182  0.5341
  696TMC3     O10347   0.548   2.350  13.488  0.4854  0.1022  0.2531
  696TMC3     H10348   0.410   2.301  13.833  0.1950  1.5035  0.1941
  696TMC3    H110349   0.373   2.517  13.472 -1.1830 -0.4742 -1.7878
  696TMC3    H210350   0.043   2.473  13.745  0.3145 -1.6324 -0.2451
  696TMC3    C710351   0.120   2.624  13.555  0.5735 -0.2351 -0.3782
  696TMC3    C810352   0.211   2.403  13.940 -0.0283  0.0664  0.1409
  696TMC3    O110353   4.735   2.612  13.555 -0.6572 -0.0432  1.0289
  696TMC3    O210354   0.311   2.387  14.011  0.2281 -0.6452 -0.0730
  697MPD2     C10355   0.139   4.404  15.597  0.0931  0.2898 -0.4093
  697MPD2    C110356   0.151   4.352  15.473 -0.0682 -0.4793  0.6450
  697MPD2    C210357   0.159   4.434  15.362  0.5931  0.8578  0.1560
  697MPD2    C310358   0.163   4.571  15.386  0.7961 -0.1624  0.2675
  697MPD2    C410359   0.145   4.623  15.510  0.6558 -0.3614  0.1948
  697MPD2    C510360   0.139   4.537  15.616 -0.6202 -0.1383 -0.2809
  697MPD2     H10361   0.163   4.395  15.261  0.5841 -0.5626  0.6956
  697MPD2    H110362   0.154   4.730  15.530  2.3064 -0.7325  1.4266
  697MPD2    H210363   0.119   4.337  15.680 -0.2892  0.8624 -0.0396
  697MPD2    H310364   0.123   4.569  15.718  1.3597  3.3399 -1.0662
  697MPD2     N10365   0.183   4.648  15.272 -0.7439  0.5404  0.4669
  697MPD2    H510366   0.201   4.597  15.186  0.0218  1.4641  0.0735
  697MPD2    N110367   0.177   4.216  15.456  0.3628 -0.4577 -0.7121
  697MPD2    H710368   0.194   4.185  15.361 -0.4444 -2.7132 -0.0949
  698TMC3    C110369   0.245   0.095  15.134 -0.0895 -0.2249 -0.3741
  698TMC3    C210370   0.306   0.219  15.127  0.2076 -0.4253  0.0202
  698TMC3    C310371   0.336   0.266  15.000  0.0741  0.0947  0.4829
  698TMC3    C410372   0.223   0.014  15.025  0.5732 -0.7834  0.1347
  698TMC3    C510373   0.237   0.078  14.905  0.0245  0.8122 -0.0264
  698TMC3    C610374   0.288   0.201  14.886  0.1270 -0.1065 -0.5401
  698TMC3     C10375   0.208   0.049  15.265  0.0960 -0.2248 -0.3717
  698TMC3     O10376   0.214   0.131  15.356  0.2883 -0.1129  0.4167
  698TMC3     H10377   0.336   0.287  15.205  1.2029 -1.7032  0.7481
  698TMC3    H110378   0.152   4.670  15.029 -0.6961  0.2313 -1.6652
  698TMC3    H210379   0.298   0.246  14.788  2.3866  0.3881 -0.0819
  698TMC3    C710380   0.235   0.011  14.774 -0.0970  0.4820  0.1390
  698TMC3    C810381   0.445   0.366  14.989 -0.2609  0.0291 -0.4377
  698TMC3    O110382   0.207   0.075  14.676  0.0272 -0.0873  0.4223
  698TMC3    O210383   0.459   0.458  15.071 -0.1014  0.3714 -0.2038
  699TMC3    C110384   0.347   2.389  13.058 -0.2466 -0.3609 -0.2078
  699TMC3    C210385   0.406   2.297  13.134  0.1148 -0.1102  0.8621
  699TMC3    C310386   0.327   2.226  13.216 -0.9325  0.1292  0.0988
  699TMC3    C410387   0.213   2.395  13.038 -0.6222 -0.4063 -0.5234
  699TMC3    C510388   0.131   2.324  13.122  0.3085  0.5317  0.2441
  699TMC3    C610389   0.188   2.241  13.216  0.2949 -0.3391 -0.6159
  699TMC3     C10390   0.420   2.473  12.963  0.9089 -0.0763  0.3018
  699TMC3     O10391   0.364   2.499  12.856 -0.0823  0.0855 -0.1922
  699TMC3     H10392   0.512   2.275  13.123  0.5529  2.2914  0.3897
  699TMC3    H110393   0.176   2.467  12.966  0.6648  1.2904  0.5276
  699TMC3    H210394   0.125   2.184  13.283  0.1141  0.7468  0.1504
  699TMC3    C710395   0.014   2.392  13.176  0.6399 -0.1429  0.1554
  699TMC3    C810396   0.379   2.116  13.296  0.2335  0.3855 -0.1597
  699TMC3    O110397   4.692   2.337  13.270  0.4503  0.3320 -0.3583
  699TMC3    O210398   0.304   2.065  13.375 -0.1407 -0.4492 -0.7931
  700TMC3    C110399   3.692   4.623  16.781  0.0756 -0.0349 -0.2881
  700TMC3    C210400   3.824   4.590  16.801  0.4899  0.9686  0.1153
  700TMC3    C310401   3.857   4.470  16.859 -0.0850 -0.1546  0.0816
  700TMC3    C410402   3.592   4.551  16.846 -0.3049  0.6863 -0.3375
  700TMC3    C510403   3.631   4.438  16.914 -0.1701  1.1820 -0.3206
  700TMC3    C610404   3.758   4.396  16.916 -0.6163  0.3647  0.1622
  700TMC3     C10405   3.666   0.024  16.755 -0.1253  0.1015  0.2121
  700TMC3     O10406   3.550   0.048  16.736  0.6855  0.2630  0.1488
  700TMC3     H10407   3.903   4.649  16.755  1.2611 -0.6696 -0.6678
  700TMC3    H110408   3.490   4.587  16.844 -1.1509 -1.5435  2.9229
  700TMC3    H210409   3.788   4.305  16.967  1.0941  0.9603  0.1859
  700TMC3    C710410   3.531   4.346  16.970  0.0725  0.1140  0.0238
  700TMC3    C810411   3.983   4.405  16.813  0.4549 -0.2147  0.3105
  700TMC3    O110412   3.518   4.236  16.919  0.4341 -0.3782  0.0385
  700TMC3    O210413   4.074   4.486  16.808 -0.0118 -0.0765  0.5073
  701TMC3    C110414   4.429   3.385  15.287 -0.5379  0.1275  0.3756
  701TMC3    C210415   4.438   3.397  15.152 -0.3843 -0.8410  0.4536
  701TMC3    C310416   4.507   3.503  15.096 -0.0071 -0.2735 -0.5472
  701TMC3    C410417   4.479   3.489  15.369 -0.4955  0.7293 -0.2810
  701TMC3    C510418   4.555   3.586  15.309 -0.0058 -0.2941 -0.3982
  701TMC3    C610419   4.581   3.588  15.175  0.2953 -0.1704  1.1573
  701TMC3     C10420   4.308   3.321  15.333 -0.7291 -0.1089  0.8045
  701TMC3     O10421   4.274   3.212  15.292  0.1684 -0.3711 -0.7306
  701TMC3     H10422   4.372   3.331  15.098  0.9282  0.0181 -2.2049
  701TMC3    H110423   4.453   3.480  15.474 -0.8553 -1.6127 -0.5623
  701TMC3    H210424   4.633   3.669  15.125 -0.8646 -0.3445 -0.3340
  701TMC3    C710425   4.589   3.714  15.378 -0.0112 -0.1050 -0.3647
  701TMC3    C810426   4.475   3.565  14.972 -0.1240  0.2505  0.7487
  701TMC3    O110427   4.648   3.801  15.317 -0.5555  0.2060  0.5095
  701TMC3    O210428   4.537   3.665  14.938  0.3292 -0.4822 -0.2758
  702MPD2     C10429   3.591   1.421  10.588 -0.0015 -0.4858 -0.6540
  702MPD2    C110430   3.527   1.494  10.686 -0.1672  0.3384 -0.2244
  702MPD2    C210431   3.496   1.627  10.663 -0.0697  0.5561 -0.3454
  702MPD2    C310432   3.539   1.688  10.543  0.0140 -0.1041  0.7098
  702MPD2    C410433   3.582   1.609  10.439  0.2559  0.1252 -0.3909
  702MPD2    C510434   3.593   1.474  10.461  0.3008 -1.1452 -0.1972
  702MPD2     H10435   3.447   1.674  10.747  0.4182 -0.3068  0.4183
  702MPD2    H110436   3.611   1.647  10.342  0.8797  1.8572  0.4768
  702MPD2    H210437   3.625   1.319  10.597  0.3610 -0.4272 -1.3591
  702MPD2    H310438   3.627   1.411  10.380 -0.6630  0.4728 -1.8649
  702MPD2     N10439   3.530   1.823  10.520  0.0908 -0.4736 -0.3234
  702MPD2    H510440   3.540   1.858  10.425  0.4349  0.0436 -0.1002
  702MPD2    N110441   3.500   1.441  10.813 -0.1614 -0.1245 -0.4066
  702MPD2    H710442   3.464   1.513  10.875 -0.8934 -3.1326  2.6616
  703TMC3    C110443   3.514   2.050  10.578 -0.0882  0.2746 -0.0182
  703TMC3    C210444   3.429   2.148  10.633  0.1684  0.0289 -0.2977
  703TMC3    C310445   3.461   2.280  10.638 -0.1394  0.1612  1.3284
  703TMC3    C410446   3.638   2.081  10.538 -0.0603  0.6406  0.9769
  703TMC3    C510447   3.664   2.213  10.541 -0.0943 -0.1580  0.0336
  703TMC3    C610448   3.580   2.316  10.583  0.3465 -0.2135 -0.0577
  703TMC3     C10449   3.487   1.914  10.616  0.1224 -0.4874 -0.0185
  703TMC3     O10450   3.458   1.901  10.734 -0.1922  0.0409 -0.1704
  703TMC3     H10451   3.335   2.108  10.670 -0.2820  0.5663 -0.8543
  703TMC3    H110452   3.702   2.002  10.502 -3.2887 -1.9828  0.9106
  703TMC3    H210453   3.598   2.422  10.568 -1.1402 -0.2789 -2.3383
  703TMC3    C710454   3.796   2.266  10.506 -0.8452 -0.8026 -0.9298
  703TMC3    C810455   3.358   2.384  10.662  0.3106 -0.3870  0.4894
  703TMC3    O110456   3.800   2.391  10.491  0.1914 -0.0440 -0.4651
  703TMC3    O210457   3.393   2.492  10.623 -0.2091  0.0411 -0.3437
  704TMC3    C110458   1.556   4.491  12.543  0.3698 -0.2255 -0.6237
  704TMC3    C210459   1.608   4.491  12.416  0.1307 -0.7999 -0.4199
  704TMC3    C310460   1.740   4.475  12.401 -0.3219 -0.3328  0.1582
  704TMC3    C410461   1.636   4.480  12.654  0.6609  0.0600 -0.5913
  704TMC3    C510462   1.765   4.433  12.641 -0.2628 -0.6322 -0.3078
  704TMC3    C610463   1.812   4.432  12.507 -0.5106  0.3705 -0.3292
  704TMC3     C10464   1.424   4.428  12.552  0.2764  0.5842 -0.2040
  704TMC3     O10465   1.353   4.427  12.654  0.7769  0.7505  0.0754
  704TMC3     H10466   1.558   4.532  12.329  2.5856  0.2564 -1.3507
  704TMC3    H110467   1.575   4.465  12.742  0.1965  0.8781 -0.7793
  704TMC3    H210468   1.910   4.389  12.486  0.2638  0.9135  2.1292
  704TMC3    C710469   1.782   4.308  12.694 -0.2376  0.4854 -0.3163
  704TMC3    C810470   1.786   4.451  12.261  0.7458  0.1197 -0.3095
  704TMC3    O110471   1.822   4.218  12.618  0.5102  0.1409  0.6373
  704TMC3    O210472   1.700   4.421  12.178  0.0789 -0.4292 -0.1219
  705MPD2     C10473   1.001   1.850  16.210 -0.7020  0.0374  0.0044
  705MPD2    C110474   1.006   1.982  16.183  0.1170 -0.2071 -0.3206
  705MPD2    C210475   0.902   2.061  16.226  0.2357 -0.3162 -0.0596
  705MPD2    C310476   0.783   2.002  16.281  0.4285 -0.0223 -0.0357
  705MPD2    C410477   0.777   1.865  16.306 -0.7089  0.4092 -0.3163
  705MPD2    C510478   0.888   1.795  16.273 -0.3452  1.1021  1.0491
  705MPD2     H10479   0.888   2.163  16.195  0.2367 -0.3207 -0.0747
  705MPD2    H110480   0.690   1.812  16.345 -0.1936 -0.5656 -0.4789
  705MPD2    H210481   1.085   1.798  16.165 -1.3653  0.3195 -1.5337
  705MPD2    H310482   0.892   1.687  16.278  0.3310  1.1227  0.8938
  705MPD2     N10483   0.668   2.078  16.301 -0.6150 -0.4281 -0.1905
  705MPD2    H510484   0.578   2.032  16.313 -0.7083 -0.0550  0.6138
  705MPD2    N110485   1.099   2.043  16.090  0.1175 -0.6190  0.1427
  705MPD2    H710486   1.095   2.143  16.075 -2.2998 -1.1969 -3.0494
  706TMC3    C110487   1.359   2.075  15.702 -0.2325 -0.1369 -0.0258
  706TMC3    C210488   1.319   2.207  15.692 -0.4801  0.4949 -0.1115
  706TMC3    C310489   1.251   2.259  15.790  0.2349 -0.2583  0.4837
  706TMC3    C410490   1.329   2.006  15.815 -0.5263 -0.7252  0.4369
  706TMC3    C510491   1.250   2.064  15.909  0.8446 -0.4889 -0.3379
  706TMC3    C610492   1.203   2.190  15.895  0.2432 -0.2436  1.0332
  706TMC3     C10493   1.465   2.030  15.617 -0.3127 -0.8285 -0.1146
  706TMC3     O10494   1.549   1.951  15.664 -0.5487  0.6712  0.6530
  706TMC3     H10495   1.355   2.262  15.605 -1.5452  0.2466 -0.6974
  706TMC3    H110496   1.362   1.903  15.824 -0.9510 -1.0383 -1.6066
  706TMC3    H210497   1.139   2.243  15.965  0.4477  0.7037  0.5026
  706TMC3    C710498   1.182   1.975  16.000 -0.5090 -0.9154 -0.2793
  706TMC3    C810499   1.275   2.398  15.807 -0.1539 -0.0652 -0.3094
  706TMC3    O110500   1.223   1.862  15.997 -0.3943 -0.6453 -0.0136
  706TMC3    O210501   1.302   2.465  15.707 -0.0421 -0.6324  0.6590
  707TMC3    C110502   1.815   1.532  17.317  1.3215 -0.9042 -0.4529
  707TMC3    C210503   1.706   1.456  17.295 -0.0222 -0.5384 -0.1349
  707TMC3    C310504   1.685   1.436  17.163 -0.0442  0.9522 -0.0728
  707TMC3    C410505   1.887   1.600  17.231  0.6052  0.2179  0.2275
  707TMC3    C510506   1.859   1.576  17.103  0.6078  0.5308  0.7675
  707TMC3    C610507   1.761   1.486  17.063 -0.1627 -0.1778  0.0507
  707TMC3     C10508   1.889   1.460  17.418 -0.3661 -0.3708  0.3036
  707TMC3     O10509   1.857   1.344  17.438  0.2975  0.3504  0.2816
  707TMC3     H10510   1.647   1.418  17.378 -1.0125 -0.3086 -0.7315
  707TMC3    H110511   1.980   1.653  17.251  0.9429  0.4171 -1.9289
  707TMC3    H210512   1.730   1.463  16.962 -0.8243  3.1480 -0.4897
  707TMC3    C710513   1.966   1.593  17.017 -0.2027 -0.0350 -0.1315
  707TMC3    C810514   1.650   1.300  17.133 -0.0131 -0.8543  0.7685
  707TMC3    O110515   2.051   1.678  17.040 -0.3844  0.2206  0.3923
  707TMC3    O210516   1.623   1.273  17.016  0.2548  0.1507 -0.3508
  708MPD2     C10517   4.089   0.417  13.977  0.4593  0.3950  0.0925
  708MPD2    C110518   4.146   0.522  14.047  0.2677 -1.3390 -0.9198
  708MPD2    C210519   4.157   0.515  14.191 -0.2481 -0.1489  0.1083
  708MPD2    C310520   4.093   0.410  14.256 -0.8623  0.4565 -0.0950
  708MPD2    C410521   4.020   0.317  14.181  0.6330 -0.1607  0.1356
  708MPD2    C510522   4.027   0.317  14.042  1.1299 -0.2049 -0.3234
  708MPD2     H10523   4.197   0.595  14.251 -0.0151  0.1004 -0.3822
  708MPD2    H110524   3.979   0.234  14.237  3.0812 -0.1556  1.8797
  708MPD2    H210525   4.072   0.418  13.870  1.3708 -0.8134 -0.0660
  708MPD2    H310526   3.974   0.240  13.987  0.9229  0.2975 -0.8264
  708MPD2     N10527   4.065   0.421  14.401 -0.2493  0.1046  0.0312
  708MPD2    H510528   3.978   0.374  14.428  0.3240 -2.6014 -2.8658
  708MPD2    N110529   4.184   0.634  13.973  0.6451 -0.1696 -0.5041
  708MPD2    H710530   4.154   0.638  13.876  1.3395  0.7572 -0.6768
  709TMC3    C110531   4.224   0.858  13.933 -0.2003  0.0337 -0.0107
  709TMC3    C210532   4.181   0.845  13.803 -0.1448  0.0446 -0.0353
  709TMC3    C310533   4.129   0.951  13.740 -0.6384 -0.2646 -0.1873
  709TMC3    C410534   4.202   0.976  14.002  0.5559 -0.6001  0.0139
  709TMC3    C510535   4.114   1.066  13.942 -0.3780  0.0060  0.1927
  709TMC3    C610536   4.082   1.058  13.810  0.6123 -0.6237 -0.6812
  709TMC3     C10537   4.239   0.748  14.022  0.6002  0.1977 -0.0422
  709TMC3     O10538   4.273   0.773  14.136 -0.1328  0.1921 -0.1134
  709TMC3     H10539   4.226   0.767  13.742 -0.5266  0.1881 -0.4934
  709TMC3    H110540   4.237   0.993  14.103 -0.0431 -0.9590  0.2825
  709TMC3    H210541   4.014   1.129  13.763 -0.6334 -2.0001 -0.9475
  709TMC3    C710542   3.998   1.097  14.029  0.0861  0.3960  0.1452
  709TMC3    C810543   4.039   0.906  13.634 -0.1359 -0.2771 -0.9239
  709TMC3    O110544   3.901   1.151  13.978  0.1169  0.0347 -0.2946
  709TMC3    O210545   3.922   0.894  13.659  0.0513 -0.3885  0.0066
  710TMC3    C110546   4.590   1.674   0.589 -0.1283 -0.4231  0.3179
  710TMC3    C210547   4.675   1.742   0.503 -0.1787  0.2024 -0.7289
  710TMC3    C310548   0.056   1.680   0.469  0.4192 -0.1002 -0.5661
  710TMC3    C410549   4.620   1.550   0.642 -0.4465  0.2301  0.9118
  710TMC3    C510550   0.003   1.499   0.615  0.0414  0.3007  0.1036
  710TMC3    C610551   0.091   1.559   0.527 -0.7361 -0.1838  0.6559
  710TMC3     C10552   4.464   1.738   0.644 -0.1961  0.7553  0.7226
  710TMC3     O10553   4.398   1.669   0.721 -0.1383  0.0759  0.1436
  710TMC3     H10554   4.647   1.825   0.440 -2.0812  2.6767  3.3798
  710TMC3    H110555   4.557   1.504   0.718 -0.7565 -1.1590 -0.1830
  710TMC3    H210556   0.176   1.504   0.488 -1.8837 -0.7263 -1.1199
  710TMC3    C710557   0.035   1.385   0.695  0.6177 -0.3217 -0.1113
  710TMC3    C810558   0.157   1.735   0.385  0.7769  0.3268  0.2149
  710TMC3    O110559   4.682   1.320   0.742  0.5698 -0.0585  0.1757
  710TMC3    O210560   0.115   1.818   0.307 -0.2692  0.2357  0.4855
  711TMC3    C110561   0.273   3.276  14.679 -0.1770  0.5569  0.0864
  711TMC3    C210562   0.294   3.333  14.803 -0.7913  0.4354  0.6870
  711TMC3    C310563   0.415   3.312  14.864  0.1747  0.8936 -0.1017
  711TMC3    C410564   0.383   3.215  14.615 -0.3255 -0.7829 -0.0144
  711TMC3    C510565   0.502   3.199  14.674 -0.5491  0.5726 -0.0083
  711TMC3    C610566   0.517   3.245  14.802  0.1326  0.4179  0.5054
  711TMC3     C10567   0.160   3.194  14.668 -0.6319  0.2269 -0.5787
  711TMC3     O10568   0.127   3.152  14.561  0.0881 -0.3474  0.0205
  711TMC3     H10569   0.212   3.373  14.862  0.5878  3.8604  0.2755
  711TMC3    H110570   0.362   3.151  14.530 -1.0736 -0.3540 -0.1511
  711TMC3    H210571   0.611   3.232  14.855 -0.1688  2.6299  1.5737
  711TMC3    C710572   0.534   3.058  14.680  0.0561 -0.0507  0.0255
  711TMC3    C810573   0.390   3.282  15.001 -0.6663 -0.1802 -0.2992
  711TMC3    O110574   0.652   3.044  14.712 -0.2660 -0.7334 -0.8938
  711TMC3    O210575   0.278   3.251  15.028 -0.0744  0.7178  0.5621
  712MPD2     C10576   1.302   4.274  13.738 -0.4256 -0.5155  0.0688
  712MPD2    C110577   1.223   4.379  13.770 -0.7984  1.3142  0.2504
  712MPD2    C210578   1.283   4.497  13.787 -0.2326  0.1060 -1.0440
  712MPD2    C310579   1.418   4.524  13.775  0.5015  0.4296  0.0893
  712MPD2    C410580   1.497   4.409  13.749 -0.5815 -1.1140  0.4793
  712MPD2    C510581   1.434   4.289  13.728 -0.2362 -0.6539  0.5265
  712MPD2     H10582   1.219   4.580  13.816  1.6498  0.7506  1.3315
  712MPD2    H110583   1.605   4.409  13.736 -0.4578  0.7007  1.4488
  712MPD2    H210584   1.263   4.176  13.714  0.1041 -0.7777  0.2619
  712MPD2    H310585   1.500   4.207  13.698  2.1121  0.8486  1.6041
  712MPD2     N10586   1.484   4.645  13.786 -0.5822 -0.2813 -0.5696
  712MPD2    H510587   1.583   4.653  13.770  0.1424 -4.6264  1.7927
  712MPD2    N110588   1.082   4.369  13.780 -0.4125 -0.3568 -0.0041
  712MPD2    H710589   1.035   4.459  13.791  0.1559  0.1494 -1.7449
  713TMC3    C110590   1.511   0.138  13.791 -0.6181 -0.2444  0.4815
  713TMC3    C210591   1.644   0.120  13.822  0.2350 -0.2484 -0.1424
  713TMC3    C310592   1.735   0.216  13.774  0.1502  0.5148  0.1273
  713TMC3    C410593   1.463   0.257  13.736  0.3831 -0.3293 -0.3749
  713TMC3    C510594   1.558   0.347  13.686  1.0093  0.0999  0.1290
  713TMC3    C610595   1.694   0.326  13.699  0.2070 -0.2427  0.6545
  713TMC3     C10596   1.418   0.027  13.792  0.3513  0.6805 -0.8668
  713TMC3     O10597   1.298   0.055  13.794 -0.2102 -0.1779 -0.2513
  713TMC3     H10598   1.674   0.043  13.892 -1.9451  0.1700  1.2411
  713TMC3    H110599   1.359   0.275  13.711 -0.1437 -0.5751  1.6077
  713TMC3    H210600   1.770   0.390  13.655 -1.4499  1.4101  0.1832
  713TMC3    C710601   1.522   0.480  13.654 -0.4367  0.2810 -0.5813
  713TMC3    C810602   1.876   0.210  13.801 -0.3970  0.1853 -0.7467
  713TMC3    O110603   1.615   0.558  13.668 -0.0386 -0.1506 -0.1936
  713TMC3    O210604   1.952   0.278  13.734  0.2174  0.1968 -0.3306
  714MPD2     C10605   3.633   2.178   1.086  0.5271  0.5149  0.4619
  714MPD2    C110606   3.702   2.287   1.044  0.2523  0.2590  0.1253
  714MPD2    C210607   3.643   2.409   1.021  0.1188 -0.4605  0.0233
  714MPD2    C310608   3.507   2.430   1.040 -0.0895  0.4780 -0.1633
  714MPD2    C410609   3.433   2.315   1.075  0.2965 -0.9057  0.3680
  714MPD2    C510610   3.494   2.197   1.095  0.2148 -0.3429 -0.0852
  714MPD2     H10611   3.697   2.495   0.984  0.9387 -0.5601  1.0143
  714MPD2    H110612   3.329   2.326   1.105  0.4245 -0.2549  0.5646
  714MPD2    H210613   3.684   2.084   1.101 -0.5996 -0.1474  0.1041
  714MPD2    H310614   3.437   2.112   1.130 -0.0497  0.1178  0.5897
  714MPD2     N10615   3.443   2.555   1.031  0.0319 -0.4430 -0.2912
  714MPD2    H510616   3.504   2.633   1.010  0.6223 -0.7905  0.1717
  714MPD2    N110617   3.843   2.262   1.040  0.1408 -0.1064 -0.2228
  714MPD2    H710618   3.871   2.167   1.063  1.2530  0.6947  1.7761
  715TMC3    C110619   4.081   2.304   1.059 -0.5191  0.2296 -0.5161
  715TMC3    C210620   4.102   2.166   1.064 -0.0088  0.1865 -0.0770
  715TMC3    C310621   4.227   2.127   1.103 -0.5796 -0.0176  0.3520
  715TMC3    C410622   4.179   2.389   1.073 -0.3670 -0.4490 -0.7294
  715TMC3    C510623   4.306   2.348   1.094  0.6014 -0.0081 -0.3279
  715TMC3    C610624   4.328   2.218   1.120  0.1659  0.5729  0.6059
  715TMC3     C10625   3.942   2.355   1.028 -0.5278 -0.3869  0.2341
  715TMC3     O10626   3.927   2.471   0.996 -0.4211  0.5168  0.0980
  715TMC3     H10627   4.024   2.092   1.053 -0.7914  1.1379 -0.8517
  715TMC3    H110628   4.151   2.493   1.058 -0.4631 -0.4971 -0.8852
  715TMC3    H210629   4.429   2.188   1.147 -0.6072 -0.2408  2.5735
  715TMC3    C710630   4.388   2.441   1.170 -0.0319 -0.6555  0.3239
  715TMC3    C810631   4.249   1.985   1.112 -0.6330  0.3838 -0.0688
  715TMC3    O110632   4.386   2.552   1.124 -0.0452  0.3948 -0.6812
  715TMC3    O210633   4.161   1.910   1.069  0.4110  0.7422 -0.0880
  716MPD2     C10634   3.133   1.760  10.466 -0.3788  0.3651  0.1315
  716MPD2    C110635   3.190   1.830  10.363 -0.6083  0.1800 -0.3902
  716MPD2    C210636   3.243   1.758  10.255 -0.2707 -0.4207  0.1994
  716MPD2    C310637   3.247   1.618  10.263  0.3211 -0.0292 -0.4857
  716MPD2    C410638   3.205   1.550  10.373  0.7693  0.3569 -0.9166
  716MPD2    C510639   3.147   1.620  10.474 -0.1512  0.2753  0.0871
  716MPD2     H10640   3.290   1.810  10.172  1.7484  1.4515  2.5187
  716MPD2    H110641   3.189   1.443  10.380 -2.4822  0.7374 -2.4775
  716MPD2    H210642   3.084   1.826  10.536 -1.0555  0.9772 -0.9207
  716MPD2    H310643   3.097   1.567  10.555 -1.4487  2.2806  0.6016
  716MPD2     N10644   3.298   1.552  10.146 -0.3064 -0.1831 -0.2749
  716MPD2    H510645   3.297   1.607  10.061  0.9118  1.4524  0.7640
  716MPD2    N110646   3.194   1.974  10.367  0.2781  0.4420 -0.3889
  716MPD2    H710647   3.151   2.021  10.447 -1.3963  1.1491 -1.7190
  717TMC3    C110648   3.363   1.378  10.000 -0.4474 -0.5512 -0.2637
  717TMC3    C210649   3.281   1.427   9.897 -0.4054 -0.5508 -0.0119
  717TMC3    C310650   3.284   1.356   9.782  0.1234  0.2658 -0.0183
  717TMC3    C410651   3.418   1.251   9.992 -0.3651  0.4198  0.4986
  717TMC3    C510652   3.419   1.187   9.872 -0.4887  0.6682 -0.6066
  717TMC3    C610653   3.352   1.239   9.768  0.4180  0.0462 -0.5047
  717TMC3     C10654   3.338   1.424  10.136 -0.4386  0.4905  0.3099
  717TMC3     O10655   3.337   1.336  10.224  1.0126 -0.0797  0.0910
  717TMC3     H10656   3.219   1.516   9.906  0.3715  0.2092 -2.0517
  717TMC3    H110657   3.477   1.219  10.077  2.0124  0.6923 -1.0507
  717TMC3    H210658   3.356   1.201   9.667 -0.2816  0.6950 -0.7800
  717TMC3    C710659   3.515   1.084   9.840 -0.5491 -0.1365  0.4932
  717TMC3    C810660   3.186   1.398   9.681  0.1920 -0.3465  0.1850
  717TMC3    O110661   3.603   1.080   9.921  0.6105  0.0981 -0.3340
  717TMC3    O210662   3.156   1.516   9.680  0.5455 -0.6554  0.8347
  718MPD2     C10663   2.971   4.538  13.183  0.0888  0.9334  0.4786
  718MPD2    C110664   2.944   4.497  13.053 -0.0483  0.0411  0.1297
  718MPD2    C210665   2.824   4.438  13.025 -0.7273  0.0139 -0.5296
  718MPD2    C310666   2.722   4.422  13.115 -0.0994 -0.2066  0.5476
  718MPD2    C410667   2.745   4.460  13.246  0.7434  0.2711 -0.2379
  718MPD2    C510668   2.867   4.519  13.279  0.3526 -0.2234  0.5443
  718MPD2     H10669   2.798   4.405  12.925 -0.3835 -1.4374 -0.1476
  718MPD2    H110670   2.671   4.444  13.324  1.4226  0.0061  0.3484
  718MPD2    H210671   3.067   4.580  13.210  1.6323 -1.1249 -1.7687
  718MPD2    H310672   2.883   4.560  13.378  0.5499  0.0622  0.3936
  718MPD2     N10673   2.598   4.372  13.062  0.1850 -0.0330 -0.0542
  718MPD2    H510674   2.605   4.342  12.965 -0.3741  0.2766 -0.1885
  718MPD2    N110675   3.035   4.513  12.941  0.2251 -1.1023 -0.3826
  718MPD2    H710676   3.015   4.469  12.852 -1.0364 -0.5289 -0.3837
  719TMC3    C110677   3.201   4.603  12.798 -0.2234  0.1739 -0.3917
  719TMC3    C210678   3.126   4.536  12.707 -0.2077  0.4407 -0.5629
  719TMC3    C310679   3.072   4.603  12.602 -0.1355  0.2304  0.8159
  719TMC3    C410680   3.231   4.737  12.775  0.2692 -0.5157  0.6025
  719TMC3    C510681   3.199   0.059  12.656  0.2383 -0.2275 -0.0932
  719TMC3    C610682   3.110   4.732  12.570 -0.2799 -0.5648 -0.6181
  719TMC3     C10683   3.156   4.588  12.939  0.4119  0.7536 -0.0109
  719TMC3     O10684   3.213   4.645  13.031 -0.4924 -0.7750 -0.1033
  719TMC3     H10685   3.111   4.431  12.731 -1.8675  0.8789  0.3568
  719TMC3    H110686   3.303   0.044  12.843  0.7629 -0.2379 -0.1095
  719TMC3    H210687   3.070   0.039  12.479  2.1230 -1.1860 -1.9621
  719TMC3    C710688   3.296   0.129  12.583  0.5228  0.8342  0.1743
  719TMC3    C810689   2.930   4.557  12.587 -0.4502 -0.1561 -0.3631
  719TMC3    O110690   3.312   0.086  12.472  0.6645  0.1922  0.5155
  719TMC3    O210691   2.907   4.454  12.652 -0.3863 -0.1647 -0.1454
  720MPD2     C10692   1.514   1.417  14.242 -0.3584  0.1084 -0.0896
  720MPD2    C110693   1.616   1.474  14.163  0.0357 -0.0495 -0.1969
  720MPD2    C210694   1.745   1.477  14.210  0.0496  0.7155 -0.1858
  720MPD2    C310695   1.781   1.449  14.340  0.2734  0.1566  0.2500
  720MPD2    C410696   1.674   1.398  14.419  0.1876 -0.1976 -0.0129
  720MPD2    C510697   1.546   1.378  14.370  0.4421  0.1146  0.8466
  720MPD2     H10698   1.819   1.522  14.145  1.4596 -0.9304  0.2803
  720MPD2    H110699   1.696   1.360  14.517  1.6932  0.0401 -0.2632
  720MPD2    H210700   1.412   1.398  14.212 -0.3924 -1.4936  1.0777
  720MPD2    H310701   1.460   1.339  14.421 -0.7677 -0.9999 -2.0168
  720MPD2     N10702   1.911   1.481  14.386  0.0030  0.0599 -0.5234
  720MPD2    H510703   1.974   1.524  14.318  0.5668  0.0478 -0.0121
  720MPD2    N110704   1.586   1.512  14.027 -0.1721  0.3300  0.0151
  720MPD2    H710705   1.662   1.528  13.961 -2.0200  0.0392 -2.2227
  721TMC3    C110706   2.089   1.510  14.552 -0.3422  0.3215 -0.1866
  721TMC3    C210707   2.112   1.519  14.684  0.5072  0.9692 -0.9713
  721TMC3    C310708   2.244   1.492  14.729  0.7193 -0.2958 -0.4723
  721TMC3    C410709   2.183   1.474  14.459  0.5462  0.8199  0.0910
  721TMC3    C510710   2.308   1.445  14.507  0.2801 -0.0150  0.0069
  721TMC3    C610711   2.338   1.443  14.640 -0.6346  0.2814 -0.0279
  721TMC3     C10712   1.953   1.471  14.514  0.4653 -0.3583  0.2373
  721TMC3     O10713   1.895   1.425  14.610  0.1941 -0.0865 -0.1415
  721TMC3     H10714   2.038   1.569  14.745 -0.2544 -0.5693 -0.6245
  721TMC3    H110715   2.153   1.452  14.357  0.8625 -2.9648  0.7956
  721TMC3    H210716   2.438   1.442  14.683 -0.6498  1.9543  0.0507
  721TMC3    C710717   2.407   1.411  14.409 -0.5220 -0.5283  0.2453
  721TMC3    C810718   2.292   1.555  14.850 -0.0001  0.5927 -0.7798
  721TMC3    O110719   2.390   1.467  14.298  0.2524 -0.0668 -0.3899
  721TMC3    O210720   2.403   1.599  14.843  1.0505  0.8518  0.2751
  722MPD2     C10721   0.417   0.363  13.315  0.2023 -0.0735 -0.9241
  722MPD2    C110722   0.397   0.489  13.265 -0.3922  0.2025 -0.0195
  722MPD2    C210723   0.272   0.504  13.210 -0.1568 -0.5923  0.7672
  722MPD2    C310724   0.172   0.407  13.211  1.1913  0.1829 -0.2294
  722MPD2    C410725   0.198   0.286  13.271  0.1368 -0.3331  0.1555
  722MPD2    C510726   0.320   0.275  13.330 -0.0998 -0.9917  0.9227
  722MPD2     H10727   0.246   0.602  13.172 -0.7435  0.1812  3.1299
  722MPD2    H110728   0.131   0.202  13.281  0.1901 -0.2732  1.0415
  722MPD2    H210729   0.518   0.347  13.351 -0.0253 -0.8689 -0.6397
  722MPD2    H310730   0.331   0.185  13.389 -2.7710 -1.0788  1.2958
  722MPD2     N10731   0.054   0.434  13.134  0.0640  0.4163  0.5014
  722MPD2    H510732   0.064   0.516  13.076 -3.0683  1.4116  1.3774
  722MPD2    N110733   0.492   0.600  13.251  0.1222 -0.1403  0.3076
  722MPD2    H710734   0.457   0.685  13.208  2.6010 -0.3508 -2.1016
  723TMC3    C110735   4.604   0.365  13.007  0.0089 -0.5029 -0.5818
  723TMC3    C210736   4.545   0.259  12.960 -0.3721  0.1355 -0.0458
  723TMC3    C310737   4.455   0.274  12.851  0.3887 -0.7672  0.7988
  723TMC3    C410738   4.588   0.487  12.960 -0.2240 -0.3568  0.2958
  723TMC3    C510739   4.509   0.505  12.854  1.2495  0.0990  0.3800
  723TMC3    C610740   4.447   0.399  12.797 -0.3222 -0.8350  0.0890
  723TMC3     C10741   4.687   0.340  13.119 -0.6048 -0.0064 -0.6384
  723TMC3     O10742   4.660   0.236  13.183 -0.1469  0.2578  0.1589
  723TMC3     H10743   4.543   0.162  13.010 -2.0321  0.0680 -0.2124
  723TMC3    H110744   4.635   0.565  13.018 -1.5938  0.3961  0.3922
  723TMC3    H210745   4.400   0.414  12.700  1.9782  2.6335 -0.5203
  723TMC3    C710746   4.488   0.639  12.802  0.4744  0.1171 -0.3189
  723TMC3    C810747   4.363   0.172  12.784 -0.7444  0.1178  0.2545
  723TMC3    O110748   4.430   0.653  12.695 -0.6083 -0.3767  0.5951
  723TMC3    O210749   4.318   0.202  12.675  0.2881 -0.6400 -0.1088
  724TMC3    C110750   0.190   3.384  10.323 -0.0388  0.7430  0.3774
  724TMC3    C210751   0.168   3.446  10.204 -0.2140 -0.4141 -0.2640
  724TMC3    C310752   0.270   3.507  10.132  0.1216  0.8997  0.2519
  724TMC3    C410753   0.319   3.384  10.375  0.3309 -0.2992  0.0695
  724TMC3    C510754   0.425   3.431  10.299 -0.0352 -0.2654 -0.3560
  724TMC3    C610755   0.403   3.488  10.180  0.0236 -0.3553  0.1975
  724TMC3     C10756   0.083   3.372  10.425 -0.2322 -0.2679 -0.0084
  724TMC3     O10757   0.110   3.383  10.544 -0.8905 -0.2486 -0.2730
  724TMC3     H10758   0.068   3.482  10.184 -1.0938 -2.7570 -0.0369
  724TMC3    H110759   0.335   3.360  10.479  0.1107  0.7433  0.3470
  724TMC3    H210760   0.487   3.537  10.132 -1.2450  1.3613 -0.2443
  724TMC3    C710761   0.564   3.460  10.357  0.2437 -0.1106  0.1736
  724TMC3    C810762   0.229   3.605  10.039 -0.1823  0.0545  0.0472
  724TMC3    O110763   0.643   3.538  10.300  0.6647  0.4092  0.1185
  724TMC3    O210764   0.123   3.588   9.978 -0.2261 -0.4894  0.0643
  725TMC3    C110765   2.283   1.655  12.575  0.4929 -0.1675  0.0742
  725TMC3    C210766   2.217   1.669  12.452  0.2082 -0.6205 -0.3226
  725TMC3    C310767   2.189   1.553  12.380 -0.4895 -0.2401 -0.1248
  725TMC3    C410768   2.332   1.538  12.616 -0.1016  0.1753 -0.1244
  725TMC3    C510769   2.306   1.427  12.536  0.1105  0.5101 -0.0450
  725TMC3    C610770   2.225   1.429  12.425  0.7776  0.2703 -0.2402
  725TMC3     C10771   2.288   1.774  12.655 -0.0812  0.2984  0.2192
  725TMC3     O10772   2.220   1.868  12.619 -0.1019 -0.6882  0.2075
  725TMC3     H10773   2.207   1.767  12.409  0.1461 -0.9961 -1.1693
  725TMC3    H110774   2.372   1.530  12.716 -2.8806  1.7157  1.0924
  725TMC3    H210775   2.205   1.347  12.357  1.0584 -0.0460  0.0559
  725TMC3    C710776   2.382   1.313  12.570  0.2152  0.0610  0.5391
  725TMC3    C810777   2.162   1.569  12.241 -0.9381  1.1173  0.0851
  725TMC3    O110778   2.448   1.332  12.667  0.5068 -0.6515  0.0699
  725TMC3    O210779   2.177   1.471  12.176 -0.5529 -0.3373 -0.5217
  726MPD2     C10780   4.606   3.509  10.954 -0.3742  0.2484  1.0514
  726MPD2    C110781   4.483   3.575  10.929 -0.7245  0.0795 -0.2330
  726MPD2    C210782   4.378   3.548  11.022 -0.2970  0.7175 -0.4208
  726MPD2    C310783   4.392   3.463  11.125 -0.7632 -0.4200 -0.3604
  726MPD2    C410784   4.523   3.415  11.154  0.4602 -0.5387 -0.6928
  726MPD2    C510785   4.627   3.435  11.063 -0.4916  0.4020  1.0952
  726MPD2     H10786   4.277   3.585  11.005 -0.4634 -0.8397 -2.8458
  726MPD2    H110787   4.536   3.362  11.247  1.9358  1.2735  0.1320
  726MPD2    H210788   4.685   3.533  10.884 -0.4051  0.8895  1.2347
  726MPD2    H310789   4.714   3.370  11.058  0.1854  1.2865  1.5870
  726MPD2     N10790   4.285   3.415  11.211  0.5089  0.6823  0.5073
  726MPD2    H510791   4.308   3.369  11.298  1.6115  1.0836  0.4291
  726MPD2    N110792   4.457   3.657  10.820  0.4167  0.5492  0.0717
  726MPD2    H710793   4.364   3.698  10.830  1.2812  2.7179 -0.7652
  727TMC3    C110794   4.478   3.802  10.638  0.0698 -0.3992  0.1656
  727TMC3    C210795   4.553   3.903  10.596 -0.5169  0.1924  0.4215
  727TMC3    C310796   4.503   3.988  10.508  0.9610 -0.2374 -0.2894
  727TMC3    C410797   4.345   3.795  10.613  0.2770 -0.4810  0.2778
  727TMC3    C510798   4.288   3.892  10.538  0.8435 -1.1613  0.0064
  727TMC3    C610799   4.367   3.994  10.481 -0.2059  0.1219 -0.8857
  727TMC3     C10800   4.543   3.700  10.726 -0.0723  0.1518 -0.3757
  727TMC3     O10801   4.665   3.680  10.715  0.1450 -0.3674  0.2642
  727TMC3     H10802   4.660   3.890  10.612 -0.3464  0.2321 -0.6846
  727TMC3    H110803   4.288   3.707  10.639 -1.0996  0.8909  1.9010
  727TMC3    H210804   4.327   4.084  10.436  0.1226  0.5519 -0.3188
  727TMC3    C710805   4.144   3.882  10.523  0.2441  0.3110 -0.7824
  727TMC3    C810806   4.592   4.095  10.467 -0.3048  0.0442  1.0743
  727TMC3    O110807   4.081   3.806  10.597 -0.4724 -0.7979 -0.0480
  727TMC3    O210808   4.704   4.090  10.517 -0.4204  0.2225  0.5559
  728TMC3    C110809   4.245   1.840  15.387  0.5981 -0.5638  0.0080
  728TMC3    C210810   4.377   1.874  15.360  0.6837 -0.1576 -0.0898
  728TMC3    C310811   4.413   1.878  15.229  0.1440  0.5371 -0.4229
  728TMC3    C410812   4.157   1.818  15.286 -0.4736  0.0237  0.1083
  728TMC3    C510813   4.197   1.817  15.157 -0.3513  0.4417  0.1360
  728TMC3    C610814   4.332   1.846  15.123 -0.1046  0.0712 -0.6771
  728TMC3     C10815   4.216   1.817  15.529  0.0430 -0.8197 -0.0862
  728TMC3     O10816   4.316   1.819  15.598  0.4671 -0.2880  0.2021
  728TMC3     H10817   4.437   1.909  15.443 -0.3404  1.6223 -0.0996
  728TMC3    H110818   4.050   1.819  15.304 -0.4546  0.9167  0.1810
  728TMC3    H210819   4.381   1.834  15.027 -0.4285  1.4692 -1.0162
  728TMC3    C710820   4.096   1.856  15.053 -0.4837 -1.3056  0.0193
  728TMC3    C810821   4.550   1.870  15.201  0.3392  0.4063  0.9863
  728TMC3    O110822   3.980   1.858  15.082  0.5128 -0.2849  0.4894
  728TMC3    O210823   4.599   1.904  15.094 -0.2270 -0.3602  0.1152
  729MPD2     C10824   1.603   3.105  16.833 -0.5008 -0.5195  0.0911
  729MPD2    C110825   1.725   3.046  16.809  0.2656 -0.7023 -0.1569
  729MPD2    C210826   1.816   3.009  16.912  0.3323  0.1346  0.4032
  729MPD2    C310827   1.794   3.048  17.041  0.1463  0.1571 -0.3471
  729MPD2    C410828   1.673   3.112  17.068  0.1373 -0.3134  0.0250
  729MPD2    C510829   1.577   3.135  16.962  1.0794 -0.6342  0.3123
  729MPD2     H10830   1.907   2.956  16.888 -1.7352 -2.0024 -2.6752
  729MPD2    H110831   1.649   3.155  17.164  1.5599  1.0908 -0.2459
  729MPD2    H210832   1.529   3.124  16.757  0.1992  0.7555 -0.2804
  729MPD2    H310833   1.483   3.186  16.978  0.3448 -1.9388  0.1044
  729MPD2     N10834   1.886   3.016  17.144 -0.3299 -0.0071  0.2420
  729MPD2    H510835   1.874   3.058  17.235 -0.3017 -0.9094  0.6549
  729MPD2    N110836   1.754   3.038  16.668 -0.4598 -0.6603  0.1442
  729MPD2    H710837   1.695   3.096  16.609 -1.4500 -1.6279  0.1854
  730TMC3    C110838   2.071   2.944  17.256  0.2067 -0.2038  0.1757
  730TMC3    C210839   2.194   2.997  17.222  0.0803  0.0105 -0.1989
  730TMC3    C310840   2.233   3.113  17.281 -1.3231 -0.3381  0.1903
  730TMC3    C410841   2.003   3.006  17.353  0.5277  0.1735 -0.3681
  730TMC3    C510842   2.046   3.122  17.412  0.4638  0.0243 -0.4861
  730TMC3    C610843   2.165   3.174  17.378 -0.4888  0.0528  0.5906
  730TMC3     C10844   1.998   2.934  17.134  0.5704  0.1496  0.2067
  730TMC3     O10845   2.041   2.872  17.035 -0.2683  0.5879 -0.6763
  730TMC3     H10846   2.251   2.952  17.142 -0.0265  0.5441 -0.5724
  730TMC3    H110847   1.912   2.961  17.389  0.7141 -1.4135 -1.9013
  730TMC3    H210848   2.201   3.262  17.431 -0.2741  0.4864 -0.2835
  730TMC3    C710849   1.940   3.214  17.439  0.4637  0.1006  0.1951
  730TMC3    C810850   2.346   3.181  17.217  0.1741  0.1939 -0.2463
  730TMC3    O110851   1.843   3.203  17.362  0.0067  0.1045 -0.6353
  730TMC3    O210852   2.411   3.123  17.135 -0.1368 -0.6991  0.0469
  731MPD2     C10853   1.891   1.377  12.434  0.9689 -0.0744  0.0143
  731MPD2    C110854   1.949   1.264  12.383 -0.8297  0.3140  0.8868
  731MPD2    C210855   1.990   1.164  12.469  0.7201  0.8691  0.1258
  731MPD2    C310856   1.981   1.171  12.604 -0.1434  0.2403  0.1602
  731MPD2    C410857   1.945   1.296  12.656 -0.1368  0.2432 -0.3830
  731MPD2    C510858   1.891   1.396  12.572  0.1768 -0.2116 -0.4994
  731MPD2     H10859   2.023   1.068  12.433  1.3393  1.0841  0.1164
  731MPD2    H110860   1.936   1.317  12.762  1.1084  0.6077 -0.3470
  731MPD2    H210861   1.860   1.459  12.369  0.7420 -2.8708 -3.4351
  731MPD2    H310862   1.860   1.488  12.619  0.5613 -0.7788  0.8586
  731MPD2     N10863   2.003   1.053  12.677  0.6137  0.3530 -0.5704
  731MPD2    H510864   2.021   0.969  12.623  2.8021  0.1086  0.5159
  731MPD2    N110865   1.974   1.263  12.241  0.2959  0.2509 -0.1419
  731MPD2    H710866   1.935   1.338  12.184 -2.3120 -0.8488  0.1681
  732TMC3    C110867   2.071   1.183  12.030  0.0389 -0.0715 -0.3402
  732TMC3    C210868   1.969   1.238  11.954 -0.4108 -0.0676  0.6653
  732TMC3    C310869   1.999   1.298  11.836  0.4347  0.6973 -0.2166
  732TMC3    C410870   2.197   1.175  11.985 -0.0614  0.3535 -0.3672
  732TMC3    C510871   2.225   1.246  11.867 -0.1776  0.4752 -0.6722
  732TMC3    C610872   2.125   1.306  11.790 -0.1602 -0.4765  0.3022
  732TMC3     C10873   2.059   1.170  12.176 -0.2357 -0.6039  0.2311
  732TMC3     O10874   2.138   1.093  12.228  0.1850  0.1196 -0.0698
  732TMC3     H10875   1.867   1.245  11.991 -1.2865 -1.1159 -1.5564
  732TMC3    H110876   2.270   1.138  12.057 -0.5085  0.5358  0.1760
  732TMC3    H210877   2.143   1.350  11.693 -0.2194  1.7394  1.3054
  732TMC3    C710878   2.361   1.298  11.847  0.3716  0.9513  0.6535
  732TMC3    C810879   1.899   1.358  11.750 -0.3350 -0.2234 -0.1651
  732TMC3    O110880   2.357   1.393  11.772 -0.7563  0.1165 -0.7773
  732TMC3    O210881   1.934   1.432  11.659 -0.1172 -0.1628 -0.5230
  733TMC3    C110882   2.134   4.405  12.977 -0.2927 -0.5369 -0.1341
  733TMC3    C210883   2.239   4.403  13.060  0.0818 -0.1619  0.0239
  733TMC3    C310884   2.366   4.366  13.021 -0.2043  0.5248  0.4830
  733TMC3    C410885   2.158   4.397  12.840  0.7416  0.0945  0.0520
  733TMC3    C510886   2.288   4.381  12.796 -0.3901  0.0044  0.3359
  733TMC3    C610887   2.391   4.360  12.887 -0.5823  0.6387  0.1502
  733TMC3     C10888   2.001   4.423  13.024  0.3370 -0.2637 -0.5139
  733TMC3     O10889   1.922   4.477  12.948  0.3559 -0.6819  0.3180
  733TMC3     H10890   2.220   4.440  13.160 -0.6101  0.9176 -0.5009
  733TMC3    H110891   2.078   4.422  12.770 -0.8071  0.6212  2.0165
  733TMC3    H210892   2.486   4.320  12.854  0.1580  0.2825  2.6707
  733TMC3    C710893   2.317   4.405  12.659 -0.3334 -0.2627 -0.1872
  733TMC3    C810894   2.475   4.385  13.119  0.8947  0.0453  0.2600
  733TMC3    O110895   2.228   4.407  12.574 -0.5029  0.4012 -0.1114
  733TMC3    O210896   2.453   4.433  13.228 -0.9740  0.4220 -0.2877
  734MPD2     C10897   4.117   1.863  12.575 -0.6974  0.7828 -0.1225
  734MPD2    C110898   4.163   1.782  12.474 -0.9041 -0.2566  0.5791
  734MPD2    C210899   4.200   1.829  12.350 -0.3336 -0.4888  0.5798
  734MPD2    C310900   4.208   1.964  12.342  1.3644 -0.2476 -0.6720
  734MPD2    C410901   4.162   2.048  12.440  0.3669  0.4847 -0.0635
  734MPD2    C510902   4.116   1.999  12.561 -0.3755  0.4443  0.5849
  734MPD2     H10903   4.216   1.763  12.265  0.7053  0.7827 -0.2224
  734MPD2    H110904   4.171   2.156  12.429 -1.7380  0.5907 -0.6387
  734MPD2    H210905   4.081   1.832  12.672  1.0426 -1.5811 -0.2489
  734MPD2    H310906   4.062   2.053  12.637  0.5011  1.0621  0.7744
  734MPD2     N10907   4.228   2.015  12.218 -0.0627  1.4265 -0.5191
  734MPD2    H510908   4.230   1.946  12.143  2.3178  0.9064  0.0204
  734MPD2    N110909   4.153   1.646  12.477  0.5273  0.0241 -0.4501
  734MPD2    H710910   4.179   1.594  12.393 -1.2063  0.7100 -1.4140
  735TMC3    C110911   4.065   1.445  12.540 -0.2653  0.0443 -0.0207
  735TMC3    C210912   3.979   1.449  12.431  0.4717 -0.2038 -0.0660
  735TMC3    C310913   3.980   1.348  12.346 -0.4897  0.0386 -0.5862
  735TMC3    C410914   4.164   1.349  12.544  0.7154  1.0579  0.6581
  735TMC3    C510915   4.180   1.264  12.438  0.2719 -0.3315  0.4558
  735TMC3    C610916   4.086   1.258  12.338  0.1354  0.2842  0.7760
  735TMC3     C10917   4.111   1.573  12.587 -0.7730 -0.6904  0.8302
  735TMC3     O10918   4.108   1.595  12.711 -0.2899 -0.1814 -0.6329
  735TMC3     H10919   3.893   1.514  12.436  1.3917  1.0611 -0.4900
  735TMC3    H110920   4.247   1.363  12.612  0.1592 -0.2245  1.5994
  735TMC3    H210921   4.095   1.185  12.259  0.1823  0.7243  0.3714
  735TMC3    C710922   4.316   1.215  12.414 -0.5396  0.1362  0.1878
  735TMC3    C810923   3.924   1.393  12.218 -0.1697 -0.2582 -0.6990
  735TMC3    O110924   4.406   1.288  12.450  0.0810 -0.0482 -0.8175
  735TMC3    O210925   3.875   1.315  12.139  0.0366 -0.4874 -0.3166
  736MPD2     C10926   4.451   0.913  12.276  0.3307 -0.4105  0.2179
  736MPD2    C110927   4.449   1.044  12.299 -0.0800  0.0144 -0.3122
  736MPD2    C210928   4.568   1.109  12.284 -0.1526  0.1058  0.0948
  736MPD2    C310929   4.673   1.052  12.214  0.2396  1.0131  0.1004
  736MPD2    C410930   4.668   0.916  12.181 -0.4590  0.1080  0.5332
  736MPD2    C510931   4.554   0.851  12.214  0.1757 -1.1662 -0.7307
  736MPD2     H10932   4.572   1.214  12.310  1.1201  0.6345 -2.2018
  736MPD2    H110933   0.012   0.869  12.128 -0.2573  0.9092  0.1330
  736MPD2    H210934   4.361   0.852  12.286  0.1212  0.0955  1.4113
  736MPD2    H310935   4.552   0.747  12.182  1.0450 -1.3112 -0.3328
  736MPD2     N10936   0.052   1.116  12.162 -0.0667  0.3175  0.0629
  736MPD2    H510937   0.120   1.060  12.111 -0.3653  1.7535 -1.9499
  736MPD2    N110938   4.323   1.099  12.345  0.0579  0.2589  0.3930
  736MPD2    H710939   4.241   1.040  12.359 -0.8088  1.4883  0.5017
  737TMC3    C110940   0.174   1.300  12.085 -0.0815  0.3523 -0.7032
  737TMC3    C210941   0.191   1.438  12.086 -0.3216  0.6055  0.0112
  737TMC3    C310942   0.263   1.497  11.988 -0.4757  0.0335  0.4534
  737TMC3    C410943   0.218   1.224  11.982 -0.3360 -0.4858 -0.0177
  737TMC3    C510944   0.291   1.289  11.886  0.2137  0.5769 -0.0951
  737TMC3    C610945   0.318   1.424  11.889  0.4273  0.6983  0.4650
  737TMC3     C10946   0.072   1.252  12.171 -0.5763  0.4848 -1.1968
  737TMC3     O10947   0.008   1.337  12.233  0.2936 -0.0045  0.5747
  737TMC3     H10948   0.155   1.495  12.171  0.4365  0.9840  0.0790
  737TMC3    H110949   0.188   1.124  11.952  1.9799 -1.1768 -0.0619
  737TMC3    H210950   0.358   1.470  11.799 -1.1634 -0.0972 -0.6462
  737TMC3    C710951   0.389   1.200  11.828  0.4005  0.0712  0.0404
  737TMC3    C810952   0.249   1.639  11.978  0.6561 -0.0601 -0.3169
  737TMC3    O110953   0.364   1.081  11.826 -0.2432 -0.3365  0.1036
  737TMC3    O210954   0.220   1.700  12.080 -0.4152 -0.0085 -0.0425
  738MPD2     C10955   0.619   0.545  14.847 -0.7357 -0.2976  0.4190
  738MPD2    C110956   0.617   0.409  14.818  0.6141 -0.2216 -0.3846
  738MPD2    C210957   0.711   0.358  14.722 -0.3215  0.0909  0.2851
  738MPD2    C310958   0.810   0.435  14.668  0.0162  0.7524  0.5822
  738MPD2    C410959   0.802   0.571  14.695  0.7478  0.0972 -0.4557
  738MPD2    C510960   0.709   0.621  14.780  0.2879  0.4122 -0.3907
  738MPD2     H10961   0.712   0.253  14.697  0.0742 -0.4008  2.3117
  738MPD2    H110962   0.861   0.637  14.633 -0.1790  0.5268 -0.8883
  738MPD2    H210963   0.551   0.599  14.912  0.2565  0.1206  1.1163
  738MPD2    H310964   0.698   0.728  14.778 -0.1726  0.3555 -0.9895
  738MPD2     N10965   0.903   0.382  14.574 -0.5859  0.1201  0.1099
  738MPD2    H510966   0.957   0.453  14.526  0.7054 -1.6137 -1.0350
  738MPD2    N110967   0.517   0.332  14.875 -0.0443  0.0373  0.3544
  738MPD2    H710968   0.502   0.238  14.840 -1.6319  0.4726 -0.1715
  739TMC3    C110969   1.048   0.227  14.462  0.6437 -0.4538 -0.6757
  739TMC3    C210970   1.077   0.323  14.374 -0.1082 -0.4882 -0.0499
  739TMC3    C310971   1.197   0.316  14.299 -0.7350 -0.6989  0.5997
  739TMC3    C410972   1.117   0.107  14.465  0.4835 -0.7101 -0.0261
  739TMC3    C510973   1.235   0.100  14.393 -0.5113  0.5277 -0.5816
  739TMC3    C610974   1.271   0.207  14.314 -0.5577 -0.1117 -0.0747
  739TMC3     C10975   0.938   0.252  14.558  0.3962 -0.7387 -0.1509
  739TMC3     O10976   0.901   0.167  14.633 -0.3630  0.3801  0.0889
  739TMC3     H10977   1.020   0.415  14.363  1.0869 -0.2215 -3.7297
  739TMC3    H110978   1.086   0.029  14.533  2.0361 -0.3348  1.1204
  739TMC3    H210979   1.357   0.202  14.248 -2.5187  1.3693 -2.7874
  739TMC3    C710980   1.328   0.020  14.462  0.5139  0.1525 -0.4583
  739TMC3    C810981   1.237   0.421  14.211  0.4405  0.3770  0.1642
  739TMC3    O110982   1.299   4.664  14.538 -0.0469 -0.8148 -0.2005
  739TMC3    O210983   1.154   0.511  14.205 -0.8239 -0.0460  0.2631
  740TMC3    C110984   1.428   1.840  14.249  0.1157 -0.4537 -0.0156
  740TMC3    C210985   1.486   1.817  14.368 -0.6482  1.2339 -0.1330
  740TMC3    C310986   1.618   1.786  14.369 -1.0035 -0.4249  0.2395
  740TMC3    C410987   1.504   1.851  14.135 -0.3272  0.2036  0.2234
  740TMC3    C510988   1.639   1.843  14.149  0.1595 -0.5366  0.4025
  740TMC3    C610989   1.695   1.797  14.261 -0.0823 -0.5413  0.3943
  740TMC3     C10990   1.284   1.843  14.244  0.5611 -0.1493  0.0079
  740TMC3     O10991   1.235   1.885  14.139 -0.5374  0.1316 -0.1644
  740TMC3     H10992   1.434   1.829  14.463 -0.2019  3.7012 -0.1896
  740TMC3    H110993   1.459   1.837  14.038  1.2099 -1.7577 -0.1949
  740TMC3    H210994   1.802   1.784  14.270  0.1302  1.1154  0.3618
  740TMC3    C710995   1.722   1.833  14.028  0.1657  0.2602 -0.1374
  740TMC3    C810996   1.681   1.761  14.494  1.0441 -0.0237 -0.6699
  740TMC3    O110997   1.834   1.788  14.051  0.2352  0.2141  0.2641
  740TMC3    O210998   1.802   1.777  14.500 -0.0360 -0.4029  0.4528
  741TMC3    C110999   0.913   1.076  14.269  0.7036 -0.0974 -0.1960
  741TMC3    C211000   0.782   1.041  14.248  0.5494 -0.8289  0.4438
  741TMC3    C311001   0.721   0.964  14.344  0.5337 -0.2574  0.2100
  741TMC3    C411002   0.988   1.043  14.378 -0.3517  0.1780  0.6653
  741TMC3    C511003   0.925   0.973  14.480  0.3359 -0.2309  0.1894
  741TMC3    C611004   0.790   0.937  14.460  0.0778 -0.2776  0.5151
  741TMC3     C11005   0.973   1.185  14.194 -0.3217 -0.2115 -0.3915
  741TMC3     O11006   1.083   1.228  14.218 -0.2472  0.0149 -0.4000
  741TMC3     H11007   0.724   1.044  14.157 -1.3865  1.0476  1.7277
  741TMC3    H111008   1.094   1.064  14.370 -0.5072  0.7341 -0.0241
  741TMC3    H211009   0.732   0.888  14.537 -1.4717 -0.9589 -1.0878
  741TMC3    C711010   0.998   0.936  14.591  0.8534  0.1109 -0.0243
  741TMC3    C811011   0.601   0.902  14.305  0.4782  0.0100 -0.0474
  741TMC3    O111012   1.117   0.915  14.583 -0.0397 -0.5619 -0.1521
  741TMC3    O211013   0.524   0.964  14.228  0.0242  0.2949  0.7459
  742TMC3    C111014   1.065   4.113  15.294 -0.0711 -0.3225  0.3828
  742TMC3    C211015   0.943   4.085  15.236  0.3404 -0.1562 -0.2281
  742TMC3    C311016   0.931   3.971  15.169  0.1168 -0.2666 -0.2253
  742TMC3    C411017   1.168   4.024  15.301 -0.4903  0.6385 -0.5265
  742TMC3    C511018   1.138   3.899  15.257  0.3972 -0.1535 -0.8305
  742TMC3    C611019   1.033   3.875  15.176  0.0225  0.6854  0.9273
  742TMC3     C11020   1.085   4.232  15.374  0.0979 -0.3147 -0.8933
  742TMC3     O11021   1.194   4.242  15.427  0.2406  0.3363 -0.4581
  742TMC3     H11022   0.867   4.162  15.231 -0.8980 -1.3586 -0.0673
  742TMC3    H111023   1.263   4.045  15.348 -0.3220 -1.1992 -0.0406
  742TMC3    H211024   1.006   3.777  15.138  0.9606  1.3254 -1.3351
  742TMC3    C711025   1.243   3.803  15.282 -0.7410 -0.2364 -0.0586
  742TMC3    C811026   0.817   3.948  15.071  1.0896 -0.3710 -0.0377
  742TMC3    O111027   1.362   3.842  15.283  0.0443  0.0694 -0.8233
  742TMC3    O211028   0.843   3.857  14.990 -0.7984 -0.5363  0.0266
  743MPD2     C11029   2.003   1.003   0.434 -0.3405  1.2000  0.1124
  743MPD2    C111030   2.048   0.874   0.411  1.3183 -0.5665  0.1825
  743MPD2    C211031   2.118   0.812   0.512 -0.0433 -0.0407 -0.1700
  743MPD2    C311032   2.166   0.882   0.622 -0.7472  0.6431  0.6080
  743MPD2    C411033   2.122   1.014   0.639 -0.4517 -0.4592  0.0863
  743MPD2    C511034   2.037   1.069   0.551 -0.6845  0.4976  0.4351
  743MPD2     H11035   2.158   0.712   0.500  1.9940  0.7591 -0.0780
  743MPD2    H111036   2.153   1.076   0.722 -1.4425  0.4288 -0.1967
  743MPD2    H211037   1.945   1.057   0.360  1.2399  1.0581 -1.2417
  743MPD2    H311038   2.005   1.171   0.567 -1.7813  0.0649  0.9733
  743MPD2     N11039   2.257   0.815   0.706 -0.5137  0.2107  0.1240
  743MPD2    H511040   2.299   0.728   0.674 -0.0955  0.3168  0.3882
  743MPD2    N111041   2.019   0.822   0.282  0.5087  0.0598  0.0638
  743MPD2    H711042   1.984   0.890   0.215 -0.0384  0.1827  0.4810
  744TMC3    C111043   2.035   0.675   0.095 -0.6658 -0.0340  0.0498
  744TMC3    C211044   1.965   0.774   0.028 -0.0407  0.2617  0.4860
  744TMC3    C311045   1.985   0.776  17.641 -0.3663  0.1475 -0.6815
  744TMC3    C411046   2.120   0.586   0.032  0.2956 -0.2690 -0.2903
  744TMC3    C511047   2.139   0.601  17.648 -0.2828  0.2654  0.5524
  744TMC3    C611048   2.073   0.695  17.575 -0.7009  0.3204 -0.7574
  744TMC3     C11049   2.046   0.692   0.242  0.3040  0.0170  0.1569
  744TMC3     O11050   2.090   0.596   0.308  0.1413  0.2877 -0.1883
  744TMC3     H11051   1.888   0.833   0.076  0.3997  1.3717 -0.1893
  744TMC3    H111052   2.174   0.516   0.095 -0.0580 -0.3144 -0.0381
  744TMC3    H211053   2.084   0.710  17.468 -0.5926  1.5368 -0.5796
  744TMC3    C711054   2.265   0.537  17.605 -0.8116 -0.0238 -0.0763
  744TMC3    C811055   1.903   0.866  17.556 -0.3110  0.0374 -0.0274
  744TMC3    O111056   2.339   0.500  17.696  0.1462 -0.0808  0.3737
  744TMC3    O211057   1.864   0.965  17.608  0.3873 -0.8829  0.1356
  745TMC3    C111058   0.875   4.254  13.761  1.0239  0.6992  0.2495
  745TMC3    C211059   0.808   4.156  13.825 -0.2105  0.0234  0.5583
  745TMC3    C311060   0.681   4.197  13.859 -0.0464  0.0074  0.4558
  745TMC3    C411061   0.826   4.380  13.722  0.7404  0.3525  0.7270
  745TMC3    C511062   0.694   4.396  13.731  0.2190 -0.6892 -0.1751
  745TMC3    C611063   0.626   4.314  13.807  0.7858  0.7946 -0.7855
  745TMC3     C11064   1.015   4.244  13.770  0.4443 -0.2009 -0.0451
  745TMC3     O11065   1.058   4.137  13.808 -0.2383 -0.2006 -0.2130
  745TMC3     H11066   0.849   4.056  13.836 -1.0535 -0.6797 -2.8556
  745TMC3    H111067   0.894   4.450  13.675 -0.5398  0.6101 -0.7439
  745TMC3    H211068   0.521   4.335  13.826  0.2504 -1.4290 -1.2135
  745TMC3    C711069   0.630   4.487  13.640 -0.5299 -0.2283  0.7124
  745TMC3    C811070   0.659   4.175  14.001  0.4556  0.0615 -0.6109
  745TMC3    O111071   0.510   4.520  13.657 -0.5111 -0.0936 -0.3946
  745TMC3    O211072   0.563   4.239  14.047  0.4269 -0.0379 -0.5280
  746TMC3    C111073   3.438   1.363  11.194 -0.0616 -0.3768  0.0259
  746TMC3    C211074   3.504   1.377  11.076  0.5825 -0.5432  0.3945
  746TMC3    C311075   3.470   1.289  10.982  0.2499  0.2285 -1.1272
  746TMC3    C411076   3.343   1.269  11.226  0.0417 -0.1120  0.3066
  746TMC3    C511077   3.328   1.169  11.132 -0.2498  0.2601 -0.4158
  746TMC3    C611078   3.389   1.179  11.006  0.5226 -0.6018 -0.6713
  746TMC3     C11079   3.452   1.465  11.293 -0.0370 -0.1601  0.6055
  746TMC3     O11080   3.368   1.465  11.379  0.2171 -0.0060 -0.3711
  746TMC3     H11081   3.565   1.465  11.060  1.2227 -1.6178 -3.2588
  746TMC3    H111082   3.279   1.270  11.314  0.6759  2.9127  0.7444
  746TMC3    H211083   3.388   1.096  10.937  0.6733 -0.1930 -1.1609
  746TMC3    C711084   3.210   1.089  11.119 -0.0924  0.4569 -0.5579
  746TMC3    C811085   3.508   1.306  10.847 -0.4674  0.3582 -0.5305
  746TMC3    O111086   3.179   1.056  11.004  0.3926  0.0832 -0.4306
  746TMC3    O211087   3.507   1.214  10.768  0.2275  0.3777  0.1466
  747TMC3    C111088   1.135   1.560  11.163  0.9348 -0.2869 -0.4226
  747TMC3    C211089   1.044   1.464  11.193 -0.1999  0.4060 -0.2195
  747TMC3    C311090   1.013   1.446  11.327 -0.1882 -0.1719 -0.7239
  747TMC3    C411091   1.212   1.621  11.259 -0.1305  0.1366 -0.2483
  747TMC3    C511092   1.181   1.593  11.394 -0.1228 -0.6011  0.2234
  747TMC3    C611093   1.080   1.511  11.432 -0.5104  1.0816 -0.1900
  747TMC3     C11094   1.146   1.594  11.026  0.0463  0.5298  0.1050
  747TMC3     O11095   1.169   1.714  11.005  0.2282 -0.4028  0.1218
  747TMC3     H11096   0.980   1.411  11.124  1.0382 -3.3785  1.5098
  747TMC3    H111097   1.287   1.688  11.218  0.4593 -1.1497 -1.2408
  747TMC3    H211098   1.057   1.479  11.533 -0.5288 -0.1203 -0.5758
  747TMC3    C711099   1.256   1.662  11.497 -0.9953 -0.7128  0.3653
  747TMC3    C811100   0.913   1.343  11.345 -0.4113 -0.3610 -0.2644
  747TMC3    O111101   1.205   1.674  11.608 -0.1415  0.7622  0.2287
  747TMC3    O211102   0.894   1.258  11.257 -0.3145 -0.2229 -0.0695
  748MPD2     C11103   1.689   1.424   0.678 -0.4779 -0.0524  0.3238
  748MPD2    C111104   1.771   1.533   0.655 -0.0268 -0.5583  0.0866
  748MPD2    C211105   1.895   1.533   0.722  0.1423  0.3026  0.6519
  748MPD2    C311106   1.930   1.427   0.811 -0.2859 -0.4413 -0.1632
  748MPD2    C411107   1.839   1.330   0.837  0.6217  0.2112 -0.2837
  748MPD2    C511108   1.719   1.326   0.768  1.2587 -1.1831  0.5507
  748MPD2     H11109   1.973   1.607   0.708 -1.4300  2.1512  1.6988
  748MPD2    H111110   1.842   1.253   0.913 -3.8443  0.8390  0.5333
  748MPD2    H211111   1.593   1.423   0.629 -0.7758  1.0393  0.8976
  748MPD2    H311112   1.652   1.243   0.789  0.3542 -0.6957 -0.4390
  748MPD2     N11113   2.048   1.430   0.889 -0.1968 -0.2215 -0.0252
  748MPD2    H511114   2.108   1.507   0.862  0.3881 -0.9329 -0.7465
  748MPD2    N111115   1.714   1.639   0.586  0.2642  0.0758 -0.2684
  748MPD2    H711116   1.614   1.648   0.573  0.3007  2.2559  0.9852
  749TMC3    C111117   2.218   1.356   1.027 -0.0743 -0.4258  0.1425
  749TMC3    C211118   2.265   1.288   1.135  0.5775 -1.0006  0.5481
  749TMC3    C311119   2.396   1.299   1.168 -0.2309  0.5491 -0.3273
  749TMC3    C411120   2.300   1.432   0.947  0.3012 -0.0053  0.0102
  749TMC3    C511121   2.428   1.448   0.992 -0.2657 -0.6030 -0.1830
  749TMC3    C611122   2.478   1.384   1.100 -0.4348 -0.8115  0.9834
  749TMC3     C11123   2.083   1.338   0.987  0.2903 -0.3531  0.5752
  749TMC3     O11124   2.016   1.259   1.052 -0.6839 -0.2550 -0.2339
  749TMC3     H11125   2.193   1.228   1.190  0.2703 -0.5680  0.6188
  749TMC3    H111126   2.272   1.489   0.859  0.5014 -0.1560 -0.1519
  749TMC3    H211127   2.583   1.392   1.128  0.2505  1.7357 -2.2194
  749TMC3    C711128   2.529   1.531   0.926  0.0909  0.2618  1.0461
  749TMC3    C811129   2.449   1.216   1.274 -0.2302 -0.6070  0.3071
  749TMC3    O111130   2.603   1.597   1.000 -0.2601  0.0693  0.7633
  749TMC3    O211131   2.371   1.169   1.357  0.1934  0.8335 -0.1274
  750MPD2     C11132   3.473   3.334  11.784 -0.3103  0.2055 -0.2479
  750MPD2    C111133   3.403   3.263  11.878 -0.1297  0.2377 -0.1355
  750MPD2    C211134   3.430   3.126  11.882 -0.6358  0.6108  0.1755
  750MPD2    C311135   3.529   3.070  11.806 -0.0223 -1.1270 -0.2992
  750MPD2    C411136   3.606   3.146  11.731  0.3525  0.2810 -0.3191
  750MPD2    C511137   3.572   3.274  11.714 -0.0859 -0.3220 -0.0309
  750MPD2     H11138   3.371   3.054  11.938  0.2713 -1.2238 -1.2314
  750MPD2    H111139   3.689   3.117  11.669 -0.5700  0.7970 -1.8035
  750MPD2    H211140   3.451   3.437  11.759 -0.8390 -0.3219 -1.9744
  750MPD2    H311141   3.622   3.329  11.636  0.5138 -1.3600 -0.3692
  750MPD2     N11142   3.550   2.928  11.796 -0.3398  0.2584  0.1601
  750MPD2    H511143   3.632   2.898  11.745 -0.5301  2.0348 -1.2158
  750MPD2    N111144   3.297   3.322  11.958 -0.3041  0.3035  0.0938
  750MPD2    H711145   3.274   3.417  11.931 -1.5111 -0.0765 -0.2233
  751TMC3    C111146   3.503   2.690  11.795 -0.2068 -0.3684 -0.2042
  751TMC3    C211147   3.436   2.587  11.848 -0.1048 -0.4045 -0.5307
  751TMC3    C311148   3.449   2.456  11.804 -0.7869  0.4082  0.8602
  751TMC3    C411149   3.576   2.667  11.681  0.2319  0.1043 -0.5763
  751TMC3    C511150   3.595   2.539  11.639 -0.0676 -0.2118 -0.3758
  751TMC3    C611151   3.538   2.433  11.700 -0.2754  0.4337  0.4519
  751TMC3     C11152   3.470   2.825  11.849  0.5992 -0.1655  0.1566
  751TMC3     O11153   3.372   2.837  11.924 -0.1067 -0.6398  0.3030
  751TMC3     H11154   3.380   2.615  11.936  0.9576 -0.1675  0.0771
  751TMC3    H111155   3.608   2.746  11.614  0.3095  0.7450  0.2095
  751TMC3    H211156   3.561   2.329  11.679 -3.6019  0.0440 -1.1966
  751TMC3    C711157   3.628   2.524  11.497 -0.3832 -0.6471 -0.2730
  751TMC3    C811158   3.319   2.396  11.776 -0.2408  0.4381  0.5573
  751TMC3    O111159   3.679   2.616  11.442 -0.0192  0.6599  0.5405
  751TMC3    O211160   3.317   2.325  11.673 -0.1400 -0.9868  0.1262
  752TMC3    C111161   2.636   2.541  16.986  0.0201 -0.4377  0.0305
  752TMC3    C211162   2.686   2.421  17.027 -0.1976 -0.0453  0.1830
  752TMC3    C311163   2.648   2.358  17.141 -0.2924  0.3283 -0.6350
  752TMC3    C411164   2.543   2.607  17.063 -0.2562 -0.8569 -0.1445
  752TMC3    C511165   2.527   2.551  17.188  0.2356 -0.5831 -0.0730
  752TMC3    C611166   2.578   2.429  17.230  0.6241  0.4304 -0.5754
  752TMC3     C11167   2.644   2.564  16.841  0.1000 -0.5350  0.3236
  752TMC3     O11168   2.739   2.509  16.788 -0.1627  0.4393  0.2250
  752TMC3     H11169   2.741   2.367  16.950 -1.1447 -0.5473 -0.1440
  752TMC3    H111170   2.524   2.712  17.043 -0.5732 -0.6064  1.4581
  752TMC3    H211171   2.554   2.387  17.328  1.2560  1.3037 -0.0481
  752TMC3    C711172   2.440   2.629  17.278 -0.9646  0.3569 -0.6577
  752TMC3    C811173   2.674   2.218  17.155 -0.6163 -0.2969 -0.1038
  752TMC3    O111174   2.417   2.744  17.246 -0.1526  0.0966  0.0485
  752TMC3    O211175   2.767   2.161  17.101  0.1985 -0.3547 -0.0588
  753TMC3    C111176   4.277   3.730  13.258  0.0524  0.1585 -0.4717
  753TMC3    C211177   4.370   3.723  13.361 -0.2249 -0.4330  0.1516
  753TMC3    C311178   4.354   3.616  13.440 -0.1434  0.3391 -0.1048
  753TMC3    C411179   4.186   3.636  13.229  0.7947  0.2059  0.2825
  753TMC3    C511180   4.189   3.526  13.306  0.7580  0.4983  0.6647
  753TMC3    C611181   4.271   3.516  13.413 -0.0113  0.1725  0.2615
  753TMC3     C11182   4.257   3.862  13.192  0.6238  0.2811 -0.8509
  753TMC3     O11183   4.143   3.885  13.153 -0.5670  0.4177  0.2668
  753TMC3     H11184   4.448   3.795  13.384 -0.0154  0.2525 -2.7562
  753TMC3    H111185   4.122   3.646  13.143  0.6587  1.3272  0.5101
  753TMC3    H211186   4.279   3.427  13.475 -1.6817  0.3517  0.7266
  753TMC3    C711187   4.101   3.415  13.274 -0.8537 -0.0335 -0.2331
  753TMC3    C811188   4.452   3.590  13.543 -0.8064  0.8569  0.1479
  753TMC3    O111189   4.100   3.312  13.338 -0.0431 -0.0879 -0.2268
  753TMC3    O211190   4.503   3.480  13.534  0.4876  0.8032  0.1400
  754MPD2     C11191   2.711   2.924  13.381  0.2144 -0.0554 -0.4022
  754MPD2    C111192   2.688   2.793  13.403 -0.1733  0.2203  0.4303
  754MPD2    C211193   2.607   2.723  13.313 -0.0480  0.5267  0.2312
  754MPD2    C311194   2.529   2.790  13.226 -0.2578 -0.5337 -0.5870
  754MPD2    C411195   2.528   2.933  13.219 -0.0874  0.0538  0.3171
  754MPD2    C511196   2.628   2.997  13.293  0.0669  0.3142  0.1075
  754MPD2     H11197   2.602   2.615  13.317  0.8098  0.5806  2.4927
  754MPD2    H111198   2.464   2.994  13.157  1.6750  0.5460 -0.9920
  754MPD2    H211199   2.792   2.977  13.430 -1.5292  1.9253  0.3428
  754MPD2    H311200   2.642   3.103  13.275  1.1862  0.6294  2.7959
  754MPD2     N11201   2.419   2.728  13.155  0.0020 -0.8793  0.0252
  754MPD2    H511202   2.355   2.793  13.111  0.3064 -1.1309 -0.7922
  754MPD2    N111203   2.769   2.729  13.497 -0.4804  0.9429 -0.1846
  754MPD2    H711204   2.842   2.783  13.544  1.9537 -1.5840 -1.1264
  755MPD2     C11205   1.673   2.359  13.612  0.3356  0.6110  0.0627
  755MPD2    C111206   1.649   2.478  13.535  0.4165  0.2407  0.0293
  755MPD2    C211207   1.744   2.515  13.438 -0.3460 -0.0532  0.7516
  755MPD2    C311208   1.865   2.440  13.423 -0.0879  0.0272  0.5814
  755MPD2    C411209   1.889   2.327  13.498  0.5048  0.3592  0.7738
  755MPD2    C511210   1.788   2.285  13.582  0.0494 -0.4891 -0.6592
  755MPD2     H11211   1.732   2.605  13.379  1.4445 -1.8925 -2.3891
  755MPD2    H111212   1.972   2.260  13.480  2.3193  2.2041  2.2187
  755MPD2    H211213   1.594   2.321  13.676 -0.9074  1.2382 -1.1004
  755MPD2    H311214   1.805   2.194  13.638 -0.9814 -0.1069  0.2692
  755MPD2     N11215   1.955   2.463  13.317  0.4599  0.2248  0.0059
  755MPD2    H511216   2.033   2.398  13.317 -0.0132 -0.3476  0.5351
  755MPD2    N111217   1.545   2.573  13.558 -0.5691 -0.2589 -0.0617
  755MPD2    H711218   1.547   2.656  13.499  1.9923 -0.4891 -0.2741
  756MPD2     C11219   3.581   3.664  10.342  0.7485 -0.0353  0.6635
  756MPD2    C111220   3.452   3.689  10.356  0.2311  0.4080  0.1861
  756MPD2    C211221   3.390   3.792  10.299  0.0158 -0.1885 -0.2042
  756MPD2    C311222   3.464   3.890  10.227  0.7515  0.0359 -0.0341
  756MPD2    C411223   3.593   3.865  10.208  0.0056 -0.1004 -0.2777
  756MPD2    C511224   3.650   3.753  10.269 -0.4577 -0.4255 -0.3500
  756MPD2     H11225   3.284   3.811  10.310 -0.1328  0.0808 -1.9529
  756MPD2    H111226   3.655   3.923  10.139 -0.7610  1.5298  0.3931
  756MPD2    H211227   3.634   3.585  10.395 -0.3325 -1.7036 -0.7504
  756MPD2    H311228   3.753   3.721  10.262 -0.5873 -0.4076 -2.2888
  756MPD2     N11229   3.398   4.002  10.177 -0.2966  0.4999 -0.1706
  756MPD2    H511230   3.305   4.016  10.213 -0.1943 -1.4539  0.8506
  756MPD2    N111231   3.374   3.605  10.440  0.1582 -0.1027 -0.0138
  756MPD2    H711232   3.273   3.614  10.444  0.1078  0.3369 -2.2972
  757MPD2     C11233   2.561   4.040  10.037 -0.1161 -0.0978 -0.1471
  757MPD2    C111234   2.665   3.960  10.073 -0.9539  0.5386  0.3131
  757MPD2    C211235   2.801   3.994  10.070 -0.1490  0.5942 -0.5203
  757MPD2    C311236   2.822   4.130  10.045  0.9457  0.4488  0.1963
  757MPD2    C411237   2.722   4.214  10.008  0.1921  0.3025  0.1910
  757MPD2    C511238   2.592   4.172   9.998 -0.2324 -0.3059 -0.5263
  757MPD2     H11239   2.877   3.928  10.108  3.3669  1.7506 -5.5095
  757MPD2    H111240   2.739   4.319   9.988  0.4867  0.5286  1.6239
  757MPD2    H211241   2.460   4.002  10.033  0.7718 -2.7481  2.1842
  757MPD2    H311242   2.514   4.243   9.975 -0.0629 -0.2419 -0.9157
  757MPD2     N11243   2.958   4.164  10.039  0.3097  0.8614 -0.4254
  757MPD2    H511244   3.019   4.091  10.074  1.3626  1.0388 -1.8874
  757MPD2    N111245   2.618   3.839  10.115  0.0117 -0.3379 -0.2216
  757MPD2    H711246   2.517   3.831  10.106  0.2245 -3.3251 -0.0906
  758MPD2     C11247   3.358   2.478  15.767  0.1219 -0.3794  0.1307
  758MPD2    C111248   3.337   2.364  15.838  0.6091 -0.4029  0.2229
  758MPD2    C211249   3.236   2.365  15.935 -0.0877 -0.1175  0.4239
  758MPD2    C311250   3.174   2.489  15.975 -0.5325  0.2795 -0.1189
  758MPD2    C411251   3.200   2.602  15.905  0.4618  0.0689 -0.3467
  758MPD2    C511252   3.289   2.598  15.795  0.3054  0.6531  0.3618
  758MPD2     H11253   3.209   2.274  15.987  0.7676 -0.2544  0.6244
  758MPD2    H111254   3.157   2.695  15.939  0.0357  0.7291 -2.6760
  758MPD2    H211255   3.426   2.489  15.682  0.4724  1.0745  0.5937
  758MPD2    H311256   3.308   2.685  15.733  2.1043  1.0012  1.4351
  758MPD2     N11257   3.081   2.508  16.077  0.4695 -0.2940 -0.2762
  758MPD2    H511258   3.036   2.597  16.091  1.1549  0.1098 -0.6424
  758MPD2    N111259   3.423   2.256  15.799  0.2266 -0.3429 -0.9161
  758MPD2    H711260   3.482   2.284  15.721  0.2272 -0.5303 -0.9824
  759MPD2     C11261   1.904   1.631  10.648  0.0132 -0.1821  0.0562
  759MPD2    C111262   1.842   1.588  10.534 -0.8701 -0.7430  0.0340
  759MPD2    C211263   1.801   1.687  10.442 -0.3758  0.6645  0.2086
  759MPD2    C311264   1.811   1.823  10.468  0.2394  0.5249  0.3015
  759MPD2    C411265   1.876   1.861  10.585  0.6633  0.2527 -0.3522
  759MPD2    C511266   1.919   1.762  10.667 -0.5117 -0.1162  0.2665
  759MPD2     H11267   1.743   1.655  10.356 -0.3345 -0.6451  0.6621
  759MPD2    H111268   1.909   1.957  10.623 -0.2917  0.4678 -0.0754
  759MPD2    H211269   1.942   1.574  10.732  2.5552  0.4527 -0.6450
  759MPD2    H311270   1.977   1.786  10.755  0.0280  2.2925 -0.7497
  759MPD2     N11271   1.764   1.914  10.373  0.4747 -0.1527  0.0635
  759MPD2    H511272   1.739   1.877  10.282  2.8984  3.1170 -1.9381
  759MPD2    N111273   1.820   1.449  10.509  0.2663  0.2680 -0.1121
  759MPD2    H711274   1.761   1.429  10.428 -1.0147  1.1856  0.5999
  760MPD2     C11275   1.572   2.975  11.801  0.4489 -0.3676  1.1784
  760MPD2    C111276   1.689   2.991  11.873  0.4398 -0.8465  0.4357
  760MPD2    C211277   1.784   2.894  11.874 -0.0622  0.0840 -0.6789
  760MPD2    C311278   1.769   2.770  11.815 -0.0280 -0.5876  0.3542
  760MPD2    C411279   1.648   2.755  11.742  0.4024 -0.0590  0.4030
  760MPD2    C511280   1.552   2.855  11.746  0.7741 -0.5804 -0.0739
  760MPD2     H11281   1.875   2.908  11.930 -1.2997 -0.6756  1.5315
  760MPD2    H111282   1.626   2.659  11.698 -1.4929  0.4050  0.3643
  760MPD2    H211283   1.489   3.045  11.803  0.8662  0.1489  0.0960
  760MPD2    H311284   1.459   2.830  11.696  0.0386  1.1896  0.3987
  760MPD2     N11285   1.866   2.664  11.828  0.5185  0.6293 -0.0775
  760MPD2    H511286   1.949   2.698  11.875  0.1516  0.5760  0.6123
  760MPD2    N111287   1.722   3.114  11.941 -0.8360  0.0980  0.4789
  760MPD2    H711288   1.819   3.130  11.969 -0.3770  0.7991 -1.4764
  761MPD2     C11289   2.832   2.348  11.856  0.2994 -0.3937  0.3539
  761MPD2    C111290   2.900   2.329  11.739  0.0729  0.6793 -0.0014
  761MPD2    C211291   3.035   2.347  11.737 -0.4931 -0.5238 -0.1283
  761MPD2    C311292   3.088   2.410  11.848 -0.2620  0.0781 -0.4364
  761MPD2    C411293   3.010   2.451  11.953  0.6272  0.1316  0.2282
  761MPD2    C511294   2.883   2.407  11.959 -0.7655 -0.1943  0.0438
  761MPD2     H11295   3.092   2.312  11.652 -0.2680 -1.0942  0.2571
  761MPD2    H111296   3.051   2.527  12.019  0.1173  2.5995 -2.3192
  761MPD2    H211297   2.724   2.340  11.857  0.3262 -0.5709  1.9406
  761MPD2    H311298   2.824   2.432  12.047  0.6352  1.3676  0.5547
  761MPD2     N11299   3.227   2.436  11.864  0.7946 -0.3864  0.0214
  761MPD2    H511300   3.250   2.490  11.947 -0.1065 -0.7941  0.5452
  761MPD2    N111301   2.828   2.275  11.632  0.0071 -0.3536  0.1989
  761MPD2    H711302   2.735   2.242  11.656  0.1980  0.4592  2.0085
  762MPD2     C11303   2.924   2.553  10.879 -0.2053 -0.3789 -0.3918
  762MPD2    C111304   2.947   2.421  10.923 -0.4473  0.3856 -0.1781
  762MPD2    C211305   3.054   2.348  10.868  0.1940 -0.1742  0.1242
  762MPD2    C311306   3.143   2.414  10.780  0.4518  0.7537 -0.5632
  762MPD2    C411307   3.115   2.538  10.734 -0.0621  0.4257  0.2014
  762MPD2    C511308   3.008   2.601  10.779  0.2463 -0.2798  0.6555
  762MPD2     H11309   3.076   2.252  10.913  1.1578  0.0185  0.0789
  762MPD2    H111310   3.176   2.578  10.654  0.1790 -0.0975  0.1263
  762MPD2    H211311   2.846   2.609  10.928 -0.8874 -2.7415  1.2443
  762MPD2    H311312   2.989   2.703  10.746 -1.7764 -0.7233  0.4815
  762MPD2     N11313   3.257   2.339  10.743  0.4022 -0.3233  0.9999
  762MPD2    H511314   3.255   2.240  10.767  0.8492 -1.4688 -3.6054
  762MPD2    N111315   2.857   2.370  11.021 -0.2339  0.3891  0.1163
  762MPD2    H711316   2.819   2.440  11.083  1.9078  1.1671  0.5378
  763MPD2     C11317   0.606   2.487  16.070 -0.0835 -0.4454  0.1529
  763MPD2    C111318   0.498   2.502  15.976  0.2067 -0.5846  1.0764
  763MPD2    C211319   0.425   2.613  15.998 -0.2067  0.6462  0.5689
  763MPD2    C311320   0.455   2.705  16.100  0.2623 -0.6244 -0.5288
  763MPD2    C411321   0.558   2.687  16.187 -0.0998 -0.3451  0.4156
  763MPD2    C511322   0.626   2.569  16.174 -0.5315 -0.0865  0.4680
  763MPD2     H11323   0.344   2.628  15.927  0.0631  0.3134  0.1884
  763MPD2    H111324   0.588   2.764  16.257 -1.6075  0.9992 -0.4432
  763MPD2    H211325   0.662   2.394  16.071  0.4940 -0.0908  2.1166
  763MPD2    H311326   0.712   2.549  16.237  2.3816  1.2873 -3.0724
  763MPD2     N11327   0.393   2.831  16.108  0.2499  0.0727  0.4073
  763MPD2    H511328   0.415   2.879  16.194  0.9697  1.6637 -0.6617
  763MPD2    N111329   0.477   2.411  15.876  0.2628 -0.4666  0.3241
  763MPD2    H711330   0.405   2.435  15.809  1.2099 -1.1995 -0.9425
  764MPD2     C11331   3.380   4.042  17.608 -0.6654 -0.1152  0.1343
  764MPD2    C111332   3.270   3.957  17.587 -0.3049 -0.8173  0.4523
  764MPD2    C211333   3.230   3.879  17.692  0.0655 -0.0672  0.1917
  764MPD2    C311334   3.272   3.898   0.075  0.2477  0.0988 -0.4512
  764MPD2    C411335   3.385   3.980   0.098  0.1692  0.3086 -0.0471
  764MPD2    C511336   3.426   4.051  17.742 -0.1886 -0.5878  0.5948
  764MPD2     H11337   3.151   3.808  17.674  0.2679 -0.3359  0.3544
  764MPD2    H111338   3.420   4.000   0.198  0.1597 -0.5308  0.1236
  764MPD2    H211339   3.417   4.110  17.532 -1.3625  0.8312  0.6509
  764MPD2    H311340   3.507   4.123   0.002 -0.3488 -0.7007  3.3229
  764MPD2     N11341   3.198   3.835   0.178  0.0810  0.0411  0.3559
  764MPD2    H511342   3.107   3.795   0.156  0.3876 -0.2232 -0.4293
  764MPD2    N111343   3.190   3.940  17.472  0.1939 -0.0194 -0.2469
  764MPD2    H711344   3.116   3.871  17.479  1.5840 -1.6843 -1.8599
  765MPD2     C11345   3.085   1.931  15.496  0.4555 -0.0578 -0.6814
  765MPD2    C111346   3.101   1.972  15.624  0.2255 -0.0736 -0.4513
  765MPD2    C211347   3.182   1.894  15.707  0.7233 -0.3514  0.3349
  765MPD2    C311348   3.226   1.773  15.654  0.2305  0.0109 -0.9415
  765MPD2    C411349   3.208   1.740  15.517  0.5849 -0.3156 -0.1658
  765MPD2    C511350   3.129   1.815  15.443 -0.1525 -1.2070 -0.5287
  765MPD2     H11351   3.193   1.913  15.813 -0.3392  0.0859  0.3606
  765MPD2    H111352   3.247   1.645  15.482  0.8851 -0.1427 -0.3025
  765MPD2    H211353   3.022   1.986  15.427 -0.4999  1.1503  1.1758
  765MPD2    H311354   3.101   1.781  15.344  0.2791  0.6621 -1.2982
  765MPD2     N11355   3.301   1.688  15.741  0.7724  0.0308  0.2706
  765MPD2    H511356   3.331   1.735  15.826 -0.7556 -0.8604  1.3035
  765MPD2    N111357   3.032   2.086  15.675 -0.1916  0.4391  0.2763
  765MPD2    H711358   2.986   2.146  15.607  1.0347 -0.8544 -1.6974
  766MPD2     C11359   2.400   2.107  15.585  0.5429  0.2598 -0.9435
  766MPD2    C111360   2.527   2.074  15.600 -0.5037  0.0230  0.4056
  766MPD2    C211361   2.593   2.003  15.507 -0.0257  0.2805  0.6515
  766MPD2    C311362   2.524   1.962  15.395 -0.2996 -0.4681 -0.6511
  766MPD2    C411363   2.391   1.991  15.375  0.6449  0.4917 -0.0880
  766MPD2    C511364   2.327   2.060  15.477  0.8351 -0.0489 -0.5806
  766MPD2     H11365   2.697   1.977  15.521 -0.3046 -0.7992  0.7185
  766MPD2    H111366   2.344   1.941  15.291 -0.8309 -1.0619  1.6751
  766MPD2    H211367   2.347   2.154  15.667  1.4252  0.5989 -0.5644
  766MPD2    H311368   2.225   2.092  15.462 -0.2896 -3.5142 -0.2650
  766MPD2     N11369   2.590   1.908  15.287 -0.1299 -0.0039 -0.4829
  766MPD2    H511370   2.539   1.914  15.200 -1.6805  1.4530  0.5192
  766MPD2    N111371   2.607   2.119  15.710 -0.1458 -0.4455 -0.0113
  766MPD2    H711372   2.697   2.073  15.717  0.3248  0.3006 -1.0973
  767MPD2     C11373   2.166   2.241  15.162 -0.1861  0.9519  0.3267
  767MPD2    C111374   2.293   2.217  15.121 -0.7500 -0.3019 -0.1259
  767MPD2    C211375   2.319   2.116  15.034  0.4600 -0.6636  0.3522
  767MPD2    C311376   2.215   2.041  14.983  0.1594  0.0364  0.4948
  767MPD2    C411377   2.095   2.052  15.041 -0.0585 -0.3962 -0.0211
  767MPD2    C511378   2.070   2.151  15.129 -0.5414 -0.3200  0.6744
  767MPD2     H11379   2.416   2.105  14.988 -0.6974 -3.1257 -1.5591
  767MPD2    H111380   2.016   1.986  15.010 -0.2655 -0.6788  1.1017
  767MPD2    H211381   2.138   2.315  15.236  1.7924  1.6374  0.3926
  767MPD2    H311382   1.972   2.176  15.168 -1.2397 -0.7214 -0.8566
  767MPD2     N11383   2.242   1.965  14.866 -0.4829  0.4500 -0.1430
  767MPD2    H511384   2.335   1.970  14.824  0.5171  0.4846  2.0637
  767MPD2    N111385   2.392   2.300  15.173 -0.0870 -0.3921  0.1662
  767MPD2    H711386   2.365   2.395  15.196 -3.0230 -0.8141 -1.5682
  768MPD2     C11387   2.790   0.410  10.745 -0.4746 -0.1762  0.3479
  768MPD2    C111388   2.816   0.536  10.808  0.3876 -0.4020 -0.9832
  768MPD2    C211389   2.917   0.550  10.893  0.0623 -0.1992 -0.4690
  768MPD2    C311390   2.984   0.436  10.936 -0.0066  0.1654 -0.1758
  768MPD2    C411391   2.953   0.315  10.881  0.1263  0.2035  0.6658
  768MPD2    C511392   2.858   0.303  10.788  1.0282 -0.7471  0.5962
  768MPD2     H11393   2.944   0.649  10.928 -0.9088 -0.7231  1.7435
  768MPD2    H111394   2.996   0.220  10.912 -0.5211 -0.1398  0.5207
  768MPD2    H211395   2.705   0.401  10.677 -0.8164  0.9115  0.6263
  768MPD2    H311396   2.826   0.205  10.755  0.5248 -0.3206 -0.1909
  768MPD2     N11397   3.082   0.455  11.037  0.1114  0.0940  0.7618
  768MPD2    H511398   3.103   0.553  11.051  1.8797 -0.4729  2.0653
  768MPD2    N111399   2.737   0.646  10.789 -0.1017 -0.0608  0.6396
  768MPD2    H711400   2.764   0.733  10.835  2.5611 -0.2249 -0.6708
  769MPD2     C11401   4.171   3.613  14.547 -0.7323  0.9299  0.4188
  769MPD2    C111402   4.108   3.553  14.653  0.7022  0.3275  0.3371
  769MPD2    C211403   4.181   3.502  14.760 -0.4611 -1.0573 -0.2170
  769MPD2    C311404   4.313   3.542  14.779  0.4959 -0.1619  0.5654
  769MPD2    C411405   4.377   3.616  14.680 -0.7682 -0.3267 -0.7139
  769MPD2    C511406   4.301   3.645  14.565 -0.4207 -0.1259  0.1338
  769MPD2     H11407   4.131   3.448  14.839 -1.7125 -0.6935 -0.7741
  769MPD2    H111408   4.481   3.641  14.697 -0.9858  1.0710 -1.4148
  769MPD2    H211409   4.132   3.649  14.453  0.7656 -1.5315 -1.1434
  769MPD2    H311410   4.350   3.709  14.493  2.5608  0.3728  2.6361
  769MPD2     N11411   4.370   3.509  14.906  0.3351 -0.2248  0.3973
  769MPD2    H511412   4.315   3.445  14.962 -0.1213  0.5522  0.8408
  769MPD2    N111413   3.975   3.519  14.632  0.1317  0.8693 -0.2614
  769MPD2    H711414   3.928   3.519  14.542  0.3805  1.0674 -0.3939
  770MPD2     C11415   3.524   2.775  15.165  0.4970  0.0513  0.1618
  770MPD2    C111416   3.575   2.759  15.041  0.0079 -0.6197 -0.5100
  770MPD2    C211417   3.577   2.868  14.953 -0.4322 -0.1895 -0.9305
  770MPD2    C311418   3.525   2.990  14.995 -0.6602  0.3157  0.2459
  770MPD2    C411419   3.474   3.005  15.124  0.4053 -0.4224  0.5998
  770MPD2    C511420   3.479   2.896  15.204 -0.0548  0.6497 -0.7938
  770MPD2     H11421   3.610   2.851  14.851  1.4055  1.8724 -0.6875
  770MPD2    H111422   3.420   3.090  15.166 -1.0014 -0.3548 -1.3239
  770MPD2    H211423   3.520   2.690  15.232  0.2734 -0.4275 -0.4595
  770MPD2    H311424   3.432   2.898  15.302  0.8656 -0.4447 -0.3249
  770MPD2     N11425   3.537   3.094  14.895 -0.3123 -0.4376 -0.4993
  770MPD2    H511426   3.571   3.069  14.802  2.5820  1.4137  0.0420
  770MPD2    N111427   3.623   2.627  15.013  0.2293  0.2630 -0.7763
  770MPD2    H711428   3.610   2.549  15.076 -0.4162  0.2342 -0.9459
  771MPD2     C11429   0.295   1.239  13.793  0.2795 -1.1139 -0.6357
  771MPD2    C111430   0.215   1.350  13.819 -0.1877 -0.6011 -0.1699
  771MPD2    C211431   0.088   1.354  13.764  0.0487  0.0153  0.0797
  771MPD2    C311432   0.043   1.254  13.684  0.5698 -0.2764 -0.5544
  771MPD2    C411433   0.116   1.145  13.657  0.7687  0.0214 -0.4197
  771MPD2    C511434   0.235   1.135  13.728 -0.3137  0.7442 -0.0067
  771MPD2     H11435   0.041   1.449  13.785 -0.8451 -0.5415  0.6392
  771MPD2    H111436   0.070   1.066  13.599  1.3914 -0.3695 -0.3786
  771MPD2    H211437   0.399   1.228  13.823 -0.2129  0.2076  1.5147
  771MPD2    H311438   0.299   1.050  13.712 -0.6583  0.6886 -1.1069
  771MPD2     N11439   4.662   1.284  13.605 -0.8622 -0.0804  0.0352
  771MPD2    H511440   4.608   1.368  13.622  0.6018  0.6947  0.8574
  771MPD2    N111441   0.263   1.474  13.872 -0.0430  0.3448 -0.3607
  771MPD2    H711442   0.193   1.545  13.891 -1.2007 -0.6801 -0.7869
  772MPD2     C11443   0.065   2.115  13.628  0.0049 -0.4402 -0.1748
  772MPD2    C111444   0.031   2.004  13.708  0.3956 -0.3118  0.2269
  772MPD2    C211445   4.632   1.969  13.715 -0.4345 -0.0227 -0.9023
  772MPD2    C311446   4.539   2.035  13.636 -0.0167  0.5104  0.5781
  772MPD2    C411447   4.582   2.154  13.568 -0.2218  0.5554  0.7191
  772MPD2    C511448   4.713   2.193  13.565 -0.2595  0.2739 -0.5551
  772MPD2     H11449   4.604   1.883  13.774  0.0141 -0.2773 -1.0622
  772MPD2    H111450   4.514   2.210  13.505 -0.7488 -1.6912 -0.7127
  772MPD2    H211451   0.170   2.143  13.625 -0.3877  0.7972 -2.5972
  772MPD2    H311452   4.733   2.287  13.514 -0.2734  0.4230 -0.2838
  772MPD2     N11453   4.402   1.989  13.641  0.1949  0.1616  0.1851
  772MPD2    H511454   4.338   2.051  13.593  0.1101 -1.3921 -1.6938
  772MPD2    N111455   0.128   1.936  13.782 -0.0630  0.0674 -0.3237
  772MPD2    H711456   0.089   1.861  13.839 -0.0959 -0.9966 -1.7369
  773MPD2     C11457   4.215   2.214   0.257 -0.7257  0.7331 -0.2212
  773MPD2    C111458   4.088   2.171   0.239  0.0070 -0.1049  0.3256
  773MPD2    C211459   4.064   2.035   0.261  0.6799 -0.3344  0.9879
  773MPD2    C311460   4.161   1.950   0.309  0.7549  0.0782 -0.0993
  773MPD2    C411461   4.286   1.999   0.331 -0.4028  0.2249 -0.6899
  773MPD2    C511462   4.314   2.133   0.299  0.3199 -0.7399  0.1794
  773MPD2     H11463   3.962   1.999   0.266  0.2059  0.8393 -0.2584
  773MPD2    H111464   4.369   1.944   0.375 -0.9690  1.7766  2.2894
  773MPD2    H211465   4.251   2.316   0.248  1.2515  0.0702  0.2056
  773MPD2    H311466   4.416   2.168   0.315 -0.4952  0.7594  2.0467
  773MPD2     N11467   4.134   1.820   0.344  0.1538 -0.1321 -0.3264
  773MPD2    H511468   4.036   1.793   0.347  0.2657 -0.7240 -2.1682
  773MPD2    N111469   3.978   2.256   0.214 -0.1819 -0.1881 -0.0824
  773MPD2    H711470   3.888   2.212   0.204 -0.2040 -0.5658  1.7390
  774MPD2     C11471   2.608   1.725  13.562  0.9173  0.0532  0.9227
  774MPD2    C111472   2.692   1.788  13.656 -0.1673 -0.4608  0.6322
  774MPD2    C211473   2.693   1.924  13.666 -0.0914 -0.5116  0.1383
  774MPD2    C311474   2.611   1.996  13.583  0.3396  0.5992 -0.5246
  774MPD2    C411475   2.533   1.933  13.483 -1.0253  0.4659  0.7588
  774MPD2    C511476   2.535   1.795  13.475 -0.1847  0.4360  0.3573
  774MPD2     H11477   2.752   1.980  13.738 -0.0566  0.3250 -0.5466
  774MPD2    H111478   2.475   1.998  13.418 -2.7293 -0.3564  1.4616
  774MPD2    H211479   2.596   1.617  13.563 -2.4913  0.4243  1.3263
  774MPD2    H311480   2.472   1.740  13.406  0.8920  1.6904 -1.6388
  774MPD2     N11481   2.596   2.137  13.605 -0.1237 -0.5312  0.6778
  774MPD2    H511482   2.667   2.182  13.662 -0.9963 -1.1859  2.2850
  774MPD2    N111483   2.779   1.704  13.729 -0.0830  0.0631 -0.0409
  774MPD2    H711484   2.770   1.604  13.712 -0.2366  0.0715 -0.0122
  775MPD2     C11485   4.689   3.155  15.521 -0.0230 -0.1540 -0.2136
  775MPD2    C111486   4.627   3.263  15.578  0.0087  0.7051  0.0178
  775MPD2    C211487   4.695   3.387  15.575  0.5522  0.4933  0.7477
  775MPD2    C311488   0.080   3.408  15.507  0.6876 -0.3710 -0.7692
  775MPD2    C411489   0.139   3.298  15.456 -0.5462 -0.1541  0.7788
  775MPD2    C511490   0.071   3.182  15.464  0.4153 -0.0685 -0.1900
  775MPD2     H11491   4.659   3.473  15.631 -1.2391 -0.3532  0.8954
  775MPD2    H111492   0.242   3.308  15.426 -1.0224  0.7181 -0.5470
  775MPD2    H211493   4.647   3.056  15.530 -0.8260  0.3226  1.3575
  775MPD2    H311494   0.109   3.090  15.421  0.0310  0.3559 -1.4358
  775MPD2     N11495   0.160   3.522  15.522 -0.1412 -0.1087  0.5246
  775MPD2    H511496   0.249   3.517  15.474 -0.7494 -0.2802 -0.5864
  775MPD2    N111497   4.506   3.244  15.648 -0.8460 -0.1523 -0.0220
  775MPD2    H711498   4.469   3.150  15.662 -1.5306  0.2756  0.9755
  776MPD2     C11499   3.130   3.906  12.154 -0.2542  0.0566 -0.4012
  776MPD2    C111500   3.019   3.841  12.092  0.1310 -0.0707  0.0577
  776MPD2    C211501   2.931   3.915  12.013  0.7464 -0.3293  0.6477
  776MPD2    C311502   2.964   4.048  11.988 -0.6682 -0.5457 -0.1189
  776MPD2    C411503   3.056   4.117  12.055  0.6746  0.1180  0.8009
  776MPD2    C511504   3.143   4.043  12.134 -0.0959  0.1122 -0.5238
  776MPD2     H11505   2.853   3.865  11.955  0.3561  0.4688  0.4899
  776MPD2    H111506   3.071   4.222  12.034 -0.0872 -0.0791 -0.7140
  776MPD2    H211507   3.211   3.850  12.200 -1.6131 -0.4898  1.3338
  776MPD2    H311508   3.233   4.097  12.159  0.2860 -0.7251 -0.0727
  776MPD2     N11509   2.898   4.115  11.878  0.1025 -0.0108 -0.6149
  776MPD2    H511510   2.942   4.204  11.856  4.0309 -1.3909  1.5543
  776MPD2    N111511   3.013   3.702  12.108  0.6175 -0.5679 -0.8379
  776MPD2    H711512   3.089   3.660  12.160 -0.6302 -0.2237  1.3098
  777MPD2     C11513   3.444   0.950   0.459  0.7582  0.5253 -0.3636
  777MPD2    C111514   3.340   0.870   0.500 -0.7269  0.2448 -0.2680
  777MPD2    C211515   3.278   0.787   0.415 -0.6275 -0.2855 -0.6343
  777MPD2    C311516   3.298   0.789   0.276  0.1297 -0.0334 -0.6206
  777MPD2    C411517   3.387   0.888   0.232  0.1987  0.1512  0.2642
  777MPD2    C511518   3.456   0.964   0.326  0.1383 -0.0141  0.9945
  777MPD2     H11519   3.194   0.727   0.450 -0.1161  0.2306  1.4955
  777MPD2    H111520   3.410   0.900   0.127  1.5122 -2.5601  0.2656
  777MPD2    H211521   3.496   1.010   0.533 -1.1919  0.3643  1.1328
  777MPD2    H311522   3.519   1.042   0.287 -0.5393  1.0451  2.0015
  777MPD2     N11523   3.236   0.690   0.188  0.5787  0.5052 -0.3995
  777MPD2    H511524   3.184   0.620   0.241 -0.3442  0.8400 -0.8660
  777MPD2    N111525   3.324   0.862   0.646  0.3346 -0.3541 -0.6658
  777MPD2    H711526   3.394   0.918   0.694  0.1553  0.1255 -0.9583
  778MPD2     C11527   4.581   1.390  15.129  0.3305 -0.1840  0.3140
  778MPD2    C111528   4.619   1.272  15.082  0.2672 -0.0515 -0.4210
  778MPD2    C211529   4.675   1.273  14.962  0.2627 -0.4536 -0.1946
  778MPD2    C311530   4.702   1.387  14.880 -0.4508 -0.2807  0.3930
  778MPD2    C411531   4.664   1.511  14.932 -0.6279 -0.6417 -0.1785
  778MPD2    C511532   4.606   1.509  15.055  0.7202 -0.6220 -0.3211
  778MPD2     H11533   4.702   1.180  14.913  0.6178  0.3252 -1.4820
  778MPD2    H111534   4.674   1.611  14.890 -2.9239 -0.3548 -0.0629
  778MPD2    H211535   4.530   1.402  15.224 -0.9380 -1.7428 -0.1555
  778MPD2    H311536   4.579   1.599  15.109 -3.6623 -2.1897  0.1037
  778MPD2     N11537   0.028   1.369  14.759  0.1687  0.2631  0.4348
  778MPD2    H511538   0.045   1.273  14.729  1.9611  1.0550 -1.0168
  778MPD2    N111539   4.600   1.148  15.140 -0.8844 -0.1844 -0.5167
  778MPD2    H711540   4.619   1.063  15.087 -0.1754  0.7091 -1.6848
  779MPD2     C11541   4.373   0.052  13.870 -0.3923  0.1950 -0.0945
  779MPD2    C111542   4.503   0.058  13.907 -0.1363 -0.1679 -0.1711
  779MPD2    C211543   4.565   0.181  13.909 -0.2285  0.6268  0.6241
  779MPD2    C311544   4.499   0.298  13.874 -0.1738 -0.2323  0.8375
  779MPD2    C411545   4.364   0.283  13.833 -0.3327  0.7120  0.6847
  779MPD2    C511546   4.309   0.161  13.828  0.6822 -0.7558  0.0862
  779MPD2     H11547   4.660   0.192  13.961  0.9844  0.9536 -1.6550
  779MPD2    H111548   4.303   0.371  13.820 -0.0517  1.0922  1.9731
  779MPD2    H211549   4.316   4.697  13.858  1.4751 -1.0489  0.4754
  779MPD2    H311550   4.204   0.157  13.804  0.7367 -1.5593 -0.0162
  779MPD2     N11551   4.567   0.424  13.866 -0.1267 -0.2699  0.0983
  779MPD2    H511552   4.667   0.423  13.887 -0.5697 -0.5519  2.1954
  779MPD2    N111553   4.568   4.680  13.958  0.0141  0.4491 -0.3110
  779MPD2    H711554   4.667   4.694  13.976 -0.3637  0.9257  1.4639
  780MPD2     C11555   4.394   4.420   0.557  0.5342 -0.7617 -0.4542
  780MPD2    C111556   4.284   4.494   0.600 -0.2155 -0.1223 -0.3820
  780MPD2    C211557   4.188   4.533   0.502 -0.4747  0.7430  0.4364
  780MPD2    C311558   4.206   4.515   0.365 -0.6221  0.1288 -0.0320
  780MPD2    C411559   4.329   4.460   0.332 -0.2232  0.3103 -1.1111
  780MPD2    C511560   4.413   4.408   0.423  0.0392 -0.7536  0.0590
  780MPD2     H11561   4.099   4.585   0.535 -0.9047  1.5640 -2.0334
  780MPD2    H111562   4.356   4.460   0.227  0.3755  0.5238 -0.9528
  780MPD2    H211563   4.466   4.375   0.624  0.0008 -1.3501 -0.2792
  780MPD2    H311564   4.500   4.351   0.392  0.4491 -0.7196  1.1164
  780MPD2     N11565   4.115   4.569   0.264  0.0083  0.0306 -0.0734
  780MPD2    H511566   4.137   4.543   0.168  3.3095  0.6272  0.4930
  780MPD2    N111567   4.272   4.531   0.734  0.1236  0.5937  0.5015
  780MPD2    H711568   4.348   4.489   0.787 -0.8689 -0.8977  0.7213
  781MPD2     C11569   0.665   2.150  12.402 -0.7305 -0.1822 -0.2103
  781MPD2    C111570   0.785   2.094  12.412 -0.1309 -0.0970  0.3985
  781MPD2    C211571   0.896   2.147  12.347  0.2800 -0.2261  0.5536
  781MPD2    C311572   0.884   2.245  12.249  0.2109 -0.5520  0.5519
  781MPD2    C411573   0.760   2.296  12.239 -0.0276  0.4590 -0.5293
  781MPD2    C511574   0.651   2.255  12.315  0.2033 -0.2934 -0.6235
  781MPD2     H11575   0.991   2.103  12.375  0.5682 -0.1107 -0.2349
  781MPD2    H111576   0.753   2.382  12.173  0.0781  0.9887  0.1463
  781MPD2    H211577   0.572   2.112  12.443 -1.4964  1.5265 -0.3614
  781MPD2    H311578   0.556   2.303  12.299  0.4247  0.4629  0.3511
  781MPD2     N11579   0.988   2.292  12.164 -0.1182 -0.0068  0.5378
  781MPD2    H511580   0.972   2.376  12.109 -0.2963  0.3344  1.1137
  781MPD2    N111581   0.818   1.978  12.494  0.3810  0.2757  0.2805
  781MPD2    H711582   0.916   1.953  12.498  0.8011  1.5217 -1.9757
  782MPD2     C11583   3.431   2.982  10.934 -0.1834  0.0333  0.7722
  782MPD2    C111584   3.562   2.997  10.888 -0.2017  0.4409  0.1380
  782MPD2    C211585   3.651   3.080  10.953 -0.0174 -0.8618 -0.5786
  782MPD2    C311586   3.620   3.136  11.076 -0.5258  0.2190  0.4403
  782MPD2    C411587   3.494   3.108  11.127  0.1898 -1.1307  0.0830
  782MPD2    C511588   3.396   3.046  11.050  0.0025  0.3385 -0.1228
  782MPD2     H11589   3.751   3.093  10.913 -0.4017  1.0622 -0.8828
  782MPD2    H111590   3.461   3.150  11.222 -1.0044 -0.1522 -0.7695
  782MPD2    H211591   3.353   2.926  10.884 -0.6421  0.7540  0.6763
  782MPD2    H311592   3.295   3.044  11.089  0.5420 -0.7588  1.2100
  782MPD2     N11593   3.725   3.192  11.147  0.1223  0.1342  0.3727
  782MPD2    H511594   3.812   3.209  11.099  0.7096 -0.3651  1.2578
  782MPD2    N111595   3.604   2.904  10.790  0.2028 -0.5682 -0.4455
  782MPD2    H711596   3.532   2.835  10.768 -1.6739  0.5866  2.0527
  783MPD2     C11597   3.549   2.244  11.273 -0.0992 -0.3744 -0.0811
  783MPD2    C111598   3.594   2.370  11.308  0.7503  0.5934  0.2775
  783MPD2    C211599   3.661   2.440  11.216  0.4279 -0.7020 -0.7925
  783MPD2    C311600   3.678   2.386  11.091 -0.2560  1.0408  0.6377
  783MPD2    C411601   3.634   2.254  11.060 -0.0276 -0.2187 -0.2484
  783MPD2    C511602   3.568   2.188  11.155 -0.2274  0.2359  0.3167
  783MPD2     H11603   3.681   2.547  11.223  1.0505 -0.8035 -1.0000
  783MPD2    H111604   3.635   2.210  10.961  0.1782 -0.8935  0.0528
  783MPD2    H211605   3.496   2.189  11.350  2.1414  0.4051  2.0335
  783MPD2    H311606   3.520   2.094  11.132 -1.6283  1.1061 -0.2750
  783MPD2     N11607   3.755   2.466  10.997  0.0677 -0.2484  0.6089
  783MPD2    H511608   3.776   2.559  11.030  1.7453 -0.0921 -0.9063
  783MPD2    N111609   3.574   2.412  11.442  0.2127 -0.0588 -0.4392
  783MPD2    H711610   3.518   2.354  11.504 -0.9232  0.4624 -0.9836
  784MPD2     C11611   0.938   3.010   0.570  0.3481  0.6346 -0.0384
  784MPD2    C111612   0.948   3.065   0.698  0.6999 -0.5120 -1.0108
  784MPD2    C211613   0.841   3.138   0.741  0.4866 -0.2684 -0.2945
  784MPD2    C311614   0.736   3.171   0.656 -0.0989  0.2429 -0.5904
  784MPD2    C411615   0.733   3.136   0.524 -0.1013 -0.4275  0.0141
  784MPD2    C511616   0.836   3.050   0.478 -0.3940  0.0718  0.0289
  784MPD2     H11617   0.839   3.166   0.845 -2.0842 -1.5998  0.0089
  784MPD2    H111618   0.656   3.163   0.453  1.5918  2.1014 -0.8841
  784MPD2    H211619   1.018   2.962   0.515  0.7449  2.6808 -1.2639
  784MPD2    H311620   0.842   3.007   0.378  1.5218 -0.6296  0.4473
  784MPD2     N11621   0.638   3.249   0.720  0.3131  0.2163  0.4746
  784MPD2    H511622   0.651   3.264   0.820 -1.0450 -0.4018  0.7483
  784MPD2    N111623   1.051   3.032   0.786 -0.2349 -0.1646 -0.0867
  784MPD2    H711624   1.048   3.066   0.882  0.0818 -3.1419  0.9625
  785MPD2     C11625   1.880   1.735  11.191 -0.3712 -0.0476  0.2082
  785MPD2    C111626   1.882   1.860  11.128  0.6321  0.4553  0.4387
  785MPD2    C211627   1.805   1.869  11.016 -0.8325  0.3786 -0.5189
  785MPD2    C311628   1.733   1.763  10.962  0.0704 -0.4760  0.2972
  785MPD2    C411629   1.742   1.639  11.020 -0.0825  0.3874  0.7389
  785MPD2    C511630   1.816   1.627  11.133 -0.1884  0.3951 -0.1652
  785MPD2     H11631   1.800   1.965  10.967  1.1297  0.8334  0.1752
  785MPD2    H111632   1.711   1.544  10.980  0.1929 -0.6372  2.9432
  785MPD2    H211633   1.934   1.726  11.285 -2.9299 -3.0714  1.3688
  785MPD2    H311634   1.815   1.530  11.181 -0.6555  1.3109  1.7089
  785MPD2     N11635   1.660   1.785  10.843  0.2848 -0.8973 -0.3707
  785MPD2    H511636   1.655   1.869  10.787 -2.3695  0.2937  1.6229
  785MPD2    N111637   1.936   1.976  11.197 -0.0332  0.2674 -0.2815
  785MPD2    H711638   1.959   1.964  11.295  1.7198 -0.1640 -0.7482
  786MPD2     C11639   0.397   4.109  14.827  0.4572 -0.2628 -0.4949
  786MPD2    C111640   0.511   4.049  14.779 -0.4766 -0.2763 -0.4906
  786MPD2    C211641   0.612   4.020  14.869  0.0840  0.0620  0.0464
  786MPD2    C311642   0.607   4.051  15.002 -0.0600 -0.3328  0.2254
  786MPD2    C411643   0.499   4.128  15.050 -0.5596  0.4461  0.3983
  786MPD2    C511644   0.396   4.147  14.963 -0.0851  0.1145 -0.2793
  786MPD2     H11645   0.702   3.974  14.828 -0.1137  0.3869 -0.7476
  786MPD2    H111646   0.504   4.171  15.149 -0.3784 -0.8950  0.9782
  786MPD2    H211647   0.315   4.141  14.765  0.1679 -3.1198 -1.5833
  786MPD2    H311648   0.304   4.194  14.995  0.6582  2.5919 -1.7694
  786MPD2     N11649   0.710   4.033  15.088  0.2225 -0.3710 -1.0716
  786MPD2    H511650   0.701   4.081  15.177 -2.7884  0.8248 -2.0231
  786MPD2    N111651   0.526   4.012  14.644  0.0009  0.0180 -0.3527
  786MPD2    H711652   0.616   3.971  14.621 -0.2919 -0.9735  0.2609
  787MPD2     C11653   0.813   3.459  14.573 -0.3265  0.6241  0.0395
  787MPD2    C111654   0.825   3.532  14.456  0.1577  0.2188 -0.4569
  787MPD2    C211655   0.940   3.519  14.369  0.0134 -0.0624  0.0179
  787MPD2    C311656   1.043   3.435  14.412  1.1354 -0.1775 -0.0488
  787MPD2    C411657   1.032   3.373  14.533 -0.3142  0.2122  0.9347
  787MPD2    C511658   0.918   3.383  14.610 -0.0171 -0.1018  0.3069
  787MPD2     H11659   0.948   3.571  14.274 -0.7564  2.0236  1.0794
  787MPD2    H111660   1.108   3.304  14.569  0.9260  1.4589  0.6701
  787MPD2    H211661   0.729   3.465  14.641  0.5560 -2.5601  1.4332
  787MPD2    H311662   0.914   3.323  14.700 -0.0002  2.6295  2.1388
  787MPD2     N11663   1.154   3.411  14.320 -0.0940 -0.1281  0.5755
  787MPD2    H511664   1.148   3.458  14.231 -0.6203 -0.8251  0.2500
  787MPD2    N111665   0.712   3.612  14.421  0.0832 -0.2269  0.7307
  787MPD2    H711666   0.634   3.612  14.486 -1.4358 -0.2854 -1.0927
  788MPD2     C11667   2.600   2.412   0.877 -0.4332 -0.3041 -0.3653
  788MPD2    C111668   2.525   2.374   0.767 -0.2614  0.5045  0.0125
  788MPD2    C211669   2.491   2.471   0.675 -0.4636 -0.2161  0.1122
  788MPD2    C311670   2.511   2.604   0.715  0.5271 -0.3355 -0.8600
  788MPD2    C411671   2.598   2.636   0.816 -0.0221 -0.2641  0.1958
  788MPD2    C511672   2.647   2.536   0.896 -0.0874  0.1503 -0.0853
  788MPD2     H11673   2.437   2.457   0.582 -0.9193  0.3241  0.2896
  788MPD2    H111674   2.632   2.737   0.838  1.6188 -0.6174 -0.7297
  788MPD2    H211675   2.642   2.339   0.945 -1.8140 -1.3578 -0.6555
  788MPD2    H311676   2.704   2.554   0.987 -0.4310 -1.3619  0.4344
  788MPD2     N11677   2.462   2.716   0.636  0.4182  0.2975  0.3385
  788MPD2    H511678   2.488   2.806   0.674 -0.2008  0.1688  1.0701
  788MPD2    N111679   2.491   2.237   0.737  0.7277  0.0468 -0.3398
  788MPD2    H711680   2.443   2.220   0.649 -0.4352 -0.2589  0.3644
  789MPD2     C11681   2.865   1.935  16.497  0.1714 -0.3708  0.1083
  789MPD2    C111682   2.750   1.928  16.423  0.2895  0.1812  0.1806
  789MPD2    C211683   2.653   2.022  16.449 -0.3892  0.4367  0.5180
  789MPD2    C311684   2.661   2.108  16.550  0.1851  0.9316  0.5783
  789MPD2    C411685   2.778   2.117  16.625  0.4640 -0.2151 -0.3741
  789MPD2    C511686   2.880   2.036  16.594  0.4221  0.4444 -0.4920
  789MPD2     H11687   2.572   2.037  16.378  0.4018 -0.9031 -0.6543
  789MPD2    H111688   2.790   2.177  16.714 -1.7970 -0.6910  0.2632
  789MPD2    H211689   2.950   1.872  16.474 -0.1198 -0.9151  0.5088
  789MPD2    H311690   2.972   2.041  16.651 -0.2142 -0.3012  0.5879
  789MPD2     N11691   2.546   2.183  16.590 -0.4573 -0.3681  0.3580
  789MPD2    H511692   2.462   2.177  16.532 -2.3465 -1.8845  3.2789
  789MPD2    N111693   2.734   1.840  16.312 -0.6617 -0.0739  0.4219
  789MPD2    H711694   2.652   1.848  16.253 -1.4793 -0.5057  1.5112
  790MPD2     C11695   3.685   3.829  13.703 -0.1798 -0.0998  0.4503
  790MPD2    C111696   3.702   3.729  13.608  0.3151  0.2621 -0.1213
  790MPD2    C211697   3.653   3.740  13.480  0.4292 -0.5493 -0.5677
  790MPD2    C311698   3.587   3.858  13.445 -0.2909 -0.2409 -0.1311
  790MPD2    C411699   3.568   3.954  13.542 -0.2248  0.2654  0.7442
  790MPD2    C511700   3.615   3.939  13.674 -0.6137 -0.1419 -0.7223
  790MPD2     H11701   3.675   3.667  13.403  0.9738  0.1301 -1.0575
  790MPD2    H111702   3.508   4.041  13.519  0.9483  0.8770  0.0171
  790MPD2    H211703   3.719   3.817  13.805  1.8387  1.6546 -0.0015
  790MPD2    H311704   3.605   4.024  13.741 -0.1756  0.1940 -1.0893
  790MPD2     N11705   3.542   3.859  13.311 -0.1287  0.3328 -0.5448
  790MPD2    H511706   3.572   3.779  13.256  1.4546  1.6408 -1.5552
  790MPD2    N111707   3.780   3.618  13.637 -0.1680  0.6278  0.3769
  790MPD2    H711708   3.781   3.545  13.567  0.8868  1.3455 -0.3537
  791MPD2     C11709   3.049   3.854  12.537 -0.0046 -0.0977 -0.2132
  791MPD2    C111710   3.044   3.840  12.673 -0.2601 -0.3967  0.3012
  791MPD2    C211711   2.924   3.798  12.737 -0.0181 -0.3692 -0.8997
  791MPD2    C311712   2.810   3.777  12.654 -0.1663  0.6351 -0.1225
  791MPD2    C411713   2.825   3.793  12.518 -0.3112  0.0582 -0.2430
  791MPD2    C511714   2.938   3.838  12.454  0.5148 -0.5920 -0.6067
  791MPD2     H11715   2.926   3.777  12.843  0.8145 -1.4645 -1.1325
  791MPD2    H111716   2.746   3.767  12.448  1.0602  2.4421 -2.6724
  791MPD2    H211717   3.136   3.888  12.483  1.8851 -1.1443  2.1864
  791MPD2    H311718   2.953   3.852  12.347  0.4869  1.3816 -0.3595
  791MPD2     N11719   2.696   3.715  12.719  0.4556  0.0273 -0.5907
  791MPD2    H511720   2.720   3.680  12.811  0.3964  0.2843 -0.4774
  791MPD2    N111721   3.164   3.865  12.749 -0.1021  0.0615 -0.1497
  791MPD2    H711722   3.241   3.907  12.698 -1.0220 -0.5972 -2.0836
  792MPD2     C11723   3.912   4.025  11.650  0.1955 -0.0318 -0.3836
  792MPD2    C111724   3.838   4.069  11.545  0.6804  0.1213 -0.1073
  792MPD2    C211725   3.702   4.036  11.538  0.4257  0.1306 -0.3807
  792MPD2    C311726   3.642   3.959  11.639 -0.4584 -0.0209 -0.2068
  792MPD2    C411727   3.718   3.916  11.743  0.0454  0.1257 -0.0240
  792MPD2    C511728   3.857   3.941  11.746  0.0041 -0.4404 -0.4347
  792MPD2     H11729   3.641   4.076  11.457  0.9076  3.7465  1.0296
  792MPD2    H111730   3.680   3.862  11.829  1.9824  2.8523  2.5339
  792MPD2    H211731   4.015   4.056  11.664 -0.1247  0.4123  0.9715
  792MPD2    H311732   3.920   3.907  11.827 -1.6338 -2.1538  0.1161
  792MPD2     N11733   3.508   3.914  11.642 -0.0475  0.0836  0.8846
  792MPD2    H511734   3.473   3.869  11.726 -0.6008  1.7810  1.5452
  792MPD2    N111735   3.919   4.144  11.455  0.1186  0.3105 -0.1897
  792MPD2    H711736   4.015   4.161  11.484 -0.0899 -0.2449  0.8507
  793MPD2     C11737   2.873   3.772  10.930  0.7206  0.2797 -0.2415
  793MPD2    C111738   3.005   3.727  10.962  0.9596 -0.1151 -0.1324
  793MPD2    C211739   3.045   3.747  11.092  0.3573 -0.3256  0.5262
  793MPD2    C311740   2.965   3.821  11.178 -0.7211  0.1510 -0.0784
  793MPD2    C411741   2.843   3.871  11.145 -0.5258 -0.1618 -0.6894
  793MPD2    C511742   2.800   3.852  11.022 -0.5330 -0.3271 -0.5727
  793MPD2     H11743   3.140   3.708  11.126  0.5980 -2.4088 -2.4651
  793MPD2    H111744   2.783   3.933  11.212  0.9546 -1.0247  1.4372
  793MPD2    H211745   2.837   3.758  10.829  1.4006  0.3571 -0.4995
  793MPD2    H311746   2.704   3.894  10.997  0.0241  1.4449  0.2175
  793MPD2     N11747   3.025   3.847  11.301 -0.1860 -0.1590 -0.0874
  793MPD2    H511748   3.125   3.830  11.302 -0.1760 -0.1956 -1.3952
  793MPD2    N111749   3.088   3.647  10.881 -0.3837 -0.5428  0.0867
  793MPD2    H711750   3.175   3.615  10.922 -0.0909  0.4541  0.2428
  794MPD2     C11751   3.756   2.976  17.495 -0.5658  0.8090 -0.1757
  794MPD2    C111752   3.676   2.865  17.504  1.0075  0.5228 -0.4977
  794MPD2    C211753   3.582   2.840  17.407 -0.9754 -0.3836 -0.1102
  794MPD2    C311754   3.573   2.926  17.303  0.1607 -0.9458 -0.3047
  794MPD2    C411755   3.651   3.043  17.297  0.4677 -0.1400 -1.0347
  794MPD2    C511756   3.749   3.061  17.391  0.2967  0.4606 -0.4769
  794MPD2     H11757   3.522   2.750  17.412  1.3970 -2.0425 -1.6813
  794MPD2    H111758   3.633   3.112  17.216  1.6777 -0.3239 -1.4509
  794MPD2    H211759   3.828   2.999  17.573  0.2971 -1.2669 -0.3662
  794MPD2    H311760   3.807   3.152  17.386  1.3164 -0.1620  0.1761
  794MPD2     N11761   3.483   2.908  17.198 -0.2561 -0.4768  0.0194
  794MPD2    H511762   3.471   2.981  17.128 -0.8892 -0.8579 -0.2765
  794MPD2    N111763   3.698   2.769  17.608  0.1870  0.0101 -0.5295
  794MPD2    H711764   3.635   2.690  17.614  1.3069 -0.6985  1.7766
  795MPD2     C11765   1.259   0.888  13.468  0.3479 -0.1067  0.4632
  795MPD2    C111766   1.170   0.776  13.474  0.4661 -0.1250  0.6415
  795MPD2    C211767   1.223   0.653  13.514  0.5604  0.5994 -0.1786
  795MPD2    C311768   1.354   0.635  13.557 -0.3503 -0.3098 -0.5840
  795MPD2    C411769   1.429   0.749  13.564 -0.5960  0.4780  0.2475
  795MPD2    C511770   1.385   0.868  13.515 -0.6333  0.1385  0.6625
  795MPD2     H11771   1.155   0.569  13.513 -0.8794  1.7659  0.2374
  795MPD2    H111772   1.530   0.750  13.603 -0.8360 -1.4841  0.9286
  795MPD2    H211773   1.225   0.984  13.431  0.8982  0.6054  1.8084
  795MPD2    H311774   1.444   0.956  13.539  0.6178 -0.1723 -1.2621
  795MPD2     N11775   1.399   0.508  13.601  0.0835  0.0913  0.1679
  795MPD2    H511776   1.331   0.433  13.595 -0.3810  0.2306  3.5129
  795MPD2    N111777   1.037   0.783  13.425  0.5623 -0.1395  0.0092
  795MPD2    H711778   0.994   0.692  13.414  0.2773  0.0748 -0.6472
  796MPD2     C11779   1.171   1.736  15.629  0.3727 -0.6813 -0.7148
  796MPD2    C111780   1.074   1.742  15.729 -0.6480 -0.6057 -0.3676
  796MPD2    C211781   1.000   1.859  15.747  0.2947  0.7364  0.8798
  796MPD2    C311782   1.022   1.964  15.657  0.3438 -0.5208  0.1470
  796MPD2    C411783   1.105   1.948  15.549 -0.0076 -0.7581 -0.2272
  796MPD2    C511784   1.186   1.837  15.539 -0.0594  0.1175 -0.0366
  796MPD2     H11785   0.943   1.881  15.836  0.1348  0.9092  0.7340
  796MPD2    H111786   1.113   2.015  15.464  0.2058  2.4948  2.3930
  796MPD2    H211787   1.234   1.650  15.608  1.9188  0.6008 -1.3853
  796MPD2    H311788   1.263   1.825  15.463 -0.3761  0.2710 -0.3818
  796MPD2     N11789   0.941   2.082  15.679  0.0038  0.3931  0.0421
  796MPD2    H511790   0.899   2.099  15.769 -0.1783 -0.4100  0.1115
  796MPD2    N111791   1.068   1.642  15.836 -0.0150 -0.0008  0.5338
  796MPD2    H711792   1.149   1.582  15.842  0.2993  0.2280 -1.3520
  797MPD2     C11793   1.011   1.556  17.463 -0.2525 -0.0186  0.2955
  797MPD2    C111794   1.127   1.619  17.498 -0.3853 -0.0035  0.0001
  797MPD2    C211795   1.173   1.722  17.416 -0.2990  0.2457  1.2127
  797MPD2    C311796   1.104   1.753  17.306 -0.3203 -0.1586 -0.5339
  797MPD2    C411797   0.984   1.690  17.277 -0.4696 -0.1896  0.2897
  797MPD2    C511798   0.934   1.586  17.354  0.3413 -0.3863 -0.3789
  797MPD2     H11799   1.270   1.769  17.428 -1.3030  2.7469 -0.5943
  797MPD2    H111800   0.943   1.710  17.179  0.2264 -0.2744 -0.0228
  797MPD2    H211801   0.973   1.480  17.530 -1.4208 -1.5185 -2.0312
  797MPD2    H311802   0.850   1.525  17.322  1.7540 -1.6676 -1.6065
  797MPD2     N11803   1.153   1.861  17.222  0.4096 -0.5193 -0.0081
  797MPD2    H511804   1.231   1.906  17.267 -1.8438  3.1407  0.2140
  797MPD2    N111805   1.212   1.595  17.604 -0.0297  0.1486 -0.4439
  797MPD2    H711806   1.291   1.659  17.605  0.7772 -0.8777  0.8645
  798MPD2     C11807   1.824   1.925  17.357  0.1792  0.6657  0.7785
  798MPD2    C111808   1.686   1.914  17.346 -0.0111 -0.0536  0.4145
  798MPD2    C211809   1.628   1.839  17.442 -0.2090  0.0285  0.5892
  798MPD2    C311810   1.694   1.789  17.554 -0.1650 -0.0910  0.0130
  798MPD2    C411811   1.824   1.809  17.562 -0.1314  0.6637  0.0087
  798MPD2    C511812   1.887   1.877  17.467 -0.7823 -0.4103 -0.7630
  798MPD2     H11813   1.525   1.807  17.428  0.5174 -1.4263 -1.4033
  798MPD2    H111814   1.872   1.758  17.645 -2.9753  1.1864  1.9864
  798MPD2    H211815   1.877   1.983  17.282 -0.4722 -1.5738 -1.4089
  798MPD2    H311816   1.992   1.898  17.481 -1.5759  2.1152  1.5541
  798MPD2     N11817   1.623   1.697  17.642  0.0292  0.2785 -0.2335
  798MPD2    H511818   1.523   1.708  17.627  0.0161 -0.3415 -0.5887
  798MPD2    N111819   1.619   1.975  17.238 -0.0832  0.1835 -0.4700
  798MPD2    H711820   1.685   2.017  17.174  0.1237  2.2047  1.0744
  799MPD2     C11821   0.771   2.983  14.425  0.2190  0.5288  0.0909
  799MPD2    C111822   0.639   2.956  14.390 -0.3667 -0.2459  0.0797
  799MPD2    C211823   0.577   3.051  14.310 -0.3822  0.5541  0.6300
  799MPD2    C311824   0.634   3.171  14.264  0.2108 -0.2177  0.7911
  799MPD2    C411825   0.757   3.203  14.323  0.6641  0.4539 -0.0263
  799MPD2    C511826   0.812   3.111  14.414  0.6033  0.3034 -0.3357
  799MPD2     H11827   0.478   3.024  14.274 -0.4058 -0.0146  1.1342
  799MPD2    H111828   0.812   3.295  14.309  0.6973  0.3718 -0.4334
  799MPD2    H211829   0.833   2.917  14.485 -1.3316 -0.5754  0.4673
  799MPD2    H311830   0.907   3.138  14.458  0.2242  1.0862 -0.0022
  799MPD2     N11831   0.582   3.266  14.173 -0.4197  0.1309  0.1917
  799MPD2    H511832   0.645   3.342  14.150 -1.6778  0.8671 -0.8549
  799MPD2    N111833   0.565   2.838  14.412  0.3744 -0.0366  0.6049
  799MPD2    H711834   0.466   2.846  14.392  0.6482  1.5348 -0.0726
  800MPD2     C11835   0.871   4.133  14.461 -0.4361  0.2889 -0.6476
  800MPD2    C111836   0.935   4.042  14.377 -0.0176 -0.0439 -0.1870
  800MPD2    C211837   0.883   4.035  14.250  0.4476  0.1086  0.0649
  800MPD2    C311838   0.773   4.103  14.205  0.0304  0.0867  0.1808
  800MPD2    C411839   0.722   4.197  14.288 -0.2269  0.2787  0.8543
  800MPD2    C511840   0.769   4.203  14.412  0.3596 -0.4026 -0.2212
  800MPD2     H11841   0.932   3.969  14.179 -0.4493 -1.0687  0.5463
  800MPD2    H111842   0.652   4.279  14.273  1.3798  1.5276  0.2688
  800MPD2    H211843   0.894   4.141  14.567  1.2238 -0.3383 -0.9581
  800MPD2    H311844   0.745   4.291  14.471  0.3084 -0.3802 -0.2752
  800MPD2     N11845   0.753   4.101  14.068  0.0092  0.5139 -0.9167
  800MPD2    H511846   0.817   4.046  14.012  0.6896  1.4276 -1.0165
  800MPD2    N111847   1.053   3.981  14.425 -0.1706  0.0341 -0.4391
  800MPD2    H711848   1.094   4.026  14.506  2.0759 -0.9846 -1.0261
  801MPD2     C11849   1.299   4.480  14.128 -0.1097  0.2452  0.6161
  801MPD2    C111850   1.240   4.387  14.210  0.1327  0.2717 -0.0581
  801MPD2    C211851   1.114   4.420  14.265 -0.1656  0.2033  0.6164
  801MPD2    C311852   1.058   4.545  14.236  0.0885 -0.0102 -0.5726
  801MPD2    C411853   1.112   4.632  14.145 -0.4964  0.3851  0.6851
  801MPD2    C511854   1.233   4.596  14.092 -0.6586  0.4035  0.1083
  801MPD2     H11855   1.063   4.347  14.326  1.1081 -1.1888  0.0336
  801MPD2    H111856   1.061   4.720  14.108  0.3759  0.4323 -0.3999
  801MPD2    H211857   1.385   4.455  14.068  0.2652 -0.0759  1.3029
  801MPD2    H311858   1.281   4.662  14.020  1.8961  0.1322  1.5285
  801MPD2     N11859   0.946   4.587  14.307 -0.4236  0.3643 -0.1579
  801MPD2    H511860   0.898   4.669  14.271  0.4153  0.3893 -1.2014
  801MPD2    N111861   1.294   4.263  14.239 -0.0680 -0.3707  0.6270
  801MPD2    H711862   1.242   4.213  14.310  1.1405 -1.8269  0.4849
  802MPD2     C11863   4.542   0.553  17.519  0.2714 -0.2670 -0.3788
  802MPD2    C111864   4.572   0.547  17.654 -0.1229 -0.5328  0.7423
  802MPD2    C211865   4.656   0.446  17.697  0.2509 -0.4927 -0.6005
  802MPD2    C311866   4.691   0.340  17.609 -0.3730 -0.2692  0.2454
  802MPD2    C411867   4.659   0.344  17.475 -0.5551 -0.3809 -0.1112
  802MPD2    C511868   4.583   0.455  17.431 -0.0520 -0.2110 -0.5160
  802MPD2     H11869   4.677   0.442   0.057  0.0829  0.5954 -0.5243
  802MPD2    H111870   4.693   0.269  17.405  1.3127 -1.0493  1.5217
  802MPD2    H211871   4.502   0.646  17.481 -0.3359 -0.4576 -0.2033
  802MPD2    H311872   4.580   0.461  17.323  0.4220 -0.1262 -0.5264
  802MPD2     N11873   0.027   0.226  17.653 -0.6035  0.6789  0.1777
  802MPD2    H511874   0.062   0.224   0.001  0.3847  1.9787 -0.1588
  802MPD2    N111875   4.533   0.644   0.001 -0.5396 -0.8390 -0.3605
  802MPD2    H711876   4.526   0.611   0.097  1.8698  0.6949  0.3341
  803MPD2     C11877   1.557   3.676  11.711  0.2109 -0.8436  0.4723
  803MPD2    C111878   1.626   3.767  11.788  0.8642  0.3052  0.0299
  803MPD2    C211879   1.594   3.769  11.926 -0.2915 -0.1727  0.3090
  803MPD2    C311880   1.510   3.677  11.982 -0.2404  0.2366 -0.1779
  803MPD2    C411881   1.443   3.594  11.899 -0.5858 -0.0570 -0.2324
  803MPD2    C511882   1.466   3.594  11.770 -0.2344 -0.4313  0.0436
  803MPD2     H11883   1.659   3.824  11.993 -1.0667  2.0399 -0.7553
  803MPD2    H111884   1.375   3.517  11.933 -2.1114  1.2338 -0.4059
  803MPD2    H211885   1.577   3.666  11.605  2.9090  0.4315  0.8349
  803MPD2    H311886   1.412   3.529  11.701  0.2045  0.4532 -1.1314
  803MPD2     N11887   1.494   3.664  12.125  0.2659 -0.1442 -0.2089
  803MPD2    H511888   1.434   3.588  12.154  2.0885 -1.6855 -0.4888
  803MPD2    N111889   1.706   3.866  11.730 -0.2674 -0.0897 -0.2499
  803MPD2    H711890   1.742   3.937  11.794  1.3549  0.0170 -1.2964
  804MPD2     C11891   1.139   0.145  16.996  0.1961 -0.2991 -0.0472
  804MPD2    C111892   1.108   0.130  17.130 -0.2276  1.0212 -0.1480
  804MPD2    C211893   1.151   0.232  17.219 -0.6550  0.3258 -0.5230
  804MPD2    C311894   1.217   0.341  17.174 -0.6860  0.7310  0.0452
  804MPD2    C411895   1.252   0.349  17.042  0.5070  0.4197  0.7561
  804MPD2    C511896   1.202   0.259  16.953 -0.5444 -0.0449 -0.2817
  804MPD2     H11897   1.139   0.231  17.327 -0.3429  0.4421 -0.4875
  804MPD2    H111898   1.296   0.442  17.008 -2.6626  1.8420  0.5944
  804MPD2    H211899   1.101   0.082  16.917 -0.2453 -0.1900  0.0789
  804MPD2    H311900   1.221   0.268  16.847 -1.7967 -0.0552 -0.5023
  804MPD2     N11901   1.262   0.432  17.277 -0.4701 -0.2279 -0.1031
  804MPD2    H511902   1.244   0.392  17.369  1.8543  1.6688  1.1692
  804MPD2    N111903   1.039   0.016  17.179  0.4843 -0.6621  0.2272
  804MPD2    H711904   1.019   0.015  17.278 -1.4591 -4.6976 -0.1894
  805MPD2     C11905   0.401   3.123  15.256 -0.5617 -0.3467  0.2178
  805MPD2    C111906   0.508   3.189  15.194  0.0223  0.0484 -0.4235
  805MPD2    C211907   0.623   3.186  15.268 -0.7019  0.4943 -0.2046
  805MPD2    C311908   0.642   3.132  15.393  0.1166 -0.0600 -0.1135
  805MPD2    C411909   0.528   3.079  15.456 -0.4500 -0.3825 -1.0864
  805MPD2    C511910   0.412   3.077  15.384 -0.7177  0.6652  0.0217
  805MPD2     H11911   0.706   3.242  15.228  0.0972 -0.2082  0.4644
  805MPD2    H111912   0.528   3.044  15.558 -0.3295 -0.4521 -1.1109
  805MPD2    H211913   0.305   3.117  15.207 -0.6120 -2.4492  0.5951
  805MPD2    H311914   0.331   3.014  15.420 -1.5720  0.7628 -1.6837
  805MPD2     N11915   0.766   3.138  15.460 -0.2553 -0.5285 -0.3602
  805MPD2    H511916   0.844   3.177  15.408  0.0755  1.2508  1.4656
  805MPD2    N111917   0.505   3.259  15.073 -0.4692 -0.6545  0.1567
  805MPD2    H711918   0.596   3.283  15.035  1.1941 -2.3388  3.0596
  806MPD2     C11919   0.288   2.635   0.092 -0.1872 -0.6228 -0.0929
  806MPD2    C111920   0.379   2.707   0.158 -0.3139  0.3738 -0.5266
  806MPD2    C211921   0.484   2.768   0.089 -0.0258 -0.3213  0.5857
  806MPD2    C311922   0.503   2.747  17.704 -1.0106  0.2920 -0.1286
  806MPD2    C411923   0.402   2.676  17.630  0.4221  0.4069  0.0268
  806MPD2    C511924   0.294   2.626  17.703 -0.2480 -0.7008  0.0508
  806MPD2     H11925   0.546   2.836   0.147 -0.8147  1.0542 -0.1773
  806MPD2    H111926   0.420   2.668  17.524 -3.5271  0.3186 -0.6081
  806MPD2    H211927   0.208   2.584   0.144  0.8740 -1.3361  0.8238
  806MPD2    H311928   0.215   2.579  17.646  1.4068  1.7323 -4.2261
  806MPD2     N11929   0.618   2.803  17.643 -0.6388 -0.8678 -0.3284
  806MPD2    H511930   0.688   2.834  17.709 -3.2249  5.2348 -0.5375
  806MPD2    N111931   0.368   2.702   0.299  0.0553 -0.1296  0.5869
  806MPD2    H711932   0.282   2.659   0.333 -0.2828  0.7982  0.9026
  807MPD2     C11933   4.715   2.376   0.853  0.1804 -0.6249  0.5577
  807MPD2    C111934   0.073   2.429   0.921 -0.6415  0.1868  0.3373
  807MPD2    C211935   0.094   2.387   1.045 -0.1775 -0.2932  1.1659
  807MPD2    C311936   0.011   2.285   1.104 -0.4638 -0.2722 -0.5458
  807MPD2    C411937   4.655   2.222   1.027  0.5723  0.2201 -0.0874
  807MPD2    C511938   4.633   2.274   0.904 -0.0946 -0.2556 -0.1105
  807MPD2     H11939   0.158   2.446   1.109 -1.8830  2.1967  0.5850
  807MPD2    H111940   4.584   2.150   1.065  1.6026  0.1136  1.6412
  807MPD2    H211941   4.675   2.405   0.757  1.7345 -1.7370 -0.4034
  807MPD2    H311942   4.560   2.230   0.839 -1.0195 -1.1085  1.5125
  807MPD2     N11943   0.046   2.246   1.234  0.3645  0.3935 -0.6847
  807MPD2    H511944   0.131   2.287   1.272 -1.2449  1.2595  1.9387
  807MPD2    N111945   0.159   2.526   0.870 -0.0220 -0.7341 -0.8384
  807MPD2    H711946   0.227   2.570   0.930 -1.7044 -1.3687  1.5142
  808MPD2     C11947   0.584   0.154   9.779  0.2228  0.4518 -0.0750
  808MPD2    C111948   0.674   0.145   9.885 -0.4601  1.1224 -0.5686
  808MPD2    C211949   0.747   0.253   9.926  0.1242  0.1247 -0.8802
  808MPD2    C311950   0.726   0.370   9.852  0.4709  0.5784 -0.5756
  808MPD2    C411951   0.624   0.377   9.751  0.4916  0.2079 -0.5652
  808MPD2    C511952   0.559   0.268   9.717 -0.0138 -0.1989  0.8331
  808MPD2     H11953   0.811   0.231  10.010 -0.8427  0.8690  0.0543
  808MPD2    H111954   0.610   0.474   9.703  0.9002  0.5065 -0.0781
  808MPD2    H211955   0.534   0.069   9.733  2.0121  0.1561 -1.4866
  808MPD2    H311956   0.483   0.263   9.641 -0.2515  0.2179  1.0447
  808MPD2     N11957   0.812   0.479   9.854  0.3826  0.4184  0.1973
  808MPD2    H511958   0.811   0.544   9.776 -0.4175 -1.1403 -1.0796
  808MPD2    N111959   0.695   0.022   9.948  0.1910 -0.3838 -0.0333
  808MPD2    H711960   0.765   0.031  10.021  0.3243 -0.3103 -0.1695
  809MPD2     C11961   1.300   0.496   9.162  0.1465 -0.5384 -0.4023
  809MPD2    C111962   1.310   0.404   9.265 -0.5074  0.5168 -0.1012
  809MPD2    C211963   1.261   0.444   9.389  0.4887 -0.6364 -1.0101
  809MPD2    C311964   1.220   0.575   9.410 -0.3915  0.7762 -1.0548
  809MPD2    C411965   1.216   0.670   9.301  0.5627 -0.2011 -0.6997
  809MPD2    C511966   1.249   0.620   9.176  0.1545  0.3309 -0.0162
  809MPD2     H11967   1.256   0.374   9.472 -0.1638 -0.8191 -1.2060
  809MPD2    H111968   1.175   0.770   9.309  0.1339 -0.5228  1.1026
  809MPD2    H211969   1.348   0.477   9.066 -0.8433  3.3662 -1.6609
  809MPD2    H311970   1.235   0.682   9.089  0.8358  0.0313 -0.3442
  809MPD2     N11971   1.169   0.604   9.539  0.0263  0.1742 -0.4874
  809MPD2    H511972   1.163   0.527   9.604 -1.3575  1.3396  0.7744
  809MPD2    N111973   1.367   0.277   9.259  0.4440 -0.1527 -0.6003
  809MPD2    H711974   1.371   0.222   9.344  2.4773 -0.6697 -1.0364
  810MPD2     C11975   0.771   4.015  11.024  0.9418  0.1707 -0.1016
  810MPD2    C111976   0.682   4.000  10.926  0.7297 -0.7137  1.0365
  810MPD2    C211977   0.631   4.119  10.868 -0.0552 -0.4199  0.4672
  810MPD2    C311978   0.659   4.240  10.931 -0.3122  0.2443  0.4438
  810MPD2    C411979   0.755   4.253  11.030  0.7609 -0.3859  0.3021
  810MPD2    C511980   0.812   4.137  11.078 -0.0034  0.0558  0.8104
  810MPD2     H11981   0.569   4.097  10.783 -0.1105  3.4103 -0.4725
  810MPD2    H111982   0.791   4.342  11.081  0.9633 -0.6881  0.6951
  810MPD2    H211983   0.804   3.921  11.065  0.2635  0.1835  0.4725
  810MPD2    H311984   0.874   4.133  11.168  1.4619  2.9516 -0.0782
  810MPD2     N11985   0.599   4.359  10.893 -0.5389  0.1555  0.5936
  810MPD2    H511986   0.618   4.437  10.956  1.2849 -1.0986  1.6007
  810MPD2    N111987   0.652   3.873  10.879 -0.2836  0.0356 -0.0431
  810MPD2    H711988   0.651   3.795  10.944 -0.3891  0.6473  0.6884
  811MPD2     C11989   4.642   3.673  10.369  0.3359 -0.6482  0.4799
  811MPD2    C111990   0.029   3.740  10.362 -0.0952  0.0333  0.1942
  811MPD2    C211991   0.047   3.829  10.257  0.3472 -0.3002  0.6421
  811MPD2    C311992   4.678   3.855  10.172 -0.3122 -1.1281  0.8104
  811MPD2    C411993   4.556   3.802  10.190 -0.6057  0.3610  0.0350
  811MPD2    C511994   4.540   3.704  10.284  0.8465  0.0021  0.4207
  811MPD2     H11995   0.144   3.871  10.235  0.5116 -0.4533  1.0722
  811MPD2    H111996   4.467   3.823  10.132  0.4928  2.5444 -0.8480
  811MPD2    H211997   4.621   3.609  10.454  3.5992  0.0016  1.8079
  811MPD2    H311998   4.442   3.660  10.295 -0.4887  2.8204 -0.1174
  811MPD2     N11999   4.706   3.942  10.068 -0.0229  0.1486 -0.1449
  811MPD2    H512000   0.066   3.971  10.060  0.5893 -1.7152  0.3519
  811MPD2    N112001   0.128   3.700  10.456 -0.5563 -0.0804 -0.2552
  811MPD2    H712002   0.094   3.631  10.523  1.1503 -0.9590 -0.3057
  812MPD2     C12003   3.709   3.785  12.136  0.2551  0.1079  0.4725
  812MPD2    C112004   3.822   3.866  12.132  0.2447  0.7807 -0.1875
  812MPD2    C212005   3.944   3.818  12.175 -0.2610  0.6478 -0.0447
  812MPD2    C312006   3.959   3.690  12.227  1.3044 -0.8295 -0.2282
  812MPD2    C412007   3.846   3.605  12.227 -0.1315  0.3751  0.2019
  812MPD2    C512008   3.727   3.655  12.182 -0.3241 -0.1314 -0.0950
  812MPD2     H12009   4.026   3.889  12.176  1.2550 -1.1086 -0.1568
  812MPD2    H112010   3.849   3.498  12.242  0.4640  0.1629 -1.3543
  812MPD2    H212011   3.613   3.815  12.095 -0.7965 -0.3637  2.5493
  812MPD2    H312012   3.645   3.587  12.164  0.5084 -1.1516  0.0002
  812MPD2     N12013   4.084   3.645  12.276 -0.2641  0.1095 -0.0290
  812MPD2    H512014   4.158   3.714  12.273 -1.0302  0.9013 -0.7531
  812MPD2    N112015   3.806   3.997  12.072 -0.1086  0.4628 -0.0263
  812MPD2    H712016   3.710   4.031  12.065 -0.3838  0.3519  3.0342
  813MPD2     C12017   3.536   0.753  12.819  0.1668  0.4643 -0.1108
  813MPD2    C112018   3.660   0.705  12.865  0.6228 -0.2166 -0.5375
  813MPD2    C212019   3.656   0.661  12.998  0.2213 -0.6236 -0.0232
  813MPD2    C312020   3.547   0.666  13.080 -0.9546  0.4252 -0.4979
  813MPD2    C412021   3.430   0.710  13.026 -1.4747 -0.5140 -0.4990
  813MPD2    C512022   3.425   0.760  12.900 -0.8846 -0.2579 -0.5244
  813MPD2     H12023   3.748   0.636  13.049  0.0959 -1.0800 -0.0218
  813MPD2    H112024   3.338   0.701  13.083  0.3505 -1.6913  2.2208
  813MPD2    H212025   3.525   0.790  12.717 -2.6434  1.0626  0.4210
  813MPD2    H312026   3.336   0.795  12.849 -0.7441  1.2103  0.2470
  813MPD2     N12027   3.572   0.640  13.217 -0.1907  0.4843  0.3144
  813MPD2    H512028   3.666   0.613  13.247 -1.2706 -0.5083  2.8231
  813MPD2    N112029   3.777   0.717  12.783  0.5666  0.2510  0.6230
  813MPD2    H712030   3.764   0.758  12.690 -2.2524 -2.6308 -0.2444
  814MPD2     C12031   3.666   1.917  12.617  0.7805 -0.1063 -0.4437
  814MPD2    C112032   3.704   1.985  12.507  0.2055  0.3440  0.0411
  814MPD2    C212033   3.777   2.101  12.518  0.0296  0.3854 -0.0186
  814MPD2    C312034   3.803   2.148  12.649 -0.1684  0.2926 -0.8444
  814MPD2    C412035   3.761   2.086  12.760  0.5288 -0.7778  0.6380
  814MPD2    C512036   3.703   1.965  12.745 -0.0594  0.4739  0.4195
  814MPD2     H12037   3.802   2.158  12.429  2.1949 -0.4130  0.1017
  814MPD2    H112038   3.782   2.119  12.861  1.4590 -0.5555  0.3796
  814MPD2    H212039   3.614   1.822  12.611  1.1548 -0.2663 -1.1134
  814MPD2    H312040   3.682   1.898  12.828  1.8027 -1.6877 -0.8403
  814MPD2     N12041   3.879   2.270  12.671 -0.0391  0.2290  0.3568
  814MPD2    H512042   3.907   2.280  12.768 -1.4314  1.0897  0.6726
  814MPD2    N112043   3.681   1.950  12.372  0.0382  0.0075  0.3591
  814MPD2    H712044   3.712   2.023  12.309 -2.6884  0.1467 -0.8105
  815MPD2     C12045   4.403   0.823  11.648  0.6459  0.0122 -0.0560
  815MPD2    C112046   4.443   0.697  11.645 -0.0151  0.4373 -0.1975
  815MPD2    C212047   4.370   0.602  11.722 -0.6025  0.2221 -0.2021
  815MPD2    C312048   4.262   0.641  11.799 -0.1688 -0.3615 -0.2727
  815MPD2    C412049   4.229   0.777  11.801  0.0267 -0.6471  0.0402
  815MPD2    C512050   4.296   0.868  11.723 -0.5628 -0.2226  0.1746
  815MPD2     H12051   4.385   0.495  11.710  0.1181  0.4241 -1.1105
  815MPD2    H112052   4.142   0.806  11.859 -0.4925  0.2161 -1.1630
  815MPD2    H212053   4.457   0.896  11.589  1.3010  0.1904  0.7697
  815MPD2    H312054   4.263   0.971  11.721  1.8377  0.5157 -1.2045
  815MPD2     N12055   4.183   0.544  11.858  0.0303 -0.8477 -0.0997
  815MPD2    H512056   4.204   0.445  11.845  0.2281 -1.0414  1.6414
  815MPD2    N112057   4.542   0.657  11.558  0.5948  0.9810 -0.1244
  815MPD2    H712058   4.585   0.728  11.499  0.9753  1.0870  0.2730
  816MPD2     C12059   4.062   4.060  16.715 -0.7816 -0.0733 -0.3756
  816MPD2    C112060   4.089   4.191  16.752  0.3668 -0.6912  0.1485
  816MPD2    C212061   4.224   4.234  16.747  0.3544 -0.7590  0.6612
  816MPD2    C312062   4.321   4.147  16.701 -0.4278 -0.0774 -0.3220
  816MPD2    C412063   4.293   4.018  16.652 -0.3275  0.5609  0.7172
  816MPD2    C512064   4.161   3.979  16.659  0.3605  0.4106 -0.0431
  816MPD2     H12065   4.249   4.336  16.775 -0.8159 -0.3180  0.1033
  816MPD2    H112066   4.361   3.936  16.632  1.7000  1.3683  4.2214
  816MPD2    H212067   3.965   4.015  16.729  0.2320 -1.7969  1.1207
  816MPD2    H312068   4.140   3.873  16.650  1.0672  0.2746 -0.0783
  816MPD2     N12069   4.461   4.187  16.718 -0.3311 -0.3408 -0.4002
  816MPD2    H512070   4.473   4.283  16.748  1.6470 -1.1892  1.5309
  816MPD2    N112071   3.974   4.268  16.782 -0.5004 -0.3338  0.6165
  816MPD2    H712072   3.884   4.222  16.787  0.0020 -1.0214  3.2125
  817MPD2     C12073   4.000   2.058   9.868  0.0328  0.0356  0.6825
  817MPD2    C112074   3.883   2.001   9.822  0.3975  0.3795  0.2853
  817MPD2    C212075   3.770   2.079   9.811  0.1938 -0.2375 -0.1759
  817MPD2    C312076   3.779   2.215   9.849 -0.4162 -0.0812  0.2043
  817MPD2    C412077   3.896   2.272   9.895  0.1101 -0.0768  0.3688
  817MPD2    C512078   4.011   2.192   9.892  0.0995  0.1238 -0.5007
  817MPD2     H12079   3.674   2.043   9.777 -0.5485 -1.2210  2.9713
  817MPD2    H112080   3.907   2.378   9.915  0.5158  0.2548 -1.6145
  817MPD2    H212081   4.099   2.012   9.874 -1.3591 -3.3111 -2.1383
  817MPD2    H312082   4.102   2.238   9.927 -0.6587  0.7493  0.6660
  817MPD2     N12083   3.665   2.290   9.823 -1.0995  0.0687  0.2881
  817MPD2    H512084   3.581   2.240   9.796 -0.1618 -0.5203 -1.5042
  817MPD2    N112085   3.863   1.867   9.795  0.1260 -0.1394 -0.7274
  817MPD2    H712086   3.776   1.850   9.746  1.8581  1.3823 -4.4204
  818MPD2     C12087   2.000   1.773   9.806 -0.1185  0.1275  0.2788
  818MPD2    C112088   2.117   1.726   9.862 -0.2115  0.0483 -0.0667
  818MPD2    C212089   2.201   1.642   9.791  0.3350  0.0198  0.4283
  818MPD2    C312090   2.177   1.611   9.661  0.0981 -0.7835  0.4523
  818MPD2    C412091   2.063   1.663   9.599  0.0840 -0.1987 -0.2204
  818MPD2    C512092   1.983   1.743   9.670 -0.6603  0.0049 -0.2447
  818MPD2     H12093   2.277   1.585   9.844  0.8932 -0.7804 -1.2550
  818MPD2    H112094   2.034   1.647   9.496  0.5694 -0.6713 -0.2792
  818MPD2    H212095   1.920   1.824   9.861 -0.1047  0.0380  0.3819
  818MPD2    H312096   1.894   1.772   9.616 -0.9144  2.9625  1.7588
  818MPD2     N12097   2.256   1.513   9.596 -0.1883  0.0157 -0.4534
  818MPD2    H512098   2.222   1.482   9.506 -1.8546  0.4457  0.0265
  818MPD2    N112099   2.159   1.756   9.987  0.8654  0.0712  0.4855
  818MPD2    H712100   2.237   1.707  10.031  0.4715 -1.3840 -0.4299
  819MPD2     C12101   1.225   2.919  15.391 -0.4768  0.1124 -0.9439
  819MPD2    C112102   1.215   2.779  15.396 -0.1518 -0.1137 -0.5000
  819MPD2    C212103   1.292   2.715  15.487  0.8001  0.1674 -0.0349
  819MPD2    C312104   1.384   2.778  15.565 -0.7560 -1.0143  0.6695
  819MPD2    C412105   1.401   2.910  15.558 -0.2507 -0.2167  0.3091
  819MPD2    C512106   1.326   2.982  15.465  0.0280 -0.1658 -0.4115
  819MPD2     H12107   1.289   2.607  15.497 -0.7400  0.1604 -0.5075
  819MPD2    H112108   1.460   2.973  15.623 -0.0904  0.9848 -0.9919
  819MPD2    H212109   1.165   2.968  15.315 -0.0727  2.2675  0.1483
  819MPD2    H312110   1.339   3.089  15.455  0.3144 -0.1813 -0.2053
  819MPD2     N12111   1.455   2.690  15.652 -0.5235 -0.7971  0.3483
  819MPD2    H512112   1.429   2.592  15.648  0.2019 -0.8890 -2.3428
  819MPD2    N112113   1.116   2.712  15.322 -0.3145 -0.0333  0.4377
  819MPD2    H712114   1.071   2.760  15.245  0.4570 -0.8359 -0.5106
  820MPD2     C12115   0.295   2.798  14.771  0.3014  0.1355  0.1204
  820MPD2    C112116   0.413   2.863  14.773 -0.0163  0.4563 -0.0091
  820MPD2    C212117   0.517   2.807  14.843  0.5322  0.1424 -0.3285
  820MPD2    C312118   0.494   2.688  14.916 -0.3721 -0.4455 -0.2145
  820MPD2    C412119   0.370   2.628  14.904  0.6394  0.1729  0.2703
  820MPD2    C512120   0.274   2.674  14.826  0.0630  0.4072 -0.1417
  820MPD2     H12121   0.608   2.865  14.841  0.5502  0.1011 -0.8050
  820MPD2    H112122   0.350   2.531  14.949  0.6388  0.0434 -0.0079
  820MPD2    H212123   0.219   2.834  14.703  0.8053 -1.0061 -1.0552
  820MPD2    H312124   0.179   2.626  14.807  0.4344 -0.2590 -0.3092
  820MPD2     N12125   0.590   2.614  14.994  0.1076 -0.2876 -0.0227
  820MPD2    H512126   0.555   2.534  15.046 -3.3001  1.0557 -0.3057
  820MPD2    N112127   0.420   2.987  14.708  0.0302 -0.2701  0.5391
  820MPD2    H712128   0.332   3.028  14.679 -0.7760 -1.4575  1.3599
  821MPD2     C12129   0.649   4.737  13.468  0.0318  0.0719 -0.6633
  821MPD2    C112130   0.720   4.626  13.455 -0.2416  0.2417  0.4738
  821MPD2    C212131   0.813   4.615  13.355  0.0240  0.9203 -0.5178
  821MPD2    C312132   0.854   4.719  13.280 -0.2798  0.2832  0.0284
  821MPD2    C412133   0.774   0.095  13.279  0.5560  0.1206  0.2119
  821MPD2    C512134   0.672   0.102  13.377 -0.1984  0.1266  0.0955
  821MPD2     H12135   0.859   4.518  13.344 -1.0455  0.2940  0.5580
  821MPD2    H112136   0.797   0.183  13.219 -1.3077  1.3635  1.3200
  821MPD2    H212137   0.565   0.002  13.536 -0.0649  2.2159 -0.8631
  821MPD2    H312138   0.627   0.200  13.382 -0.6669 -0.1580  1.3705
  821MPD2     N12139   0.972   4.720  13.201  0.2622 -0.0864 -0.0633
  821MPD2    H512140   1.002   0.071  13.161  1.3482 -1.0047 -1.2780
  821MPD2    N112141   0.718   4.522  13.546  0.0401  0.4123  0.3275
  821MPD2    H712142   0.789   4.451  13.535 -1.0991 -0.3455 -2.0333
  822MPD2     C12143   1.955   4.225  15.913  0.5737  0.7826 -0.4710
  822MPD2    C112144   1.934   4.196  16.046 -0.2703 -0.1465  0.0518
  822MPD2    C212145   1.843   4.267  16.121  0.4330  0.6233  0.0416
  822MPD2    C312146   1.782   4.380  16.062 -0.0710 -0.1084  0.1497
  822MPD2    C412147   1.792   4.402  15.929 -0.3586 -0.1089  0.9804
  822MPD2    C512148   1.881   4.326  15.854 -0.2117  0.0990  0.7751
  822MPD2     H12149   1.825   4.249  16.227 -0.3715 -1.2459 -0.4131
  822MPD2    H112150   1.739   4.489  15.893  1.3534  1.2802  1.8089
  822MPD2    H212151   2.023   4.170  15.850  0.8325  0.7759 -0.1842
  822MPD2    H312152   1.894   4.339  15.747 -0.4353 -2.0729  0.4802
  822MPD2     N12153   1.713   4.458  16.152  0.7831  0.0031  0.2939
  822MPD2    H512154   1.701   4.414  16.243  2.2168 -1.5375 -0.2804
  822MPD2    N112155   2.003   4.093  16.122 -0.0011 -0.6566  0.0764
  822MPD2    H712156   1.973   4.079  16.218 -2.2752  2.1882 -0.2248
  823MPD2     C12157   1.351   4.571  16.894 -0.0914  0.1624  0.0424
  823MPD2    C112158   1.419   4.504  16.799 -0.4874 -0.2576 -0.4415
  823MPD2    C212159   1.479   4.381  16.823 -0.1438  0.2088 -0.0723
  823MPD2    C312160   1.454   4.322  16.945  0.1975  0.4387  0.3152
  823MPD2    C412161   1.386   4.390  17.041  0.0568 -0.3388 -0.2473
  823MPD2    C512162   1.336   4.516  17.015  0.0966  0.3184 -0.3063
  823MPD2     H12163   1.537   4.341  16.740 -0.2568 -0.8984  0.3849
  823MPD2    H112164   1.375   4.346  17.140  0.9736 -0.0915 -0.0364
  823MPD2    H212165   1.298   4.663  16.871  0.1092  0.3399  0.2884
  823MPD2    H312166   1.286   4.570  17.094  1.1587  1.9080 -0.7188
  823MPD2     N12167   1.494   4.189  16.978 -0.0990  0.6437 -0.4638
  823MPD2    H512168   1.482   4.148  17.070 -0.8052  0.9429 -0.4290
  823MPD2    N112169   1.422   4.568  16.672 -0.4648  0.3819  0.6500
  823MPD2    H712170   1.388   4.664  16.668 -1.6428 -0.0554  0.3760
  824MPD2     C12171   2.582   3.448  16.159 -0.2385 -0.0407  0.2300
  824MPD2    C112172   2.510   3.528  16.068 -0.4033 -0.1957 -0.5518
  824MPD2    C212173   2.546   3.522  15.931 -0.2064  0.9310  0.1978
  824MPD2    C312174   2.653   3.447  15.896 -0.1851  0.4994 -0.0012
  824MPD2    C412175   2.727   3.385  15.990  0.1787 -0.0401  0.0825
  824MPD2    C512176   2.699   3.385  16.125 -0.1967  0.4199  0.6635
  824MPD2     H12177   2.491   3.573  15.852 -0.4548 -1.9329 -1.4543
  824MPD2    H112178   2.815   3.325  15.974  0.1428  0.3500 -1.5815
  824MPD2    H212179   2.565   3.443  16.266 -2.1763  0.9723 -0.0234
  824MPD2    H312180   2.759   3.322  16.190  1.4991  1.0601 -0.2976
  824MPD2     N12181   2.683   3.436  15.760 -0.2307  0.2856  0.6291
  824MPD2    H512182   2.616   3.483  15.701 -0.6408  0.1523  0.9849
  824MPD2    N112183   2.415   3.626  16.106 -0.0940  0.2242 -0.4132
  824MPD2    H712184   2.389   3.694  16.035  1.2519  2.2410  1.0171
  825MPD2     C12185   3.004   3.634  14.976  0.6298  0.3141  0.7899
  825MPD2    C112186   2.984   3.674  15.104 -0.7385 -0.0456 -0.2266
  825MPD2    C212187   3.030   3.799  15.144  0.1353 -0.1925 -0.2224
  825MPD2    C312188   3.081   3.881  15.046 -0.3348 -0.3131 -0.0053
  825MPD2    C412189   3.094   3.838  14.915 -0.6352  0.4512 -0.1867
  825MPD2    C512190   3.066   3.716  14.887 -0.1955  1.0235 -1.1440
  825MPD2     H12191   3.009   3.837  15.244 -1.5310 -0.7273 -0.3688
  825MPD2    H112192   3.150   3.900  14.846  1.3957 -3.4502 -2.0527
  825MPD2    H212193   2.978   3.532  14.948 -2.4973  0.6306  2.5596
  825MPD2    H312194   3.085   3.671  14.791  1.2756 -0.0839 -0.3311
  825MPD2     N12195   3.117   4.019  15.070 -0.0286  0.6790  0.0456
  825MPD2    H512196   3.167   4.063  14.993  0.6212 -0.4767 -0.1966
  825MPD2    N112197   2.919   3.585  15.198 -0.1564 -0.3289 -0.0879
  825MPD2    H712198   2.883   3.499  15.156 -0.3827 -0.5287  0.5159
  826MPD2     C12199   1.804   3.552  13.647  0.4730  0.3502  0.4026
  826MPD2    C112200   1.888   3.649  13.598 -0.1718 -0.4063  0.0430
  826MPD2    C212201   1.856   3.783  13.612  0.6036  0.5893  0.3240
  826MPD2    C312202   1.745   3.818  13.694 -0.5445 -1.0026 -0.0153
  826MPD2    C412203   1.662   3.721  13.738  0.5611 -0.1298  0.3842
  826MPD2    C512204   1.690   3.595  13.703 -0.0060  0.4088  0.4437
  826MPD2     H12205   1.920   3.854  13.561  0.3905  0.8640  0.4368
  826MPD2    H112206   1.573   3.739  13.798 -0.5937 -1.3790 -0.9551
  826MPD2    H212207   1.802   3.446  13.625  0.8853  0.5408 -0.5557
  826MPD2    H312208   1.622   3.514  13.729  0.1921 -0.3447 -1.3622
  826MPD2     N12209   1.726   3.943  13.736  0.9759 -0.1007  0.6224
  826MPD2    H512210   1.674   3.942  13.823 -2.0110  1.3006 -1.1480
  826MPD2    N112211   2.002   3.601  13.531  0.3567  0.2158  0.1806
  826MPD2    H712212   2.017   3.502  13.516  0.0586 -0.0534  1.6220
  827MPD2     C12213   3.368   0.728   9.913  0.0002  0.2226 -0.1358
  827MPD2    C112214   3.292   0.691  10.024 -0.2874  0.8819  0.5678
  827MPD2    C212215   3.158   0.640  10.000  0.2554  0.0739  0.1785
  827MPD2    C312216   3.099   0.648   9.869  0.1412  0.1920 -0.2929
  827MPD2    C412217   3.174   0.694   9.762  0.0951 -0.1730 -0.0141
  827MPD2    C512218   3.308   0.735   9.786  0.0530  0.3530 -0.6373
  827MPD2     H12219   3.093   0.616  10.083  0.5914  0.4188  0.5389
  827MPD2    H112220   3.134   0.708   9.662 -1.0213 -3.0049  0.0248
  827MPD2    H212221   3.467   0.767   9.931  0.7964 -2.5143  1.5299
  827MPD2    H312222   3.371   0.781   9.711 -0.4384  2.5519  0.3064
  827MPD2     N12223   2.956   0.618   9.862  0.5921  0.4086  0.2748
  827MPD2    H512224   2.924   0.578   9.950  3.3043 -1.2713  0.5022
  827MPD2    N112225   3.356   0.696  10.146  0.1523  0.0650  1.2702
  827MPD2    H712226   3.452   0.727  10.145  1.5367 -4.2736  2.9195
  828MPD2     C12227   1.631   0.107  12.537  0.2574  0.3403  0.2622
  828MPD2    C112228   1.564   0.085  12.416 -0.4137  0.3635  0.2825
  828MPD2    C212229   1.627   0.076  12.300 -0.0576 -0.1439 -0.0891
  828MPD2    C312230   1.758   0.101  12.290  0.6056  0.4605 -0.4282
  828MPD2    C412231   1.825   0.134  12.407 -0.1400  0.4701  0.0566
  828MPD2    C512232   1.763   0.130  12.532  0.2045 -0.7436 -0.4175
  828MPD2     H12233   1.566   0.039  12.217  3.2394 -1.3051 -1.9752
  828MPD2    H112234   1.932   0.152  12.412 -0.4731  2.7752 -0.9488
  828MPD2    H212235   1.590   0.114  12.637 -1.1513  0.2116 -0.3132
  828MPD2    H312236   1.823   0.150  12.620  0.4398 -1.7147 -0.3582
  828MPD2     N12237   1.833   0.102  12.168 -0.2834 -0.3014  0.2938
  828MPD2    H512238   1.934   0.113  12.174 -0.3563 -0.1565  1.3217
  828MPD2    N112239   1.421   0.077  12.407  0.1660  0.3100  0.1883
  828MPD2    H712240   1.379   0.082  12.315  0.3298  0.8104  0.1403
  829MPD2     C12241   0.982   0.049  11.665  0.3957 -0.0477 -0.1729
  829MPD2    C112242   0.885   0.008  11.753  0.0590 -0.6313  0.3843
  829MPD2    C212243   0.912   0.008  11.882  0.2729 -0.4616  0.3783
  829MPD2    C312244   1.042   0.031  11.935 -0.4421  0.1423  0.1757
  829MPD2    C412245   1.139   0.061  11.843 -0.8043 -0.3861 -0.5571
  829MPD2    C512246   1.107   0.066  11.711  0.3453 -0.5025 -0.1310
  829MPD2     H12247   0.830   4.726  11.950 -1.6596  0.7502 -1.5938
  829MPD2    H112248   1.240   0.088  11.869 -1.2343 -0.6308  1.3882
  829MPD2    H212249   0.956   0.045  11.560 -0.2947  0.9894 -0.0505
  829MPD2    H312250   1.191   0.072  11.643  1.4339  1.9734  1.4552
  829MPD2     N12251   1.074   0.035  12.073 -0.1402  0.9026 -0.1542
  829MPD2    H512252   1.173   0.041  12.096  0.6725 -1.8273 -3.0230
  829MPD2    N112253   0.754   4.720  11.692  0.4237 -0.2822  0.4530
  829MPD2    H712254   0.743   4.737  11.593 -0.8571 -0.4459  0.5660
  830MPD2     C12255   1.984   2.091  15.899 -0.0383  0.2227 -0.3642
  830MPD2    C112256   1.920   2.186  15.821  0.6507 -0.1509 -0.0888
  830MPD2    C212257   1.993   2.292  15.767  0.3543 -0.1171  0.0092
  830MPD2    C312258   2.127   2.305  15.786  1.0230 -0.4847  0.4247
  830MPD2    C412259   2.186   2.205  15.858  0.3265 -0.2181  0.5239
  830MPD2    C512260   2.120   2.102  15.918  0.4205  0.1565  0.1222
  830MPD2     H12261   1.943   2.370  15.710  2.2439  0.0873 -1.3836
  830MPD2    H112262   2.294   2.211  15.863  0.2114  1.8424  0.6384
  830MPD2    H212263   1.938   1.996  15.927  0.2355 -0.7159 -3.1201
  830MPD2    H312264   2.163   2.017  15.968  1.2239 -0.3287 -1.4027
  830MPD2     N12265   2.213   2.405  15.724  0.4773  0.1121 -0.5828
  830MPD2    H512266   2.310   2.400  15.753  0.0072  1.9455  1.3465
  830MPD2    N112267   1.782   2.189  15.834 -0.5368  0.6993  0.4638
  830MPD2    H712268   1.737   2.132  15.905 -1.3757  0.8378  0.0343
  831MPD2     C12269   2.007   4.587  16.494  0.1350  0.1196 -0.5303
  831MPD2    C112270   2.045   4.472  16.429 -0.7925 -0.4609  1.1691
  831MPD2    C212271   1.963   4.356  16.447 -0.4116  0.1094 -0.2650
  831MPD2    C312272   1.848   4.351  16.529  0.0895 -0.7059 -1.0609
  831MPD2    C412273   1.824   4.465  16.598 -0.4760 -0.4819 -0.5200
  831MPD2    C512274   1.900   4.582  16.588  0.1662  0.0864  0.1690
  831MPD2     H12275   1.996   4.264  16.400  0.0710 -1.4327  3.0456
  831MPD2    H112276   1.734   4.466  16.658  0.7538 -0.4871  1.3198
  831MPD2    H212277   2.072   4.672  16.476  0.5681  0.1290  1.0971
  831MPD2    H312278   1.878   4.671  16.646 -1.1824 -0.0602 -0.1385
  831MPD2     N12279   1.748   4.253  16.520 -0.3701  0.0595 -0.0844
  831MPD2    H512280   1.657   4.278  16.558 -0.4311 -2.8410  1.6792
  831MPD2    N112281   2.142   4.473  16.325  0.0406  0.6085  0.0532
  831MPD2    H712282   2.169   4.564  16.290 -1.7923  0.6096 -1.3565
  832MPD2     C12283   0.175   0.364  17.248  0.0144  0.4325  0.0425
  832MPD2    C112284   0.137   0.501  17.252 -0.5443  0.4775  0.7479
  832MPD2    C212285   0.035   0.547  17.170  0.9779  0.2417 -0.6203
  832MPD2    C312286   4.703   0.456  17.091 -0.6414  0.2627 -0.5612
  832MPD2    C412287   4.724   0.317  17.097 -0.0378 -0.9325 -0.6198
  832MPD2    C512288   0.099   0.281  17.165  0.6244  0.3357  0.5049
  832MPD2     H12289   4.733   0.647  17.184  0.9162 -0.3633  3.7360
  832MPD2    H112290   4.666   0.244  17.042 -2.2007 -1.2104  2.0644
  832MPD2    H212291   0.253   0.320  17.308 -0.3316 -0.0101  0.1672
  832MPD2    H312292   0.127   0.176  17.155  0.5297  0.0616  3.0313
  832MPD2     N12293   4.602   0.507  17.003 -0.5299 -0.6284  0.1716
  832MPD2    H512294   4.540   0.434  16.970 -2.5720  0.1707  2.3025
  832MPD2    N112295   0.190   0.592  17.343 -0.1017  0.6690 -0.1872
  832MPD2    H712296   0.234   0.561  17.429  1.3588 -1.6863 -1.7841
  833MPD2     C12297   1.715   1.987  12.429 -0.0030  0.0322 -0.9315
  833MPD2    C112298   1.761   2.106  12.382 -0.0087 -0.1566  0.0612
  833MPD2    C212299   1.883   2.151  12.430 -0.3104  0.0451  0.0546
  833MPD2    C312300   1.963   2.078  12.508  0.1015  0.9278 -0.0487
  833MPD2    C412301   1.925   1.951  12.539  0.4548  0.5132 -0.1925
  833MPD2    C512302   1.795   1.915  12.508  0.0827  0.1034  0.7063
  833MPD2     H12303   1.925   2.247  12.401 -0.5215  0.1121 -0.0280
  833MPD2    H112304   1.987   1.893  12.606 -0.0920  0.8678  0.6158
  833MPD2    H212305   1.619   1.943  12.405 -1.0226  0.7338  1.8562
  833MPD2    H312306   1.768   1.818  12.546  0.6711 -1.3300 -2.5052
  833MPD2     N12307   2.090   2.113  12.559 -0.1025  0.3799 -0.2607
  833MPD2    H512308   2.153   2.041  12.594  2.0823  1.6903 -1.4917
  833MPD2    N112309   1.677   2.178  12.298  0.3638 -0.3061 -0.1521
  833MPD2    H712310   1.582   2.144  12.287  0.1858  0.0336  0.3110
  834MPD2     C12311   2.453   1.640  12.021 -0.5669 -0.3514 -0.3323
  834MPD2    C112312   2.441   1.752  11.948  0.1075  0.6433 -0.9168
  834MPD2    C212313   2.447   1.875  12.019 -1.0965  0.0383 -0.2789
  834MPD2    C312314   2.462   1.879  12.152 -0.0409 -0.2246  0.2740
  834MPD2    C412315   2.464   1.758  12.222  0.7237 -0.5610 -0.0892
  834MPD2    C512316   2.464   1.641  12.156 -0.0314  0.3882  0.4698
  834MPD2     H12317   2.438   1.967  11.963  0.2500 -0.4253 -1.2557
  834MPD2    H112318   2.488   1.756  12.328  2.0246 -0.4204 -0.3826
  834MPD2    H212319   2.458   1.544  11.970  1.9704  0.2636 -1.2231
  834MPD2    H312320   2.479   1.544  12.202 -1.0498 -0.1899 -0.4154
  834MPD2     N12321   2.458   2.004  12.215  0.3861 -0.5308  0.1051
  834MPD2    H512322   2.442   2.085  12.156  0.8076 -0.1866  0.4635
  834MPD2    N112323   2.420   1.747  11.804  0.0936 -0.1919 -0.6129
  834MPD2    H712324   2.433   1.660  11.752  1.5478 -0.6160  0.4489
  835MPD2     C12325   2.511   0.351  11.104 -0.0546 -0.7467 -0.2730
  835MPD2    C112326   2.404   0.388  11.186  0.4344 -0.5262  0.4883
  835MPD2    C212327   2.420   0.397  11.326 -0.3461 -0.0273 -0.7197
  835MPD2    C312328   2.540   0.354  11.381 -0.0228 -0.0106 -0.4471
  835MPD2    C412329   2.640   0.316  11.295  0.4741  0.4757  0.3351
  835MPD2    C512330   2.632   0.320  11.157  1.0898 -0.8482 -0.3448
  835MPD2     H12331   2.339   0.438  11.385 -0.7466 -2.4644  0.4422
  835MPD2    H112332   2.735   0.286  11.336  0.1104  0.1404  0.9365
  835MPD2    H212333   2.516   0.337  10.996  3.8257 -1.3952  0.0039
  835MPD2    H312334   2.715   0.292  11.093  2.9939  1.3832  1.1610
  835MPD2     N12335   2.575   0.344  11.520  0.3219  0.2705  0.0263
  835MPD2    H512336   2.672   0.326  11.542  0.0769 -2.5273 -1.1288
  835MPD2    N112337   2.287   0.444  11.137 -0.3991 -0.2641  0.2053
  835MPD2    H712338   2.217   0.471  11.206  1.0629  1.6459  0.9385
  836MPD2     C12339   2.024   0.452  11.779 -0.0479  0.4310  0.0497
  836MPD2    C112340   2.086   0.438  11.897  0.4535  0.3115  0.5138
  836MPD2    C212341   2.021   0.450  12.017  0.7169  0.4790 -0.1541
  836MPD2    C312342   1.884   0.473  12.018  1.0856  0.1589 -0.5945
  836MPD2    C412343   1.819   0.489  11.894 -0.0451 -0.4564  0.3248
  836MPD2    C512344   1.885   0.476  11.775 -0.3047 -0.1077 -0.9244
  836MPD2     H12345   2.076   0.438  12.110  0.5844 -0.8594 -0.2528
  836MPD2    H112346   1.716   0.524  11.890 -0.1336 -0.8536 -0.8762
  836MPD2    H212347   2.074   0.456  11.682  1.7445  0.4854  0.9856
  836MPD2    H312348   1.831   0.489  11.682  1.0523  1.3180 -1.5332
  836MPD2     N12349   1.811   0.483  12.137 -0.0603 -0.7444 -0.7008
  836MPD2    H512350   1.721   0.530  12.136 -0.0954 -0.8312 -1.9688
  836MPD2    N112351   2.233   0.429  11.898  0.1005  0.1309  0.0577
  836MPD2    H712352   2.281   0.439  11.809 -0.6072  0.0889 -0.3216
  837MPD2     C12353   0.443   4.413  10.328 -0.1886  0.0439 -0.0024
  837MPD2    C112354   0.368   4.477  10.230 -0.0283 -0.0389 -0.1716
  837MPD2    C212355   0.385   4.611  10.212  0.5560 -0.2725 -0.3825
  837MPD2    C312356   0.465   4.695  10.296 -0.3514 -0.0006 -0.4756
  837MPD2    C412357   0.543   4.630  10.382 -0.1353 -0.0882 -0.4581
  837MPD2    C512358   0.530   4.496  10.398  0.2173 -0.5057  0.0803
  837MPD2     H12359   0.322   4.667  10.145 -0.4806 -0.5879  0.3383
  837MPD2    H112360   0.618   4.671  10.449  1.2911 -0.3285 -1.9058
  837MPD2    H212361   0.442   4.306  10.346  0.2381 -0.0419 -0.4669
  837MPD2    H312362   0.578   4.455  10.486  0.6633 -0.4362 -0.1266
  837MPD2     N12363   0.439   0.098  10.278 -0.2330 -0.1911 -0.6246
  837MPD2    H512364   0.371   0.128  10.209 -0.0618  1.1844 -0.1944
  837MPD2    N112365   0.262   4.411  10.156 -0.8409  0.2485  0.0124
  837MPD2    H712366   0.219   4.482  10.097 -1.1523  0.5871  0.6422
  838MPD2     C12367   3.877   2.901  12.716 -0.2881 -0.6253  0.1027
  838MPD2    C112368   3.806   2.795  12.660 -0.4026  0.5083  0.1755
  838MPD2    C212369   3.687   2.748  12.726 -0.5009 -0.1883  0.3410
  838MPD2    C312370   3.632   2.813  12.832 -0.2974 -0.2065 -0.8592
  838MPD2    C412371   3.699   2.930  12.874 -0.1333 -0.3237  0.1089
  838MPD2    C512372   3.817   2.963  12.823 -0.5767 -0.0213  0.1025
  838MPD2     H12373   3.647   2.650  12.699  0.6773 -0.1823 -1.4245
  838MPD2    H112374   3.649   2.987  12.952 -0.5615 -2.8316  1.6806
  838MPD2    H212375   3.974   2.926  12.675 -0.5327  0.3772  0.1355
  838MPD2    H312376   3.870   3.048  12.864 -0.0456  0.3051 -1.2815
  838MPD2     N12377   3.507   2.779  12.900  0.0686  0.0111 -0.1337
  838MPD2    H512378   3.474   2.851  12.963 -1.3519 -0.9446  0.2104
  838MPD2    N112379   3.832   2.738  12.538 -0.5336  0.0575 -0.2295
  838MPD2    H712380   3.762   2.673  12.502 -0.3056  0.7883 -1.9650
  839MPD2     C12381   3.362   2.145  12.234  0.3561 -0.1308  0.3137
  839MPD2    C112382   3.399   2.199  12.114  0.5159 -0.2530 -0.0732
  839MPD2    C212383   3.512   2.280  12.099 -0.4281 -0.6104 -0.2657
  839MPD2    C312384   3.581   2.320  12.216 -0.0398  0.4015 -0.8064
  839MPD2    C412385   3.540   2.271  12.339 -0.1457 -0.4231  0.5310
  839MPD2    C512386   3.438   2.180  12.342  0.5363 -0.2701  0.6591
  839MPD2     H12387   3.547   2.302  11.999 -0.1883  1.4663  0.2744
  839MPD2    H112388   3.591   2.292  12.432 -2.4629  1.5648  1.3665
  839MPD2    H212389   3.295   2.061  12.244  0.9443 -0.8937 -2.1702
  839MPD2    H312390   3.406   2.139  12.438 -0.5944  0.5741  0.6469
  839MPD2     N12391   3.687   2.405  12.224  0.4004  0.1705 -0.0653
  839MPD2    H512392   3.722   2.425  12.318  0.4620  0.1421 -0.0826
  839MPD2    N112393   3.328   2.164  11.992 -0.5667 -0.1958  0.9808
  839MPD2    H712394   3.383   2.175  11.907 -0.2170 -1.1225  1.0946
  840MPD2     C12395   3.713   1.168  10.253 -0.7774 -1.1155  0.1913
  840MPD2    C112396   3.741   1.094  10.365  0.1793 -0.5385  0.0853
  840MPD2    C212397   3.860   1.102  10.425 -0.9048  0.5971  0.2270
  840MPD2    C312398   3.957   1.186  10.370  0.0708  0.3553 -0.4345
  840MPD2    C412399   3.920   1.277  10.274  0.0298 -0.2438 -0.0404
  840MPD2    C512400   3.802   1.270  10.208  0.3438  0.1883 -0.6723
  840MPD2     H12401   3.878   1.046  10.516  2.1620 -0.7996 -1.2305
  840MPD2    H112402   3.984   1.356  10.236 -0.3702 -0.6492 -1.5412
  840MPD2    H212403   3.623   1.143  10.199 -0.0740  0.2278 -1.6181
  840MPD2    H312404   3.781   1.337  10.125  0.3345  2.1131  0.8707
  840MPD2     N12405   4.082   1.214  10.432  0.8532  0.7226 -0.2345
  840MPD2    H512406   4.138   1.288  10.391 -0.3533  1.3691 -0.7356
  840MPD2    N112407   3.650   0.985  10.398  0.4559 -0.1192 -0.6749
  840MPD2    H712408   3.568   0.978  10.338 -1.4307 -0.7866  1.9684
  841MPD2     C12409   3.507   4.438  15.294 -0.7070  0.2921 -0.5584
  841MPD2    C112410   3.529   4.355  15.197  0.1614  0.0943 -0.2815
  841MPD2    C212411   3.586   4.399  15.078 -0.3299  0.1197  0.1093
  841MPD2    C312412   3.607   4.536  15.056 -0.3948 -0.4639 -0.1028
  841MPD2    C412413   3.585   4.624  15.164  0.0079  0.1465  0.1104
  841MPD2    C512414   3.531   4.571  15.274  0.3792  0.8503 -0.5076
  841MPD2     H12415   3.606   4.326  15.001  0.7719 -1.1028  1.5406
  841MPD2    H112416   3.603   4.730  15.154 -2.6771  0.5970 -0.0855
  841MPD2    H212417   3.471   4.411  15.392  0.5463 -0.9011 -0.4331
  841MPD2    H312418   3.506   4.647  15.347  1.7800  1.6180 -0.8208
  841MPD2     N12419   3.669   4.574  14.933 -0.9232 -0.4818  0.0961
  841MPD2    H512420   3.687   4.500  14.866  1.0576  1.0020 -1.0158
  841MPD2    N112421   3.513   4.216  15.209 -0.5302 -0.7046 -0.2217
  841MPD2    H712422   3.554   4.153  15.141 -0.2232 -0.0861 -0.6033
  842MPD2     C12423   4.434   1.235  16.926  0.6500 -0.2726  0.0739
  842MPD2    C112424   4.343   1.154  16.873  0.1444  0.1341  0.2682
  842MPD2    C212425   4.326   1.034  16.935 -0.4829 -0.2737 -0.2629
  842MPD2    C312426   4.402   1.003  17.049  0.0011 -0.2612  0.3482
  842MPD2    C412427   4.494   1.086  17.096 -0.6398  0.1362  0.3941
  842MPD2    C512428   4.514   1.208  17.035 -0.5319 -0.2957  0.2520
  842MPD2     H12429   4.259   0.960  16.892 -0.7040 -0.0286 -0.3372
  842MPD2    H112430   4.546   1.064  17.188  0.0431 -1.3404 -0.3492
  842MPD2    H212431   4.449   1.329  16.873  0.0280 -1.0611 -1.5062
  842MPD2    H312432   4.568   1.291  17.079 -3.7763  1.6216  0.5945
  842MPD2     N12433   4.380   0.894  17.133 -0.2781 -0.2180  0.0954
  842MPD2    H512434   4.445   0.878  17.209  0.4045  1.3171 -0.1655
  842MPD2    N112435   4.260   1.204  16.771 -0.8154  0.1721 -0.1134
  842MPD2    H712436   4.281   1.300  16.745  2.4147 -0.3298  0.7103
  843MPD2     C12437   0.966   2.133  17.511 -1.0460  0.1565 -0.0582
  843MPD2    C112438   1.048   2.065  17.598  0.1117  0.1349 -0.4337
  843MPD2    C212439   1.184   2.096  17.601 -0.4415 -0.6328 -0.5997
  843MPD2    C312440   1.240   2.186  17.508 -0.1414  0.3576 -0.1516
  843MPD2    C412441   1.149   2.245  17.416  0.3389  0.2456  0.3491
  843MPD2    C512442   1.015   2.220  17.413  0.2425  0.1853 -0.1585
  843MPD2     H12443   1.245   2.051  17.678 -0.1403  0.2802 -0.3106
  843MPD2    H112444   1.184   2.321  17.347  0.2641 -0.9282 -0.9717
  843MPD2    H212445   0.860   2.115  17.513 -1.0112  0.0865  1.1761
  843MPD2    H312446   0.961   2.273  17.336 -1.9845  0.0303  1.2860
  843MPD2     N12447   1.373   2.222  17.498 -0.1231  0.6686  0.0103
  843MPD2    H512448   1.396   2.279  17.417  1.4607 -0.1574 -0.1311
  843MPD2    N112449   0.986   1.965  17.680 -0.3731 -0.9759 -1.3002
  843MPD2    H712450   0.884   1.968  17.681 -0.3234 -0.1016  0.4115
  844MPD2     C12451   4.494   0.314  16.483 -0.3532  1.1950 -0.1912
  844MPD2    C112452   4.560   0.411  16.404  1.1693 -0.3196  0.5896
  844MPD2    C212453   4.665   0.479  16.456  0.4491 -0.5571  0.5835
  844MPD2    C312454   4.707   0.445  16.580  0.1586  0.5547 -0.6317
  844MPD2    C412455   4.633   0.351  16.656  0.6383 -0.3609 -0.7290
  844MPD2    C512456   4.526   0.287  16.602  0.8470 -0.1549  0.4585
  844MPD2     H12457   4.704   0.560  16.395 -0.4372 -0.8605 -0.4060
  844MPD2    H112458   4.669   0.313  16.752 -0.1886 -0.9111 -0.6414
  844MPD2    H212459   4.412   0.248  16.455  0.9689  0.3088 -1.9928
  844MPD2    H312460   4.472   0.220  16.668  2.0519 -0.2751  1.3174
  844MPD2     N12461   0.078   0.520  16.643  0.0331  0.5390  0.2452
  844MPD2    H512462   0.113   0.598  16.589 -0.0224  0.5342  0.2025
  844MPD2    N112463   4.540   0.415  16.265 -0.0893 -0.1523 -0.1509
  844MPD2    H712464   4.609   0.471  16.214  0.4625  0.2872  1.0758
  845MPD2     C12465   0.108   1.341  17.124  0.3562 -0.2305 -0.1645
  845MPD2    C112466   0.069   1.233  17.200  0.2932 -0.2529 -0.1790
  845MPD2    C212467   0.100   1.107  17.157  0.1206 -0.0745 -0.4792
  845MPD2    C312468   0.178   1.086  17.042  0.1443  0.1443  0.0790
  845MPD2    C412469   0.201   1.198  16.960  0.7817  0.0709 -0.0743
  845MPD2    C512470   0.162   1.318  17.001 -0.3318 -0.3447  0.1864
  845MPD2     H12471   0.072   1.019  17.213  1.4506  1.2323  2.2467
  845MPD2    H112472   0.232   1.188  16.856 -2.0410  0.9532 -0.9968
  845MPD2    H212473   0.080   1.442  17.154 -1.3328 -0.4971 -0.8349
  845MPD2    H312474   0.171   1.401  16.931 -0.2738 -2.8433 -2.7758
  845MPD2     N12475   0.208   0.957  17.009 -0.3904  0.0122 -0.4529
  845MPD2    H512476   0.187   0.874  17.064 -2.0902  0.2234 -0.7694
  845MPD2    N112477   4.737   1.262  17.323 -0.1917  1.0119  0.1433
  845MPD2    H712478   4.705   1.358  17.325 -1.1464  0.6419  3.0451
  846MPD2     C12479   1.798   1.838  13.525  0.5695  0.6952 -0.5997
  846MPD2    C112480   1.689   1.916  13.557 -0.0662  0.2953 -0.2782
  846MPD2    C212481   1.665   1.955  13.686 -0.5442  0.2115  0.4869
  846MPD2    C312482   1.728   1.883  13.786 -0.2272  0.1360  0.1362
  846MPD2    C412483   1.828   1.790  13.759 -0.1300 -0.6002 -0.0075
  846MPD2    C512484   1.862   1.776  13.626  0.2891  0.0850 -0.3368
  846MPD2     H12485   1.582   2.022  13.705 -2.9679 -2.3427 -0.9613
  846MPD2    H112486   1.872   1.720  13.829  0.3146  0.3635  0.6709
  846MPD2    H212487   1.828   1.827  13.422 -0.4321  0.0616 -0.8265
  846MPD2    H312488   1.951   1.715  13.614 -0.1434 -0.9373  1.7479
  846MPD2     N12489   1.674   1.899  13.913  0.5040 -0.0339  0.0795
  846MPD2    H512490   1.595   1.960  13.931 -2.1420 -3.4420 -0.0723
  846MPD2    N112491   1.624   1.995  13.458  0.4260  0.9214  0.2440
  846MPD2    H712492   1.575   2.082  13.478  0.1101  1.1704 -1.6485
  847MPD2     C12493   2.035   3.165  14.081 -0.6230  0.3922  0.2351
  847MPD2    C112494   2.159   3.113  14.128 -0.0946  0.4117  0.0668
  847MPD2    C212495   2.175   2.981  14.160  0.1572  0.5947  0.0025
  847MPD2    C312496   2.068   2.893  14.135 -0.5150 -0.3956 -0.1727
  847MPD2    C412497   1.945   2.939  14.097 -0.0272  0.1723  0.3511
  847MPD2    C512498   1.928   3.076  14.079 -0.5740  0.0702  0.2497
  847MPD2     H12499   2.273   2.943  14.188  0.3942  1.0822 -0.1678
  847MPD2    H112500   1.859   2.876  14.078 -0.7823  0.9088  1.3315
  847MPD2    H212501   2.015   3.269  14.059  0.4428  0.5459 -0.0342
  847MPD2    H312502   1.829   3.111  14.055 -0.9049 -1.3782 -0.4761
  847MPD2     N12503   2.097   2.759  14.171 -0.1168 -0.6182 -0.3908
  847MPD2    H512504   2.190   2.755  14.212 -0.7058  0.0274  1.0022
  847MPD2    N112505   2.266   3.203  14.145  0.0424 -0.1049  0.6930
  847MPD2    H712506   2.354   3.158  14.169  0.2529  0.3127  0.7192
  848MPD2     C12507   4.423   1.079  16.376 -0.2045 -0.2997  0.4300
  848MPD2    C112508   4.498   1.066  16.495  0.5864  0.6194 -0.1982
  848MPD2    C212509   4.604   1.151  16.526 -0.3276 -0.6393  0.4949
  848MPD2    C312510   4.645   1.241  16.437  0.1301 -0.7038 -0.4564
  848MPD2    C412511   4.579   1.253  16.317 -0.5727 -0.5033 -0.1311
  848MPD2    C512512   4.472   1.177  16.283 -0.1915  0.3322 -0.5203
  848MPD2     H12513   4.661   1.141  16.618 -1.0640  0.1317  1.0373
  848MPD2    H112514   4.620   1.319  16.241  0.7061 -0.7411  0.3489
  848MPD2    H212515   4.338   1.018  16.349 -1.3332  0.6567  1.8486
  848MPD2    H312516   4.427   1.201  16.187 -0.2993 -0.3367 -0.6417
  848MPD2     N12517   0.001   1.341  16.469  0.1896 -0.2980  0.3836
  848MPD2    H512518   0.021   1.401  16.389  0.3373 -3.1367 -1.7198
  848MPD2    N112519   4.473   0.958  16.589 -0.0653 -0.1968 -0.2559
  848MPD2    H712520   4.538   0.958  16.667  0.5581 -2.5170 -0.7665
  849MPD2     C12521   3.771   1.067  14.230  0.5212 -0.8901  0.1267
  849MPD2    C112522   3.889   0.994  14.221 -0.2534 -0.6328  0.1238
  849MPD2    C212523   3.910   0.893  14.310 -0.5078 -0.6962  0.3439
  849MPD2    C312524   3.814   0.857  14.407  0.0881 -0.3986 -0.1756
  849MPD2    C412525   3.699   0.935  14.414  0.4588 -0.0122  0.0786
  849MPD2    C512526   3.682   1.036  14.328  0.1309 -0.0981 -0.2310
  849MPD2     H12527   4.006   0.843  14.310  0.0835  0.4479  1.0846
  849MPD2    H112528   3.624   0.915  14.489  1.1350  0.3045  0.8344
  849MPD2    H212529   3.738   1.147  14.166 -0.4695 -1.7394 -0.4186
  849MPD2    H312530   3.587   1.089  14.327 -0.5580 -1.3599 -1.2415
  849MPD2     N12531   3.835   0.743  14.486  0.0578 -0.1661 -0.6959
  849MPD2    H512532   3.914   0.682  14.468  1.5900  1.3352  0.9345
  849MPD2    N112533   4.001   1.013  14.140  0.1060  0.1543 -0.2779
  849MPD2    H712534   4.079   0.948  14.138 -0.2552 -0.2933  0.1885
  850MPD2     C12535   2.182   3.435  14.902 -0.2157 -0.4766 -0.2795
  850MPD2    C112536   2.190   3.510  15.015  0.0203 -0.3706 -0.6792
  850MPD2    C212537   2.303   3.588  15.039 -0.7753  0.2287 -0.4670
  850MPD2    C312538   2.408   3.595  14.951 -0.2746 -0.4547  0.3863
  850MPD2    C412539   2.396   3.519  14.833 -0.0057 -0.0216  0.2091
  850MPD2    C512540   2.279   3.451  14.808  0.3276  0.1622 -0.6161
  850MPD2     H12541   2.309   3.642  15.133 -0.0283 -1.6359  0.5690
  850MPD2    H112542   2.467   3.528  14.752  0.6911 -1.1488  0.6972
  850MPD2    H212543   2.092   3.381  14.877 -1.3868  0.5373  1.7141
  850MPD2    H312544   2.270   3.398  14.715 -0.5290 -0.3386 -0.2448
  850MPD2     N12545   2.523   3.666  14.986 -0.1282 -0.5726 -0.1970
  850MPD2    H512546   2.603   3.676  14.923 -1.2912  0.5994 -1.4877
  850MPD2    N112547   2.099   3.486  15.120  0.3237  0.2593 -0.0735
  850MPD2    H712548   2.029   3.417  15.096  0.6480 -0.0102 -0.2406
  851MPD2     C12549   2.322   3.268  15.852 -0.4394  0.6262  0.2316
  851MPD2    C112550   2.264   3.229  15.734 -0.1752 -0.5845 -0.1297
  851MPD2    C212551   2.313   3.108  15.681 -0.0174  0.2248 -1.0232
  851MPD2    C312552   2.398   3.028  15.752 -0.2255 -0.2098 -0.7214
  851MPD2    C412553   2.445   3.065  15.875  0.1225  0.1120 -0.7044
  851MPD2    C512554   2.408   3.190  15.922 -0.5122  0.1304  0.0107
  851MPD2     H12555   2.289   3.069  15.583 -1.4197  0.2035 -0.6703
  851MPD2    H112556   2.518   3.000  15.923 -1.9805 -2.0347 -0.3929
  851MPD2    H212557   2.290   3.361  15.899 -0.1842  0.9262 -0.1931
  851MPD2    H312558   2.437   3.218  16.023  0.8245  0.4462 -0.4644
  851MPD2     N12559   2.433   2.907  15.688 -0.1795 -0.1663 -0.0629
  851MPD2    H512560   2.401   2.900  15.592 -1.0628 -1.1032  0.2991
  851MPD2    N112561   2.162   3.300  15.679 -0.5398  0.7997  0.7086
  851MPD2    H712562   2.160   3.399  15.702 -0.9703  1.1727 -0.9270
  852MPD2     C12563   1.400   2.151  10.205  0.5710 -0.4566 -0.0669
  852MPD2    C112564   1.423   2.195  10.333  0.1597  0.5005 -0.2210
  852MPD2    C212565   1.437   2.324  10.357 -0.5507  0.0824  0.0573
  852MPD2    C312566   1.439   2.422  10.256 -0.2502 -0.6847  0.7219
  852MPD2    C412567   1.414   2.380  10.129  0.9391 -0.2974  0.1507
  852MPD2    C512568   1.395   2.244  10.107  0.4273  0.3129 -0.6439
  852MPD2     H12569   1.452   2.361  10.457 -0.7228  0.8755 -0.2104
  852MPD2    H112570   1.396   2.450  10.048  2.9734  0.0020 -0.0473
  852MPD2    H212571   1.383   2.054  10.159  0.3357 -0.2445 -0.4341
  852MPD2    H312572   1.371   2.206  10.008 -1.6235  1.3352 -0.5391
  852MPD2     N12573   1.465   2.554  10.300  0.3420 -0.0585 -0.2259
  852MPD2    H512574   1.506   2.552  10.393 -1.4630  2.1506  0.6332
  852MPD2    N112575   1.423   2.116  10.443 -0.0392  0.0697  0.1099
  852MPD2    H712576   1.426   2.168  10.530  1.9304  1.5629 -0.8554
  853MPD2     C12577   3.436   0.959  12.340 -0.3563 -0.3901  0.5151
  853MPD2    C112578   3.359   1.075  12.364  0.6797  0.7813 -0.0890
  853MPD2    C212579   3.339   1.172  12.266 -0.5018  0.1635  0.3819
  853MPD2    C312580   3.393   1.151  12.140  0.2609 -0.3731  0.3832
  853MPD2    C412581   3.453   1.027  12.110 -0.4257  0.4058 -0.7384
  853MPD2    C512582   3.467   0.935  12.207  0.6943  0.2283  0.5700
  853MPD2     H12583   3.297   1.268  12.292 -3.7141 -1.2230  0.2017
  853MPD2    H112584   3.479   1.005  12.007  1.2435 -0.6798 -0.0882
  853MPD2    H212585   3.457   0.882  12.414 -3.2152 -2.2148 -0.5514
  853MPD2    H312586   3.521   0.845  12.177 -3.0067 -2.2665  1.4532
  853MPD2     N12587   3.383   1.234  12.028  0.1205 -0.2379  0.1695
  853MPD2    H512588   3.437   1.202  11.948 -0.7882 -0.7199 -0.2518
  853MPD2    N112589   3.321   1.102  12.501  0.7315  0.7219 -0.2871
  853MPD2    H712590   3.326   1.029  12.571 -1.1048  0.1150 -0.7823
  854MPD2     C12591   0.163   1.468  13.032  0.4241 -0.2101  0.1606
  854MPD2    C112592   0.220   1.549  12.933 -0.0923 -0.1873 -0.1618
  854MPD2    C212593   0.348   1.513  12.893  0.0395 -0.1899  0.0236
  854MPD2    C312594   0.409   1.403  12.954  0.0064 -0.2191 -0.2915
  854MPD2    C412595   0.356   1.335  13.062 -0.0995 -0.2833 -0.0297
  854MPD2    C512596   0.233   1.363  13.096 -0.7892  1.6961  0.0031
  854MPD2     H12597   0.392   1.564  12.809 -1.7332  0.7116 -0.3348
  854MPD2    H112598   0.414   1.252  13.101 -1.2109 -1.2630 -0.4577
  854MPD2    H212599   0.063   1.492  13.067 -0.2476 -3.7976  0.6584
  854MPD2    H312600   0.180   1.316  13.179 -1.8451  1.4924 -0.7793
  854MPD2     N12601   0.542   1.359  12.916 -0.8297  0.2529  0.0266
  854MPD2    H512602   0.598   1.313  12.987  1.5698  0.5163 -1.7109
  854MPD2    N112603   0.145   1.648  12.870 -0.5341 -0.0705  0.5096
  854MPD2    H712604   0.053   1.663  12.911 -0.6127 -1.6718  0.9043
  855MPD2     C12605   1.402   1.285  13.380  0.6539  0.0732 -0.3911
  855MPD2    C112606   1.269   1.290  13.414 -1.6141  0.2216 -0.0480
  855MPD2    C212607   1.172   1.318  13.319 -0.9619 -0.6772  0.3568
  855MPD2    C312608   1.209   1.340  13.187  0.1926  0.2237 -0.3218
  855MPD2    C412609   1.344   1.332  13.151  0.3423  0.0596 -0.4698
  855MPD2    C512610   1.435   1.297  13.251  0.2356  0.0328 -0.8390
  855MPD2     H12611   1.071   1.348  13.345  0.1752  2.8232  0.7809
  855MPD2    H112612   1.388   1.355  13.054  1.9524 -2.3890 -0.3191
  855MPD2    H212613   1.476   1.266  13.457 -0.0375 -1.8184 -0.2092
  855MPD2    H312614   1.539   1.303  13.222 -0.1621 -0.0104 -2.2683
  855MPD2     N12615   1.119   1.365  13.077 -0.4132  1.0211 -0.0268
  855MPD2    H512616   1.173   1.380  12.993 -0.5480  0.8505 -0.1440
  855MPD2    N112617   1.216   1.265  13.547  0.7453  0.4078 -0.1449
  855MPD2    H712618   1.115   1.262  13.556  1.0599  1.3111  3.4957
  856MPD2     C12619   3.092   1.748  14.221 -0.1024  0.3421 -0.4189
  856MPD2    C112620   3.063   1.881  14.190 -0.0336  0.7630 -0.3555
  856MPD2    C212621   2.935   1.919  14.149 -0.8705 -0.3184 -0.4080
  856MPD2    C312622   2.839   1.816  14.143  0.0159 -0.1346  0.0193
  856MPD2    C412623   2.864   1.687  14.171 -0.9795  0.3780  1.1102
  856MPD2    C512624   2.994   1.658  14.210  0.0531  0.2808  0.3538
  856MPD2     H12625   2.919   2.021  14.114  1.2252  0.8355  1.9847
  856MPD2    H112626   2.779   1.620  14.179 -1.6205  0.9176 -1.0591
  856MPD2    H212627   3.187   1.712  14.259 -0.2942  1.0609  0.7477
  856MPD2    H312628   3.021   1.557  14.239 -1.3347 -0.1929  0.0135
  856MPD2     N12629   2.700   1.852  14.097  0.2234  0.7081 -0.3703
  856MPD2    H512630   2.635   1.775  14.085  2.0684 -1.1941  1.7731
  856MPD2    N112631   3.149   1.987  14.213 -0.5509  0.1493  0.1602
  856MPD2    H712632   3.108   2.080  14.212  0.2154  0.4480 -2.1123
  857MPD2     C12633   4.232   4.439  12.662  0.6666 -0.4267  1.2066
  857MPD2    C112634   4.315   4.427  12.775  0.0818  0.1516  0.6638
  857MPD2    C212635   4.363   4.547  12.831 -0.2444 -0.4888 -0.5955
  857MPD2    C312636   4.316   4.668  12.781 -0.1566 -0.2160  0.1157
  857MPD2    C412637   4.227   4.674  12.674 -0.5700  0.3417 -0.3836
  857MPD2    C512638   4.186   4.559  12.619  0.1449  0.0114 -0.1870
  857MPD2     H12639   4.433   4.545  12.913  1.1825  1.6741 -1.7751
  857MPD2    H112640   4.181   0.030  12.645 -0.7257 -0.5037 -2.8245
  857MPD2    H212641   4.194   4.357  12.602 -0.6530  0.7437  0.4300
  857MPD2    H312642   4.124   4.561  12.531  0.5853 -1.3127 -0.5352
  857MPD2     N12643   4.376   0.049  12.835  0.2251 -0.3782 -0.0154
  857MPD2    H512644   4.425   0.026  12.920 -0.6574  0.5728  0.7491
  857MPD2    N112645   4.375   4.303  12.807 -0.1766  0.3465 -1.0747
  857MPD2    H712646   4.344   4.222  12.754 -0.6252 -0.8500  1.0146
  858MPD2     C12647   4.737   3.301  16.435  0.0250 -0.3418 -0.3733
  858MPD2    C112648   0.136   3.292  16.468  0.0773 -0.2718 -0.7018
  858MPD2    C212649   0.181   3.343  16.593  0.2244  0.1983  0.4264
  858MPD2    C312650   0.091   3.414  16.672 -0.3482 -0.5973 -0.2688
  858MPD2    C412651   4.693   3.435  16.632 -0.7394 -0.7942 -0.0381
  858MPD2    C512652   4.652   3.376  16.512  0.5042 -1.4441  0.2381
  858MPD2     H12653   0.280   3.315  16.627  0.5437  1.0703  0.2022
  858MPD2    H112654   4.609   3.483  16.682  2.0752 -0.3947  4.2538
  858MPD2    H212655   4.702   3.258  16.342  0.0318 -0.8503 -0.1415
  858MPD2    H312656   4.545   3.378  16.494  0.2131 -0.7243  2.0091
  858MPD2     N12657   0.136   3.481  16.784  0.1900  0.0552 -0.1452
  858MPD2    H512658   0.080   3.558  16.817  2.6983  1.6849  0.3309
  858MPD2    N112659   0.208   3.218  16.375  0.5452 -0.6077  0.4170
  858MPD2    H712660   0.159   3.186  16.292  1.0561  0.5713 -0.3281
  859MPD2     C12661   3.761   0.351  15.836  0.2306 -0.9022  0.8209
  859MPD2    C112662   3.787   0.325  15.705  0.2860 -0.2252  0.5044
  859MPD2    C212663   3.777   0.191  15.667  0.2583  0.1523  0.1845
  859MPD2    C312664   3.721   0.096  15.752  0.3598  0.5344  0.2887
  859MPD2    C412665   3.677   0.133  15.879 -0.6704 -0.1094  0.1398
  859MPD2    C512666   3.697   0.264  15.919 -0.3805  0.0874  0.2290
  859MPD2     H12667   3.803   0.170  15.564  0.4128 -0.1308  0.2813
  859MPD2    H112668   3.632   0.060  15.945 -3.4820  1.4712 -0.0548
  859MPD2    H212669   3.771   0.453  15.871 -0.2468 -0.6738  0.2919
  859MPD2    H312670   3.674   0.294  16.020  2.7370  0.9964  0.6378
  859MPD2     N12671   3.701   4.696  15.724  0.4267  0.0700 -0.1813
  859MPD2    H512672   3.664   4.643  15.801 -0.0924 -0.8967 -1.0910
  859MPD2    N112673   3.826   0.432  15.627  0.2315 -0.0637 -0.2101
  859MPD2    H712674   3.824   0.521  15.675 -0.5638  0.1205 -0.5896
  860MPD2     C12675   1.649   1.363  11.564 -0.3648 -0.6277  0.0457
  860MPD2    C112676   1.651   1.300  11.691  0.0992 -0.0738  0.1281
  860MPD2    C212677   1.530   1.266  11.744  0.2170 -0.0055  0.1420
  860MPD2    C312678   1.414   1.273  11.671  0.2077 -0.0584 -0.8742
  860MPD2    C412679   1.419   1.330  11.546 -0.0835 -0.1464 -0.0495
  860MPD2    C512680   1.535   1.377  11.496  0.1190 -1.2385 -0.2698
  860MPD2     H12681   1.529   1.232  11.847 -1.7968  2.4871  0.9402
  860MPD2    H112682   1.331   1.337  11.484 -0.3620 -2.0022  0.1470
  860MPD2    H212683   1.749   1.389  11.531 -1.4693  2.3887 -0.8910
  860MPD2    H312684   1.528   1.422  11.398  0.5013  0.8593  0.6623
  860MPD2     N12685   1.291   1.225  11.724  0.3077  0.3611 -0.2238
  860MPD2    H512686   1.293   1.200  11.822 -0.2576 -0.2795 -0.3817
  860MPD2    N112687   1.771   1.307  11.773  0.4134  0.4213  0.3561
  860MPD2    H712688   1.767   1.252  11.858 -0.4281 -0.1903 -0.0732
  861MPD2     C12689   0.256   3.862  11.061 -0.6878 -0.4178  0.9213
  861MPD2    C112690   0.281   3.996  11.030 -0.1103  0.5161  0.4087
  861MPD2    C212691   0.197   4.059  10.934  0.3271 -0.3242  0.1338
  861MPD2    C312692   0.087   4.005  10.890  0.2449 -0.7747  0.2176
  861MPD2    C412693   0.063   3.873  10.923  0.6207  0.2046  0.0104
  861MPD2    C512694   0.146   3.795  10.996  0.8728 -0.0908 -0.3901
  861MPD2     H12695   0.206   4.167  10.935 -1.7141 -0.1329 -1.4688
  861MPD2    H112696   4.718   3.815  10.882  0.4748  0.0390  0.5309
  861MPD2    H212697   0.323   3.806  11.125  0.0041  0.0502  0.6082
  861MPD2    H312698   0.111   3.695  11.021  0.0738  0.2591 -0.1202
  861MPD2     N12699   4.720   4.079  10.837 -0.5453 -0.5123 -0.6041
  861MPD2    H512700   4.623   4.049  10.847 -0.8558  0.4820 -0.5582
  861MPD2    N112701   0.381   4.073  11.095  0.1006  0.0155 -0.6457
  861MPD2    H712702   0.401   4.169  11.068  0.5962  0.1481  0.2005
  862MPD2     C12703   3.996   4.100  10.781 -0.6409 -0.1120  0.3407
  862MPD2    C112704   4.108   4.103  10.872 -0.8194  0.2698 -0.5625
  862MPD2    C212705   4.098   4.029  10.986  0.1877  0.7282 -0.2060
  862MPD2    C312706   3.995   3.943  11.012  0.9469 -0.1786 -0.6127
  862MPD2    C412707   3.885   3.947  10.927  0.5593 -0.1583  0.2958
  862MPD2    C512708   3.887   4.023  10.809 -0.0579 -0.0877  0.0165
  862MPD2     H12709   4.187   4.024  11.047  0.5137 -2.6850 -1.0137
  862MPD2    H112710   3.798   3.883  10.939 -0.0983  0.7218  0.2664
  862MPD2    H212711   3.993   4.152  10.686  2.3329 -0.3848  0.0716
  862MPD2    H312712   3.805   4.035  10.740  0.9010 -0.4626 -1.1811
  862MPD2     N12713   3.985   3.853  11.118 -0.0954 -0.1721 -0.0337
  862MPD2    H512714   3.907   3.788  11.117  0.0634 -0.3592 -1.3029
  862MPD2    N112715   4.237   4.141  10.827 -0.0322  0.7950  0.1120
  862MPD2    H712716   4.315   4.104  10.879 -0.6463 -0.3148  0.2475
  863MPD2     C12717   3.028   2.463  16.979 -0.4570 -0.2574 -0.0093
  863MPD2    C112718   3.079   2.397  16.872  0.2345 -0.2296 -0.0483
  863MPD2    C212719   3.199   2.331  16.890  0.1772 -1.1678  0.0157
  863MPD2    C312720   3.261   2.320  17.020  0.0483  0.3028 -0.6606
  863MPD2    C412721   3.200   2.390  17.123  0.1480  0.0830  0.3694
  863MPD2    C512722   3.094   2.469  17.105 -0.0280 -0.0460 -0.0996
  863MPD2     H12723   3.242   2.276  16.807  1.1507  2.6360 -2.0262
  863MPD2    H112724   3.241   2.389  17.223  0.8071  0.4607  0.1071
  863MPD2    H212725   2.944   2.532  16.976  0.6872  1.1073 -0.2276
  863MPD2    H312726   3.053   2.532  17.183  1.2647  0.7064 -0.0300
  863MPD2     N12727   3.378   2.250  17.056  0.2140  0.5872 -0.2591
  863MPD2    H512728   3.406   2.254  17.154 -3.2547  1.2501  0.7116
  863MPD2    N112729   3.005   2.403  16.751  0.5001 -0.5244 -0.3123
  863MPD2    H712730   2.924   2.464  16.746  0.2552 -0.7651  0.8042
  864MPD2     C12731   3.502   3.090  16.355  0.0951  0.1654  0.0463
  864MPD2    C112732   3.618   3.029  16.389  0.1344  0.0702  0.3676
  864MPD2    C212733   3.731   3.107  16.396 -0.2910 -0.2412 -0.5040
  864MPD2    C312734   3.727   3.240  16.369 -0.4146  0.1827 -0.4530
  864MPD2    C412735   3.602   3.295  16.338 -0.5707 -0.2495 -0.2460
  864MPD2    C512736   3.494   3.218  16.329  0.6701 -0.4946 -0.6578
  864MPD2     H12737   3.821   3.063  16.438 -0.6776  2.2497  2.9431
  864MPD2    H112738   3.581   3.400  16.319 -1.1905 -0.1330  1.1142
  864MPD2    H212739   3.414   3.027  16.355  0.4340 -0.3067  0.1609
  864MPD2    H312740   3.399   3.262  16.304  0.9460  2.2523  3.0427
  864MPD2     N12741   3.845   3.326  16.377  0.2941 -0.4391  0.3399
  864MPD2    H512742   3.824   3.424  16.356  0.1584 -0.5147  0.1264
  864MPD2    N112743   3.620   2.889  16.423 -0.1754  0.1502 -0.3017
  864MPD2    H712744   3.535   2.841  16.452  0.3735 -0.3670  0.4291
  865MPD2     C12745   4.103   3.838  16.008 -0.5930  0.4674  0.0993
  865MPD2    C112746   4.082   3.717  16.066 -0.1600  0.1299  0.2425
  865MPD2    C212747   4.031   3.723  16.193  0.1590  0.4083 -0.5248
  865MPD2    C312748   4.015   3.840  16.257 -0.0720 -0.1950 -0.4536
  865MPD2    C412749   4.040   3.952  16.196  0.8350  1.2358 -0.4452
  865MPD2    C512750   4.076   3.959  16.067  0.0275  0.3324  0.0693
  865MPD2     H12751   4.007   3.629  16.241  1.1500  0.6674  0.5009
  865MPD2    H112752   4.017   4.039  16.257 -1.1885 -0.3818  1.0791
  865MPD2    H212753   4.135   3.848  15.905  1.3253 -2.1554  0.4111
  865MPD2    H312754   4.091   4.052  16.014  1.2894 -0.4309 -0.9234
  865MPD2     N12755   3.969   3.849  16.394 -0.0308  0.5468 -0.1369
  865MPD2    H512756   3.918   3.934  16.417 -0.0680  0.9430 -1.6711
  865MPD2    N112757   4.118   3.598  15.994 -0.1446 -0.3934  0.6128
  865MPD2    H712758   4.154   3.613  15.901  1.3673 -0.3828  1.1977
  866MPD2     C12759   0.933   0.515  11.170  0.7242  0.0433 -0.3201
  866MPD2    C112760   0.930   0.431  11.059  0.6081 -0.4210 -0.4377
  866MPD2    C212761   0.823   0.346  11.048 -0.1212  0.2727 -0.5204
  866MPD2    C312762   0.706   0.373  11.119  0.2918 -0.2317 -0.0993
  866MPD2    C412763   0.695   0.484  11.206 -0.4306 -0.3384 -0.7428
  866MPD2    C512764   0.814   0.549  11.229 -0.3283  0.9440 -0.2473
  866MPD2     H12765   0.820   0.263  10.978 -0.3209  1.2195 -1.6288
  866MPD2    H112766   0.611   0.497  11.273 -0.6263  0.8534 -1.2259
  866MPD2    H212767   1.024   0.568  11.198  1.2448  0.0011 -1.9056
  866MPD2    H312768   0.823   0.624  11.307  2.0824 -0.5533  0.8975
  866MPD2     N12769   0.594   0.289  11.089 -0.3272 -0.1635 -0.0464
  866MPD2    H512770   0.505   0.314  11.133 -1.7981 -3.9296 -0.8960
  866MPD2    N112771   1.047   0.425  10.977  0.3830 -0.2018  0.5201
  866MPD2    H712772   1.114   0.499  10.995  0.3588 -0.6787  2.5345
  867MPD2     C12773   2.858   3.300  16.762  0.3857 -0.2181 -0.8088
  867MPD2    C112774   2.957   3.294  16.858 -0.0075  0.6125  0.4697
  867MPD2    C212775   2.994   3.415  16.921  0.2163 -0.4929  0.6549
  867MPD2    C312776   2.942   3.539  16.881  0.0630 -0.5225 -0.0385
  867MPD2    C412777   2.847   3.536  16.781 -0.2771  0.7582  0.2215
  867MPD2    C512778   2.815   3.419  16.723 -0.0235 -0.0207  0.3057
  867MPD2     H12779   3.080   3.422  16.987  0.0410  2.4974  0.5800
  867MPD2    H112780   2.799   3.627  16.747  3.0961  2.6265  0.4528
  867MPD2    H212781   2.822   3.214  16.706  0.9411 -0.2989 -1.0453
  867MPD2    H312782   2.728   3.417  16.658  0.2250  1.1671 -0.0608
  867MPD2     N12783   2.971   3.668  16.937 -0.8299 -0.3631 -0.1468
  867MPD2    H512784   2.919   3.742  16.891 -1.7725  0.7890  2.7713
  867MPD2    N112785   3.019   3.169  16.891  0.0254 -0.4211 -0.0885
  867MPD2    H712786   2.990   3.085  16.842  1.4200  0.0049 -1.6636
  868MPD2     C12787   4.570   2.672  13.015  0.1431  0.5462 -0.3156
  868MPD2    C112788   4.624   2.599  13.119 -0.4195  0.0811 -0.0755
  868MPD2    C212789   4.595   2.636  13.243 -0.2575  0.9139  0.9317
  868MPD2    C312790   4.501   2.733  13.270  0.4066  0.4804  0.1505
  868MPD2    C412791   4.432   2.795  13.162  0.2962  0.1756 -0.0751
  868MPD2    C512792   4.474   2.769  13.032 -0.5801  0.2551 -0.1266
  868MPD2     H12793   4.640   2.579  13.324 -2.6121  1.8043  2.8719
  868MPD2    H112794   4.347   2.861  13.169 -2.8545 -3.7580 -0.7810
  868MPD2    H212795   4.599   2.657  12.911  1.3592  1.9734 -0.1754
  868MPD2    H312796   4.433   2.821  12.947 -1.1798  1.8788  1.1531
  868MPD2     N12797   4.468   2.746  13.407 -0.4385  0.1767 -0.2392
  868MPD2    H512798   4.520   2.687  13.470  1.0901 -1.0775 -2.6684
  868MPD2    N112799   4.710   2.490  13.092  0.2183 -0.3975 -0.1037
  868MPD2    H712800   4.724   2.473  12.993 -0.6487  0.2407 -0.3326
  869MPD2     C12801   0.328   0.558   0.934 -0.5746 -0.7174 -0.2662
  869MPD2    C112802   0.384   0.612   0.822  0.1201  1.1013 -0.6291
  869MPD2    C212803   0.492   0.695   0.850 -0.1427  0.4552  0.9141
  869MPD2    C312804   0.561   0.707   0.973  0.1770 -0.2106  0.0390
  869MPD2    C412805   0.507   0.636   1.078 -0.1805 -0.2491  0.3824
  869MPD2    C512806   0.387   0.561   1.058  0.5031  0.5570 -0.2289
  869MPD2     H12807   0.541   0.740   0.764 -1.0259 -0.6956 -0.1972
  869MPD2    H112808   0.544   0.646   1.179 -1.1407  0.5743  0.6595
  869MPD2    H212809   0.237   0.498   0.933 -2.3099  1.9063 -0.7762
  869MPD2    H312810   0.342   0.509   1.142  3.0067 -1.0917  0.1051
  869MPD2     N12811   0.672   0.797   0.994  0.8253 -0.2926  0.1112
  869MPD2    H512812   0.700   0.804   1.091 -0.2923 -1.1575  0.4983
  869MPD2    N112813   0.331   0.582   0.691  0.0338 -0.7781 -0.3820
  869MPD2    H712814   0.249   0.522   0.696 -1.3109  1.0741 -0.0696
  870MPD2     C12815   4.508   0.121   1.404  0.2079 -0.8050  0.0954
  870MPD2    C112816   4.532   0.037   1.299 -0.2131  0.0991 -0.0455
  870MPD2    C212817   4.480   0.072   1.177  0.2954 -0.2037  0.4563
  870MPD2    C312818   4.399   0.184   1.152 -0.0984 -0.0838  0.4105
  870MPD2    C412819   4.380   0.266   1.254 -0.3139  0.3524  0.5109
  870MPD2    C512820   4.430   0.234   1.380  0.4420 -0.2552  0.6182
  870MPD2     H12821   4.487   0.007   1.091 -0.4751 -2.3443  2.0095
  870MPD2    H112822   4.332   0.363   1.243 -0.9509  0.2688  2.4749
  870MPD2    H212823   4.562   0.117   1.497 -1.0392 -1.1150  0.8112
  870MPD2    H312824   4.422   0.294   1.469  2.5437 -1.4074  1.5900
  870MPD2     N12825   4.360   0.198   1.016 -0.1319 -0.5472 -0.1061
  870MPD2    H512826   4.394   0.123   0.957  0.3571  2.5462 -3.7372
  870MPD2    N112827   4.616   4.664   1.323 -0.3471  0.0428 -0.0109
  870MPD2    H712828   4.667   4.652   1.410 -1.8489  0.8209  0.9807
  871MPD2     C12829   1.864   3.755  16.432 -0.0442 -0.2378  0.0160
  871MPD2    C112830   1.839   3.677  16.539 -0.4330  0.2604 -0.0209
  871MPD2    C212831   1.854   3.542  16.527 -0.2388 -0.3459  0.0737
  871MPD2    C312832   1.910   3.487  16.410  0.1724 -0.4334 -0.0472
  871MPD2    C412833   1.937   3.569  16.300  0.4218  0.1003  0.1671
  871MPD2    C512834   1.913   3.706  16.312  0.3809  0.3503  0.2218
  871MPD2     H12835   1.825   3.473  16.605 -1.8654 -0.3454 -0.5301
  871MPD2    H112836   1.969   3.526  16.205 -0.2075  0.5049 -0.2265
  871MPD2    H212837   1.876   3.862  16.441  2.0941 -0.6298  1.7570
  871MPD2    H312838   1.933   3.781  16.237  0.1025 -0.2739 -0.4752
  871MPD2     N12839   1.908   3.342  16.398  0.6502  1.0088  0.0609
  871MPD2    H512840   1.871   3.289  16.477  0.7477  0.9815  0.0884
  871MPD2    N112841   1.795   3.746  16.653  0.0588  0.1873 -0.0359
  871MPD2    H712842   1.801   3.848  16.649 -0.5892  0.1908 -0.8719
  872MPD2     C12843   2.903   1.281  14.320 -0.5945 -0.0689  0.1313
  872MPD2    C112844   2.814   1.330  14.229  0.2173 -0.2229 -0.5361
  872MPD2    C212845   2.683   1.343  14.273 -0.1085  0.1869 -0.0824
  872MPD2    C312846   2.641   1.319  14.407  0.4838  0.6404  0.8097
  872MPD2    C412847   2.738   1.279  14.499  0.1404  0.3156  0.7411
  872MPD2    C512848   2.859   1.263  14.453  0.0635  0.4749  0.7239
  872MPD2     H12849   2.609   1.384  14.205  0.7931 -0.2928 -1.3592
  872MPD2    H112850   2.720   1.263  14.604 -3.6099  0.6549  0.1819
  872MPD2    H212851   3.000   1.244  14.290  0.0832  1.6042  0.2554
  872MPD2    H312852   2.933   1.229  14.525 -0.4629 -0.6048  0.7653
  872MPD2     N12853   2.516   1.343  14.463  0.0262  0.3325  0.1687
  872MPD2    H512854   2.500   1.313  14.558 -2.6145  0.3504 -0.2644
  872MPD2    N112855   2.841   1.357  14.093  0.2472 -0.0158  0.2695
  872MPD2    H712856   2.766   1.360  14.025  2.8792  0.4502 -2.5644
  873MPD2     C12857   3.897   0.940   0.558 -0.2907  0.8158 -0.6037
  873MPD2    C112858   3.777   0.949   0.628  0.0240 -0.2674 -0.5067
  873MPD2    C212859   3.701   0.830   0.656 -0.4305  0.5673 -1.1970
  873MPD2    C312860   3.752   0.709   0.600  0.5719  0.2292 -0.1164
  873MPD2    C412861   3.878   0.702   0.544 -0.0500 -0.0281 -0.1978
  873MPD2    C512862   3.945   0.813   0.522  0.1684 -0.0555 -0.5553
  873MPD2     H12863   3.608   0.828   0.711 -0.5302  0.1761 -1.3797
  873MPD2    H112864   3.924   0.612   0.505 -0.7719  0.0888 -1.3183
  873MPD2    H212865   3.936   1.037   0.527  1.0997  0.6608  0.7151
  873MPD2    H312866   4.039   0.805   0.469 -0.2018  2.0153 -1.5032
  873MPD2     N12867   3.692   0.579   0.602  0.3229 -0.7063  0.3331
  873MPD2    H512868   3.741   0.508   0.549 -1.3886 -0.4246 -1.6290
  873MPD2    N112869   3.738   1.075   0.679  0.0494  0.4339  0.0471
  873MPD2    H712870   3.809   1.147   0.671  0.9564 -0.5140 -0.6022
  874MPD2     C12871   4.340   1.499  16.065 -0.7539 -0.3188  0.7480
  874MPD2    C112872   4.315   1.527  16.202 -0.0094 -0.3980  0.5334
  874MPD2    C212873   4.419   1.586  16.280  1.0981 -0.7740  0.2166
  874MPD2    C312874   4.537   1.616  16.218 -0.2542  0.2544 -0.5422
  874MPD2    C412875   4.563   1.597  16.082 -0.0851 -0.3435  0.7504
  874MPD2    C512876   4.460   1.541  16.004  0.3139  0.0984 -0.6832
  874MPD2     H12877   4.408   1.600  16.387 -0.5441  2.2394 -0.3400
  874MPD2    H112878   4.658   1.618  16.034  0.3921 -0.1440  1.7772
  874MPD2    H212879   4.256   1.448  16.018 -0.8707 -0.1472  0.7698
  874MPD2    H312880   4.477   1.518  15.899 -0.1252 -0.6314 -0.5972
  874MPD2     N12881   4.646   1.657  16.309  0.2145 -0.2894  0.5462
  874MPD2    H512882   4.613   1.667  16.405  1.0633  0.3066  0.7724
  874MPD2    N112883   4.195   1.466  16.257 -0.4344 -0.0897 -0.0110
  874MPD2    H712884   4.154   1.383  16.213  0.8120 -0.3650 -0.6603
  875MPD2     C12885   0.342   4.361  14.464  0.4851 -0.7094 -0.4614
  875MPD2    C112886   0.233   4.444  14.454  0.0504  0.7285  0.2167
  875MPD2    C212887   0.226   4.540  14.556  0.6324 -0.1558  0.4237
  875MPD2    C312888   0.309   4.541  14.671  0.5448 -0.4709  0.3570
  875MPD2    C412889   0.405   4.443  14.681 -0.0855  0.3395 -0.2222
  875MPD2    C512890   0.429   4.364  14.569  0.4127 -0.8791  0.3980
  875MPD2     H12891   0.138   4.603  14.557 -0.9376 -2.3855  2.0882
  875MPD2    H112892   0.480   4.439  14.759  1.0007  1.2345 -1.2227
  875MPD2    H212893   0.361   4.283  14.392  1.0274 -1.1376  0.1480
  875MPD2    H312894   0.515   4.298  14.569  1.3562  0.3499 -1.0928
  875MPD2     N12895   0.299   4.628  14.778  0.5735 -0.3651 -0.1050
  875MPD2    H512896   0.351   4.623  14.864 -0.3156  0.4204  0.4779
  875MPD2    N112897   0.142   4.440  14.343 -0.1600 -0.0462 -0.7460
  875MPD2    H712898   0.068   4.509  14.344  0.1619  0.3743 -4.3285
  876MPD2     C12899   3.526   0.661  16.073 -0.1975 -0.3448  0.5322
  876MPD2    C112900   3.638   0.707  16.138  0.4007 -0.7868  0.1292
  876MPD2    C212901   3.706   0.626  16.229 -0.4277  0.1559 -0.2526
  876MPD2    C312902   3.662   0.493  16.247 -0.5318 -0.0196 -0.0305
  876MPD2    C412903   3.538   0.455  16.200  0.1011 -0.5644 -0.2775
  876MPD2    C512904   3.478   0.542  16.119 -0.7035 -0.1014 -0.4908
  876MPD2     H12905   3.798   0.651  16.281 -0.2549 -0.3187 -0.3327
  876MPD2    H112906   3.487   0.360  16.217  0.7454 -0.8411  0.1254
  876MPD2    H212907   3.468   0.723  16.005  0.4153 -0.3063  0.0422
  876MPD2    H312908   3.379   0.514  16.086 -0.9119  0.6162 -0.4593
  876MPD2     N12909   3.750   0.401  16.314 -0.1547  0.5996 -0.6035
  876MPD2    H512910   3.846   0.431  16.324  0.7789 -1.2161 -4.0541
  876MPD2    N112911   3.683   0.831  16.099  0.5238 -0.5286  0.2331
  876MPD2    H712912   3.631   0.872  16.022 -1.5013  2.4308  3.2402
  877MPD2     C12913   3.549   1.306  15.566 -0.3314  0.0634 -0.1477
  877MPD2    C112914   3.685   1.321  15.597  0.1591 -0.3505 -0.6332
  877MPD2    C212915   3.766   1.361  15.495 -0.1035 -0.1930  0.1512
  877MPD2    C312916   3.720   1.414  15.379  0.3977  0.1729 -0.1421
  877MPD2    C412917   3.592   1.417  15.354 -0.4361 -0.6385 -0.9258
  877MPD2    C512918   3.505   1.354  15.447 -0.1840 -0.4788  0.5574
  877MPD2     H12919   3.873   1.350  15.510 -0.1973 -1.2236  0.1079
  877MPD2    H112920   3.541   1.466  15.272 -1.6908 -0.2446  0.0867
  877MPD2    H212921   3.467   1.283  15.633 -1.2227  0.1691 -1.2013
  877MPD2    H312922   3.398   1.350  15.430 -0.0969  0.7705 -0.2989
  877MPD2     N12923   3.802   1.452  15.269  0.2230  0.1945  0.0595
  877MPD2    H512924   3.766   1.443  15.175 -0.3730  3.8447 -0.0820
  877MPD2    N112925   3.746   1.271  15.713 -0.4079  0.4959 -0.3544
  877MPD2    H712926   3.842   1.303  15.721  0.1960 -1.5409  0.4848
  878MPD2     C12927   3.999   0.632  13.212 -0.0512 -0.9160 -0.9607
  878MPD2    C112928   4.098   0.726  13.190 -1.0653 -0.0912 -0.6868
  878MPD2    C212929   4.150   0.807  13.293 -0.1354 -0.2971  0.3189
  878MPD2    C312930   4.073   0.808  13.410 -0.1523  0.4089 -1.0820
  878MPD2    C412931   3.965   0.720  13.421  0.5393  0.5470 -0.4798
  878MPD2    C512932   3.935   0.624  13.330  0.4998  0.0822  0.3093
  878MPD2     H12933   4.245   0.858  13.283 -0.4958  0.0886 -1.0439
  878MPD2    H112934   3.913   0.699  13.514  2.2028  0.4179  0.4248
  878MPD2    H212935   3.965   0.559  13.140  0.0161 -0.2985 -1.6153
  878MPD2    H312936   3.858   0.551  13.354 -0.3429  1.0623  0.5980
  878MPD2     N12937   4.114   0.881  13.520  0.0599 -0.5724  0.3731
  878MPD2    H512938   4.207   0.922  13.516  0.3771 -1.4041 -0.5057
  878MPD2    N112939   4.130   0.732  13.050  0.0615  0.1047  0.6537
  878MPD2    H712940   4.074   0.674  12.989 -0.8985  1.6000  0.1383
  879MPD2     C12941   4.724   2.029  17.120 -0.6118  0.5023 -0.0017
  879MPD2    C112942   4.620   1.989  17.198  0.9925  0.2799 -0.3984
  879MPD2    C212943   4.502   1.943  17.138  0.2295  0.1754 -0.1959
  879MPD2    C312944   4.487   1.958  17.004  0.5300  0.2528 -0.5103
  879MPD2    C412945   4.591   2.006  16.929  0.6507  0.2148  0.2024
  879MPD2    C512946   4.707   2.036  16.988  0.0318 -0.4250  0.4342
  879MPD2     H12947   4.422   1.915  17.205  0.9146 -0.0696  0.5190
  879MPD2    H112948   4.582   2.022  16.822  1.9228  1.3537  0.2712
  879MPD2    H212949   0.076   2.073  17.164 -0.8583  1.5033 -0.5161
  879MPD2    H312950   0.051   2.083  16.933 -0.7439 -0.6406 -0.8923
  879MPD2     N12951   4.372   1.930  16.924 -0.1606  0.2015 -0.5279
  879MPD2    H512952   4.379   1.946  16.824 -1.5113 -0.3712 -0.7148
  879MPD2    N112953   4.645   1.988  17.334  0.2419 -0.1958  0.0915
  879MPD2    H712954   4.728   2.036  17.369 -1.2971  1.1853  1.8231
  880MPD2     C12955   4.675   3.980   0.653 -0.0087 -0.1899  0.2478
  880MPD2    C112956   0.067   3.960   0.592  0.1674 -0.5286  0.0340
  880MPD2    C212957   0.142   3.849   0.636 -0.1208 -0.7417  0.3383
  880MPD2    C312958   0.097   3.762   0.736  0.0016 -0.4828  0.2089
  880MPD2    C412959   4.713   3.790   0.796 -0.4837  0.0383 -0.1679
  880MPD2    C512960   4.635   3.890   0.750 -0.6395  0.2963  0.1809
  880MPD2     H12961   0.222   3.818   0.570  2.4841 -1.1248  3.7556
  880MPD2    H112962   4.666   3.726   0.870 -0.8634 -1.0893 -1.3972
  880MPD2    H212963   4.598   4.051   0.625  2.0592  1.6330 -0.8338
  880MPD2    H312964   4.537   3.883   0.796 -1.4602 -0.9571 -1.7602
  880MPD2     N12965   0.168   3.648   0.762  0.1281 -0.9404 -0.2253
  880MPD2    H512966   0.256   3.637   0.712 -0.8101 -2.1263 -1.6090
  880MPD2    N112967   0.098   4.045   0.484  0.1405 -0.0004  0.4593
  880MPD2    H712968   0.035   4.118   0.453 -0.5989 -1.5041 -1.5751
  881MPD2     C12969   0.745   4.737  17.710 -0.6580  0.1919 -0.7765
  881MPD2    C112970   0.759   4.606  17.683 -0.2920  0.2787  0.0462
  881MPD2    C212971   0.668   4.522   0.000 -0.1192  0.6749 -1.0070
  881MPD2    C312972   0.599   4.567   0.109  0.8273 -0.4179  0.1261
  881MPD2    C412973   0.618   4.692   0.154  0.4764  0.1073 -0.1920
  881MPD2    C512974   0.676   0.043   0.074  0.9194  0.2716 -0.0031
  881MPD2     H12975   0.660   4.417  17.721 -1.5946 -0.3349  3.5512
  881MPD2    H112976   0.573   4.728   0.246  0.7407  1.6793 -0.6688
  881MPD2    H212977   0.814   0.072  17.667  0.9231 -0.8133  0.0646
  881MPD2    H312978   0.681   0.148   0.100  0.0580  0.5686 -1.0318
  881MPD2     N12979   0.518   4.486   0.193  0.3815  0.4759 -0.3207
  881MPD2    H512980   0.480   4.527   0.277  0.3481 -2.4120  1.0944
  881MPD2    N112981   0.833   4.569  17.571  0.8844 -0.2282 -0.0500
  881MPD2    H712982   0.873   4.641  17.512  2.8581  1.0854  2.9223
  882MPD2     C12983   4.122   1.727  14.522  0.1097  0.1582  0.4411
  882MPD2    C112984   4.023   1.655  14.585  0.4269  0.0998  0.3623
  882MPD2    C212985   3.915   1.611  14.516  0.5880  0.0757 -0.1098
  882MPD2    C312986   3.893   1.649  14.388 -0.0609  0.2422 -0.0390
  882MPD2    C412987   3.994   1.716  14.320 -0.1531 -0.8643 -0.4791
  882MPD2    C512988   4.099   1.765  14.397 -0.5435  0.2875  0.2781
  882MPD2     H12989   3.838   1.552  14.566  0.2275 -1.0177 -1.9602
  882MPD2    H112990   3.993   1.744  14.215 -0.3447 -2.1605 -0.8311
  882MPD2    H212991   4.207   1.774  14.570 -0.0129 -1.3776  2.1440
  882MPD2    H312992   4.175   1.832  14.359 -1.1319  0.4209 -0.6523
  882MPD2     N12993   3.773   1.609  14.329  0.2570 -0.2507 -0.3151
  882MPD2    H512994   3.707   1.564  14.392  0.2346 -1.9388 -1.5421
  882MPD2    N112995   4.047   1.619  14.723  0.0614  0.4633  0.4830
  882MPD2    H712996   4.139   1.634  14.763  0.7072 -1.1069 -0.4209
  883MPD2     C12997   1.092   0.904  16.171 -0.4760 -0.6269 -0.2307
  883MPD2    C112998   1.154   0.990  16.087 -0.1981 -0.4853  0.1911
  883MPD2    C212999   1.260   1.068  16.128 -0.0222 -0.3153 -0.4142
  883MPD2    C313000   1.294   1.072  16.260 -0.0431 -0.1351 -0.7538
  883MPD2    C413001   1.231   0.983  16.345  1.0696 -0.0136 -0.0155
  883MPD2    C513002   1.135   0.905  16.296 -0.5165 -0.1232  0.7279
  883MPD2     H13003   1.291   1.148  16.062 -0.4368  1.8353  1.9905
  883MPD2    H113004   1.259   0.976  16.450  1.8460 -0.2595 -0.2425
  883MPD2    H213005   1.023   0.828  16.136 -1.5524  0.6340 -0.8487
  883MPD2    H313006   1.086   0.835  16.362  0.0552 -2.0779 -0.9045
  883MPD2     N13007   1.396   1.161  16.294 -0.3174 -1.2348 -0.3365
  883MPD2    H513008   1.419   1.226  16.219  0.4583 -1.1364 -0.0187
  883MPD2    N113009   1.122   1.002  15.953  0.1853 -0.0088 -0.0432
  883MPD2    H713010   1.192   1.047  15.895  0.8109  0.2653  0.9330
  884MPD2     C13011   3.431   2.136  15.266 -0.2104  0.6862  0.3484
  884MPD2    C113012   3.379   2.195  15.154 -1.5178 -0.0593  0.4597
  884MPD2    C213013   3.255   2.265  15.157 -0.1654  0.0884  0.5769
  884MPD2    C313014   3.180   2.275  15.271 -0.6937  0.4620  0.7387
  884MPD2    C413015   3.228   2.207  15.386  0.6012  0.2342  0.3769
  884MPD2    C513016   3.347   2.135  15.380 -0.3563 -0.3750 -0.3265
  884MPD2     H13017   3.220   2.325  15.073 -0.8410 -1.4608 -0.2453
  884MPD2    H113018   3.185   2.220  15.485  0.7769  0.5084  0.4165
  884MPD2    H213019   3.531   2.094  15.273 -0.0027  1.6505  3.2699
  884MPD2    H313020   3.369   2.075  15.467 -0.4446 -0.5777 -0.4433
  884MPD2     N13021   3.057   2.349  15.258  0.2687  0.2318  0.2697
  884MPD2    H513022   3.022   2.390  15.172  0.7027 -0.3273 -0.1663
  884MPD2    N113023   3.461   2.205  15.036  0.2145  0.4126 -0.0540
  884MPD2    H713024   3.423   2.240  14.948  1.2993  1.0917 -0.2498
  885MPD2     C13025   1.137   2.407   0.123 -0.1566  0.4875 -0.0268
  885MPD2    C113026   1.258   2.464   0.131 -0.3734 -0.3430 -0.4475
  885MPD2    C213027   1.304   2.532   0.019  0.0943  0.7430  0.0463
  885MPD2    C313028   1.223   2.549  17.649  0.2285 -0.3192  0.0991
  885MPD2    C413029   1.098   2.491  17.656  0.9376 -0.5800 -0.6468
  885MPD2    C513030   1.057   2.420   0.015 -0.2860 -0.0369 -0.1586
  885MPD2     H13031   1.399   2.585   0.026  0.4253  0.3436 -1.4909
  885MPD2    H113032   1.037   2.481  17.566  0.4319  2.1340 -0.5960
  885MPD2    H213033   1.106   2.351   0.211 -1.9436  0.9600 -0.3396
  885MPD2    H313034   0.956   2.382   0.016  0.3943 -1.7911  1.2096
  885MPD2     N13035   1.277   2.623  17.537 -0.1740 -0.3170  0.7557
  885MPD2    H513036   1.369   2.667  17.545 -1.6451  2.5239  2.1357
  885MPD2    N113037   1.325   2.457   0.248  0.0815 -0.4485  0.6152
  885MPD2    H713038   1.273   2.425   0.328  0.5192  0.5030  1.2821
  886MPD2     C13039   2.542   0.974  15.359 -0.2690  0.8049  0.0753
  886MPD2    C113040   2.658   0.964  15.424  0.0397 -0.4003  0.6349
  886MPD2    C213041   2.734   1.074  15.426 -0.5313 -0.6044  0.7031
  886MPD2    C313042   2.708   1.197  15.371 -0.1534  0.2790 -0.5238
  886MPD2    C413043   2.602   1.191  15.292 -0.3509 -0.3185 -0.4380
  886MPD2    C513044   2.522   1.083  15.285  0.7022 -1.0849  0.6417
  886MPD2     H13045   2.824   1.062  15.485 -0.5353  0.2661  0.8923
  886MPD2    H113046   2.572   1.271  15.225 -2.4998 -0.6304  0.1610
  886MPD2    H213047   2.464   0.900  15.346  0.0040  0.8746 -1.9810
  886MPD2    H313048   2.432   1.102  15.227 -0.0430 -1.0418  1.8154
  886MPD2     N13049   2.796   1.305  15.370  0.2659 -0.0429  0.2761
  886MPD2    H513050   2.769   1.378  15.305  1.8621  0.7889  0.5418
  886MPD2    N113051   2.704   0.861  15.505  0.1593  0.1206  0.5414
  886MPD2    H713052   2.789   0.872  15.559 -0.2797  2.5854  0.7012
  887MPD2     C13053   3.145   0.756  16.057 -0.4890 -0.8520 -0.4374
  887MPD2    C113054   3.109   0.815  15.939  0.4692 -0.9458 -0.4110
  887MPD2    C213055   3.167   0.939  15.911  0.3537 -0.5669  0.7216
  887MPD2    C313056   3.245   0.999  16.010  0.8038  0.5380 -0.5214
  887MPD2    C413057   3.263   0.938  16.133 -0.0052  0.4213 -0.8774
  887MPD2    C513058   3.213   0.812  16.159  0.4404 -0.2340  0.0193
  887MPD2     H13059   3.148   0.982  15.813 -0.5743 -0.0402  1.1415
  887MPD2    H113060   3.319   0.982  16.214 -0.7610 -0.8010  0.3128
  887MPD2    H213061   3.112   0.654  16.072  0.8166 -1.0811  0.9714
  887MPD2    H313062   3.236   0.759  16.251  0.4251  0.1776  0.2588
  887MPD2     N13063   3.296   1.126  15.968 -0.4238 -0.2768 -0.1979
  887MPD2    H513064   3.265   1.160  15.877 -0.6380  1.3496  0.4896
  887MPD2    N113065   3.022   0.763  15.845 -0.3299  0.4799 -0.9079
  887MPD2    H713066   2.999   0.819  15.763 -2.2896  0.2874 -0.4789
  888MPD2     C13067   0.324   0.753  14.729  0.5779  0.1134  0.2787
  888MPD2    C113068   0.309   0.800  14.863 -0.0438  0.4098 -0.7879
  888MPD2    C213069   0.376   0.925  14.898 -0.3808  0.1130 -0.4297
  888MPD2    C313070   0.452   0.986  14.807 -0.2018 -0.0953 -0.4212
  888MPD2    C413071   0.435   0.955  14.668 -0.8065 -0.7591  0.4704
  888MPD2    C513072   0.366   0.843  14.637  0.5959  0.4853 -1.0851
  888MPD2     H13073   0.394   0.941  15.004 -0.1881  2.1289 -0.7770
  888MPD2    H113074   0.480   1.016  14.591 -0.3109  0.0543  1.4157
  888MPD2    H213075   0.268   0.664  14.706  1.3951 -0.3534  0.1084
  888MPD2    H313076   0.367   0.820  14.531 -2.7855  1.0785 -1.2371
  888MPD2     N13077   0.530   1.098  14.841  0.1245  1.1527 -0.4436
  888MPD2    H513078   0.508   1.150  14.926  0.3559  0.2386  0.1793
  888MPD2    N113079   0.259   0.721  14.970  0.6242 -0.6459  0.2711
  888MPD2    H713080   0.277   0.761  15.061 -1.3011  0.0357  0.3424
  889MPD2     C13081   4.518   0.928  12.719 -0.1708  0.0800 -0.0013
  889MPD2    C113082   4.524   0.872  12.845  0.4515 -0.2663 -0.2355
  889MPD2    C213083   4.550   0.963  12.944 -1.2476 -0.0263 -0.5357
  889MPD2    C313084   4.543   1.101  12.923  0.3086 -0.3912  0.6092
  889MPD2    C413085   4.532   1.148  12.792  0.2554 -0.4601 -0.7006
  889MPD2    C513086   4.524   1.062  12.690  0.1720 -0.2018 -0.2913
  889MPD2     H13087   4.571   0.929  13.045  0.5699 -1.0382 -1.2454
  889MPD2    H113088   4.533   1.255  12.774  0.8675 -0.1522  1.2003
  889MPD2    H213089   4.517   0.863  12.632  0.8263  1.4335 -1.0198
  889MPD2    H313090   4.530   1.091  12.585 -1.1287 -2.2189 -0.9181
  889MPD2     N13091   4.543   1.183  13.041  0.3920  0.0159 -0.1529
  889MPD2    H513092   4.574   1.134  13.125 -3.7047 -3.0972 -0.4314
  889MPD2    N113093   4.542   0.737  12.874  0.1189 -0.4696  0.0655
  889MPD2    H713094   4.570   0.709  12.967  0.9831  0.2154  0.0202
  890MPD2     C13095   4.007   2.072  14.594  0.1736 -0.0241 -0.4113
  890MPD2    C113096   4.134   2.091  14.638 -0.0609  0.1267 -0.1195
  890MPD2    C213097   4.172   2.041  14.755  0.1807  0.4845 -0.1366
  890MPD2    C313098   4.098   1.961  14.823 -0.7826 -0.4778  0.0451
  890MPD2    C413099   3.968   1.927  14.786 -0.1742 -0.1711 -0.0915
  890MPD2    C513100   3.931   1.987  14.674 -0.1634 -0.0540 -0.6283
  890MPD2     H13101   4.268   2.061  14.802 -0.8417  1.8255  1.3844
  890MPD2    H113102   3.902   1.855  14.834 -0.1840  0.2700  0.5527
  890MPD2    H213103   3.968   2.103  14.497  0.5384 -2.0217 -1.1850
  890MPD2    H313104   3.830   1.963  14.643  0.7707 -0.6869 -3.1451
  890MPD2     N13105   4.155   1.911  14.938 -0.2706 -0.1812 -0.2242
  890MPD2    H513106   4.250   1.942  14.959  0.2156 -1.2999 -0.7873
  890MPD2    N113107   4.215   2.186  14.570 -0.9413 -0.0771 -0.1361
  890MPD2    H713108   4.175   2.233  14.489 -2.9358 -1.9451 -0.2382
  891MPD2     C13109   2.258   0.689  16.662  0.2643  0.1438 -0.6973
  891MPD2    C113110   2.138   0.638  16.702 -0.2228 -0.0211  0.0166
  891MPD2    C213111   2.141   0.530  16.795 -0.1488  0.1858  0.3440
  891MPD2    C313112   2.259   0.476  16.842 -0.2012  0.7263  0.4537
  891MPD2    C413113   2.381   0.536  16.807  0.0028 -0.9792  0.4079
  891MPD2    C513114   2.376   0.641  16.712 -0.3740 -0.4127 -0.3382
  891MPD2     H13115   2.046   0.484  16.822 -0.5503  0.1817 -1.0416
  891MPD2    H113116   2.479   0.517  16.847  0.2281  0.3120  0.4556
  891MPD2    H213117   2.251   0.769  16.589 -0.7966  0.3497 -0.3604
  891MPD2    H313118   2.461   0.702  16.684  1.4139 -1.4172  2.9365
  891MPD2     N13119   2.252   0.367  16.927  0.3437 -0.6445  0.1440
  891MPD2    H513120   2.157   0.334  16.941  1.0064 -1.7744  1.8859
  891MPD2    N113121   2.013   0.695  16.657  0.4527 -0.7929  0.5301
  891MPD2    H713122   2.028   0.766  16.587 -3.5226 -0.6733 -0.1945
  892MPD2     C13123   3.374   1.852  14.897  0.2747 -0.3704  0.3757
  892MPD2    C113124   3.266   1.830  14.821 -0.6935  0.1673 -0.4201
  892MPD2    C213125   3.288   1.773  14.698 -0.6960  0.0214  0.8125
  892MPD2    C313126   3.417   1.730  14.669  0.8917 -0.2575 -0.0225
  892MPD2    C413127   3.527   1.756  14.747  0.3379 -0.9120 -0.5488
  892MPD2    C513128   3.506   1.820  14.866  0.3093 -0.3914 -1.5992
  892MPD2     H13129   3.206   1.746  14.634  0.2878  3.3670 -1.8413
  892MPD2    H113130   3.628   1.732  14.716  0.0002 -1.5898 -1.1363
  892MPD2    H213131   3.367   1.907  14.989  0.6945  0.5396 -0.1409
  892MPD2    H313132   3.581   1.839  14.942 -0.2617  0.6521 -1.3048
  892MPD2     N13133   3.438   1.654  14.550  0.2521 -0.0932 -0.0670
  892MPD2    H513134   3.533   1.627  14.524  0.3544 -0.2173  0.4395
  892MPD2    N113135   3.131   1.863  14.860  0.5577  0.4184 -0.4854
  892MPD2    H713136   3.065   1.868  14.784  1.0221  0.2799 -0.8974
  893MPD2     C13137   4.166   0.811   1.702 -0.5324 -0.0910  0.3328
  893MPD2    C113138   4.154   0.756   1.578  0.8077 -0.0491  0.2978
  893MPD2    C213139   4.029   0.726   1.529 -0.5018  0.0357  0.6301
  893MPD2    C313140   3.914   0.761   1.594  0.7483 -0.0238  0.1183
  893MPD2    C413141   3.929   0.818   1.717 -0.4009 -0.5704  0.1102
  893MPD2    C513142   4.054   0.845   1.767 -0.0489  0.5761  0.6883
  893MPD2     H13143   4.022   0.698   1.425 -0.9128  0.7800  0.4568
  893MPD2    H113144   3.842   0.847   1.775  0.7243  0.9876  1.0383
  893MPD2    H213145   4.265   0.825   1.743 -0.5378  2.2476 -0.4609
  893MPD2    H313146   4.063   0.881   1.869  0.2715 -1.2396  1.3113
  893MPD2     N13147   3.776   0.737   1.540 -0.0162  0.3007  0.5471
  893MPD2    H513148   3.699   0.768   1.599 -0.7829 -0.3303 -0.1218
  893MPD2    N113149   4.276   0.723   1.503  0.3279 -0.9598  0.3874
  893MPD2    H713150   4.358   0.766   1.544 -0.9135  0.1043  1.7320
  894MPD2     C13151   2.529   2.869   1.335 -1.0426  0.6627  0.5195
  894MPD2    C113152   2.581   2.756   1.276  0.4339  0.0682 -0.0756
  894MPD2    C213153   2.716   2.744   1.263  0.3408 -0.9331 -0.4032
  894MPD2    C313154   2.804   2.850   1.274 -0.6019  0.1973  0.1430
  894MPD2    C413155   2.750   2.966   1.322  0.4051 -0.2213  0.1656
  894MPD2    C513156   2.622   2.970   1.363  0.3281  0.8204  0.2567
  894MPD2     H13157   2.739   2.650   1.215  0.4401 -2.0544  1.8697
  894MPD2    H113158   2.810   3.056   1.329 -1.6808  1.0501  1.5820
  894MPD2    H213159   2.429   2.883   1.374 -1.0357  0.6380  0.5460
  894MPD2    H313160   2.586   3.057   1.417 -3.8448  0.8356 -2.5934
  894MPD2     N13161   2.940   2.834   1.228  0.3353  0.4904 -0.3270
  894MPD2    H513162   2.976   2.740   1.213  1.1882  0.5262  1.4079
  894MPD2    N113163   2.497   2.644   1.245 -0.3448  0.6376 -0.6145
  894MPD2    H713164   2.542   2.555   1.232  2.0188  1.6902  0.3224
  895MPD2     C13165   2.834   1.026  13.686 -0.0124 -0.1168 -0.3601
  895MPD2    C113166   2.743   0.927  13.704 -1.0154  0.1939  0.2725
  895MPD2    C213167   2.786   0.804  13.741  0.4351  0.3424 -0.2727
  895MPD2    C313168   2.923   0.770  13.742 -0.7347  0.4375 -0.6828
  895MPD2    C413169   3.014   0.873  13.719  0.0093  0.1593  0.2796
  895MPD2    C513170   2.965   0.999  13.709 -0.3434 -0.5543  0.0387
  895MPD2     H13171   2.702   0.737  13.752  1.5976 -0.9140  0.9681
  895MPD2    H113172   3.122   0.862  13.713  0.0576  0.7997 -0.0032
  895MPD2    H213173   2.814   1.127  13.651 -0.8710  0.0712  0.6574
  895MPD2    H313174   3.035   1.078  13.685 -1.6522  0.3221 -0.8900
  895MPD2     N13175   2.987   0.641  13.764  0.2219  0.0831  0.0624
  895MPD2    H513176   3.088   0.637  13.770  0.0864  0.6817  2.9386
  895MPD2    N113177   2.607   0.941  13.666  0.0021  0.4105  0.1385
  895MPD2    H713178   2.556   0.855  13.648 -0.6685  0.2404  2.8621
  896MPD2     C13179   4.326   3.237   0.909 -0.3829  0.8380 -0.1462
  896MPD2    C113180   4.241   3.278   0.806  0.4867  0.0590  0.5917
  896MPD2    C213181   4.136   3.197   0.765  0.2480  0.4036  0.3695
  896MPD2    C313182   4.133   3.067   0.808  0.4183  0.0049 -0.0862
  896MPD2    C413183   4.219   3.022   0.910  0.1869  0.4592  0.3355
  896MPD2    C513184   4.317   3.108   0.952  0.0855  0.1611  0.4399
  896MPD2     H13185   4.070   3.233   0.688  0.0980 -1.6929 -0.4896
  896MPD2    H113186   4.218   2.917   0.936 -0.7479  0.3080 -0.3280
  896MPD2    H213187   4.407   3.296   0.951 -0.1682  0.1882  0.3611
  896MPD2    H313188   4.402   3.066   1.003 -0.5222 -2.4351 -0.6276
  896MPD2     N13189   4.030   2.978   0.777  0.3257  0.0463  0.1300
  896MPD2    H513190   4.034   2.888   0.824  0.6737 -0.3049 -0.5629
  896MPD2    N113191   4.261   3.406   0.760 -0.0535 -0.7457  0.1689
  896MPD2    H713192   4.325   3.468   0.808  0.1721 -1.9849  1.4774
  897MPD2     C13193   1.105   0.783  10.846  0.0433  0.8274 -0.0467
  897MPD2    C113194   1.004   0.791  10.763  0.0149 -0.2012 -0.9201
  897MPD2    C213195   0.882   0.803  10.818 -0.6005 -0.4408 -0.4416
  897MPD2    C313196   0.866   0.823  10.955  0.0416 -0.2103  0.1728
  897MPD2    C413197   0.981   0.816  11.033  0.1209  0.0895  0.4418
  897MPD2    C513198   1.102   0.804  10.981 -0.0445 -0.3754 -0.3524
  897MPD2     H13199   0.797   0.839  10.762  0.8647  0.6990 -1.9545
  897MPD2    H113200   0.985   0.829  11.141 -1.8612  0.5506  0.4597
  897MPD2    H213201   1.206   0.779  10.806 -0.3156  2.1647 -1.0783
  897MPD2    H313202   1.197   0.805  11.033 -1.6172  0.7302  2.4635
  897MPD2     N13203   0.739   0.858  11.004  0.5499  0.2153 -0.5082
  897MPD2    H513204   0.655   0.853  10.946  0.7339  2.0142 -0.9492
  897MPD2    N113205   1.030   0.788  10.629 -0.0812  0.7567  0.1168
  897MPD2    H713206   1.127   0.800  10.602  0.6469 -2.4326  1.4170
  898MPD2     C13207   3.132   1.183  17.696  0.6573  0.5253  0.2005
  898MPD2    C113208   3.201   1.197  17.582  0.0611  0.0504 -0.5565
  898MPD2    C213209   3.209   1.320  17.514 -0.2346 -0.5808 -0.4892
  898MPD2    C313210   3.148   1.430  17.568 -0.3496  0.3387  0.1900
  898MPD2    C413211   3.081   1.420  17.688 -0.0503 -0.4410  0.7121
  898MPD2    C513212   3.067   1.293   0.004  0.0047  0.2823 -0.0579
  898MPD2     H13213   3.252   1.337  17.416  0.5885  3.1997  0.5288
  898MPD2    H113214   3.039   1.508  17.736  0.4101 -0.0671  0.4246
  898MPD2    H213215   3.119   1.090   0.003  0.2839  1.9579  2.5400
  898MPD2    H313216   3.008   1.293   0.095 -2.1584 -3.4583 -1.4517
  898MPD2     N13217   3.166   1.549  17.494 -0.7237  0.8897 -0.3555
  898MPD2    H513218   3.223   1.542  17.410 -0.6537 -0.1978 -0.2094
  898MPD2    N113219   3.264   1.081  17.526  0.0123 -0.0307 -0.8097
  898MPD2    H713220   3.241   0.988  17.559 -3.7871  0.3634 -2.2879
  899MPD2     C13221   3.634   1.626  17.346 -0.1903 -0.1185 -0.0865
  899MPD2    C113222   3.598   1.746  17.402  0.3658  0.4872 -0.2958
  899MPD2    C213223   3.536   1.733  17.525 -0.0463  0.1822 -0.3893
  899MPD2    C313224   3.525   1.614  17.595 -0.6494  0.0171  0.1029
  899MPD2    C413225   3.571   1.498  17.530  0.2766  0.3517  0.0077
  899MPD2    C513226   3.627   1.504  17.405  0.2393 -0.1678  0.1527
  899MPD2     H13227   3.497   1.826  17.564 -0.6520 -0.2596  0.0539
  899MPD2    H113228   3.561   1.400  17.577 -0.2020  0.0480 -0.7225
  899MPD2    H213229   3.681   1.624  17.249  0.1734 -0.0170  0.0898
  899MPD2    H313230   3.663   1.427  17.338 -0.4761 -0.0454 -0.3770
  899MPD2     N13231   3.471   1.604  17.724 -0.4283  0.2186  0.7634
  899MPD2    H513232   3.461   1.509   0.013  3.4640 -1.9223 -3.8049
  899MPD2    N113233   3.615   1.871  17.329 -0.4223 -0.0808  0.3734
  899MPD2    H713234   3.559   1.952  17.351 -0.9857 -1.3527  3.6330
  900MPD2     C13235   3.065   3.071  13.356 -0.3471 -0.2774 -0.9317
  900MPD2    C113236   3.025   2.972  13.269 -0.9542 -0.6793  0.1388
  900MPD2    C213237   2.965   2.999  13.148 -0.3041  0.3848 -0.1383
  900MPD2    C313238   2.948   3.133  13.107  0.4220  0.0490  0.6548
  900MPD2    C413239   3.006   3.233  13.182 -0.3253 -0.4798 -0.3985
  900MPD2    C513240   3.048   3.198  13.306  0.9021 -0.5146  0.1343
  900MPD2     H13241   2.928   2.923  13.080  0.0688  1.3731 -1.4436
  900MPD2    H113242   3.005   3.338  13.158  1.9066 -0.4236 -0.1838
  900MPD2    H213243   3.110   3.053  13.452 -0.7434  1.7717 -0.3701
  900MPD2    H313244   3.084   3.287  13.358 -1.6716  0.9729 -0.6306
  900MPD2     N13245   2.879   3.159  12.988  1.2004 -0.1612 -0.5592
  900MPD2    H513246   2.827   3.085  12.941 -0.1358  0.0031  0.6621
  900MPD2    N113247   3.050   2.841  13.315  0.0195  0.6012  0.4084
  900MPD2    H713248   3.112   2.832  13.395 -1.3542 -0.8255  1.3152
  901MPD2     C13249   3.010   1.746  13.302  0.1311  0.2553  0.3028
  901MPD2    C113250   3.122   1.791  13.233  0.8581  0.1902 -0.0766
  901MPD2    C213251   3.152   1.931  13.242 -0.5799  0.3293 -0.4011
  901MPD2    C313252   3.061   2.020  13.290  0.2762 -0.0268  0.8305
  901MPD2    C413253   2.939   1.972  13.343  0.2656 -0.7654 -0.3295
  901MPD2    C513254   2.921   1.835  13.346 -0.0180  0.1943  0.2846
  901MPD2     H13255   3.247   1.960  13.199 -0.6491 -0.5934 -1.1739
  901MPD2    H113256   2.868   2.032  13.399 -0.4588 -1.7827 -0.1651
  901MPD2    H213257   2.977   1.642  13.307 -1.1683  0.6574  0.2655
  901MPD2    H313258   2.832   1.804  13.398  0.8521 -1.4066  0.8292
  901MPD2     N13259   3.096   2.153  13.274 -0.1887 -0.0521  0.4740
  901MPD2    H513260   3.190   2.172  13.241 -0.2309  1.3698  1.2123
  901MPD2    N113261   3.205   1.696  13.158 -0.2119 -0.1876  0.2229
  901MPD2    H713262   3.154   1.612  13.132 -0.4959 -0.1819  0.7758
  902MPD2     C13263   2.323   0.957  12.518  0.0641  1.1931 -0.0788
  902MPD2    C113264   2.398   1.064  12.542  0.6696 -0.2828  0.7469
  902MPD2    C213265   2.534   1.051  12.569 -0.0979  0.5799 -0.3083
  902MPD2    C313266   2.603   0.929  12.560  0.5293 -0.3460 -0.9638
  902MPD2    C413267   2.525   0.818  12.527 -0.2341 -0.0591 -0.0191
  902MPD2    C513268   2.392   0.835  12.509  0.0496 -0.6751  0.1766
  902MPD2     H13269   2.583   1.145  12.591  0.7005 -0.3515  1.9036
  902MPD2    H113270   2.567   0.719  12.529  2.1148  0.9552  1.7413
  902MPD2    H213271   2.220   0.968  12.487 -0.0338 -1.3935 -0.7026
  902MPD2    H313272   2.334   0.745  12.491  1.5388 -1.9914  1.9644
  902MPD2     N13273   2.744   0.920  12.550 -0.4920 -0.4120 -0.0187
  902MPD2    H513274   2.781   0.833  12.511 -1.4654 -1.2994  1.0260
  902MPD2    N113275   2.335   1.191  12.522  0.0944  0.0256  0.1312
  902MPD2    H713276   2.235   1.190  12.504 -0.1016 -0.4374  1.2454
  903MPD2     C13277   2.828   1.426  12.003 -0.1660 -0.4287 -0.1160
  903MPD2    C113278   2.796   1.303  12.062 -0.1488  0.2789  0.2432
  903MPD2    C213279   2.678   1.239  12.016  0.8042  0.4483 -0.6506
  903MPD2    C313280   2.593   1.294  11.929  0.6762  0.5698  0.0439
  903MPD2    C413281   2.643   1.398  11.849 -0.6952  0.2275  0.2327
  903MPD2    C513282   2.758   1.465  11.888 -0.1128  0.2965  0.6564
  903MPD2     H13283   2.644   1.143  12.052  1.3370  0.2733 -0.6106
  903MPD2    H113284   2.586   1.439  11.767  2.4146  1.9259 -1.0667
  903MPD2    H213285   2.912   1.485  12.038  1.2100 -2.2172 -0.4076
  903MPD2    H313286   2.782   1.553  11.829  1.0537 -1.3698 -1.3272
  903MPD2     N13287   2.461   1.238  11.920 -0.5829  0.4289 -0.3114
  903MPD2    H513288   2.451   1.162  11.987 -0.1004 -0.0732 -0.8164
  903MPD2    N113289   2.883   1.249  12.160  0.0274  0.5703  0.2568
  903MPD2    H713290   2.949   1.313  12.204  0.1332  1.0385 -0.5822
  904MPD2     C13291   2.346   0.820  13.908  0.3634 -0.2816  0.3680
  904MPD2    C113292   2.301   0.698  13.951  0.5272  0.6179  0.3560
  904MPD2    C213293   2.371   0.628  14.045  0.5264 -0.0948  0.5144
  904MPD2    C313294   2.502   0.671  14.078  0.8588  0.3223 -0.0226
  904MPD2    C413295   2.546   0.797  14.028  0.4280 -0.0718 -0.2802
  904MPD2    C513296   2.468   0.872  13.945 -0.2173 -0.3488  0.1115
  904MPD2     H13297   2.330   0.535  14.083  1.8610 -1.0962 -0.5123
  904MPD2    H113298   2.648   0.827  14.046 -0.3186  2.3595 -0.1010
  904MPD2    H213299   2.290   0.874  13.833  1.5114  2.0032  1.1781
  904MPD2    H313300   2.501   0.971  13.913 -0.8508 -0.6271 -1.4126
  904MPD2     N13301   2.578   0.579  14.157 -0.1648  0.4673  0.1554
  904MPD2    H513302   2.553   0.480  14.161  0.4917  0.3925  2.7510
  904MPD2    N113303   2.165   0.679  13.913 -0.4211  0.5426  0.5051
  904MPD2    H713304   2.133   0.736  13.836 -0.0192  1.5546  1.0804
  905MPD2     C13305   2.075   0.552  13.306 -0.3333  0.4676 -0.3046
  905MPD2    C113306   2.115   0.621  13.417  0.1672 -0.4509 -0.4091
  905MPD2    C213307   2.249   0.610  13.456  0.8195  0.3243  0.0909
  905MPD2    C313308   2.332   0.523  13.392  0.1828 -0.3506  0.3069
  905MPD2    C413309   2.286   0.460  13.283  0.2420 -0.4888 -0.7614
  905MPD2    C513310   2.162   0.478  13.234  0.9279  0.9484  0.2902
  905MPD2     H13311   2.273   0.663  13.547  0.5607  3.9388 -1.9656
  905MPD2    H113312   2.345   0.384  13.232 -0.1586 -2.1564  1.2890
  905MPD2    H213313   1.972   0.556  13.275  0.1124  0.0347 -1.8442
  905MPD2    H313314   2.124   0.420  13.150 -0.4133 -0.0837  1.5994
  905MPD2     N13315   2.458   0.486  13.451  0.0771 -0.1693  0.7039
  905MPD2    H513316   2.499   0.397  13.427  1.8447  0.2143  2.2882
  905MPD2    N113317   2.016   0.680  13.494 -0.5713 -0.5747 -0.1667
  905MPD2    H713318   1.920   0.655  13.476 -1.1502  0.2424  1.7524
  906MPD2     C13319   4.222   1.291  11.246 -0.2562  0.1317 -0.0482
  906MPD2    C113320   4.216   1.185  11.156 -0.2579  0.6087 -0.4616
  906MPD2    C213321   4.170   1.059  11.198 -1.3224 -0.6609  0.2044
  906MPD2    C313322   4.124   1.048  11.329 -0.5234 -0.4498 -0.4419
  906MPD2    C413323   4.123   1.151  11.414 -0.2566 -0.6378  0.0684
  906MPD2    C513324   4.170   1.277  11.378 -0.6537 -0.6802 -0.0148
  906MPD2     H13325   4.165   0.975  11.129  0.3196 -0.8036  0.2633
  906MPD2    H113326   4.095   1.126  11.516 -2.5121  0.2166 -0.3481
  906MPD2    H213327   4.251   1.394  11.227 -1.5130  0.9122  2.2077
  906MPD2    H313328   4.181   1.352  11.455 -1.6710  0.7387 -1.2579
  906MPD2     N13329   4.102   0.920  11.387  0.2572 -0.1452 -0.4645
  906MPD2    H513330   4.037   0.912  11.464  0.6299  0.9315 -0.0302
  906MPD2    N113331   4.236   1.205  11.019  0.6219 -0.2950 -0.3161
  906MPD2    H713332   4.206   1.131  10.956  2.0664  1.0582 -2.5744
  907MPD2     C13333   3.307   4.605  15.664 -0.1700  0.2050  0.5914
  907MPD2    C113334   3.260   4.484  15.632 -0.1740 -0.2243  0.0779
  907MPD2    C213335   3.275   4.385  15.724  0.0378 -0.5167 -0.0572
  907MPD2    C313336   3.331   4.406  15.850 -0.6359  0.3065  0.5132
  907MPD2    C413337   3.353   4.535  15.888  0.3179 -0.0073  0.1847
  907MPD2    C513338   3.354   4.636  15.793  0.5304 -0.2478 -0.1491
  907MPD2     H13339   3.249   4.285  15.692 -1.2058  0.4128 -1.9038
  907MPD2    H113340   3.382   4.557  15.991 -3.4593  0.3135  1.1974
  907MPD2    H213341   3.306   4.684  15.590 -0.1301 -2.7118 -2.4848
  907MPD2    H313342   3.386   0.001  15.812  0.4005 -0.4580  1.1898
  907MPD2     N13343   3.357   4.297  15.934  0.3278  0.1402  0.0593
  907MPD2    H513344   3.322   4.205  15.909  1.0191 -0.5215  1.5609
  907MPD2    N113345   3.214   4.453  15.495 -0.4146 -0.6289  0.4348
  907MPD2    H713346   3.198   4.354  15.482 -1.4066 -0.4146 -0.0414
  908MPD2     C13347   0.509   0.741   9.738 -0.1848  0.2631 -0.3293
  908MPD2    C113348   0.465   0.689   9.860  1.2262 -0.3461  0.7071
  908MPD2    C213349   0.544   0.716   9.969  0.4333 -0.5798 -0.5969
  908MPD2    C313350   0.662   0.794   9.958  0.3117  0.4699  0.6401
  908MPD2    C413351   0.699   0.849   9.837  0.0643 -0.3214 -0.1996
  908MPD2    C513352   0.622   0.820   9.725 -0.5864  0.3857  0.0326
  908MPD2     H13353   0.513   0.683  10.067 -0.5172  0.0685 -0.6717
  908MPD2    H113354   0.787   0.910   9.826  0.1274 -0.3527  0.1400
  908MPD2    H213355   0.451   0.724   9.648 -0.4072 -0.4206 -0.0590
  908MPD2    H313356   0.655   0.856   9.628  0.0086 -1.5379 -0.4662
  908MPD2     N13357   0.731   0.823  10.077 -0.1180  0.0256 -0.4233
  908MPD2    H513358   0.710   0.768  10.160  2.2338 -1.3703 -0.7643
  908MPD2    N113359   0.341   0.627   9.870 -0.6808  0.1295 -0.2105
  908MPD2    H713360   0.303   0.603   9.780 -1.2979  3.2150 -0.7853
  909MPD2     C13361   1.229   3.307  11.692 -0.3872  0.0147 -0.9567
  909MPD2    C113362   1.159   3.417  11.644  0.8241 -0.5126  0.2144
  909MPD2    C213363   1.075   3.492  11.724 -0.2913 -0.6759  0.0232
  909MPD2    C313364   1.054   3.454  11.855 -0.9743  0.2835  0.1368
  909MPD2    C413365   1.125   3.349  11.901 -0.3054 -0.0625 -0.8251
  909MPD2    C513366   1.214   3.280  11.826 -0.1533  0.6174  1.1141
  909MPD2     H13367   1.038   3.586  11.684 -0.0458 -0.8941 -0.7154
  909MPD2    H113368   1.114   3.308  12.000 -0.5837  1.3868 -0.2514
  909MPD2    H213369   1.298   3.244  11.637  2.4268  0.8291  1.6498
  909MPD2    H313370   1.276   3.198  11.859 -1.1226 -0.4483  0.2999
  909MPD2     N13371   0.968   3.532  11.938 -0.4434  0.0551 -0.1226
  909MPD2    H513372   0.921   3.611  11.893 -1.3634 -0.5130 -0.1665
  909MPD2    N113373   1.165   3.455  11.507 -0.4950 -0.1159 -0.3166
  909MPD2    H713374   1.104   3.532  11.479  1.8739  1.1191 -2.1226
  910MPD2     C13375   2.479   4.736  16.064 -0.1315 -0.0316 -0.6994
  910MPD2    C113376   2.541   4.667  15.959  0.2572 -0.1785 -0.0111
  910MPD2    C213377   2.527   4.721  15.829  0.2721 -0.0473  0.0601
  910MPD2    C313378   2.448   0.097  15.810 -0.7058 -0.5573  0.1513
  910MPD2    C413379   2.375   0.150  15.914  0.2213 -0.5078  0.8608
  910MPD2    C513380   2.403   0.105  16.037 -0.0132 -0.3348 -0.1631
  910MPD2     H13381   2.573   4.678  15.742 -0.6555  1.0866 -0.9896
  910MPD2    H113382   2.301   0.227  15.895 -0.9296 -1.9209 -0.3065
  910MPD2    H213383   2.483   4.702  16.167  0.8698 -2.3043 -1.4787
  910MPD2    H313384   2.339   0.143  16.116  0.6639 -0.1796  0.3138
  910MPD2     N13385   2.415   0.156  15.686 -0.1639 -0.2931  0.0077
  910MPD2    H513386   2.370   0.248  15.683 -1.1808 -0.6899  3.4341
  910MPD2    N113387   2.619   4.552  15.987  0.1796  0.4483 -0.5455
  910MPD2    H713388   2.649   4.500  15.905 -3.0370 -0.3687 -1.2004
  911MPD2     C13389   0.345   0.518  16.366 -0.8019 -0.2043 -0.4186
  911MPD2    C113390   0.417   0.595  16.451  0.0543  0.5875 -0.2176
  911MPD2    C213391   0.400   0.730  16.445  0.1177  0.3980 -0.3177
  911MPD2    C313392   0.302   0.779  16.359 -0.0247 -0.2841 -0.6056
  911MPD2    C413393   0.219   0.695  16.285 -0.4269  0.4976 -0.2134
  911MPD2    C513394   0.250   0.565  16.277 -0.1467 -0.3075 -0.0696
  911MPD2     H13395   0.452   0.791  16.518  0.4180 -0.7608  0.4331
  911MPD2    H113396   0.142   0.739  16.223  1.5203  1.0214 -2.2506
  911MPD2    H213397   0.351   0.410  16.365  1.2612 -0.0828 -0.0017
  911MPD2    H313398   0.192   0.493  16.221  0.5233 -0.4740 -0.5587
  911MPD2     N13399   0.288   0.922  16.331 -0.4487  0.1043 -0.0772
  911MPD2    H513400   0.218   0.946  16.262 -0.8438  0.7978  0.5700
  911MPD2    N113401   0.510   0.526  16.532  0.1649  0.5230 -0.6099
  911MPD2    H713402   0.534   0.433  16.499 -2.4103 -0.1787 -0.5000
  912MPD2     C13403   0.053   0.967  15.687 -0.2893  0.2451 -0.2488
  912MPD2    C113404   0.046   0.960  15.826 -0.6170  0.0209  0.8498
  912MPD2    C213405   4.725   0.840  15.869  0.2094 -0.8156  0.2383
  912MPD2    C313406   4.661   0.749  15.790 -0.0064  0.4412  0.2870
  912MPD2    C413407   4.663   0.768  15.653  0.6828  0.0665 -0.4093
  912MPD2    C513408   4.719   0.880  15.606 -0.0353  0.0188  0.7569
  912MPD2     H13409   4.726   0.826  15.976 -2.8234  0.3150  0.4360
  912MPD2    H113410   4.625   0.693  15.586  0.8053  0.0048 -0.4090
  912MPD2    H213411   0.116   1.041  15.639  0.4020 -0.6974 -0.7940
  912MPD2    H313412   0.002   0.899  15.501 -0.5778  0.1492  0.6771
  912MPD2     N13413   4.622   0.626  15.853  0.2663 -0.4722 -0.0357
  912MPD2    H513414   4.624   0.623  15.955 -1.8217 -1.1935 -0.0152
  912MPD2    N113415   0.123   1.048  15.906 -0.0572  0.0366  1.1167
  912MPD2    H713416   0.175   1.121  15.859  1.6247 -2.1286 -0.4021
  913MPD2     C13417   0.491   2.194  10.904 -0.0154  0.2339  0.3506
  913MPD2    C113418   0.495   2.328  10.922  0.2125  0.1983 -0.9972
  913MPD2    C213419   0.457   2.419  10.823  0.1965  0.3246 -0.4170
  913MPD2    C313420   0.424   2.365  10.702 -0.4734  0.1288  0.0813
  913MPD2    C413421   0.434   2.227  10.687  0.3948 -0.1278 -0.0236
  913MPD2    C513422   0.465   2.140  10.781  0.0067  0.2545 -0.4987
  913MPD2     H13423   0.441   2.523  10.851  2.4219  0.9643 -1.5583
  913MPD2    H113424   0.415   2.183  10.589  0.6544  0.1467 -0.1964
  913MPD2    H213425   0.525   2.120  10.976  0.4913  2.4489  2.3901
  913MPD2    H313426   0.472   2.035  10.753 -2.5281  0.7213 -2.8891
  913MPD2     N13427   0.391   2.439  10.588 -0.3936  0.3537  0.3207
  913MPD2    H513428   0.375   2.385  10.504  0.9775  0.3000  0.0937
  913MPD2    N113429   0.531   2.372  11.052 -0.1484 -0.0406 -0.7693
  913MPD2    H713430   0.538   2.301  11.124  0.9146  0.7089 -0.1321
  914MPD2     C13431   3.041   2.205  12.528 -0.1537  0.3967  0.0787
  914MPD2    C113432   3.104   2.213  12.651  0.1564 -0.8185  0.1966
  914MPD2    C213433   3.173   2.107  12.699 -0.6077  0.7735  0.1881
  914MPD2    C313434   3.176   1.983  12.631  0.0390  0.8213  0.0673
  914MPD2    C413435   3.123   1.970  12.502 -0.5257 -0.1048  1.0463
  914MPD2    C513436   3.063   2.090  12.455  0.2164  0.1818 -0.0380
  914MPD2     H13437   3.231   2.121  12.789 -2.3317  0.2080  1.3894
  914MPD2    H113438   3.120   1.881  12.441 -1.7735  0.3858  0.3983
  914MPD2    H213439   2.990   2.291  12.486 -1.0636  0.3002  0.9892
  914MPD2    H313440   3.025   2.085  12.354 -1.5017  0.6417  0.5943
  914MPD2     N13441   3.239   1.877  12.702 -0.6331  0.1273  0.4688
  914MPD2    H513442   3.262   1.904  12.797  1.6608  2.3848 -0.7400
  914MPD2    N113443   3.093   2.331  12.727 -0.1080 -0.0586  0.1917
  914MPD2    H713444   3.052   2.406  12.671 -1.7236  0.5053  2.1295
  915MPD2     C13445   1.743   2.028  15.191  0.0049  0.5565 -0.0516
  915MPD2    C113446   1.616   2.061  15.153  0.5792  0.2636 -1.1651
  915MPD2    C213447   1.516   2.072  15.252 -0.4498  0.1020  0.5978
  915MPD2    C313448   1.550   2.053  15.390  0.1076  0.2301  0.1158
  915MPD2    C413449   1.678   2.030  15.421 -0.8170 -0.8349 -0.0609
  915MPD2    C513450   1.772   2.000  15.322 -0.5844 -0.2143 -0.1464
  915MPD2     H13451   1.411   2.092  15.231 -0.5588 -0.8470  0.2183
  915MPD2    H113452   1.720   2.024  15.521 -1.8164 -0.9521  0.3451
  915MPD2    H213453   1.824   2.013  15.119  0.4515  0.0359  0.5638
  915MPD2    H313454   1.876   1.980  15.343 -0.0917  2.2757 -0.1852
  915MPD2     N13455   1.452   2.070  15.489  0.3967  0.1465  0.5054
  915MPD2    H513456   1.367   2.118  15.462 -0.1927 -0.5646  1.0991
  915MPD2    N113457   1.590   2.079  15.016 -0.0093 -0.4133 -0.2180
  915MPD2    H713458   1.664   2.053  14.952  0.1496 -1.6250  0.4532
  916MPD2     C13459   4.151   0.321  15.827  0.1733 -0.1378  0.2666
  916MPD2    C113460   4.173   0.211  15.904 -1.0336 -0.4027  0.0836
  916MPD2    C213461   4.253   0.110  15.849 -0.2985  0.1721 -0.2820
  916MPD2    C313462   4.328   0.137  15.735 -0.5757  0.1373 -0.2121
  916MPD2    C413463   4.316   0.261  15.673  0.0815 -1.2687  0.0655
  916MPD2    C513464   4.221   0.345  15.717 -0.1598 -0.0944 -0.0496
  916MPD2     H13465   4.253   0.011  15.893  1.0546 -0.8772 -2.6404
  916MPD2    H113466   4.366   0.295  15.583  0.7317 -0.6580  0.6638
  916MPD2    H213467   4.084   0.399  15.863 -0.0451 -1.0261  1.7914
  916MPD2    H313468   4.204   0.430  15.652  1.1365 -0.9119 -1.4435
  916MPD2     N13469   4.398   0.029  15.668 -0.3881  0.6471 -0.8260
  916MPD2    H513470   4.377   4.670  15.694  0.2068  0.7995  0.2233
  916MPD2    N113471   4.093   0.195  16.023  0.4556  0.3505  0.2668
  916MPD2    H713472   4.032   0.274  16.043  0.3358  1.4122 -4.2344
  917MPD2     C13473   4.512   2.793  11.525  0.6883  0.2930  0.9748
  917MPD2    C113474   4.570   2.797  11.646  0.1595 -0.6220 -0.9368
  917MPD2    C213475   4.665   2.891  11.667 -0.9242  0.1953  0.2644
  917MPD2    C313476   4.713   2.981  11.574 -0.4620 -0.3077  0.6767
  917MPD2    C413477   4.642   2.983  11.457  0.5336 -0.0762 -0.4059
  917MPD2    C513478   4.539   2.885  11.431  0.6410  0.1259  0.6448
  917MPD2     H13479   4.707   2.895  11.766 -0.4268 -0.9938  0.0975
  917MPD2    H113480   4.662   3.052  11.376 -0.4756  1.8291  0.9689
  917MPD2    H213481   4.433   2.722  11.504  1.3472  0.6067 -2.5787
  917MPD2    H313482   4.479   2.889  11.341  0.1349  2.1094  1.0766
  917MPD2     N13483   0.072   3.089  11.588 -0.0456  0.1479  0.1967
  917MPD2    H513484   0.077   3.157  11.514 -2.0740 -1.3278 -1.2989
  917MPD2    N113485   4.523   2.708  11.745 -0.3941  0.3129  0.2665
  917MPD2    H713486   4.443   2.653  11.717 -0.5506 -0.2448  1.7841
  918MPD2     C13487   4.627   3.155  12.461 -0.6112  0.7663  0.0529
  918MPD2    C113488   4.729   3.062  12.437 -0.0834  0.4675  0.3293
  918MPD2    C213489   4.698   2.938  12.381 -0.0338  0.0737 -0.1601
  918MPD2    C313490   4.571   2.906  12.339 -0.0455  0.2101 -0.4038
  918MPD2    C413491   4.474   2.993  12.373 -0.1631  0.1069  0.3359
  918MPD2    C513492   4.503   3.118  12.416 -0.0329  0.2239 -0.6020
  918MPD2     H13493   0.030   2.856  12.365  2.6882  2.2295  0.5882
  918MPD2    H113494   4.369   2.977  12.348 -0.1306  0.2795  0.0820
  918MPD2    H213495   4.644   3.251  12.509  0.0337 -0.0140  1.4018
  918MPD2    H313496   4.418   3.183  12.432 -1.1836 -1.9666  2.1090
  918MPD2     N13497   4.541   2.780  12.281 -0.5055 -0.2111  0.3748
  918MPD2    H513498   4.619   2.716  12.275 -0.3731 -0.0980  0.9244
  918MPD2    N113499   0.125   3.091  12.467  0.1101 -0.7530 -0.0589
  918MPD2    H713500   0.192   3.015  12.482  0.1495 -0.8241 -0.5977
  919MPD2     C13501   0.167   1.919  11.899 -1.0877 -0.0052 -0.1983
  919MPD2    C113502   0.220   1.818  11.816  0.0857  0.5016  0.1404
  919MPD2    C213503   0.227   1.848  11.680  0.6618  0.3452 -0.3754
  919MPD2    C313504   0.184   1.964  11.625  0.2072  0.2376 -0.1608
  919MPD2    C413505   0.144   2.063  11.708 -0.3566  0.6037  0.3715
  919MPD2    C513506   0.137   2.042  11.848 -0.5579 -0.1382  0.2174
  919MPD2     H13507   0.249   1.767  11.611  1.0518  0.0806  0.0623
  919MPD2    H113508   0.099   2.157  11.678 -1.4377  0.9246  2.9865
  919MPD2    H213509   0.150   1.906  12.005 -1.5280  2.5445  0.0442
  919MPD2    H313510   0.095   2.117  11.913  2.4909  2.5524 -0.9191
  919MPD2     N13511   0.176   1.994  11.486  0.4445 -0.1138  0.1371
  919MPD2    H513512   0.132   2.080  11.453 -2.9183 -1.3573  1.3613
  919MPD2    N113513   0.253   1.684  11.852 -0.5439 -0.6126  1.1682
  919MPD2    H713514   0.298   1.631  11.778 -1.3730  0.1772  0.1048
  920MPD2     C13515   0.105   2.707  10.796  0.0571 -0.4155  0.1700
  920MPD2    C113516   0.020   2.610  10.761  0.4798  0.4018 -0.7029
  920MPD2    C213517   0.017   2.488  10.821  0.4191 -0.3547  0.3563
  920MPD2    C313518   0.109   2.457  10.924 -0.0316  0.9753  0.0001
  920MPD2    C413519   0.197   2.559  10.963  0.6224  1.0783 -0.0260
  920MPD2    C513520   0.195   2.685  10.898 -0.3624  0.3547  0.1024
  920MPD2     H13521   4.678   2.415  10.797  1.2525 -1.3262  0.6396
  920MPD2    H113522   0.260   2.555  11.051 -2.2107  0.1460  1.9745
  920MPD2    H213523   0.108   2.809  10.758 -1.3954 -0.8272 -1.0565
  920MPD2    H313524   0.261   2.761  10.937  0.0302 -1.0625  2.2170
  920MPD2     N13525   0.105   2.327  10.981  0.1739 -0.1603  0.1948
  920MPD2    H513526   0.056   2.259  10.923 -0.3425 -0.1946  0.6710
  920MPD2    N113527   4.661   2.627  10.664  0.5253  0.7921  0.2126
  920MPD2    H713528   4.592   2.556  10.642  0.8845  0.6833 -0.5852
  921MPD2     C13529   1.161   1.030  16.704  1.1161  0.1105  1.0231
  921MPD2    C113530   1.225   0.909  16.717  0.0505  0.4070  0.4776
  921MPD2    C213531   1.159   0.804  16.780 -0.0560 -0.3965  0.1216
  921MPD2    C313532   1.028   0.815  16.823  0.4001 -0.2579 -0.4203
  921MPD2    C413533   0.983   0.947  16.831 -0.1609 -0.5409 -0.1514
  921MPD2    C513534   1.044   1.057  16.768  0.1465  0.0274 -0.6764
  921MPD2     H13535   1.204   0.707  16.761 -0.1576 -0.6461  1.1957
  921MPD2    H113536   0.887   0.970  16.875  0.6833  1.5254  0.6034
  921MPD2    H213537   1.217   1.101  16.645  1.4057 -1.7915 -0.9709
  921MPD2    H313538   0.994   1.152  16.764  1.7211  0.8978  0.0788
  921MPD2     N13539   0.950   0.707  16.859  0.4303 -0.6428 -0.1344
  921MPD2    H513540   0.853   0.724  16.886  0.4237 -0.2356 -0.3990
  921MPD2    N113541   1.356   0.897  16.672 -0.0407  0.0499 -0.1532
  921MPD2    H713542   1.389   0.975  16.615  0.9478 -1.0342 -1.0640
  922MPD2     C13543   2.566   3.617  17.077 -0.3637 -0.1603 -0.0628
  922MPD2    C113544   2.470   3.652  17.163 -0.4834  0.5285 -0.3034
  922MPD2    C213545   2.397   3.551  17.222 -1.2906 -0.0629 -0.1357
  922MPD2    C313546   2.426   3.414  17.177 -0.1311  0.1224 -0.0059
  922MPD2    C413547   2.517   3.386  17.084 -0.2682  0.2432 -0.3469
  922MPD2    C513548   2.584   3.486  17.026 -0.5503  0.4312  0.2514
  922MPD2     H13549   2.316   3.571  17.292  0.1546 -1.6995  1.9993
  922MPD2    H113550   2.543   3.287  17.048  1.4657  0.2077  1.0555
  922MPD2    H213551   2.636   3.692  17.041 -0.4244 -1.0780 -2.1135
  922MPD2    H313552   2.668   3.460  16.963 -0.3886  0.3735  0.4896
  922MPD2     N13553   2.347   3.317  17.245 -0.2956  0.6306  0.4670
  922MPD2    H513554   2.285   3.342  17.321  1.2393  0.1517  1.8759
  922MPD2    N113555   2.464   3.784  17.215 -0.2238  0.3230  0.7832
  922MPD2    H713556   2.394   3.793  17.288 -2.5549 -0.3399 -1.3614
  923MPD2     C13557   2.838   1.314   9.296  0.2533 -0.1113  0.7739
  923MPD2    C113558   2.846   1.410   9.394 -1.3199 -0.2387  0.1654
  923MPD2    C213559   2.946   1.410   9.494  0.0425  0.3429 -0.6987
  923MPD2    C313560   3.042   1.307   9.499  0.5758  0.2250 -0.2284
  923MPD2    C413561   3.031   1.207   9.399 -0.3654  0.1519 -0.3075
  923MPD2    C513562   2.929   1.215   9.305 -0.2964 -0.1044  0.0663
  923MPD2     H13563   2.949   1.478   9.578  0.8329  0.3226 -0.7030
  923MPD2    H113564   3.108   1.135   9.373  0.7394  1.1740  0.1565
  923MPD2    H213565   2.756   1.312   9.225  2.1691 -0.9036 -1.4219
  923MPD2    H313566   2.937   1.136   9.231  1.1309 -0.8095  0.9919
  923MPD2     N13567   3.148   1.296   9.592 -0.5074  0.1157 -0.1213
  923MPD2    H513568   3.188   1.204   9.607 -0.3617 -0.0315 -1.4443
  923MPD2    N113569   2.742   1.500   9.386  0.3569  0.1957  0.3301
  923MPD2    H713570   2.686   1.487   9.302 -1.4443  0.6275  1.4473
  924MPD2     C13571   3.703   3.636  15.831 -0.3345 -0.0048 -0.4245
  924MPD2    C113572   3.626   3.607  15.937  0.7998 -0.0277  0.1928
  924MPD2    C213573   3.620   3.699  16.038 -0.4799 -0.3233  0.4371
  924MPD2    C313574   3.689   3.820  16.034 -0.0302  0.0623  0.4982
  924MPD2    C413575   3.769   3.847  15.927  0.5273 -0.6027  0.3325
  924MPD2    C513576   3.774   3.753  15.829 -0.1878 -0.0058  0.4148
  924MPD2     H13577   3.556   3.679  16.123 -0.3651  0.6369  0.7488
  924MPD2    H113578   3.827   3.939  15.926 -0.9290  0.3277  0.2263
  924MPD2    H213579   3.705   3.571  15.744 -1.6194 -0.9715  0.2599
  924MPD2    H313580   3.832   3.770  15.739  0.0023 -0.5972  0.4271
  924MPD2     N13581   3.674   3.928  16.130  0.5730 -0.2047  0.0279
  924MPD2    H513582   3.710   4.017  16.096 -1.5856  0.0276 -1.6807
  924MPD2    N113583   3.554   3.491  15.926 -0.2516  0.3804 -0.3609
  924MPD2    H713584   3.580   3.437  15.845  0.2395  0.6694 -0.3927
  925MPD2     C13585   2.359   1.589  15.128 -0.1205 -0.2032 -0.4770
  925MPD2    C113586   2.234   1.599  15.082  0.1651  0.0450 -0.3163
  925MPD2    C213587   2.128   1.629  15.167 -0.8433 -0.2095 -0.2736
  925MPD2    C313588   2.161   1.662  15.298 -0.6404 -0.9201 -0.9080
  925MPD2    C413589   2.292   1.658  15.341  0.9823  0.0503  0.4364
  925MPD2    C513590   2.383   1.625  15.256  0.7099  0.6383  0.2618
  925MPD2     H13591   2.024   1.624  15.137 -0.1607  3.9547 -3.4028
  925MPD2    H113592   2.331   1.675  15.441  2.4604 -2.2818  0.2510
  925MPD2    H213593   2.444   1.565  15.066 -0.1022  1.9487 -1.3014
  925MPD2    H313594   2.486   1.642  15.283  0.9024  3.1060 -2.0518
  925MPD2     N13595   2.068   1.688  15.398  0.1027  0.2520 -0.3098
  925MPD2    H513596   2.099   1.691  15.495  1.1009  1.8490 -0.6727
  925MPD2    N113597   2.199   1.560  14.947  0.5679 -0.0843  0.5327
  925MPD2    H713598   2.103   1.529  14.935  0.4861  0.5006 -0.3500
  926MPD2     C13599   0.919   0.207  13.592 -0.3334  0.4797  0.3631
  926MPD2    C113600   0.864   0.318  13.541  1.2683 -0.2350  0.1894
  926MPD2    C213601   0.931   0.375  13.433 -0.0106  0.5144 -0.2287
  926MPD2    C313602   1.062   0.337  13.395  0.8186 -0.1015  0.2579
  926MPD2    C413603   1.114   0.220  13.447  0.0024 -0.5093  0.2669
  926MPD2    C513604   1.043   0.161  13.546  0.1630  0.2301 -0.0555
  926MPD2     H13605   0.885   0.461  13.386  0.1777  0.9264  0.3486
  926MPD2    H113606   1.212   0.189  13.414  0.1282 -0.0029  0.1498
  926MPD2    H213607   0.871   0.145  13.667  2.4877  0.9525  2.5558
  926MPD2    H313608   1.089   0.075  13.594  0.3723  0.4102  0.0638
  926MPD2     N13609   1.147   0.403  13.302 -0.5314  0.3007  0.0112
  926MPD2    H513610   1.231   0.353  13.274 -0.6701 -0.4679  0.9652
  926MPD2    N113611   0.744   0.375  13.587 -0.1204 -0.1696 -0.3882
  926MPD2    H713612   0.718   0.447  13.520  1.3024  2.1094  1.4621
  927MPD2     C13613   0.523   1.741   0.382  0.1473 -0.2043  0.0082
  927MPD2    C113614   0.397   1.749   0.327  0.9446  0.6381 -0.1061
  927MPD2    C213615   0.376   1.798   0.197 -0.5088 -0.6155 -0.1562
  927MPD2    C313616   0.493   1.846   0.137  0.5533 -0.8997 -0.6128
  927MPD2    C413617   0.615   1.856   0.202  0.3288 -0.0987  0.2253
  927MPD2    C513618   0.635   1.801   0.325 -0.1175  0.2171 -0.3368
  927MPD2     H13619   0.286   1.783   0.137 -1.8714  0.0015  1.7464
  927MPD2    H113620   0.702   1.898   0.154  0.6070 -1.6380 -0.6091
  927MPD2    H213621   0.536   1.699   0.481 -0.1345  0.2358  0.2298
  927MPD2    H313622   0.730   1.801   0.377 -0.5936  1.5050  0.5263
  927MPD2     N13623   0.481   1.885   0.002  0.8428  0.8044  0.7047
  927MPD2    H513624   0.399   1.843  17.705  1.2187  1.4802 -0.6551
  927MPD2    N113625   0.289   1.690   0.406  0.6725  0.2846  0.1712
  927MPD2    H713626   0.305   1.615   0.472 -0.0207  0.1754  0.2210
  928MPD2     C13627   2.410   0.489  17.269  0.0087  0.1061  0.2171
  928MPD2    C113628   2.416   0.506  17.408  1.1668  0.3114 -0.6359
  928MPD2    C213629   2.542   0.496  17.482  1.3291 -0.1588  0.0981
  928MPD2    C313630   2.663   0.481  17.408 -0.3377 -0.3432  0.1973
  928MPD2    C413631   2.653   0.462  17.272  0.4685  0.0684  0.0962
  928MPD2    C513632   2.524   0.458  17.205  0.4768 -0.5848 -0.2257
  928MPD2     H13633   2.554   0.522  17.587  0.4560 -1.3927  0.4984
  928MPD2    H113634   2.743   0.450  17.214  0.6905  0.7598  0.3022
  928MPD2    H213635   2.321   0.499  17.209  1.4731  1.3237 -1.7623
  928MPD2    H313636   2.527   0.447  17.097  0.5212 -0.9909 -0.1834
  928MPD2     N13637   2.786   0.485  17.481 -0.5348  0.4884 -1.3084
  928MPD2    H513638   2.866   0.475  17.419  2.0388  1.7443  1.8498
  928MPD2    N113639   2.296   0.549  17.471  0.0482  0.1789 -0.2050
  928MPD2    H713640   2.218   0.552  17.407 -0.3227 -2.4774  0.1294
  929MPD2     C13641   3.006   1.275  10.079 -0.0273 -0.2004 -0.1070
  929MPD2    C113642   2.961   1.159  10.030  0.2056  0.0273  0.3941
  929MPD2    C213643   2.899   1.155   9.908  0.3339  0.0303  0.4491
  929MPD2    C313644   2.848   1.272   9.849 -0.4091  0.4310  0.3027
  929MPD2    C413645   2.880   1.390   9.911  0.1532 -0.2530 -0.0714
  929MPD2    C513646   2.963   1.388  10.023 -1.3800  0.6497 -0.1174
  929MPD2     H13647   2.852   1.065   9.870  1.3652 -0.4518  0.3164
  929MPD2    H113648   2.843   1.488   9.881 -1.1402 -0.4438  0.8887
  929MPD2    H213649   3.078   1.282  10.161  0.4822 -0.0809 -0.5660
  929MPD2    H313650   3.001   1.482  10.063 -1.1254  1.6069 -2.5974
  929MPD2     N13651   2.752   1.274   9.750  0.2010 -0.0327 -0.0339
  929MPD2    H513652   2.711   1.362   9.722 -0.6880 -0.8599 -1.3397
  929MPD2    N113653   2.973   1.045  10.116 -0.4013  0.2423  0.7544
  929MPD2    H713654   3.020   1.067  10.204  0.5111 -0.1482  0.3556
  930MPD2     C13655   0.195   2.877  14.094 -0.3020 -0.2309  0.2218
  930MPD2    C113656   0.295   2.801  14.039 -0.2427  0.8432  1.1813
  930MPD2    C213657   0.265   2.673  13.988  0.4784  0.5511 -0.4087
  930MPD2    C313658   0.136   2.620  14.008 -0.2745 -0.3548  0.7238
  930MPD2    C413659   0.036   2.702  14.052  0.1204  0.1604  0.3589
  930MPD2    C513660   0.064   2.835  14.086  0.8090 -1.1743 -0.1080
  930MPD2     H13661   0.345   2.620  13.938  1.0976  0.4611  0.6646
  930MPD2    H113662   4.671   2.666  14.048  0.0903  0.3334 -0.5422
  930MPD2    H213663   0.209   2.977  14.133 -0.7656 -0.4380  0.9179
  930MPD2    H313664   4.723   2.905  14.114  0.2331 -0.9951 -2.1670
  930MPD2     N13665   0.103   2.490  13.961  0.6110  0.5303 -0.3712
  930MPD2    H513666   0.006   2.462  13.954  0.2445  1.8133 -0.5147
  930MPD2    N113667   0.423   2.856  14.027 -0.1031 -0.2364 -0.0971
  930MPD2    H713668   0.429   2.955  14.052 -0.0933 -0.1207 -0.5572
  931MPD2     C13669   0.372   1.229   0.744  0.1199  0.0170 -0.2836
  931MPD2    C113670   0.233   1.241   0.744  0.7052  0.3550 -0.1692
  931MPD2    C213671   0.155   1.138   0.806  0.1279 -0.4736 -0.4826
  931MPD2    C313672   0.219   1.047   0.880 -0.5458  0.0050 -0.5796
  931MPD2    C413673   0.359   1.037   0.880  0.1871  0.1713 -0.3206
  931MPD2    C513674   0.433   1.125   0.806  0.2186  0.5194 -0.7975
  931MPD2     H13675   0.048   1.150   0.815  0.5416 -0.8404  4.9140
  931MPD2    H113676   0.411   0.970   0.948  1.1723  1.2202 -0.0552
  931MPD2    H213677   0.429   1.303   0.690 -1.0876  0.9594 -0.2710
  931MPD2    H313678   0.542   1.120   0.806  0.0946 -2.4462 -3.2644
  931MPD2     N13679   0.156   0.973   0.981 -0.0920  0.1412  0.2891
  931MPD2    H513680   0.216   0.934   1.053 -0.3123  0.2121  0.5131
  931MPD2    N113681   0.170   1.356   0.691 -0.2400 -0.6525  0.0843
  931MPD2    H713682   0.229   1.419   0.638 -2.6752  0.7560 -0.9185
  932MPD2     C13683   2.099   1.262  11.352 -0.0716 -0.5267  0.1476
  932MPD2    C113684   2.210   1.285  11.426  0.1065 -0.0785  0.2141
  932MPD2    C213685   2.287   1.178  11.469 -0.0913  0.4614  0.1231
  932MPD2    C313686   2.266   1.051  11.413 -0.1588 -0.0312  0.4336
  932MPD2    C413687   2.159   1.031  11.339  0.0444 -0.6002 -0.1633
  932MPD2    C513688   2.074   1.136  11.303  0.3041 -0.9182 -0.1705
  932MPD2     H13689   2.367   1.194  11.540 -1.3589 -0.6560  1.7975
  932MPD2    H113690   2.123   0.937  11.299 -1.7072  0.1267 -0.3053
  932MPD2    H213691   2.036   1.340  11.310 -1.4050 -1.0408  1.2274
  932MPD2    H313692   1.986   1.109  11.246 -0.0388  0.1905 -0.1496
  932MPD2     N13693   2.355   0.951  11.451  0.1373  0.4370  0.4137
  932MPD2    H513694   2.436   0.972  11.508  0.0266  1.4965  0.1909
  932MPD2    N113695   2.256   1.419  11.472 -0.2976 -0.2282  0.2406
  932MPD2    H713696   2.331   1.425  11.541 -0.0776 -0.2403  0.0007
  933MPD2     C13697   1.772   0.810  17.201 -0.4160 -0.3159  0.7656
  933MPD2    C113698   1.811   0.881  17.317 -0.1651 -0.3740 -0.3479
  933MPD2    C213699   1.779   1.015  17.323  0.3049  0.4242 -0.3081
  933MPD2    C313700   1.706   1.074  17.225 -0.2523  0.3788  0.0517
  933MPD2    C413701   1.659   1.002  17.113 -0.3782  0.6459  0.2301
  933MPD2    C513702   1.685   0.865  17.108 -0.3858  0.1293 -0.2615
  933MPD2     H13703   1.810   1.073  17.409 -1.8518  2.7377 -1.1206
  933MPD2    H113704   1.590   1.046  17.041  0.3468 -2.7121 -2.4628
  933MPD2    H213705   1.794   0.704  17.198  1.5662  0.1029  0.5913
  933MPD2    H313706   1.646   0.790  17.039  0.8672 -0.5789 -0.2069
  933MPD2     N13707   1.695   1.214  17.231 -0.1946  0.3973 -0.9910
  933MPD2    H513708   1.736   1.257  17.313 -1.2530  0.7587 -0.6562
  933MPD2    N113709   1.875   0.815  17.425  0.5346  0.0221  0.9551
  933MPD2    H713710   1.892   0.715  17.414 -0.0937 -0.1447  1.4979
  934MPD2     C13711   4.632   2.582   1.585  0.5999 -0.0789  0.8054
  934MPD2    C113712   4.653   2.628   1.455  0.7047  0.0510  0.2485
  934MPD2    C213713   4.585   2.569   1.354 -0.3623 -0.1890 -0.2767
  934MPD2    C313714   4.498   2.466   1.384  0.5195 -0.0947  0.0968
  934MPD2    C413715   4.489   2.412   1.512  0.2320 -0.2053  0.3298
  934MPD2    C513716   4.556   2.472   1.613 -0.1097  0.5135  0.3726
  934MPD2     H13717   4.600   2.608   1.253  2.4438  0.2105  0.2847
  934MPD2    H113718   4.432   2.321   1.524 -1.8511  0.5621 -3.8804
  934MPD2    H213719   4.686   2.624   1.670  0.6787 -1.5920  1.5089
  934MPD2    H313720   4.576   2.432   1.712  1.1755  0.4520  0.0878
  934MPD2     N13721   4.420   2.398   1.293 -0.2793 -0.0053 -0.1237
  934MPD2    H513722   4.373   2.314   1.325  2.0092 -0.9948  0.6471
  934MPD2    N113723   0.003   2.736   1.424 -0.3981 -0.9211 -0.0837
  934MPD2    H713724   0.005   2.760   1.325  2.2674  0.1717  0.2416
  935MPD2     C13725   4.537   1.569   1.165 -0.1777  0.3058 -0.2281
  935MPD2    C113726   4.450   1.604   1.069  0.7536 -0.0804 -0.0290
  935MPD2    C213727   4.392   1.727   1.078 -0.7503  0.0851 -0.0763
  935MPD2    C313728   4.426   1.825   1.172  0.0220  0.0673 -0.5545
  935MPD2    C413729   4.517   1.782   1.270  0.9391 -0.9732 -0.3203
  935MPD2    C513730   4.574   1.658   1.263 -0.4323 -0.5489  0.0214
  935MPD2     H13731   4.327   1.757   0.996 -1.5321  0.6371  0.7470
  935MPD2    H113732   4.543   1.840   1.357 -0.7053 -0.3517 -0.2550
  935MPD2    H213733   4.601   1.481   1.161  1.2993  1.3323  0.8752
  935MPD2    H313734   4.642   1.628   1.342  0.5682 -0.3915 -0.7881
  935MPD2     N13735   4.361   1.951   1.178  0.2311  0.0706 -0.4069
  935MPD2    H513736   4.407   2.020   1.238 -1.2854  0.7327 -0.0138
  935MPD2    N113737   4.407   1.516   0.969  0.0143  0.3164  0.5145
  935MPD2    H713738   4.338   1.551   0.904  0.9242  0.0405 -0.5897
  936MPD2     C13739   2.455   4.499  12.411  0.2452  0.2837 -0.1931
  936MPD2    C113740   2.511   4.477  12.529 -0.0401 -0.3634 -0.3194
  936MPD2    C213741   2.646   4.509  12.555  0.1356  0.2575 -0.4728
  936MPD2    C313742   2.719   4.564  12.456 -0.5489 -0.0266  0.4211
  936MPD2    C413743   2.663   4.576  12.333  0.5161  0.5479 -0.3500
  936MPD2    C513744   2.532   4.538  12.306  0.6499  0.6501 -0.5016
  936MPD2     H13745   2.690   4.497  12.653 -0.6230 -2.4823 -0.4627
  936MPD2    H113746   2.713   4.604  12.241 -0.7846  1.0693 -0.8995
  936MPD2    H213747   2.351   4.477  12.389  0.1710  3.1390 -2.7764
  936MPD2    H313748   2.489   4.556  12.208 -1.3176 -1.0549  0.0255
  936MPD2     N13749   2.855   4.603  12.479 -0.2081  0.6705  0.2780
  936MPD2    H513750   2.906   4.654  12.408  1.3876 -0.8152  0.3438
  936MPD2    N113751   2.453   4.432  12.643  0.0882  0.2863  0.1060
  936MPD2    H713752   2.514   4.430  12.724  1.4189  4.2280 -0.7990
  937MPD2     C13753   0.579   1.086  11.636 -1.0370  0.0139 -0.0043
  937MPD2    C113754   0.585   1.217  11.679  0.1092  0.3716  0.2646
  937MPD2    C213755   0.666   1.320  11.618 -0.1919 -0.2974  0.3914
  937MPD2    C313756   0.747   1.275  11.515  0.4070 -0.3358  0.0503
  937MPD2    C413757   0.747   1.144  11.474 -0.4083 -0.8881  0.2060
  937MPD2    C513758   0.660   1.051  11.535  0.0796 -1.0272  0.4482
  937MPD2     H13759   0.672   1.423  11.651  1.6814 -1.5430  3.8853
  937MPD2    H113760   0.809   1.105  11.394  1.8483  0.5352  1.2800
  937MPD2    H213761   0.515   1.010  11.679 -1.4454  0.0304 -0.5834
  937MPD2    H313762   0.675   0.947  11.511  0.9674 -1.1667  1.6077
  937MPD2     N13763   0.838   1.366  11.459 -0.7055 -0.0222  0.1604
  937MPD2    H513764   0.861   1.451  11.512 -2.4523 -0.0071  0.9013
  937MPD2    N113765   0.494   1.272  11.771  0.0343  0.5535 -0.3551
  937MPD2    H713766   0.514   1.370  11.789 -0.8886  0.2757  2.1711
  938MPD2     C13767   2.816   1.702   0.530  0.1593  0.4438  0.3535
  938MPD2    C113768   2.797   1.752   0.654 -0.2436  0.5617  0.1747
  938MPD2    C213769   2.711   1.689   0.737  0.4095  0.6916 -0.3839
  938MPD2    C313770   2.618   1.592   0.693  0.4630 -0.3775  0.1069
  938MPD2    C413771   2.631   1.548   0.561 -1.2864  0.0198  0.6405
  938MPD2    C513772   2.731   1.601   0.479 -0.9486 -0.3561  0.4983
  938MPD2     H13773   2.691   1.722   0.838 -0.0387  2.0569 -0.9258
  938MPD2    H113774   2.573   1.467   0.517  1.2032 -0.6998 -1.3172
  938MPD2    H213775   2.887   1.738   0.456  2.6825  0.9601  3.0509
  938MPD2    H313776   2.742   1.568   0.376  2.9270 -0.6643  1.0099
  938MPD2     N13777   2.531   1.521   0.786 -0.1861  0.0416 -0.0030
  938MPD2    H513778   2.472   1.452   0.741  0.5452 -1.1419  0.8484
  938MPD2    N113779   2.895   1.849   0.700  0.3452 -0.3393 -0.1592
  938MPD2    H713780   2.972   1.871   0.638  0.8564 -3.1711 -0.5473
  939MPD2     C13781   3.781   3.413   0.522  0.3881  0.5515 -0.3814
  939MPD2    C113782   3.832   3.542   0.545 -0.1805 -0.2529  0.0623
  939MPD2    C213783   3.903   3.609   0.440  0.7048  0.2928 -0.5102
  939MPD2    C313784   3.928   3.540   0.317 -0.0759  1.1016 -0.2704
  939MPD2    C413785   3.882   3.408   0.305  0.7827 -0.0265  0.0329
  939MPD2    C513786   3.817   3.350   0.409  0.2076  0.4091  0.3129
  939MPD2     H13787   3.950   3.704   0.460 -0.7379  0.8680  0.1215
  939MPD2    H113788   3.899   3.342   0.220 -1.0132 -2.1310  1.3238
  939MPD2    H213789   3.741   3.356   0.605  0.6854  0.4400 -0.3184
  939MPD2    H313790   3.787   3.246   0.399 -2.0684  1.0562  0.4310
  939MPD2     N13791   3.994   3.604   0.208 -0.5080  0.0321 -0.0949
  939MPD2    H513792   4.033   3.694   0.234  0.9190 -0.5260 -0.3131
  939MPD2    N113793   3.823   3.582   0.680  0.8500  0.0814  0.8592
  939MPD2    H713794   3.787   3.509   0.741  0.2543  0.8864  1.4774
  940MPD2     C13795   3.051   3.694  13.756 -0.1711  0.2846 -0.1742
  940MPD2    C113796   3.138   3.783  13.810  0.3172 -0.1047  0.0052
  940MPD2    C213797   3.150   3.910  13.754 -0.1640 -0.2038  0.4225
  940MPD2    C313798   3.079   3.935  13.637 -0.3630  0.6644  0.4374
  940MPD2    C413799   3.000   3.839  13.584  1.0466  0.1765 -0.0745
  940MPD2    C513800   2.976   3.727  13.651 -0.3574 -0.0763  0.3755
  940MPD2     H13801   3.215   3.983  13.803 -0.5224  2.1998 -2.7165
  940MPD2    H113802   2.943   3.861  13.494  0.7945  1.2349  0.3497
  940MPD2    H213803   3.022   3.595  13.791 -1.7080  0.5313 -0.7331
  940MPD2    H313804   2.895   3.665  13.614  0.0850  0.5246 -1.6245
  940MPD2     N13805   3.083   4.061  13.568  0.0539  0.6511  0.0315
  940MPD2    H513806   3.025   4.078  13.487  0.0353  2.1922  0.3770
  940MPD2    N113807   3.213   3.753  13.924  0.1277 -0.6278  0.4558
  940MPD2    H713808   3.275   3.829  13.951 -1.8706  1.2889 -0.4000
  941MPD2     C13809   2.103   4.419  10.270  0.2089 -0.5775 -0.9964
  941MPD2    C113810   2.141   4.302  10.337 -0.0666 -0.1273  0.4166
  941MPD2    C213811   2.035   4.222  10.381 -0.0176  0.4086  0.5174
  941MPD2    C313812   1.907   4.252  10.350  0.4859  0.0571  0.3430
  941MPD2    C413813   1.871   4.378  10.302  0.7537 -0.8080  0.2675
  941MPD2    C513814   1.972   4.454  10.256  0.9636  0.0666 -0.2816
  941MPD2     H13815   2.061   4.124  10.420 -2.5663 -0.4337  0.1102
  941MPD2    H113816   1.768   4.410  10.290  0.8676 -0.2173  0.8704
  941MPD2    H213817   2.177   4.487  10.231  1.1298 -0.2287  1.3593
  941MPD2    H313818   1.955   4.548  10.204 -0.8720  0.0475  0.2887
  941MPD2     N13819   1.798   4.169  10.387 -0.4621 -0.1550 -0.2100
  941MPD2    H513820   1.705   4.187  10.350 -0.3827  1.3526  0.3306
  941MPD2    N113821   2.276   4.259  10.363  0.7471  0.0595  0.0478
  941MPD2    H713822   2.291   4.182  10.427  0.8292 -1.4868 -1.8687
  942MPD2     C13823   1.787   0.176   9.191  0.6971  0.2286 -0.3578
  942MPD2    C113824   1.821   0.251   9.304  0.3074 -0.3002 -0.2096
  942MPD2    C213825   1.907   0.199   9.404 -1.0253  0.3404  0.2476
  942MPD2    C313826   1.954   0.067   9.393  0.0724 -0.6423  0.3274
  942MPD2    C413827   1.920   4.728   9.283 -0.1070 -0.2117 -0.5316
  942MPD2    C513828   1.846   0.049   9.182 -0.9440 -0.4107 -0.9140
  942MPD2     H13829   1.933   0.263   9.488 -1.3339 -0.5642  1.0441
  942MPD2    H113830   1.966   4.631   9.265  2.5373  0.4973  2.3579
  942MPD2    H213831   1.714   0.206   9.118  1.1433  1.1143 -0.4335
  942MPD2    H313832   1.835   0.009   9.082 -0.1957 -1.8085 -0.4410
  942MPD2     N13833   2.064   0.017   9.470 -0.1149  0.0586  0.2899
  942MPD2    H513834   2.101   4.664   9.442  0.1205 -0.0336  0.8995
  942MPD2    N113835   1.779   0.381   9.320  0.2910  0.9307 -0.6064
  942MPD2    H713836   1.801   0.422   9.410  2.6402 -1.0197 -0.3008
  943MPD2     C13837   0.852   4.084   9.891  0.3453  0.1313  0.0624
  943MPD2    C113838   0.815   3.967   9.956  0.3584 -0.3588  0.2961
  943MPD2    C213839   0.865   3.955  10.084 -0.3661 -0.2742 -0.6772
  943MPD2    C313840   0.951   4.051  10.141 -0.3232  0.7323  0.9030
  943MPD2    C413841   0.995   4.155  10.066 -0.1411 -0.0091 -0.6599
  943MPD2    C513842   0.939   4.176   9.946  0.3131  0.7206 -0.3065
  943MPD2     H13843   0.822   3.875  10.144 -0.6984  1.4990  1.4461
  943MPD2    H113844   1.069   4.227  10.099  0.2814 -1.8948  2.5071
  943MPD2    H213845   0.822   4.104   9.789 -0.7639  0.6826  0.5030
  943MPD2    H313846   0.973   4.262   9.889  1.9247 -2.0456 -3.5275
  943MPD2     N13847   0.981   4.051  10.278  0.1114  0.0824 -0.2205
  943MPD2    H513848   1.014   4.141  10.310 -2.1075  0.0051  2.2498
  943MPD2    N113849   0.726   3.878   9.890 -0.2285  0.2428  0.2230
  943MPD2    H713850   0.715   3.892   9.790  1.5042  1.0100  0.1226
  944MPD2     C13851   0.911   2.145  11.338 -0.6016  0.1061  1.1308
  944MPD2    C113852   0.903   2.255  11.253  1.3892  0.0795 -0.1932
  944MPD2    C213853   0.914   2.382  11.310  0.1044  0.2183 -0.1138
  944MPD2    C313854   0.914   2.397  11.447  0.0169  0.7317  0.2119
  944MPD2    C413855   0.916   2.285  11.526 -0.1474  0.3245 -0.2084
  944MPD2    C513856   0.916   2.164  11.478  0.1416  0.1334  0.1156
  944MPD2     H13857   0.927   2.473  11.252 -1.1823  0.8063  0.5363
  944MPD2    H113858   0.908   2.294  11.634  1.2711  0.7694 -0.1361
  944MPD2    H213859   0.918   2.043  11.302 -0.5999  0.9718 -1.2864
  944MPD2    H313860   0.917   2.085  11.551  1.2589  0.8485  0.8669
  944MPD2     N13861   0.928   2.529  11.499 -0.1808 -0.5586  0.0384
  944MPD2    H513862   0.952   2.599  11.429  0.4786 -0.6222  0.2062
  944MPD2    N113863   0.897   2.227  11.114 -0.3566 -0.1490 -0.1382
  944MPD2    H713864   0.918   2.131  11.089  0.6397 -0.1011  0.5041
    1TMC1    C113865   4.370   3.386  14.329 -0.3405 -0.1964 -0.0244
    1TMC1    C213866   4.238   3.385  14.336 -0.6916  0.1786  1.3426
    1TMC1    C313867   4.184   3.277  14.407 -0.1488 -0.1129 -0.5277
    1TMC1    C413868   4.451   3.294  14.381  0.4498  0.1040  0.3566
    1TMC1    C513869   4.398   3.202  14.459  0.2650 -1.0206 -0.0956
    1TMC1    C613870   4.261   3.183  14.470 -0.3998 -0.2443  0.0656
    1TMC1     C13871   4.425   3.514  14.284 -0.7556  0.0260  0.0527
    1TMC1     O13872   4.528   3.546  14.343  0.1053  0.2991 -0.4807
    1TMC1     H13873   4.168   3.454  14.291  2.0258  1.5207 -0.8144
    1TMC1    H113874   4.557   3.283  14.361  0.3473 -0.9413  0.3671
    1TMC1    H213875   4.212   3.102  14.522 -0.9254 -0.8173 -1.3249
    1TMC1    C713876   4.476   3.108  14.533  0.3684  0.1843  1.2401
    1TMC1    C813877   4.045   3.261  14.416 -0.2526  0.1492  0.6605
    1TMC1    O113878   4.409   3.014  14.573  0.0970  0.1886  0.0306
    1TMC1    O213879   3.966   3.316  14.338 -0.1356  0.3304  0.0161
    1TMC1    O313880   4.540   3.187  14.614  0.4288  0.2614  0.2453
    1TMC1    H313881   4.574   3.274  14.584  1.3675  0.7486  2.6789
    1TMC1    O513882   4.013   3.224  14.544  0.1752 -0.1156  0.1596
    1TMC1    H513883   4.083   3.192  14.605 -0.8844 -1.9104  0.4174
    2MPD2     C13884   4.408   3.991  14.119  0.3016 -0.2226  0.5128
    2MPD2    C113885   4.333   3.913  14.035 -0.4658  0.7574  0.0451
    2MPD2    C213886   4.327   3.778  14.053 -0.0099 -0.0373  0.6962
    2MPD2    C313887   4.382   3.723  14.165  0.4260  0.4018  0.7115
    2MPD2    C413888   4.461   3.799  14.249 -0.5266  0.4291  0.1268
    2MPD2    C513889   4.463   3.932  14.230 -0.7483  0.5666 -0.2706
    2MPD2     H13890   4.278   3.708  13.986  1.3450 -0.8243  0.5337
    2MPD2    H113891   4.512   3.762  14.337 -1.9125 -1.0089  0.3208
    2MPD2    H213892   4.416   4.099  14.113 -0.5312 -0.2449 -1.1123
    2MPD2    H313893   4.530   3.987  14.296 -0.0270 -1.4545  0.6813
    2MPD2     N13894   4.357   3.587  14.188  0.1228 -0.9325 -0.4518
    2MPD2    H513895   4.297   3.541  14.121 -0.6274  0.8073 -0.9752
    2MPD2    N113896   4.283   3.975  13.920 -0.1900 -0.5391  0.0746
    2MPD2    H713897   4.298   4.075  13.914  3.1260 -0.9297  1.8752
    3TMC2    C113898   4.192   4.009  13.703 -0.3599  0.3992  0.1031
    3TMC2    C213899   4.097   3.970  13.610  0.0654  0.5113 -0.5966
    3TMC2    C313900   4.067   4.054  13.509 -0.0610  0.1549 -0.0596
    3TMC2    C413901   4.273   4.110  13.668  0.1929 -0.5248 -0.1316
    3TMC2    C513902   4.246   4.187  13.560  0.1165 -0.0569  0.4425
    3TMC2    C613903   4.142   4.161  13.477 -0.2472 -0.5884 -0.1914
    3TMC2     C13904   4.232   3.913  13.810  0.2717 -0.1644  0.8202
    3TMC2     O13905   4.225   3.796  13.779  0.4939  0.1421 -0.5717
    3TMC2     H13906   4.030   3.889  13.638 -0.7078  0.8493 -1.4699
    3TMC2    H113907   4.354   4.139  13.735 -1.0383 -2.3236  2.1227
    3TMC2    H213908   4.116   4.217  13.388  1.4529  3.3665  1.8021
    3TMC2    C713909   4.298   4.316  13.554  0.0046  0.2297 -0.0160
    3TMC2    C813910   3.971   3.996  13.415  0.3141  0.2874 -0.2928
    3TMC2    O113911   4.213   4.398  13.530  0.0006  0.1169 -0.6125
    3TMC2    O213912   3.963   3.878  13.397  0.1348  0.9250  0.2019
    3TMC2    O513913   3.919   4.095  13.335 -0.4085  0.2591  0.3618
    3TMC2    H513914   3.922   4.171  13.397 -0.7164 -0.0657  0.7803
    4TMC2    C113915   4.202   0.446  13.542 -0.1787  0.0856  0.3500
    4TMC2    C213916   4.299   0.538  13.510  0.1701 -0.1367 -0.3756
    4TMC2    C313917   4.415   0.490  13.473  0.2580 -0.4012  0.0213
    4TMC2    C413918   4.217   0.308  13.524  0.3988  0.2128  0.3080
    4TMC2    C513919   4.340   0.258  13.477  0.2063 -0.3982 -0.1915
    4TMC2    C613920   4.436   0.355  13.446 -1.0036 -0.0397  0.1726
    4TMC2     C13921   4.082   0.486  13.600  0.1249  0.2218 -0.6344
    4TMC2     O13922   4.097   0.583  13.671  0.0669 -0.2084  0.1276
    4TMC2     H13923   4.281   0.643  13.532  0.2929 -0.0018 -0.9357
    4TMC2    H113924   4.146   0.234  13.559  0.3086  0.3313  0.3750
    4TMC2    H213925   4.529   0.318  13.405  1.1699  3.2188  2.1902
    4TMC2    C713926   4.361   0.118  13.509  0.2371 -1.2570 -0.1148
    4TMC2    C813927   4.519   0.584  13.470  0.7935  0.4941  0.2977
    4TMC2    O113928   4.264   0.047  13.510 -0.3878  0.3916  0.6801
    4TMC2    O213929   4.494   0.704  13.458 -0.4783  0.7528  0.9931
    4TMC2    O513930   4.636   0.524  13.495  0.0738 -0.3079 -0.4630
    4TMC2    H513931   4.633   0.428  13.517  0.2045 -0.5042 -1.3081
    5MPD2     C13932   3.580   0.430  13.720  0.6711 -0.7970  0.1076
    5MPD2    C113933   3.615   0.359  13.603  0.4372  0.9938  0.1321
    5MPD2    C213934   3.746   0.357  13.555 -0.0329  0.8332 -0.1816
    5MPD2    C313935   3.847   0.424  13.620 -0.3489  0.2626  0.1697
    5MPD2    C413936   3.815   0.506  13.727 -0.1688 -0.1738 -0.4932
    5MPD2    C513937   3.683   0.506  13.776  0.6019 -0.3135 -0.0218
    5MPD2     H13938   3.775   0.296  13.470  1.2724 -0.1101  0.9394
    5MPD2    H113939   3.897   0.560  13.773 -1.2483  2.3299 -1.5268
    5MPD2    H213940   3.479   0.426  13.759  1.0222  1.4875  1.2481
    5MPD2    H313941   3.655   0.556  13.868  0.7120 -0.4259  0.0729
    5MPD2     N13942   3.973   0.417  13.565 -0.3537  0.2835 -0.0055
    5MPD2    H513943   3.985   0.348  13.492  0.4237 -1.4086  1.7385
    5MPD2    N113944   3.510   0.303  13.530 -0.0258 -0.1982  0.2099
    5MPD2    H713945   3.414   0.306  13.564 -0.5711  1.7461 -1.5666
    6MPD1     C13946   2.248   1.297  12.923 -0.1114 -0.8749  0.4048
    6MPD1    C113947   2.327   1.394  12.974 -0.8381  0.2535  0.4386
    6MPD1    C213948   2.461   1.376  13.003 -0.1710 -0.4183  0.5983
    6MPD1    C313949   2.523   1.250  12.974  0.3369  0.4461  0.3244
    6MPD1    C413950   2.439   1.151  12.920 -0.0166  0.5848 -0.5021
    6MPD1    C513951   2.304   1.168  12.906 -0.2742 -0.3362  0.5146
    6MPD1     H13952   2.512   1.454  13.058  2.5305 -0.5269 -1.7263
    6MPD1    H113953   2.483   1.053  12.901 -3.0421 -0.6386 -1.2070
    6MPD1    H213954   2.145   1.314  12.892  0.0171 -1.6012 -0.4309
    6MPD1    H313955   2.244   1.086  12.869  0.2220  0.4789 -2.0848
    6MPD1     N13956   2.657   1.221  13.002 -1.3183  0.1695 -0.4319
    6MPD1    H513957   2.697   1.135  12.966  0.7087  1.3247 -0.9438
    6MPD1    N113958   2.254   1.511  13.022 -0.0910 -0.2227 -0.6643
    6MPD1    H613959   2.316   1.591  13.017 -3.1584  2.2561  1.0058
    6MPD1    H713960   2.165   1.525  12.974  0.1366  1.2506 -0.6601
    7MPD2     C13961   2.766   0.708  13.310  0.0728 -0.3278  0.1755
    7MPD2    C113962   2.900   0.728  13.345 -0.5801  0.9648  0.8697
    7MPD2    C213963   2.977   0.613  13.358 -0.1796 -0.2140  0.5681
    7MPD2    C313964   2.917   0.483  13.347  0.3231 -0.6115 -0.3384
    7MPD2    C413965   2.784   0.474  13.298 -0.5841  0.2780 -0.1793
    7MPD2    C513966   2.709   0.588  13.288 -0.0452 -0.3396  0.1351
    7MPD2     H13967   3.082   0.620  13.384  0.2489 -0.4239 -1.0998
    7MPD2    H113968   2.737   0.379  13.276  0.3315  0.3338 -2.3133
    7MPD2    H213969   2.696   0.789  13.297  0.1831 -0.4589 -1.2002
    7MPD2    H313970   2.605   0.576  13.261 -0.0468  0.6457 -0.2875
    7MPD2     N13971   2.987   0.364  13.356 -0.3833 -0.5672  0.6300
    7MPD2    H513972   2.936   0.285  13.317 -0.1632  0.3082 -1.4264
    7MPD2    N113973   2.964   0.854  13.340 -0.3283  0.2235  0.2053
    7MPD2    H713974   3.064   0.860  13.354  0.0582 -0.9874 -2.0037
    8TMC3    C113975   3.162   0.216  13.382 -0.4232 -0.3235 -0.2813
    8TMC3    C213976   3.279   0.194  13.449 -0.2290 -0.3071 -0.2773
    8TMC3    C313977   3.391   0.175  13.373 -0.1008  0.7486  0.0644
    8TMC3    C413978   3.149   0.209  13.247  0.4904 -0.3691  0.7441
    8TMC3    C513979   3.257   0.185  13.172 -0.0928 -0.6217 -0.3834
    8TMC3    C613980   3.378   0.174  13.232 -0.2958  0.5585  0.0849
    8TMC3     C13981   3.097   0.338  13.423  0.0269  0.2830  0.5321
    8TMC3     O13982   3.171   0.398  13.497 -0.6778 -0.0354  0.1722
    8TMC3     H13983   3.279   0.210  13.556  0.5166 -0.2358 -0.2914
    8TMC3    H113984   3.052   0.197  13.201  0.5607  0.5494  0.3412
    8TMC3    H213985   3.467   0.166  13.170 -0.0628  2.0551  0.2273
    8TMC3    C713986   3.261   0.265  13.053  0.0654  0.1735  0.2982
    8TMC3    C813987   3.517   0.221  13.421 -0.2400 -0.3211 -0.3514
    8TMC3    O113988   3.337   0.248  12.957 -0.0742  0.5250  0.0552
    8TMC3    O213989   3.611   0.182  13.360  0.7369 -0.5122  0.1702
    9TMC3    C113990   2.864   1.213  13.096  0.2457 -0.4864  0.1710
    9TMC3    C213991   2.902   1.138  12.989 -0.6772 -0.5509 -0.3861
    9TMC3    C313992   2.991   1.039  13.021 -0.1802  0.1645 -0.2000
    9TMC3    C413993   2.886   1.168  13.230 -0.1022 -0.2561  0.6813
    9TMC3    C513994   2.972   1.070  13.255  0.3724  0.0141  1.0224
    9TMC3    C613995   3.027   1.001  13.148 -0.2162 -0.2612  0.0604
    9TMC3     C13996   2.744   1.291  13.082 -0.3801 -0.2469  0.0942
    9TMC3     O13997   2.727   1.383  13.157  0.7608 -0.5391  0.1366
    9TMC3     H13998   2.895   1.169  12.885  1.0230  3.3491  0.6617
    9TMC3    H113999   2.835   1.219  13.311 -1.8290  2.0869 -1.9052
    9TMC3    H214000   3.112   0.941  13.178 -0.4125  0.2265  1.6254
    9TMC3    C714001   2.899   0.968  13.330 -0.3016 -0.4597 -0.5933
    9TMC3    C814002   3.027   0.936  12.924 -0.4616  0.6174 -0.3437
    9TMC3    O114003   2.780   0.989  13.335 -0.4825 -1.1203  0.0601
    9TMC3    O214004   3.055   0.975  12.811 -0.1277 -0.8098  0.6513
   10MPD2     C14005   3.183   0.458  12.832  0.2076  0.3209 -0.0088
   10MPD2    C114006   3.152   0.468  12.966 -0.2970 -0.3891  0.5379
   10MPD2    C214007   3.091   0.585  13.004  1.3304  0.3466  0.5441
   10MPD2    C314008   3.075   0.691  12.920 -0.2336  0.3080 -0.0282
   10MPD2    C414009   3.101   0.681  12.785 -0.0418 -0.5193 -0.4629
   10MPD2    C514010   3.163   0.562  12.746  0.0189 -0.0275 -0.2993
   10MPD2     H14011   3.054   0.589  13.106  0.9307  0.1061  0.4105
   10MPD2    H114012   3.086   0.764  12.717  1.1849 -0.5247 -0.7367
   10MPD2    H214013   3.241   0.373  12.798  0.2461 -0.4882  2.0742
   10MPD2    H314014   3.189   0.557  12.641  1.2125 -0.2358  0.0129
   10MPD2     N14015   3.029   0.811  12.983  0.0491 -0.0861 -0.4532
   10MPD2    H514016   3.017   0.806  13.084  2.8849 -0.0647 -0.0930
   10MPD2    N114017   3.176   0.372  13.060 -0.7832  0.2909 -0.1139
   10MPD2    H714018   3.126   0.387  13.147 -3.7500  0.8338 -1.9356
   11MPD2     C14019   4.639   4.429  13.599  0.3349 -0.6246  0.2271
   11MPD2    C114020   4.502   4.445  13.581  0.4322 -0.3249  0.0092
   11MPD2    C214021   4.444   4.569  13.566 -0.4203  0.2048  0.5963
   11MPD2    C314022   4.527   4.684  13.554  0.3457  0.3163 -0.1616
   11MPD2    C414023   4.657   4.664  13.575 -0.4281  0.9911  0.1060
   11MPD2    C514024   4.712   4.542  13.598  0.1943  0.0822 -0.4524
   11MPD2     H14025   4.337   4.585  13.557 -0.4550 -1.1297 -1.2379
   11MPD2    H114026   4.730   0.007  13.570  1.4476 -0.7663 -0.6369
   11MPD2    H214027   4.688   4.333  13.608 -1.0165 -1.3643 -0.3326
   11MPD2    H314028   0.082   4.535  13.613  0.7420  1.4748 -3.5438
   11MPD2     N14029   4.489   0.075  13.522  0.3256  0.0109 -0.3537
   11MPD2    H514030   4.563   0.145  13.521 -0.0330  0.4273  1.1946
   11MPD2    N114031   4.429   4.325  13.580 -0.1897  0.3092 -0.7877
   11MPD2    H714032   4.480   4.238  13.583  0.3334  0.6285 -0.4330
    1MPD1     C14033   0.987   0.600  17.273  0.1810  0.5613  0.8212
    1MPD1    C114034   0.927   0.621  17.394  0.7988  0.2942  0.3699
    1MPD1    C214035   0.940   0.748  17.450 -0.0376 -0.6931 -0.3996
    1MPD1    C314036   1.014   0.845  17.386  0.3520  0.8506 -0.3783
    1MPD1    C414037   1.064   0.819  17.264 -0.2679  0.2267  0.0162
    1MPD1    C514038   1.050   0.698  17.209 -0.1756  0.4686  0.0071
    1MPD1     H14039   0.888   0.777  17.541 -0.1658  3.6823 -1.8822
    1MPD1    H114040   1.117   0.894  17.206 -1.3728  2.0373  1.3543
    1MPD1    H214041   0.996   0.505  17.222 -1.2568  0.4462  0.7880
    1MPD1    H314042   1.103   0.679  17.117  1.9696  1.0838  1.1285
    1MPD1     N14043   1.032   0.973  17.434 -0.3613  0.3419 -0.4520
    1MPD1    H514044   1.066   1.038  17.365 -1.8195  0.4088 -1.1196
    1MPD1    N114045   0.884   0.510  17.470  0.3863 -0.2630  0.2490
    1MPD1    H614046   0.862   0.422  17.423 -3.4208  0.5094  0.6280
    1MPD1    H714047   0.808   0.532  17.532  0.2567  0.8781 -0.3197
    2MPD1     C14048   1.779   1.283   0.387  0.4576 -0.4678  0.4437
    2MPD1    C114049   1.822   1.304   0.258  0.6886  0.7808  0.7992
    2MPD1    C214050   1.748   1.265   0.148  0.0511 -0.1917 -0.4216
    2MPD1    C314051   1.616   1.221   0.168 -0.4949  0.3374 -0.4235
    2MPD1    C414052   1.571   1.214   0.297  0.0101 -0.5523 -0.3952
    2MPD1    C514053   1.651   1.243   0.401 -0.3455  0.0942 -0.0697
    2MPD1     H14054   1.791   1.266   0.049  0.7082 -0.8443 -0.1416
    2MPD1    H114055   1.469   1.186   0.323 -0.0386  1.1969  1.2513
    2MPD1    H214056   1.847   1.302   0.470  2.6755 -0.8417 -1.2799
    2MPD1    H314057   1.616   1.222   0.502  0.8075 -0.5044  0.1976
    2MPD1     N14058   1.535   1.198   0.058 -0.1040  0.8633  0.2076
    2MPD1    H514059   1.571   1.216  17.712 -0.0300  3.6784  0.7798
    2MPD1    N114060   1.959   1.333   0.236 -0.4286 -0.4578  0.1516
    2MPD1    H614061   1.972   1.366   0.141  0.4425  1.2213  0.8565
    2MPD1    H714062   2.012   1.392   0.300  0.3568 -1.5673  0.5217
    3TMC3    C114063   1.348   1.136  17.690 -0.7379  0.2747  0.0467
    3TMC3    C214064   1.378   1.219  17.583  0.3450 -0.5707  1.0172
    3TMC3    C314065   1.287   1.252  17.485  0.1096 -0.2149 -0.3758
    3TMC3    C414066   1.222   1.091  17.698  0.0583  0.6374 -0.2199
    3TMC3    C514067   1.138   1.103  17.593  0.0578  0.2820  0.0857
    3TMC3    C614068   1.161   1.190  17.490  0.2063 -0.3079  0.4226
    3TMC3     C14069   1.424   1.131   0.069 -0.1348  0.0542 -0.2171
    3TMC3     O14070   1.369   1.076   0.161  0.0324 -0.4661 -0.2984
    3TMC3     H14071   1.470   1.276  17.579 -0.5093  0.7837  0.6650
    3TMC3    H114072   1.193   1.018   0.026  1.2430 -0.0540 -0.4222
    3TMC3    H214073   1.084   1.210  17.417  0.2554 -0.7516  0.2517
    3TMC3    C714074   1.033   1.005  17.568  0.4051  0.0900  0.2779
    3TMC3    C814075   1.321   1.361  17.395  0.3996 -0.1543  0.9836
    3TMC3    O114076   0.996   0.940  17.665  0.0567 -0.1377  0.2918
    3TMC3    O214077   1.410   1.433  17.427 -0.2326  0.3675 -0.3789
    4MPD1     C14078   1.289   1.593  16.951 -1.0639  0.1600  0.4209
    4MPD1    C114079   1.180   1.507  16.959 -0.1457  0.3493 -0.1619
    4MPD1    C214080   1.161   1.433  17.071 -0.6597  0.0326 -0.0674
    4MPD1    C314081   1.251   1.445  17.175 -0.5879 -0.3259 -0.4189
    4MPD1    C414082   1.349   1.539  17.173 -0.5860 -0.9285  0.7565
    4MPD1    C514083   1.367   1.611  17.063 -0.3686  0.4778  0.6150
    4MPD1     H14084   1.096   1.348  17.062  2.0486 -2.0063 -0.5060
    4MPD1    H114085   1.428   1.545  17.246  0.4299 -1.2575 -0.3191
    4MPD1    H214086   1.331   1.647  16.867  0.4459  0.5102  1.3974
    4MPD1    H314087   1.457   1.671  17.063 -1.6036  2.3881 -1.3092
    4MPD1     N14088   1.233   1.369  17.294 -0.3176  0.1479 -0.4973
    4MPD1    H514089   1.158   1.304  17.273  0.6955 -1.2920  0.3550
    4MPD1    N114090   1.108   1.479  16.845 -0.2708  0.4454 -0.6080
    4MPD1    H614091   1.031   1.414  16.861 -0.5930  0.3541 -2.4511
    4MPD1    H714092   1.090   1.541  16.765 -1.5843 -0.8410 -1.3127
    1TCq1    O114093   3.200   0.210  11.896 -0.0728  0.5456  0.1362
    1TCq1    C114094   3.308   0.253  11.832 -0.2792 -0.0908  0.5626
    1TCq1    O214095   3.409   0.291  11.891  0.4884 -0.2660  0.5934
    1TCq1    C214096   3.257   0.326  11.722 -0.6588 -0.3433  0.3100
    1TCq1    C314097   3.138   0.290  11.671  0.5834 -0.0557 -0.0341
    1TCq1    C414098   3.056   0.379  11.603  0.8489 -0.2828 -0.2232
    1TCq1    C514099   3.085   0.511  11.620 -0.2836 -0.1304 -0.8339
    1TCq1    C614100   3.200   0.553  11.679 -0.3680 -0.3841 -0.2884
    1TCq1    C714101   3.299   0.463  11.724  0.3154 -0.4617  0.0161
    1TCq1    C814102   3.242   0.693  11.699  0.6315  0.2342  0.2382
    1TCq1    O414103   3.336   0.715  11.771 -0.1209  0.1823 -0.2907
    1TCq1    C914104   2.920   0.341  11.571 -0.5024  0.0647  0.2098
    1TCq1    O514105   2.885   0.224  11.589  0.3071 -0.1001  0.3908
    1TCq1    O614106   2.840   0.434  11.547 -0.1400  0.0055 -0.5126
    1TCq1    H114107   3.119   0.218  11.841  1.2227 -0.2928 -1.8889
    1TCq1    H214108   3.121   0.184  11.656 -0.3896  0.1206 -0.1776
    1TCq1    H314109   3.010   0.579  11.581 -0.4809  1.6110  2.5128
    1TCq1    H414110   3.390   0.503  11.768  1.3639 -1.5371 -1.1549
    2MPD1     C14111   3.025   1.133  11.862  0.0205  0.5474 -0.3817
    2MPD1    C114112   2.949   1.080  11.766 -0.2547 -0.3700  0.4077
    2MPD1    C214113   2.996   0.970  11.694 -0.3117 -0.0091  0.0738
    2MPD1    C314114   3.111   0.905  11.735  0.2684 -0.1444 -0.0041
    2MPD1    C414115   3.178   0.955  11.847 -0.3638  0.2296  0.3690
    2MPD1    C514116   3.128   1.060  11.911  0.5073  0.2948 -0.2730
    2MPD1     H14117   2.933   0.926  11.617  0.9596  0.5316 -1.2808
    2MPD1    H114118   3.261   0.906  11.896  0.3171 -0.6802 -1.6994
    2MPD1    H214119   3.011   1.235  11.896  1.4175  0.3750  0.7501
    2MPD1    H314120   3.179   1.084  12.003 -0.5367  0.2110  0.3190
    2MPD1     N14121   3.137   0.777  11.671 -0.0530 -0.0060 -1.0852
    2MPD1    H514122   3.078   0.746  11.595 -2.6737 -1.6087  1.5936
    2MPD1    N114123   2.831   1.153  11.723  0.2816 -0.4348  0.8565
    2MPD1    H614124   2.802   1.232  11.781 -0.4084  1.1604 -1.6156
    2MPD1    H714125   2.747   1.097  11.715 -0.3479  0.8183 -1.3449
    1TMC1    C114126   0.388   2.065   0.440 -0.1089 -0.3298 -0.0819
    1TMC1    C214127   0.514   2.101   0.404  0.1974  0.0686  0.7984
    1TMC1    C314128   0.539   2.147   0.284 -0.5284  0.0373  0.6321
    1TMC1    C414129   0.288   2.067   0.345  0.1600 -0.0888  0.4175
    1TMC1    C514130   0.317   2.117   0.218 -0.0669  0.4043 -0.8338
    1TMC1    C614131   0.442   2.165   0.188  0.3650 -0.7801 -1.1814
    1TMC1     C14132   0.375   1.997   0.568 -1.1013  0.5051 -0.3989
    1TMC1     O14133   0.481   1.980   0.629  0.2130 -0.6961 -0.0383
    1TMC1     H14134   0.601   2.079   0.464  2.0938  0.5479 -1.7598
    1TMC1    H114135   0.190   2.027   0.370 -0.0687 -0.5003 -1.1359
    1TMC1    H214136   0.466   2.200   0.089  1.7223  0.6608 -0.3513
    1TMC1    C714137   0.211   2.126   0.114  0.4872  0.5635  0.4801
    1TMC1    C814138   0.681   2.172   0.246 -0.3699  0.8066 -0.0906
    1TMC1    O114139   0.240   2.195   0.020 -0.2287 -0.6552  0.8245
    1TMC1    O214140   0.768   2.121   0.319  0.3040  0.1872 -0.1666
    1TMC1    O314141   0.165   1.996   0.105  0.3143  0.5575 -0.1358
    1TMC1    H314142   0.153   1.939   0.184 -2.5903  1.1402 -0.1505
    1TMC1    O514143   0.688   2.295   0.199 -0.4005 -0.0167  0.1972
    1TMC1    H514144   0.616   2.334   0.145 -0.3691 -0.7985 -0.3999
    2MPD1     C14145   0.106   1.738   0.923  0.5435 -0.9928 -0.4493
    2MPD1    C114146   0.023   1.822   0.864  0.3341 -0.0309  1.5536
    2MPD1    C214147   0.073   1.901   0.762 -0.7912 -0.7517  0.6471
    2MPD1    C314148   0.205   1.890   0.717 -0.1382  0.4340 -0.5844
    2MPD1    C414149   0.281   1.791   0.772  0.4486  0.3357  0.0419
    2MPD1    C514150   0.231   1.713   0.877  0.5480  1.1269  0.7513
    2MPD1     H14151   0.010   1.978   0.720  0.4886 -0.6441 -1.0797
    2MPD1    H114152   0.381   1.766   0.740  0.4153  1.5511 -0.9831
    2MPD1    H214153   0.071   1.680   1.008 -4.2001 -1.7902 -2.9339
    2MPD1    H314154   0.296   1.639   0.921 -0.1050  0.9385  1.3836
    2MPD1     N14155   0.245   1.978   0.609 -0.0827 -0.1520  0.3452
    2MPD1    H514156   0.175   2.039   0.569 -0.7226 -1.5410 -0.6648
    2MPD1    N114157   4.639   1.864   0.926  0.5558 -0.6168 -0.6287
    2MPD1    H614158   4.578   1.900   0.853  1.3404  0.6056 -0.6733
    2MPD1    H714159   4.587   1.787   0.967  1.3244 -1.1697 -0.6942
    1MPD1     C14160   3.693   0.514  11.809 -0.6224  0.1360  0.1597
    1MPD1    C114161   3.706   0.582  11.931  0.4169 -0.2879  0.2136
    1MPD1    C214162   3.761   0.711  11.933 -0.1120  0.1787 -0.0497
    1MPD1    C314163   3.813   0.769  11.818 -0.9087 -0.1705 -0.0832
    1MPD1    C414164   3.804   0.699  11.695  0.5729  0.3746  0.1082
    1MPD1    C514165   3.749   0.572  11.693  0.3040  0.5161 -0.6789
    1MPD1     H14166   3.772   0.770  12.024 -0.7488  0.3750 -0.0979
    1MPD1    H114167   3.826   0.754  11.605 -0.1207 -3.9012 -2.6823
    1MPD1    H214168   3.636   0.421  11.815 -0.0732 -0.2420 -0.5458
    1MPD1    H314169   3.744   0.515  11.601  1.5450  0.4992 -0.7352
    1MPD1     N14170   3.875   0.892  11.835 -0.1298  0.3111 -0.1353
    1MPD1    H514171   3.877   0.943  11.923  0.9493  1.9655 -1.1092
    1MPD1    N114172   3.626   0.535  12.033  0.1227  0.1182  0.1527
    1MPD1    H614173   3.619   0.435  12.015 -0.3120  0.3677 -1.0278
    1MPD1    H714174   3.663   0.559  12.125 -1.6557 -0.1307  0.9209
    2MPD1     C14175   4.223   1.596  10.456 -0.0397  0.3429  0.5986
    2MPD1    C114176   4.300   1.520  10.373  0.5240 -0.5034 -0.0299
    2MPD1    C214177   4.429   1.502  10.399 -1.5168  0.0091  0.0908
    2MPD1    C314178   4.492   1.570  10.505  0.3951 -1.3674  0.4296
    2MPD1    C414179   4.411   1.648  10.584  0.0326  0.7967 -0.3754
    2MPD1    C514180   4.276   1.652  10.566 -0.0639 -0.4892  0.8656
    2MPD1     H14181   4.490   1.434  10.341 -0.3144 -0.1508  1.5297
    2MPD1    H114182   4.452   1.714  10.660  0.3931  0.0235  0.0982
    2MPD1    H214183   4.117   1.605  10.439  0.2400  1.9598 -0.2458
    2MPD1    H314184   4.216   1.719  10.627 -0.1710  1.2057 -1.0997
    2MPD1     N14185   4.629   1.561  10.539 -0.1859  0.0054  0.1347
    2MPD1    H514186   4.663   1.600  10.626  0.2653 -2.1712  0.9315
    2MPD1    N114187   4.231   1.435  10.279  0.4057 -0.0413 -0.1322
    2MPD1    H614188   4.154   1.483  10.232 -1.2201 -1.0127  1.5596
    2MPD1    H714189   4.296   1.398  10.209  0.7213  0.0378  0.1220
    3MPD1     C14190   0.852   1.743  10.207 -0.0872 -0.4339  0.6594
    3MPD1    C114191   0.737   1.768  10.142 -0.1252 -0.1567  0.2019
    3MPD1    C214192   0.623   1.700  10.189 -0.0389 -0.0956  0.1544
    3MPD1    C314193   0.628   1.622  10.308  0.3949 -0.7925  0.3228
    3MPD1    C414194   0.751   1.602  10.367  0.3775 -0.4267 -0.4267
    3MPD1    C514195   0.863   1.668  10.322  0.9542  0.1428 -0.4399
    3MPD1     H14196   0.532   1.723  10.134  0.8250  2.6199 -0.1370
    3MPD1    H114197   0.773   1.538  10.452  1.9268 -1.1352 -1.3703
    3MPD1    H214198   0.946   1.778  10.166  0.1346 -1.3824  0.3591
    3MPD1    H314199   0.962   1.639  10.358  0.7504  1.8917  1.5182
    3MPD1     N14200   0.506   1.557  10.360  0.0552  0.1385 -0.1828
    3MPD1    H514201   0.422   1.587  10.311  0.2223  1.8713  0.5826
    3MPD1    N114202   0.741   1.833  10.016  0.2447 -0.1156  0.3561
    3MPD1    H614203   0.809   1.908  10.020 -1.4781  1.5174 -0.7397
    3MPD1    H714204   0.656   1.880   9.986  0.6439  1.4687  1.7516
    4MPD2     C14205   4.066   1.596  11.431  0.2030  0.0183 -0.1441
    4MPD2    C114206   4.117   1.601  11.564 -0.2560  0.4369  0.4259
    4MPD2    C214207   4.234   1.665  11.584 -0.2313 -0.0234 -0.2377
    4MPD2    C314208   4.310   1.714  11.477  0.3151 -0.7402 -0.3437
    4MPD2    C414209   4.261   1.715  11.347  0.5432 -0.4991  0.4647
    4MPD2    C514210   4.136   1.657  11.328  0.2128 -0.1605  0.3498
    4MPD2     H14211   4.281   1.656  11.681 -1.6160  0.3609  0.4583
    4MPD2    H114212   4.312   1.754  11.260  1.4287  0.6850  1.5225
    4MPD2    H214213   3.975   1.547  11.399  0.9850 -1.5075 -0.0434
    4MPD2    H314214   4.092   1.651  11.229 -0.8385 -0.7935  0.8479
    4MPD2     N14215   4.446   1.764  11.495 -0.4533  0.4364  0.4764
    4MPD2    H514216   4.498   1.778  11.409 -0.8642 -2.2355 -0.1869
    4MPD2    N114217   4.073   1.521  11.670  0.1734  0.1849  0.4689
    4MPD2    H714218   4.139   1.506  11.746  1.1135  0.8825 -0.1932
    5TMC3    C114219   3.985   1.327  11.772 -1.0298  0.1614  0.0309
    5TMC3    C214220   3.940   1.202  11.727 -0.0799  0.5777 -0.2571
    5TMC3    C314221   3.972   1.090  11.800  0.2667  0.0266  0.2131
    5TMC3    C414222   4.067   1.339  11.874  0.6789  0.2516  0.2454
    5TMC3    C514223   4.108   1.223  11.948  0.7359 -0.1490 -0.0164
    5TMC3    C614224   4.059   1.103  11.901  0.2701 -0.0035  0.4968
    5TMC3     C14225   3.968   1.433  11.671 -0.0764 -0.1285  0.1514
    5TMC3     O14226   3.887   1.412  11.580  0.3524 -0.3574  0.6844
    5TMC3     H14227   3.876   1.189  11.641 -0.9782 -1.9076  0.7952
    5TMC3    H114228   4.093   1.433  11.921  2.4749  0.6146 -1.4962
    5TMC3    H214229   4.101   1.018  11.953 -3.6259 -0.5753  2.6855
    5TMC3    C714230   4.242   1.229  12.000  0.0975 -0.0046  0.2335
    5TMC3    C814231   3.940   0.961  11.737 -0.4599 -0.0274 -0.2706
    5TMC3    O114232   4.283   1.343  12.029  0.3945  0.4325  0.1601
    5TMC3    O214233   3.939   0.951  11.619 -0.6833 -0.4869  0.6291
    6TMC3    C114234   0.127   1.531  10.533 -0.0594 -0.3119  0.3920
    6TMC3    C214235   0.248   1.524  10.465  0.7274  0.0739  0.3096
    6TMC3    C314236   0.361   1.484  10.532 -0.5189  0.5922 -0.1847
    6TMC3    C414237   0.130   1.508  10.670 -0.0833  0.1094  0.4447
    6TMC3    C514238   0.245   1.463  10.731  0.0042  0.0957 -0.0318
    6TMC3    C614239   0.363   1.454  10.663  0.1721 -0.2492 -0.4378
    6TMC3     C14240   4.732   1.516  10.462  0.1073  0.2682 -0.1195
    6TMC3     O14241   0.005   1.472  10.347  0.2696 -0.4821  0.4626
    6TMC3     H14242   0.245   1.552  10.361 -1.0752 -0.5241  0.1927
    6TMC3    H114243   0.042   1.514  10.734  0.1502  1.4874  0.6446
    6TMC3    H214244   0.449   1.412  10.712  1.8896  2.2989 -1.2249
    6TMC3    C714245   0.235   1.441  10.876  0.5650  0.5025 -0.0346
    6TMC3    C814246   0.495   1.498  10.482  0.2992  0.0681  0.0554
    6TMC3    O114247   0.123   1.444  10.923  0.2662 -0.2328 -0.3641
    6TMC3    O214248   0.585   1.455  10.554  0.2132  0.2118 -0.1049
    7MPD2     C14249   4.701   1.109  11.806  0.8488  0.4599 -0.3554
    7MPD2    C114250   4.652   1.227  11.838  0.4396 -0.7491 -0.0667
    7MPD2    C214251   4.529   1.239  11.908  0.1614 -0.4268 -0.2251
    7MPD2    C314252   4.458   1.123  11.942  0.3723 -0.1004 -0.2139
    7MPD2    C414253   4.515   1.003  11.912  0.4778  0.1542 -0.3232
    7MPD2    C514254   4.632   0.995  11.846  0.6060  0.0169  0.1119
    7MPD2     H14255   4.475   1.332  11.923  1.0373 -0.3951  2.7822
    7MPD2    H114256   4.478   0.907  11.947 -2.0353  0.9852 -0.6889
    7MPD2    H214257   0.046   1.104  11.735  1.4516  1.6872  0.2722
    7MPD2    H314258   4.681   0.905  11.809 -0.3025  0.1312 -1.3954
    7MPD2     N14259   4.315   1.119  11.980 -0.0688  0.5018  0.1821
    7MPD2    H514260   4.272   1.028  11.990  1.4795 -0.6525 -4.0517
    7MPD2    N114261   4.720   1.338  11.780  0.0846 -0.0695  0.2137
    7MPD2    H714262   0.050   1.311  11.709 -0.8705 -0.6070 -0.5050
    8TMC3    C114263   0.004   1.573  11.717 -0.7792  0.1098 -0.4516
    8TMC3    C214264   0.057   1.526  11.600 -0.0579  0.9244 -0.6349
    8TMC3    C314265   0.035   1.606  11.493 -1.2568 -0.7354  0.2846
    8TMC3    C414266   4.664   1.687  11.726 -0.4843 -0.5478 -0.1833
    8TMC3    C514267   4.643   1.761  11.617 -0.4440 -0.3105 -0.9000
    8TMC3    C614268   4.689   1.714  11.496  0.0347  0.1467  0.3570
    8TMC3     C14269   4.694   1.471  11.811  0.0571 -0.3427 -0.1895
    8TMC3     O14270   4.653   1.514  11.919 -0.0475 -0.2791  0.1830
    8TMC3     H14271   0.118   1.437  11.601 -0.1921  0.8348 -0.3536
    8TMC3    H114272   4.615   1.704  11.821 -2.2554 -1.4638 -0.9469
    8TMC3    H214273   4.688   1.778  11.408  0.8998 -0.2053  0.0908
    8TMC3    C714274   4.506   1.790  11.617  0.0859 -0.6824  0.3943
    8TMC3    C814275   0.095   1.566  11.366 -0.7223 -0.1787 -0.0877
    8TMC3    O114276   4.452   1.801  11.723 -0.1057  0.5123  0.3752
    8TMC3    O214277   0.041   1.598  11.262 -0.2390 -0.1753 -0.0486
    9MPD2     C14278   0.431   1.390  11.343 -0.0860  0.2454 -0.0682
    9MPD2    C114279   0.311   1.447  11.303  0.5442  0.3002  0.2158
    9MPD2    C214280   0.286   1.447  11.166  0.4297 -0.4082  0.7772
    9MPD2    C314281   0.388   1.425  11.076  0.4921  0.0739 -0.5501
    9MPD2    C414282   0.512   1.385  11.118 -0.0456  0.1194  0.1645
    9MPD2    C514283   0.529   1.353  11.253  0.2800  0.3906 -0.2620
    9MPD2     H14284   0.188   1.477  11.131  1.3314 -0.2848 -1.6478
    9MPD2    H114285   0.593   1.361  11.050 -0.8883 -0.7472 -0.5296
    9MPD2    H214286   0.453   1.383  11.449 -0.7966 -2.0394 -0.0575
    9MPD2    H314287   0.631   1.330  11.283  0.8058 -0.8934 -3.0120
    9MPD2     N14288   0.361   1.439  10.933  0.3163 -0.8594  0.1083
    9MPD2    H514289   0.440   1.448  10.870 -0.5615 -1.3791 -1.0495
    9MPD2    N114290   0.220   1.507  11.392 -0.0599 -0.8820  0.2814
    9MPD2    H714291   0.253   1.519  11.487  2.2421 -0.9816 -0.5088
    1MPD1     C14292   4.054   4.649  15.670 -0.0458  0.1597  0.3995
    1MPD1    C114293   4.076   4.516  15.713  0.4512  0.2133 -0.2555
    1MPD1    C214294   4.099   4.412  15.628 -0.0710 -0.5346 -0.3180
    1MPD1    C314295   4.136   4.436  15.502  0.8448 -0.0010  0.4125
    1MPD1    C414296   4.140   4.574  15.468  0.2152  0.2972 -0.1783
    1MPD1    C514297   4.086   4.677  15.542  0.7996 -0.3917  0.1545
    1MPD1     H14298   4.109   4.311  15.664  1.2140 -0.3921 -0.2778
    1MPD1    H114299   4.179   4.602  15.370  0.1466  2.6411  0.4821
    1MPD1    H214300   4.014   4.729  15.731  1.7948  0.6886  0.9016
    1MPD1    H314301   4.085   0.040  15.500  0.4506 -0.5825 -0.2913
    1MPD1     N14302   4.181   4.337  15.412 -0.8205  0.2333  0.5848
    1MPD1    H514303   4.204   4.375  15.321 -2.8448  0.9813  0.3908
    1MPD1    N114304   4.026   4.478  15.841 -0.4750 -0.2957  0.0542
    1MPD1    H614305   4.024   4.548  15.915 -0.8544 -0.4698  0.2092
    1MPD1    H714306   4.085   4.405  15.880 -0.2777  0.0526  0.4137
    2TMC2    C114307   4.295   4.090  15.108  0.1022 -0.4794 -0.0451
    2TMC2    C214308   4.282   3.957  15.123 -0.1865  0.3481 -0.4833
    2TMC2    C314309   4.238   3.910  15.238  0.2831  0.4703  0.5087
    2TMC2    C414310   4.265   4.184  15.206  0.2692  0.4956  0.3787
    2TMC2    C514311   4.215   4.126  15.318 -0.2585  0.2457 -0.3415
    2TMC2    C614312   4.197   3.989  15.339  0.6135 -0.3424  0.1915
    2TMC2     C14313   4.317   4.133  14.965 -0.4422  0.1505 -0.2525
    2TMC2     O14314   4.312   4.047  14.882 -0.1624 -0.0973  0.1424
    2TMC2     H14315   4.334   3.893  15.053  0.0552 -0.7794  0.7269
    2TMC2    H114316   4.290   4.289  15.193  1.3691  0.3474  1.3132
    2TMC2    H214317   4.152   3.953  15.431 -0.2647  1.3206  0.4166
    2TMC2    C714318   4.181   4.201  15.436 -0.1565 -0.7229  0.5639
    2TMC2    C814319   4.238   3.772  15.261  0.4668  1.3074  0.3091
    2TMC2    O114320   4.151   4.139  15.539 -0.3024 -0.0052 -0.3481
    2TMC2    O214321   4.252   3.712  15.368  0.0444  0.6039 -1.0225
    2TMC2    O514322   4.194   3.718  15.146 -0.3203 -0.2427  0.4376
    2TMC2    H514323   4.159   3.789  15.088  0.6044 -0.3921 -0.3153
    3MPD1     C14324   4.325   4.506  14.612 -0.1109 -0.4864 -0.3276
    3MPD1    C114325   4.390   4.555  14.725  0.5111  0.3629  0.5488
    3MPD1    C214326   4.375   4.471  14.831  0.1433  0.4877 -0.1328
    3MPD1    C314327   4.339   4.337  14.830 -0.5673  0.3512  0.2914
    3MPD1    C414328   4.296   4.288  14.709 -0.8760 -0.3179  0.2095
    3MPD1    C514329   4.289   4.372  14.602 -0.2046 -0.0677  0.1799
    3MPD1     H14330   4.402   4.510  14.929  0.2519 -0.0909  0.0667
    3MPD1    H114331   4.267   4.184  14.700  1.0044 -1.0176  2.2387
    3MPD1    H214332   4.304   4.574  14.531 -1.2285 -0.3266  0.1045
    3MPD1    H314333   4.255   4.335  14.506  1.9254  1.8948 -1.3333
    3MPD1     N14334   4.342   4.268  14.949 -0.0273 -0.2034 -0.0867
    3MPD1    H514335   4.365   4.328  15.028  2.1178  1.2414 -1.7977
    3MPD1    N114336   4.415   4.691  14.744  0.0126 -0.1866  0.0336
    3MPD1    H614337   4.490   4.704  14.811  2.1747 -2.8064 -1.8813
    3MPD1    H714338   4.445   4.717  14.651  0.5748  0.1308  0.3110
    1TMC1    C114339   2.556   4.344  13.903  0.1543 -0.2132  0.1248
    1TMC1    C214340   2.471   4.421  13.824  0.2141  0.0115  0.9665
    1TMC1    C314341   2.527   4.473  13.710  0.8883 -0.2360  0.1818
    1TMC1    C414342   2.691   4.333  13.883  0.3540  0.4221 -1.1753
    1TMC1    C514343   2.741   4.401  13.774  0.2887 -0.5047  0.3523
    1TMC1    C614344   2.667   4.480  13.682 -0.5478  0.2500  0.1815
    1TMC1     C14345   2.502   4.286  14.023  0.2246 -0.7642  0.1649
    1TMC1     O14346   2.398   4.337  14.063 -0.1784 -0.0130  0.7106
    1TMC1     H14347   2.363   4.420  13.832  0.1365 -0.7101 -0.1263
    1TMC1    H114348   2.759   4.284  13.951  0.0555  1.0714 -0.4121
    1TMC1    H214349   2.706   4.514  13.587 -0.2545 -2.3188 -0.6053
    1TMC1    C714350   2.888   4.407  13.754 -0.5669 -0.8159  0.4335
    1TMC1    C814351   2.435   4.548  13.617 -0.6560  0.1323 -0.3821
    1TMC1    O114352   2.977   4.434  13.831  0.0531  0.0862 -0.2333
    1TMC1    O214353   2.462   4.574  13.501  0.2787 -0.3282  0.3406
    1TMC1    O314354   2.901   4.384  13.623  0.0011 -0.1709  0.2092
    1TMC1    H314355   2.818   4.349  13.585 -0.1128  0.4719 -0.1354
    1TMC1    O514356   2.366   4.635  13.703  1.1448 -0.4109  0.1269
    1TMC1    H514357   2.366   4.616  13.799  0.3846 -0.2937  0.1530
    2MPD2     C14358   2.475   4.124  14.279  0.3690 -0.4771 -0.2580
    2MPD2    C114359   2.549   4.083  14.164 -0.6927  1.0512 -0.0755
    2MPD2    C214360   2.622   3.970  14.170 -0.6654  0.3110  0.5270
    2MPD2    C314361   2.619   3.892  14.285  0.7806 -0.3765  0.1060
    2MPD2    C414362   2.549   3.930  14.397  0.2992  0.4184 -0.0360
    2MPD2    C514363   2.465   4.041  14.393  0.5643  0.7370 -0.7563
    2MPD2     H14364   2.672   3.941  14.078  1.7004  0.2988  1.8000
    2MPD2    H114365   2.557   3.874  14.490 -1.9651 -0.4561 -0.3526
    2MPD2    H214366   2.416   4.215  14.285 -0.3062 -1.0913  2.4284
    2MPD2    H314367   2.406   4.078  14.476  1.9315 -0.9572  0.9875
    2MPD2     N14368   2.698   3.773  14.272  0.4192 -0.2352 -0.1940
    2MPD2    H514369   2.735   3.755  14.180 -0.9935 -1.6108 -0.4900
    2MPD2    N114370   2.565   4.169  14.047  0.4723 -0.1452 -0.4822
    2MPD2    H714371   2.634   4.140  13.979  1.2387  1.1153 -0.2376
    3TCq1    O114372   2.982   3.328  14.584 -0.4745  0.7961 -0.0435
    3TCq1    C114373   2.915   3.265  14.490 -0.9161  0.1010  0.3719
    3TCq1    O214374   2.834   3.176  14.511 -0.3318 -0.3580 -0.1803
    3TCq1    C214375   2.872   3.360  14.389 -0.8708 -0.2834  0.0063
    3TCq1    C314376   2.820   3.304  14.276  0.2823 -0.4383  0.0343
    3TCq1    C414377   2.753   3.372  14.182  0.4882 -0.7411  0.3163
    3TCq1    C514378   2.751   3.505  14.203  0.4548 -0.2205  0.4486
    3TCq1    C614379   2.790   3.565  14.321 -0.0181  0.2041  0.1694
    3TCq1    C714380   2.851   3.493  14.419  0.6033 -0.2645  0.2439
    3TCq1    C814381   2.716   3.678  14.370  0.0086 -0.2620  0.3896
    3TCq1    O414382   2.688   3.685  14.494  0.3099  0.6198  0.2843
    3TCq1    C914383   2.697   3.313  14.065 -0.5339 -0.6775  1.0874
    3TCq1    O514384   2.666   3.190  14.066  0.1246  0.2640 -0.2099
    3TCq1    O614385   2.662   3.399  13.978  0.1096 -0.3475 -0.1208
    3TCq1    H114386   3.047   3.387  14.541 -2.6563  3.3533  0.1751
    3TCq1    H214387   2.823   3.196  14.261  1.6590 -0.4450  0.3723
    3TCq1    H314388   2.704   3.567  14.128  0.7157 -0.2787  0.2408
    3TCq1    H414389   2.872   3.535  14.517  0.8884 -0.8003  0.4135
    1MPD2     C14390   2.763   0.557  14.557 -0.1120  0.2939  0.5647
    1MPD2    C114391   2.684   0.466  14.625  0.2377 -0.6933  0.5195
    1MPD2    C214392   2.751   0.386  14.721 -0.3329 -0.2218  0.1280
    1MPD2    C314393   2.890   0.389  14.743  0.7253  0.5288 -0.2078
    1MPD2    C414394   2.961   0.480  14.677 -0.6151  0.0564 -0.4128
    1MPD2    C514395   2.898   0.558  14.582 -0.2886  0.3378  0.0566
    1MPD2     H14396   2.695   0.320  14.787  0.8444  0.1076  1.4631
    1MPD2    H114397   3.068   0.476  14.693 -0.8179  0.5283  1.0325
    1MPD2    H214398   2.720   0.626  14.485  0.5250  0.1625  0.0567
    1MPD2    H314399   2.956   0.627  14.522  0.0562  1.9519  2.2318
    1MPD2     N14400   2.953   0.305  14.833 -0.1314  0.5850 -0.5675
    1MPD2    H514401   3.054   0.314  14.838 -0.1673  1.4485 -1.4488
    1MPD2    N114402   2.545   0.470  14.612 -0.3545 -0.0787  0.0021
    1MPD2    H714403   2.501   0.531  14.543  0.6095  1.1958  0.5123
    2TMC3    C114404   2.312   0.434  14.670 -0.3158  0.2579  0.2578
    2TMC3    C214405   2.230   0.339  14.715  0.2222  0.3442  0.8064
    2TMC3    C314406   2.151   0.361  14.828 -0.2434  0.1918 -0.1102
    2TMC3    C414407   2.297   0.557  14.723 -0.2801 -0.2775 -0.5849
    2TMC3    C514408   2.207   0.581  14.829  0.3925 -0.5080  1.1004
    2TMC3    C614409   2.140   0.480  14.889 -0.2469  0.9597  0.3646
    2TMC3     C14410   2.452   0.386  14.673 -0.9777 -0.0350 -0.0735
    2TMC3     O14411   2.478   0.274  14.725 -0.0970  0.1115  0.3536
    2TMC3     H14412   2.239   0.238  14.676 -0.8751  0.7634 -0.5431
    2TMC3    H114413   2.360   0.637  14.685  0.0918  0.7036  2.0710
    2TMC3    H214414   2.082   0.484  14.981 -0.4234 -0.8810  0.3439
    2TMC3    C714415   2.170   0.720  14.854 -0.1573 -0.2490 -0.0782
    2TMC3    C814416   2.164   0.256  14.925  0.7318  0.2472 -0.0494
    2TMC3    O114417   2.227   0.803  14.786  0.0475 -0.2050  0.1524
    2TMC3    O214418   2.087   0.273  15.022 -0.1926  0.0241  0.2806
    3TCq1    O114419   1.364   1.151  15.573 -0.0390  0.1470 -0.0801
    3TCq1    C114420   1.414   1.102  15.687  0.1745  0.2972 -0.1085
    3TCq1    O214421   1.350   1.067  15.783 -0.2954 -0.7802  0.2439
    3TCq1    C214422   1.519   1.018  15.630  0.6897  0.7538 -1.2701
    3TCq1    C314423   1.490   0.884  15.630 -0.2902  0.3364  0.7925
    3TCq1    C414424   1.558   0.803  15.542 -0.1151 -0.2510  0.1488
    3TCq1    C514425   1.636   0.864  15.447 -0.1072  0.5049 -0.5795
    3TCq1    C614426   1.669   0.997  15.456 -0.4137 -0.2280  0.2041
    3TCq1    C714427   1.610   1.076  15.548 -0.5781 -0.2231 -0.1974
    3TCq1    C814428   1.775   1.052  15.372 -0.1180  0.3767  0.3299
    3TCq1    O414429   1.797   1.168  15.376  0.2264  0.1719 -0.1631
    3TCq1    C914430   1.521   0.664  15.521  0.7164 -0.2950  0.9118
    3TCq1    O514431   1.598   0.594  15.454 -0.1370 -0.8848  0.2062
    3TCq1    O614432   1.402   0.637  15.559  0.3284  0.2314 -0.2710
    3TCq1    H114433   1.429   1.162  15.500  0.2388 -0.2428  0.1088
    3TCq1    H214434   1.409   0.838  15.685  0.2306 -0.1082  1.1931
    3TCq1    H314435   1.665   0.799  15.365  0.4122 -0.4060  0.3235
    3TCq1    H414436   1.635   1.180  15.565 -1.7494 -0.2332  1.5627
    4MPD2     C14437   1.930   1.092  15.119 -0.1387 -0.2766  0.0673
    4MPD2    C114438   1.911   0.970  15.182 -0.0830  0.1684 -0.0245
    4MPD2    C214439   1.972   0.857  15.126  0.6367 -0.5429  0.6291
    4MPD2    C314440   2.038   0.867  15.003 -0.1403 -0.2110  0.2564
    4MPD2    C414441   2.068   0.993  14.954  0.1040 -0.1622  0.2880
    4MPD2    C514442   2.011   1.108  15.007  0.1435 -0.1170  0.1985
    4MPD2     H14443   1.954   0.757  15.162 -2.6555 -0.1701  0.0169
    4MPD2    H114444   2.138   1.010  14.872  1.5756 -0.0902  1.5704
    4MPD2    H214445   1.900   1.186  15.164 -1.0593 -0.6061  0.1614
    4MPD2    H314446   2.031   1.201  14.956  1.7255  0.2613  1.5182
    4MPD2     N14447   2.081   0.739  14.960  0.0478  0.0221  0.1449
    4MPD2    H514448   2.047   0.660  15.014 -1.2461  0.3728 -0.1564
    4MPD2    N114449   1.838   0.953  15.299 -0.2694 -0.4129 -0.0139
    4MPD2    H714450   1.803   0.858  15.301  1.1945 -0.9512  0.2421
    5TMC2    C114451   2.899   4.727  15.174  0.0635 -0.4552  0.0577
    5TMC2    C214452   2.954   0.066  15.266 -0.6170  0.2256  0.2869
    5TMC2    C314453   3.043   0.169  15.225  0.3850 -0.5799  0.4751
    5TMC2    C414454   2.918   0.026  15.036 -0.5246  0.8773 -0.6659
    5TMC2    C514455   2.975   0.141  14.998 -0.7340 -0.5057 -0.1805
    5TMC2    C614456   3.044   0.213  15.094 -0.6193  0.3325 -0.0154
    5TMC2     C14457   2.763   4.692  15.208  0.9215  0.2143 -0.0658
    5TMC2     O14458   2.752   4.603  15.293 -0.4302 -0.2924  0.5265
    5TMC2     H14459   2.937   0.044  15.371  1.4071 -0.8285  0.3828
    5TMC2    H114460   2.863   4.704  14.963  1.8009 -0.9414 -0.9420
    5TMC2    H214461   3.090   0.308  15.069 -1.4512  0.8287  0.3241
    5TMC2    C714462   2.889   0.221  14.925 -0.5365 -0.8016 -0.2302
    5TMC2    C814463   3.124   0.243  15.327  0.3898 -0.2488 -0.8314
    5TMC2    O114464   2.774   0.193  14.952  0.2188  0.1415 -0.3216
    5TMC2    O214465   3.141   0.365  15.318  0.8272 -0.1690 -0.0076
    5TMC2    O514466   3.163   0.174  15.432 -0.2280 -0.3199  0.1642
    5TMC2    H514467   3.157   0.076  15.423  0.4963 -0.3958  0.4369
    6MPD2     C14468   2.256   0.032  15.116  0.1187 -0.0428  0.2007
    6MPD2    C114469   2.333   0.093  15.015 -0.2196  0.2576 -0.5795
    6MPD2    C214470   2.464   0.071  15.009 -0.7799  0.0550  0.1154
    6MPD2    C314471   2.531   0.004  15.106 -0.5383 -0.3319  0.0825
    6MPD2    C414472   2.458   4.672  15.196  0.0215 -1.1637 -0.0032
    6MPD2    C514473   2.319   4.680  15.196 -0.2860 -0.3753  0.8484
    6MPD2     H14474   2.521   0.121  14.932  1.0324 -0.3335  1.1919
    6MPD2    H114475   2.505   4.610  15.271  0.3757 -1.9539 -0.8731
    6MPD2    H214476   2.148   0.034  15.116  0.1325  0.9266  1.9536
    6MPD2    H314477   2.263   4.626  15.272  0.3863  0.4245  1.9202
    6MPD2     N14478   2.671   0.003  15.112 -0.6220 -0.2173  0.2125
    6MPD2    H514479   2.716   0.067  15.048 -1.1277 -0.5710 -0.4865
    6MPD2    N114480   2.279   0.183  14.916 -0.8783  0.0538  0.3338
    6MPD2    H714481   2.340   0.204  14.838 -1.1131  0.7049  0.3215
  945NH3     N114482   2.908   1.812   1.223  0.0965 -0.0177 -0.2912
  945NH3     H214483   3.002   1.842   1.243  0.0784 -1.3239  1.6761
  945NH3     H314484   2.872   1.886   1.163 -1.3284  0.2858  0.9386
  945NH3     H414485   2.861   1.835   1.310 -1.5933 -2.4053 -0.5634
  946SOD     NA14486   4.180   3.202   1.404  0.2245 -0.4209  0.5852
  947SOD     NA14487   4.653   2.134  15.082  0.0561 -0.0652  0.4275
  948SOD     NA14488   4.391   2.413   3.686  0.3158  0.2257  0.4384
  949SOD     NA14489   0.387   4.064  10.365  0.4258  0.5146 -0.0483
  950SOD     NA14490   2.755   3.866   7.237 -0.5464 -0.1427 -0.2825
  951SOD     NA14491   4.432   4.329   8.318 -0.5475  0.2536 -0.2528
  952SOD     NA14492   2.614   0.389  16.414 -0.5056 -0.0053  0.2101
  953SOD     NA14493   3.552   2.219  16.626 -0.0441  0.5248  0.2986
  954SOL     OW14494   0.038   0.244   1.257  0.1432 -0.7176 -0.3574
  954SOL    HW114495   4.730   0.159   1.258 -0.1419 -0.5968 -2.3831
  954SOL    HW214496   0.051   0.261   1.163 -0.8408  0.2496 -0.3099
  955SOL     OW14497   1.128   1.102  11.319 -0.6395  0.5298  0.5304
  955SOL    HW114498   1.130   1.138  11.408 -0.0692 -0.4091  0.8910
  955SOL    HW214499   1.046   1.054  11.329 -0.3301 -0.2761 -0.8873
  956SOL     OW14500   4.614   3.530   0.570  0.2339  0.0603 -0.2815
  956SOL    HW114501   4.675   3.495   0.506  0.7065  1.3762 -0.5585
  956SOL    HW214502   4.579   3.598   0.512 -0.6382 -1.3030 -1.3425
  957SOL     OW14503   2.704   0.295   5.493 -0.4640  0.5206 -0.2344
  957SOL    HW114504   2.625   0.243   5.508 -0.1844 -0.1201 -0.9784
  957SOL    HW214505   2.664   0.368   5.445 -3.7248 -1.6719 -0.9240
  958SOL     OW14506   0.063   3.396   0.371  0.0721 -0.2671 -0.6359
  958SOL    HW114507   0.116   3.379   0.293 -0.1065  1.7809 -1.2177
  958SOL    HW214508   0.027   3.310   0.393  1.2302 -0.1333  1.7742
  959SOL     OW14509   0.253   2.142   7.456  0.0422  0.3208 -0.1065
  959SOL    HW114510   0.204   2.067   7.423 -2.8476  2.5533 -0.8320
  959SOL    HW214511   0.247   2.205   7.385 -0.4826  0.7072  0.2772
  960SOL     OW14512   2.099   3.750  10.117  0.0092 -0.1144  0.1127
  960SOL    HW114513   2.170   3.780  10.173 -2.9822  0.9136  3.3707
  960SOL    HW214514   2.135   3.665  10.093  0.7147  0.4046 -0.6342
  961SOL     OW14515   1.075   1.227   7.340  0.0577 -0.4097  0.6021
  961SOL    HW114516   1.155   1.214   7.290 -1.2770 -1.3249 -1.2895
  961SOL    HW214517   1.108   1.291   7.403 -0.2787 -0.0547  0.4205
  962SOL     OW14518   2.288   2.646  11.252  0.0380  0.0294 -0.3283
  962SOL    HW114519   2.317   2.569  11.301 -0.3118  0.1774  0.1060
  962SOL    HW214520   2.197   2.627  11.233 -0.3045  3.3760 -2.0846
  963SOL     OW14521   4.115   0.886   4.151  0.3531 -0.3916 -0.2488
  963SOL    HW114522   4.051   0.862   4.218 -0.5523 -0.8487 -1.2861
  963SOL    HW214523   4.052   0.909   4.082 -0.3945  1.3908  1.0249
  964SOL     OW14524   0.533   3.783   0.837  0.0929 -0.0274  0.5598
  964SOL    HW114525   0.621   3.802   0.871  0.3457  1.2484 -0.8315
  964SOL    HW214526   0.551   3.711   0.776 -1.3817  0.4527 -0.4429
  965SOL     OW14527   3.768   0.984  11.007 -0.1155 -0.0406 -0.5517
  965SOL    HW114528   3.777   1.011  10.915 -0.0140 -0.3368 -0.6272
  965SOL    HW214529   3.813   0.900  11.000  1.4831  0.8583 -1.2700
  966SOL     OW14530   2.570   3.619  11.332  0.2137  0.1459 -0.0209
  966SOL    HW114531   2.494   3.566  11.309  1.2178 -2.4662  2.7816
  966SOL    HW214532   2.537   3.678  11.399 -2.3738 -2.4475  0.9856
  967SOL     OW14533   3.437   2.780   4.568  0.2618  0.1079 -0.4642
  967SOL    HW114534   3.529   2.800   4.551  0.0302  0.6957 -1.0174
  967SOL    HW214535   3.430   2.826   4.651 -0.7355 -1.9878  0.6030
  968SOL     OW14536   0.047   4.488   2.428  0.2609  0.4077  0.4662
  968SOL    HW114537   4.712   4.546   2.451  2.2561  3.2656 -0.4194
  968SOL    HW214538   0.047   4.436   2.508  3.9669  0.2008  0.3327
  969SOL     OW14539   2.032   1.170  14.647 -0.0408 -0.0898 -0.3231
  969SOL    HW114540   2.021   1.124  14.564  0.4498 -2.5389  0.9799
  969SOL    HW214541   1.948   1.212  14.664 -0.4078 -1.1010  0.3125
  970SOL     OW14542   3.899   2.789   5.914 -0.1069 -0.0063 -0.1314
  970SOL    HW114543   3.823   2.736   5.890 -2.1499  3.6069 -1.7961
  970SOL    HW214544   3.862   2.832   5.991  1.1020  1.1171 -0.1636
  971SOL     OW14545   4.614   3.209  12.128 -0.7599  0.0344  0.1487
  971SOL    HW114546   4.666   3.136  12.095 -0.9063 -0.1022  0.2204
  971SOL    HW214547   4.597   3.179  12.217  2.3390  1.7508  1.3176
  972SOL     OW14548   1.346   4.543   5.596  0.2741 -0.1581 -0.7600
  972SOL    HW114549   1.408   4.612   5.619 -1.3981  0.3449  2.3611
  972SOL    HW214550   1.404   4.481   5.552  0.1637  0.8635 -2.3478
  973SOL     OW14551   1.914   2.054   3.938 -0.0602 -0.4029  0.0879
  973SOL    HW114552   1.843   2.037   3.877  1.5539  0.2983 -1.9982
  973SOL    HW214553   1.928   2.149   3.931  1.0655 -0.5279  0.6108
  974SOL     OW14554   0.605   3.743  11.136  0.2357  0.8805 -0.2318
  974SOL    HW114555   0.543   3.805  11.174  0.6361  1.4581 -0.5184
  974SOL    HW214556   0.657   3.714  11.211 -0.2190 -1.4895 -0.8039
  975SOL     OW14557   3.325   2.106   3.472  0.1271 -0.1191  0.6646
  975SOL    HW114558   3.237   2.143   3.476 -0.3299 -0.9659 -1.8247
  975SOL    HW214559   3.358   2.107   3.562 -1.7922 -4.4863  1.4025
  976SOL     OW14560   0.392   1.266   9.819  0.0149 -0.6926 -0.2046
  976SOL    HW114561   0.466   1.215   9.852  0.7543  1.7601  1.8688
  976SOL    HW214562   0.324   1.200   9.835 -0.0247 -0.4745  0.4919
  977SOL     OW14563   3.487   0.772   2.507  0.1366  0.2775  0.6144
  977SOL    HW114564   3.517   0.851   2.463  0.5071 -0.3991 -0.3450
  977SOL    HW214565   3.542   0.711   2.457  0.0549  1.0796 -0.4503
  978SOL     OW14566   1.898   3.304   7.032  0.0708  0.7622  0.2277
  978SOL    HW114567   1.884   3.231   7.092  0.8181  0.0047 -0.5255
  978SOL    HW214568   1.975   3.345   7.071  0.6910 -0.3788  0.1959
  979SOL     OW14569   1.471   1.686   6.820  0.2541 -0.6495 -0.3852
  979SOL    HW114570   1.470   1.596   6.788 -0.4367 -0.9953  0.6173
  979SOL    HW214571   1.482   1.669   6.913  2.8226 -1.9409 -0.9130
  980SOL     OW14572   0.531   3.583  11.857 -0.4505  0.3892 -0.7050
  980SOL    HW114573   0.513   3.630  11.939 -0.2619  1.6694 -1.4031
  980SOL    HW214574   0.552   3.501  11.902 -0.6527  0.8312  0.1975
  981SOL     OW14575   2.141   1.629   7.139  0.0263  0.1121  0.3527
  981SOL    HW114576   2.108   1.701   7.086 -0.5268 -0.0010  0.5487
  981SOL    HW214577   2.197   1.678   7.200 -1.3403  0.3491  1.4188
  982SOL     OW14578   0.692   0.861   1.872  0.3568  0.0066 -0.1389
  982SOL    HW114579   0.742   0.941   1.857  0.5023  0.4172  2.4470
  982SOL    HW214580   0.757   0.805   1.915 -0.5299 -0.1835  0.9635
  983SOL     OW14581   1.435   3.334   7.332  0.8830 -0.1843 -0.7195
  983SOL    HW114582   1.349   3.293   7.325  0.1792  1.3255 -0.8869
  983SOL    HW214583   1.445   3.368   7.243 -1.8902  1.2033 -0.5031
  984SOL     OW14584   3.837   2.923  15.169 -0.1332  0.0093  0.4568
  984SOL    HW114585   3.844   2.997  15.229 -0.2797 -1.4259  2.2470
  984SOL    HW214586   3.763   2.936  15.110 -1.3681  0.6304  2.1555
  985SOL     OW14587   4.392   4.019   2.517 -0.0541  0.6521  0.4248
  985SOL    HW114588   4.322   3.966   2.479  1.2286 -2.5270  2.4639
  985SOL    HW214589   4.431   4.049   2.434 -1.4346  2.2735  0.3725
  986SOL     OW14590   2.792   0.424  12.758  0.1145  0.6166 -0.2806
  986SOL    HW114591   2.794   0.503  12.704  0.7799  0.0007 -1.1492
  986SOL    HW214592   2.850   0.364  12.712 -0.3071  0.4673 -0.6245
  987SOL     OW14593   2.608   1.084   3.751  0.3661 -0.3898 -0.2451
  987SOL    HW114594   2.568   1.010   3.797  3.2195 -1.2241  0.8841
  987SOL    HW214595   2.541   1.152   3.757  1.1540  0.4236 -0.6844
  988SOL     OW14596   0.005   0.195  12.561 -0.1510  0.2552  0.3726
  988SOL    HW114597   0.042   0.284  12.563  0.0965  0.1670 -0.3412
  988SOL    HW214598   0.004   0.159  12.650 -0.8192  0.3712  0.4054
  989SOL     OW14599   4.124   3.050   9.317  0.7049 -0.2275  0.2261
  989SOL    HW114600   4.033   3.022   9.322  0.7854 -0.7228 -1.1857
  989SOL    HW214601   4.118   3.145   9.323 -1.7936 -0.5749  3.2360
  990SOL     OW14602   4.658   3.932   7.313 -0.3994  0.0451  0.2151
  990SOL    HW114603   4.650   3.855   7.370  0.7786  0.5506  1.0861
  990SOL    HW214604   4.570   3.966   7.325 -0.0482  0.6841  1.0412
  991SOL     OW14605   0.672   0.933   4.505 -0.7750 -0.5030 -0.2777
  991SOL    HW114606   0.717   0.892   4.579 -0.9808  0.4899  0.3941
  991SOL    HW214607   0.738   0.906   4.441 -1.1996  0.6436 -1.1987
  992SOL     OW14608   3.186   1.522  17.179 -0.2001  0.1362  0.9541
  992SOL    HW114609   3.254   1.585  17.154  0.4114 -0.5239  0.9688
  992SOL    HW214610   3.119   1.540  17.114  1.8703 -0.9880 -1.4694
  993SOL     OW14611   3.028   0.497   1.178  0.2680 -0.2841 -0.6841
  993SOL    HW114612   3.115   0.494   1.137  1.3833  0.6266  1.6224
  993SOL    HW214613   2.983   0.427   1.131 -0.4285 -0.0693 -0.3266
  994SOL     OW14614   4.166   3.898  12.504 -0.4813 -0.0192  0.5135
  994SOL    HW114615   4.085   3.940  12.534 -0.6809  0.0888 -0.1786
  994SOL    HW214616   4.194   3.846  12.580  0.5300  1.3728  1.0788
  995SOL     OW14617   3.321   3.597  12.279 -0.0479  0.6995  0.0452
  995SOL    HW114618   3.409   3.574  12.308 -0.0697  0.8871  0.2581
  995SOL    HW214619   3.334   3.617  12.186 -0.2609 -0.3502 -0.2116
  996SOL     OW14620   1.980   0.720   7.570  0.5744  0.3327  0.2096
  996SOL    HW114621   2.073   0.701   7.566  0.4749  0.0030 -0.6042
  996SOL    HW214622   1.980   0.794   7.630  0.2289  0.7200 -0.2600
  997SOL     OW14623   1.462   4.607  15.897 -0.2894 -0.3027 -0.5214
  997SOL    HW114624   1.555   4.616  15.920 -0.4907  0.7124 -0.1087
  997SOL    HW214625   1.475   4.615  15.803 -0.5975  0.3382 -0.5087
  998SOL     OW14626   3.752   4.074  14.686 -0.3390  0.0857 -0.4783
  998SOL    HW114627   3.735   3.995  14.738  4.2391  0.0574  0.9746
  998SOL    HW214628   3.693   4.048  14.616 -1.0228 -0.5150  0.3129
  999SOL     OW14629   2.315   1.176   2.673 -1.3018 -0.3132  0.1755
  999SOL    HW114630   2.274   1.120   2.607 -0.4359  0.1004 -0.7190
  999SOL    HW214631   2.292   1.261   2.635  0.8795  0.9027  1.5662
 1000SOL     OW14632   4.627   3.007   6.658 -0.6922 -0.0119 -0.3427
 1000SOL    HW114633   4.654   3.030   6.569  1.0806 -0.1872  0.1443
 1000SOL    HW214634   4.620   3.095   6.695 -0.3811 -0.2199  0.1978
 1001SOL     OW14635   4.429   4.505   3.921  0.8229 -0.1079  0.2886
 1001SOL    HW114636   4.399   4.589   3.956 -0.8359  0.4710 -2.5406
 1001SOL    HW214637   4.390   4.439   3.978 -0.8722  1.4609  0.9519
 1002SOL     OW14638   1.454   2.959   7.239 -0.1936 -1.1504 -0.1990
 1002SOL    HW114639   1.411   2.892   7.187 -1.1753 -0.4765 -0.2519
 1002SOL    HW214640   1.474   2.912   7.320  2.6005 -0.3319 -0.4077
 1003SOL     OW14641   3.847   0.050  13.478  0.2462 -0.3993 -0.2614
 1003SOL    HW114642   3.765   0.066  13.432 -1.4908 -1.3558  2.4931
 1003SOL    HW214643   3.910   0.039  13.407 -0.4301  1.0383 -1.0663
 1004SOL     OW14644   3.258   0.384  13.748 -0.3485 -0.1320  0.2512
 1004SOL    HW114645   3.275   0.478  13.758 -2.4609  0.0791  1.9399
 1004SOL    HW214646   3.239   0.389  13.655  0.9023 -0.6706 -0.0280
 1005SOL     OW14647   4.251   4.055   4.169 -0.1229 -0.0384  0.5988
 1005SOL    HW114648   4.290   4.003   4.240  2.3028 -0.1145 -0.7878
 1005SOL    HW214649   4.264   3.985   4.104  0.1080  0.9423 -0.4102
 1006SOL     OW14650   3.244   1.712   2.029 -0.2064  0.2308 -0.3279
 1006SOL    HW114651   3.270   1.783   2.087 -0.4596  0.7208 -0.8021
 1006SOL    HW214652   3.192   1.654   2.084  1.4208  0.3441  1.3128
 1007SOL     OW14653   4.256   0.878   8.618  0.1028  0.2177 -0.0016
 1007SOL    HW114654   4.170   0.876   8.576 -0.7744 -0.1480  1.7903
 1007SOL    HW214655   4.238   0.908   8.707  1.5348  1.7821 -0.2533
 1008SOL     OW14656   0.780   1.257   3.029 -0.9494 -0.0584  0.1372
 1008SOL    HW114657   0.844   1.207   3.080 -1.9145 -1.1931  0.2303
 1008SOL    HW214658   0.703   1.241   3.082 -0.0506 -1.5178  0.9926
 1009SOL     OW14659   0.550   1.862   8.056 -0.1619  0.1699  0.1533
 1009SOL    HW114660   0.492   1.818   7.994  0.7021  0.8187 -1.1111
 1009SOL    HW214661   0.504   1.946   8.051 -2.0233 -0.8411  0.1633
 1010SOL     OW14662   0.767   3.889  12.613  0.2287  0.3501  0.2012
 1010SOL    HW114663   0.783   3.980  12.638 -0.2502  0.4020  0.3183
 1010SOL    HW214664   0.851   3.865  12.574 -0.4255 -0.1876 -0.8764
 1011SOL     OW14665   2.812   4.361  17.741 -0.0142 -0.5812  0.3223
 1011SOL    HW114666   2.876   4.423  17.706 -0.8467  0.9618  1.5099
 1011SOL    HW214667   2.862   4.280  17.733  2.5094  0.9497  0.6918
 1012SOL     OW14668   0.810   1.996   8.034  0.4601 -0.5954 -0.2154
 1012SOL    HW114669   0.732   1.948   8.063 -0.2469  0.6270 -0.1159
 1012SOL    HW214670   0.850   2.019   8.118  2.4150 -0.2974 -1.2101
 1013SOL     OW14671   1.975   0.424   7.827 -0.6888 -0.4604  0.1958
 1013SOL    HW114672   2.033   0.390   7.759  0.0312 -0.9079  1.0383
 1013SOL    HW214673   2.049   0.447   7.884  0.1537  1.4252 -1.6674
 1014SOL     OW14674   1.624   4.578   1.570  0.1939  0.2470 -0.1326
 1014SOL    HW114675   1.572   4.655   1.548  1.5989  1.3773  0.4872
 1014SOL    HW214676   1.684   4.551   1.500  2.2446  0.2780  1.6208
 1015SOL     OW14677   3.029   1.955  14.599  0.3873  0.1951 -0.7589
 1015SOL    HW114678   2.948   1.941  14.550  0.3405 -0.8883 -0.3577
 1015SOL    HW214679   3.048   2.042  14.564  1.2804 -0.0522 -0.8718
 1016SOL     OW14680   1.722   0.065   0.586 -0.5552  0.6298 -0.8059
 1016SOL    HW114681   1.673   0.021   0.656 -1.8075  0.6283 -1.6845
 1016SOL    HW214682   1.799   0.102   0.631 -0.4114 -0.8699  0.1724
 1017SOL     OW14683   2.540   2.965   0.785  0.0962  0.6715 -0.2885
 1017SOL    HW114684   2.631   2.990   0.767  0.8010 -2.0859 -0.4414
 1017SOL    HW214685   2.544   3.010   0.870 -0.8815 -1.5700  0.9251
 1018SOL     OW14686   1.996   3.532   5.445  0.1319  0.0191  0.1911
 1018SOL    HW114687   2.047   3.463   5.404  0.2154 -0.2309  0.7087
 1018SOL    HW214688   2.049   3.611   5.445  0.2258 -0.0560 -2.1775
 1019SOL     OW14689   2.304   2.384   2.277  0.0171 -0.4088 -0.9317
 1019SOL    HW114690   2.217   2.391   2.317 -0.6080  2.5297 -2.7972
 1019SOL    HW214691   2.349   2.348   2.354 -1.1257  0.7386  0.2687
 1020SOL     OW14692   1.414   1.067   1.524 -0.4232 -0.1215 -0.6528
 1020SOL    HW114693   1.506   1.089   1.511 -0.4810  0.1208 -0.6515
 1020SOL    HW214694   1.394   1.026   1.439  0.0857 -0.7696 -0.4562
 1021SOL     OW14695   3.074   4.504   4.768  0.0807  0.7218  0.2661
 1021SOL    HW114696   3.096   4.417   4.802  1.1385  0.8937  0.0110
 1021SOL    HW214697   2.987   4.478   4.736 -0.3287  0.0665  1.9366
 1022SOL     OW14698   1.810   1.374   4.310 -0.0090  0.1929 -0.3884
 1022SOL    HW114699   1.717   1.364   4.333 -0.0231  0.1820 -0.4497
 1022SOL    HW214700   1.849   1.292   4.338  0.2742 -0.0340 -1.4463
 1023SOL     OW14701   2.463   0.324  10.692 -0.5895  0.1733  0.3681
 1023SOL    HW114702   2.493   0.404  10.649 -3.7519 -0.1300 -2.4016
 1023SOL    HW214703   2.418   0.365  10.766 -2.5160 -0.6095 -0.3642
 1024SOL     OW14704   2.191   3.491  16.567  0.3716  0.5813 -0.3998
 1024SOL    HW114705   2.165   3.401  16.586 -1.2225  0.3280 -3.9795
 1024SOL    HW214706   2.216   3.485  16.475 -1.0275 -2.6647 -0.5674
 1025SOL     OW14707   0.035   4.391   5.414  0.2763  0.5349 -0.4341
 1025SOL    HW114708   4.695   4.337   5.430  2.0376 -0.6339  3.9149
 1025SOL    HW214709   4.729   4.476   5.411  1.5444  1.1848 -0.2544
 1026SOL     OW14710   2.283   1.657  17.365 -0.1999 -0.4760  0.3167
 1026SOL    HW114711   2.275   1.568  17.399 -1.3160  0.0453  1.4154
 1026SOL    HW214712   2.332   1.689  17.440 -2.8088 -1.5952  2.4676
 1027SOL     OW14713   1.458   4.205   2.775 -0.2963 -0.6873 -0.0513
 1027SOL    HW114714   1.453   4.113   2.803 -1.7167 -0.4251  0.5525
 1027SOL    HW214715   1.390   4.206   2.708  0.2932  1.6407 -0.6199
 1028SOL     OW14716   0.542   0.667   5.280 -0.1031 -0.1212 -0.5106
 1028SOL    HW114717   0.473   0.615   5.320  1.5119 -1.3283  0.7232
 1028SOL    HW214718   0.516   0.673   5.188 -0.8145 -0.5818 -0.3337
 1029SOL     OW14719   2.780   3.090   2.995  0.4105  0.3435  0.3497
 1029SOL    HW114720   2.820   3.171   3.028  0.4941  0.6799 -0.5915
 1029SOL    HW214721   2.695   3.125   2.969  0.1826 -0.3510  0.1518
 1030SOL     OW14722   2.631   2.171   5.951 -0.0491  0.1008  0.0829
 1030SOL    HW114723   2.668   2.213   5.873 -2.0361  0.7543 -0.5060
 1030SOL    HW214724   2.640   2.237   6.020 -0.9912 -0.5877  0.8658
 1031SOL     OW14725   2.571   2.168  12.875  0.1838 -0.0924  0.1419
 1031SOL    HW114726   2.568   2.236  12.942 -0.8314  1.9291 -1.9687
 1031SOL    HW214727   2.588   2.089  12.927 -0.0489 -1.4221 -1.8117
 1032SOL     OW14728   4.000   3.508  14.122  0.2223  0.5289 -0.6429
 1032SOL    HW114729   3.993   3.446  14.194 -0.6395 -0.2812 -1.4288
 1032SOL    HW214730   4.041   3.454  14.054 -0.7830  1.1764 -1.7771
 1033SOL     OW14731   2.291   2.837   2.282 -0.4838 -0.8295 -0.0705
 1033SOL    HW114732   2.384   2.817   2.285 -0.0362  1.2668 -0.7818
 1033SOL    HW214733   2.280   2.883   2.365 -1.0789 -1.4560  0.2057
 1034SOL     OW14734   1.629   3.504   1.881 -0.1299 -0.3941 -0.2011
 1034SOL    HW114735   1.669   3.547   1.806  0.3428  1.0539  0.8720
 1034SOL    HW214736   1.539   3.484   1.854  0.3342 -1.3390 -1.0193
 1035SOL     OW14737   3.754   1.967   3.150 -0.1659 -0.5504 -0.6929
 1035SOL    HW114738   3.833   1.985   3.098 -0.3219  2.4413  0.1057
 1035SOL    HW214739   3.783   1.974   3.241  0.9135 -0.0373 -1.0732
 1036SOL     OW14740   2.273   0.455   4.841 -0.4701 -0.1594  0.0955
 1036SOL    HW114741   2.323   0.412   4.911 -2.2100 -0.8322  0.9162
 1036SOL    HW214742   2.297   0.546   4.857 -0.4446 -0.0766 -0.4262
 1037SOL     OW14743   0.296   1.078   8.067  0.2261 -0.1204  0.4072
 1037SOL    HW114744   0.315   1.168   8.039  0.9967 -0.3997  0.0562
 1037SOL    HW214745   0.259   1.028   7.994  1.3134 -1.7085  0.9527
 1038SOL     OW14746   0.453   2.784   8.804  0.0953 -0.0000  0.5626
 1038SOL    HW114747   0.501   2.767   8.885  2.7301 -0.4746 -1.0896
 1038SOL    HW214748   0.466   2.878   8.797  1.3756 -0.1287  1.1619
 1039SOL     OW14749   0.882   1.684  14.059 -0.3180  0.0530  0.3581
 1039SOL    HW114750   0.934   1.604  14.049  1.2731  0.9527  1.4438
 1039SOL    HW214751   0.918   1.740  13.991 -0.0439 -0.5941 -0.0263
 1040SOL     OW14752   1.445   1.225  15.345  0.6341  0.0961  0.1391
 1040SOL    HW114753   1.482   1.208  15.259  1.6424  0.2261  0.5486
 1040SOL    HW214754   1.405   1.312  15.337  0.9373  0.2762  0.5569
 1041SOL     OW14755   4.279   4.343   4.110 -0.2341  0.0728  0.6200
 1041SOL    HW114756   4.335   4.376   4.181  1.5662  0.4555 -0.9787
 1041SOL    HW214757   4.257   4.253   4.134 -1.2278 -0.0278 -0.6846
 1042SOL     OW14758   4.267   3.995   8.015  0.0586 -0.3247  0.1923
 1042SOL    HW114759   4.292   4.066   7.956  1.8494 -1.7794 -0.8061
 1042SOL    HW214760   4.176   4.007   8.043 -0.8661 -4.8569 -0.9456
 1043SOL     OW14761   1.767   1.745   3.181 -0.2199  0.0710 -0.6424
 1043SOL    HW114762   1.755   1.772   3.090  0.8630  3.3502  0.1659
 1043SOL    HW214763   1.682   1.759   3.222 -0.5665  1.1252 -1.7352
 1044SOL     OW14764   4.348   1.202   3.525  0.4710 -0.4924  0.3256
 1044SOL    HW114765   4.292   1.233   3.454 -1.0602  0.8390  2.1123
 1044SOL    HW214766   4.378   1.124   3.479 -1.8374 -2.1770  1.6397
 1045SOL     OW14767   3.901   2.636  10.054  0.5840  0.0162  0.6786
 1045SOL    HW114768   3.978   2.641   9.998 -0.7145  0.2874 -1.1069
 1045SOL    HW214769   3.850   2.601   9.981  2.2222  0.1339 -0.5070
 1046SOL     OW14770   3.562   1.396   7.157  0.3059  0.0432  0.3600
 1046SOL    HW114771   3.551   1.319   7.212 -2.8114 -1.5456 -2.5398
 1046SOL    HW214772   3.609   1.354   7.084  0.2400  0.5294  0.0347
 1047SOL     OW14773   2.283   1.655   1.754  0.2723  0.0005  0.5433
 1047SOL    HW114774   2.303   1.562   1.750 -1.1410 -0.3404  1.8596
 1047SOL    HW214775   2.268   1.668   1.660 -0.3259 -1.3576  0.4632
 1048SOL     OW14776   1.724   4.066   8.331  0.2789  0.8061  0.4190
 1048SOL    HW114777   1.640   4.044   8.370  1.4439 -0.3136  2.3091
 1048SOL    HW214778   1.711   4.031   8.243 -1.7177  0.3549  0.9000
 1049SOL     OW14779   1.090   1.296   4.296 -0.3995  0.3230 -0.7121
 1049SOL    HW114780   1.114   1.389   4.293 -1.5360  0.6530  0.4967
 1049SOL    HW214781   1.062   1.279   4.206 -0.5207 -1.2856 -0.3711
 1050SOL     OW14782   0.213   4.175   9.038 -0.0025  0.1929  0.5543
 1050SOL    HW114783   0.172   4.130   9.111 -1.4854  1.7809  0.6896
 1050SOL    HW214784   0.305   4.189   9.062 -0.2210  2.1584  0.2134
 1051SOL     OW14785   3.265   2.436   7.480 -0.2788  0.5075 -0.5633
 1051SOL    HW114786   3.183   2.406   7.440 -0.5661  2.0450 -1.1234
 1051SOL    HW214787   3.332   2.418   7.414 -0.8813 -1.8266 -0.5620
 1052SOL     OW14788   1.904   2.232   7.889  0.6159  0.0115 -0.1208
 1052SOL    HW114789   1.839   2.250   7.822  0.6851 -0.6244 -0.3541
 1052SOL    HW214790   1.865   2.278   7.963  0.3225 -1.8573  0.8968
 1053SOL     OW14791   0.589   1.541   1.025 -0.0396 -0.2507  0.4419
 1053SOL    HW114792   0.652   1.606   0.994 -0.7814 -0.1701 -0.8826
 1053SOL    HW214793   0.556   1.534   0.936  1.6185  1.6724 -0.3392
 1054SOL     OW14794   0.790   4.472   5.437 -0.0598  0.2710  0.4155
 1054SOL    HW114795   0.805   4.552   5.385 -1.2309 -0.1521 -0.5934
 1054SOL    HW214796   0.700   4.489   5.465 -0.4003  1.0246 -1.1357
 1055SOL     OW14797   0.929   3.806   2.542 -0.5076 -0.1230 -0.0148
 1055SOL    HW114798   1.006   3.785   2.490 -2.0678 -0.7346 -2.0538
 1055SOL    HW214799   0.936   3.736   2.607  0.0031  0.6100  0.7227
 1056SOL     OW14800   1.569   0.701   7.840 -0.0307  0.5022  0.2882
 1056SOL    HW114801   1.510   0.630   7.863 -1.0821  0.9614 -0.9890
 1056SOL    HW214802   1.643   0.658   7.796  0.5454  0.1238  1.6205
 1057SOL     OW14803   2.821   0.582   4.955  0.2477 -0.4255 -0.2502
 1057SOL    HW114804   2.766   0.586   4.877  1.5213 -0.2542 -1.1315
 1057SOL    HW214805   2.907   0.601   4.919  0.1901  0.1468 -0.0827
 1058SOL     OW14806   3.534   2.132   4.796  0.0269  0.6896 -0.0613
 1058SOL    HW114807   3.518   2.159   4.886  0.2205  0.0486  0.1652
 1058SOL    HW214808   3.556   2.039   4.800  1.7749  1.1860  1.9977
 1059SOL     OW14809   3.937   0.595   8.389  0.0194  0.8618  0.4397
 1059SOL    HW114810   4.006   0.642   8.343 -0.2307 -1.0195 -1.8984
 1059SOL    HW214811   3.862   0.642   8.353 -1.4086 -0.4804  1.6839
 1060SOL     OW14812   3.678   3.609   4.653  0.0311  0.7945 -0.3723
 1060SOL    HW114813   3.728   3.566   4.584 -0.1960  2.2072 -1.4101
 1060SOL    HW214814   3.720   3.695   4.666 -0.6226  1.4338 -2.5591
 1061SOL     OW14815   2.395   2.036   6.062 -0.4192 -0.0568 -0.4515
 1061SOL    HW114816   2.328   2.102   6.080 -0.2075  0.3268 -1.0397
 1061SOL    HW214817   2.466   2.094   6.032 -1.4076  1.0686 -0.6306
 1062SOL     OW14818   2.628   1.305  13.903 -0.0104 -0.3764  0.2175
 1062SOL    HW114819   2.638   1.247  13.827  2.7161  1.7542 -1.0871
 1062SOL    HW214820   2.543   1.347  13.887  0.5137  0.5599 -0.1374
 1063SOL     OW14821   1.681   0.684   5.231  0.4598 -0.2716 -0.2130
 1063SOL    HW114822   1.628   0.611   5.264 -0.5216  0.9050  0.7806
 1063SOL    HW214823   1.610   0.747   5.227  0.2726 -0.5983 -1.9910
 1064SOL     OW14824   0.730   0.352  17.072  0.1234  0.6213  0.5574
 1064SOL    HW114825   0.662   0.415  17.094  0.2460  1.8760 -2.6469
 1064SOL    HW214826   0.680   0.289  17.021 -1.0748  1.8848  0.1734
 1065SOL     OW14827   4.046   4.406  13.754 -0.0969  0.3558 -0.6603
 1065SOL    HW114828   4.044   4.430  13.661  1.4499  1.3358 -0.4424
 1065SOL    HW214829   4.134   4.372  13.768 -0.5587 -0.2716  0.7017
 1066SOL     OW14830   4.584   1.454   7.775 -0.3252 -0.0183 -0.4450
 1066SOL    HW114831   4.640   1.514   7.824 -0.4478 -0.4878  0.2696
 1066SOL    HW214832   4.513   1.434   7.836 -0.5966  0.5050 -0.5997
 1067SOL     OW14833   4.685   3.160   7.429  0.2131  0.3030 -0.2088
 1067SOL    HW114834   4.672   3.096   7.499  0.6998  0.7482  0.2931
 1067SOL    HW214835   4.630   3.237   7.444  1.6189  1.3280 -0.3340
 1068SOL     OW14836   1.663   3.150   5.493 -0.1139 -0.2181  0.0222
 1068SOL    HW114837   1.652   3.230   5.441 -1.3622  0.2359  0.9800
 1068SOL    HW214838   1.574   3.113   5.490  1.3108 -3.7385  0.9616
 1069SOL     OW14839   2.226   1.077   5.256 -0.4061  0.4145 -0.9268
 1069SOL    HW114840   2.171   1.155   5.246  0.4421  1.0821 -0.4064
 1069SOL    HW214841   2.309   1.119   5.278 -0.8904  1.0827 -0.3763
 1070SOL     OW14842   2.193   3.903   8.892 -0.5610 -0.2779 -0.1149
 1070SOL    HW114843   2.109   3.868   8.922 -1.6689  0.6295 -2.1731
 1070SOL    HW214844   2.236   3.931   8.973 -2.3788  2.6248 -0.1499
 1071SOL     OW14845   3.289   4.444  12.336 -0.1950 -0.0262 -0.4709
 1071SOL    HW114846   3.269   4.354  12.360  0.1350 -0.0928 -0.4427
 1071SOL    HW214847   3.353   4.482  12.397 -0.6705  1.1247 -0.6864
 1072SOL     OW14848   0.153   3.735  11.517 -0.1599  0.4013 -0.5454
 1072SOL    HW114849   0.196   3.738  11.603  1.9976  1.4399 -1.6486
 1072SOL    HW214850   0.123   3.826  11.511  1.1234  0.9105  0.4928
 1073SOL     OW14851   1.517   0.658   3.185  0.3858 -0.3441  0.0809
 1073SOL    HW114852   1.494   0.703   3.104  0.3317 -0.0988  0.2315
 1073SOL    HW214853   1.441   0.674   3.241 -0.8339 -0.2632 -1.5806
 1074SOL     OW14854   2.862   0.600   3.568 -0.5958  0.5577  0.2686
 1074SOL    HW114855   2.867   0.647   3.485 -0.5803  2.3689  1.3008
 1074SOL    HW214856   2.942   0.547   3.562  0.2826  1.7813  1.3263
 1075SOL     OW14857   1.830   1.818  16.845  0.2673  0.7624 -0.6291
 1075SOL    HW114858   1.802   1.731  16.819  0.3587  0.3186  0.7363
 1075SOL    HW214859   1.755   1.875  16.826  0.1138  1.1369  1.0702
 1076SOL     OW14860   2.012   4.630   3.851  0.0737  0.4200  0.1210
 1076SOL    HW114861   2.044   4.573   3.921  2.2532  1.5310  0.0260
 1076SOL    HW214862   1.919   4.609   3.863  0.1330  0.0558 -0.0358
 1077SOL     OW14863   1.558   0.408  11.428 -0.5392  0.4714 -0.1064
 1077SOL    HW114864   1.501   0.470  11.475  0.8902  0.3809  1.7721
 1077SOL    HW214865   1.587   0.467  11.359 -0.2585  0.4581  0.0013
 1078SOL     OW14866   1.453   4.177   6.231  0.1228 -0.4199  0.0913
 1078SOL    HW114867   1.462   4.188   6.136  1.7594  2.0626  0.5550
 1078SOL    HW214868   1.458   4.082   6.231  2.5451 -0.2787 -0.3002
 1079SOL     OW14869   2.308   3.759   3.896 -0.0673  0.3607 -0.3138
 1079SOL    HW114870   2.402   3.768   3.915 -0.5182  1.1557  1.4946
 1079SOL    HW214871   2.289   3.667   3.914 -3.4393  0.9699 -0.7978
 1080SOL     OW14872   3.442   1.829  10.979  0.1674  0.2745 -0.4612
 1080SOL    HW114873   3.529   1.849  11.012 -1.3562  2.1327  2.4116
 1080SOL    HW214874   3.452   1.852  10.886 -0.0978 -0.5105 -0.6888
 1081SOL     OW14875   0.192   1.552  17.413  0.3241  0.3813 -0.0740
 1081SOL    HW114876   0.112   1.551  17.362  1.7383 -0.0536 -2.2775
 1081SOL    HW214877   0.234   1.615  17.353 -1.2170  0.4055 -1.1263
 1082SOL     OW14878   2.151   0.877   1.994  0.0422  0.2185 -0.0725
 1082SOL    HW114879   2.081   0.926   1.951  0.7866  1.8025  0.5080
 1082SOL    HW214880   2.162   0.807   1.930  1.3858 -1.2821  1.7832
 1083SOL     OW14881   1.388   0.244   3.729 -0.0690  0.1415  0.4823
 1083SOL    HW114882   1.408   0.225   3.638  2.2474 -0.6915  1.1628
 1083SOL    HW214883   1.329   0.320   3.731  0.0972  0.2435  1.5463
 1084SOL     OW14884   1.481   2.265   1.313 -0.1892 -0.2301  0.3201
 1084SOL    HW114885   1.437   2.335   1.265  0.1373 -0.5090 -0.3894
 1084SOL    HW214886   1.540   2.298   1.381 -0.3490 -0.2990  0.4898
 1085SOL     OW14887   3.699   2.321   8.579  0.1775 -0.1644 -0.0922
 1085SOL    HW114888   3.710   2.252   8.513 -2.0051  1.0026 -1.6583
 1085SOL    HW214889   3.706   2.278   8.665  1.9094 -0.9566 -0.6330
 1086SOL     OW14890   2.653   2.832   4.688 -0.0766 -0.1866  0.5164
 1086SOL    HW114891   2.666   2.739   4.709 -1.6261 -0.2714  1.0714
 1086SOL    HW214892   2.717   2.837   4.618 -0.3148  1.1504  0.3971
 1087SOL     OW14893   3.913   4.086   0.691  0.0147 -0.4252 -0.1153
 1087SOL    HW114894   3.931   3.998   0.659 -1.0636 -0.5531 -0.3588
 1087SOL    HW214895   3.945   4.148   0.625 -0.4133  1.5073  1.4888
 1088SOL     OW14896   3.015   0.498  17.060 -0.4709 -0.7542 -0.3455
 1088SOL    HW114897   3.049   0.480  17.148  0.2869 -1.0233 -0.6938
 1088SOL    HW214898   2.980   0.587  17.069  0.1421 -0.6273  0.7401
 1089SOL     OW14899   0.950   1.205   5.699  0.0809  0.1583 -0.2698
 1089SOL    HW114900   1.019   1.250   5.650 -0.3096  0.8895 -0.1506
 1089SOL    HW214901   0.874   1.257   5.672  0.0523  0.1350 -0.2342
 1090SOL     OW14902   1.684   3.416   8.259 -0.4708  0.1565  0.1769
 1090SOL    HW114903   1.685   3.331   8.216  0.4711  0.4859 -0.4591
 1090SOL    HW214904   1.610   3.459   8.217  0.3421  0.4403 -0.9723
 1091SOL     OW14905   1.009   1.428   9.615 -0.6550 -0.3147 -0.0269
 1091SOL    HW114906   0.965   1.416   9.699  0.4403  3.6115  1.0746
 1091SOL    HW214907   1.065   1.351   9.607 -0.8117 -0.5684  1.3297
 1092SOL     OW14908   2.173   2.544  10.565 -0.0757  0.1575  0.6586
 1092SOL    HW114909   2.128   2.461  10.547  0.2826 -0.5821  3.1328
 1092SOL    HW214910   2.184   2.549  10.660  0.3213 -0.4617  0.6480
 1093SOL     OW14911   1.580   3.358   3.041  0.3048  0.0809 -0.2410
 1093SOL    HW114912   1.523   3.370   3.117  2.0953 -1.8605  1.4121
 1093SOL    HW214913   1.534   3.286   2.996  1.1112  0.0682 -1.0397
 1094SOL     OW14914   2.360   2.686   8.841 -0.5338  0.2226  0.0092
 1094SOL    HW114915   2.359   2.620   8.911  0.1985  1.2688  0.9923
 1094SOL    HW214916   2.269   2.711   8.827 -0.5503 -1.1250 -2.3778
 1095SOL     OW14917   3.790   0.086   8.473 -1.0701  0.0086 -0.0505
 1095SOL    HW114918   3.795   0.147   8.400  1.4509  0.2229  0.2981
 1095SOL    HW214919   3.861   0.117   8.530  0.0711 -1.2659 -0.7971
 1096SOL     OW14920   3.155   1.636  11.258  0.2287  0.0320 -0.5988
 1096SOL    HW114921   3.108   1.708  11.298 -2.8071 -1.7278 -1.0395
 1096SOL    HW214922   3.185   1.579  11.328 -1.4210 -0.7899 -0.5722
 1097SOL     OW14923   0.073   0.111   0.614  0.5487 -0.4236 -0.7424
 1097SOL    HW114924   0.095   0.027   0.653 -1.1566 -0.1463  0.8518
 1097SOL    HW214925   4.719   0.093   0.590 -0.2274 -0.0028  1.8894
 1098SOL     OW14926   2.400   3.501   8.290 -0.3874 -0.3068  0.3285
 1098SOL    HW114927   2.420   3.556   8.214  1.2363  2.0778  2.4708
 1098SOL    HW214928   2.396   3.576   8.350  1.0331 -1.9914  2.5235
 1099SOL     OW14929   4.390   4.521   6.976  0.0150  0.2555  0.0027
 1099SOL    HW114930   4.393   4.482   6.889 -2.2948 -1.5268  0.7276
 1099SOL    HW214931   4.302   4.489   6.994 -0.5165  2.1608  0.7568
 1100SOL     OW14932   3.706   0.440  14.969  0.1851 -0.2149 -0.1393
 1100SOL    HW114933   3.703   0.533  14.992 -1.4657 -0.1360 -0.6852
 1100SOL    HW214934   3.770   0.407  15.032 -0.0751 -1.8268 -0.7161
 1101SOL     OW14935   2.215   2.164   0.601 -0.3555  0.2112 -0.0319
 1101SOL    HW114936   2.186   2.191   0.688  2.8203 -0.1653  1.1474
 1101SOL    HW214937   2.190   2.252   0.572  0.1835 -0.2869 -2.0076
 1102SOL     OW14938   3.393   1.407   2.762 -0.6863 -0.0432 -0.2404
 1102SOL    HW114939   3.371   1.315   2.748 -0.2337 -0.3853  1.3472
 1102SOL    HW214940   3.420   1.405   2.854 -1.9520  0.0538  0.1449
 1103SOL     OW14941   3.147   2.573  12.507  0.4741 -0.0975  1.1238
 1103SOL    HW114942   3.238   2.552  12.529  1.0300  2.1671  0.9623
 1103SOL    HW214943   3.170   2.644  12.448  1.2454 -1.1430  0.1658
 1104SOL     OW14944   3.715   4.272   4.590  0.2802 -0.3385  0.0287
 1104SOL    HW114945   3.728   4.365   4.570 -0.4095 -0.2539 -0.0200
 1104SOL    HW214946   3.731   4.264   4.684 -0.1277 -0.5719  0.0784
 1105SOL     OW14947   1.671   0.944   1.779 -0.0490  0.4210  0.1408
 1105SOL    HW114948   1.640   0.937   1.688 -0.8094 -2.3576  0.6257
 1105SOL    HW214949   1.688   0.855   1.809  3.0403  0.2416 -2.0829
 1106SOL     OW14950   2.020   3.308  17.132 -0.6165 -0.1913  0.0589
 1106SOL    HW114951   1.971   3.327  17.052 -0.1365  0.1639 -0.1511
 1106SOL    HW214952   1.962   3.343  17.199  2.1510  0.8403  1.8792
 1107SOL     OW14953   3.695   2.989   5.700  0.3371  0.6537  0.2051
 1107SOL    HW114954   3.736   2.935   5.632 -3.4251  0.0965 -1.6376
 1107SOL    HW214955   3.606   2.984   5.665 -0.7671  1.8385  2.8367
 1108SOL     OW14956   3.931   1.410   8.931 -0.1526 -0.2372 -0.7461
 1108SOL    HW114957   3.905   1.411   9.023 -3.8148 -1.3195 -1.7829
 1108SOL    HW214958   3.954   1.318   8.914  1.2396  0.3348 -1.9923
 1109SOL     OW14959   1.592   3.411  16.700  0.2337  0.1801 -0.7028
 1109SOL    HW114960   1.659   3.462  16.745 -0.9639  0.6134  0.5822
 1109SOL    HW214961   1.524   3.422  16.766 -0.4453 -1.0080 -1.1975
 1110SOL     OW14962   0.657   0.556   6.245 -0.3469  0.0277 -0.0268
 1110SOL    HW114963   0.670   0.619   6.316 -1.1850 -3.0429  2.8392
 1110SOL    HW214964   0.589   0.505   6.289  2.7803 -1.8724  2.6095
 1111SOL     OW14965   1.012   3.462   8.558 -0.1084  0.3501  0.2483
 1111SOL    HW114966   1.105   3.440   8.563 -0.1313 -0.0348 -0.9336
 1111SOL    HW214967   0.993   3.509   8.476 -0.7906 -0.4522 -0.0581
 1112SOL     OW14968   2.233   0.220  12.377 -0.4842  0.2629  0.0225
 1112SOL    HW114969   2.320   0.194  12.406  0.0939  1.5775 -0.5101
 1112SOL    HW214970   2.252   0.284  12.308 -1.8627 -0.2238 -0.8080
 1113SOL     OW14971   4.076   2.743   6.763  0.1063 -0.0222  0.1232
 1113SOL    HW114972   4.003   2.799   6.791  1.6364  1.0794  1.9725
 1113SOL    HW214973   4.110   2.714   6.848 -1.5639 -0.1667  0.7554
 1114SOL     OW14974   2.037   1.241   6.003 -0.8695 -0.0356  0.5754
 1114SOL    HW114975   2.027   1.152   5.970  2.5156  0.3499 -1.4969
 1114SOL    HW214976   2.049   1.283   5.918  1.7936  0.0738  1.0021
 1115SOL     OW14977   4.449   2.654   6.180  0.7006  0.0104  0.3832
 1115SOL    HW114978   4.378   2.682   6.122  0.6188  0.9667  0.9390
 1115SOL    HW214979   4.533   2.686   6.148  0.3995  1.3894  0.9793
 1116SOL     OW14980   2.582   4.647   8.056  0.0882  0.0339 -0.0823
 1116SOL    HW114981   2.644   4.718   8.075 -0.7697  0.6862  0.2548
 1116SOL    HW214982   2.548   4.685   7.975 -1.3445 -1.6704 -0.2798
 1117SOL     OW14983   3.460   2.927   5.550 -0.7908 -0.0000  0.4190
 1117SOL    HW114984   3.367   2.903   5.549 -0.1030 -2.7495  1.7646
 1117SOL    HW214985   3.480   2.914   5.457 -0.9741  0.8145  0.2660
 1118SOL     OW14986   2.230   4.460   4.927  0.2069  0.1162  0.5338
 1118SOL    HW114987   2.225   4.374   4.884  0.4684  0.6727 -0.5890
 1118SOL    HW214988   2.186   4.433   5.008  0.9040  0.7397  1.1185
 1119SOL     OW14989   1.163   2.970   8.145  0.1688  0.7491  0.5502
 1119SOL    HW114990   1.088   2.990   8.089  0.0650  1.6377  0.9996
 1119SOL    HW214991   1.130   2.981   8.235  2.0550 -1.0015  1.4559
 1120SOL     OW14992   1.338   0.481  11.192 -0.0997 -0.3445 -0.1652
 1120SOL    HW114993   1.273   0.514  11.255 -0.0496 -2.1829  0.8332
 1120SOL    HW214994   1.412   0.539  11.210  0.2905 -0.8111 -0.2853
 1121SOL     OW14995   0.295   2.287   9.360 -0.4917  0.5979 -0.5989
 1121SOL    HW114996   0.246   2.223   9.307  0.5457 -0.4625 -0.2582
 1121SOL    HW214997   0.244   2.366   9.342 -0.1014  1.2976  1.4032
 1122SOL     OW14998   2.597   1.210   4.105 -0.4368 -0.2347  0.1759
 1122SOL    HW114999   2.604   1.125   4.062  0.9356  0.3409 -0.7246
 1122SOL    HW215000   2.675   1.219   4.160 -0.0235  1.8689 -0.7651
 1123SOL     OW15001   0.738   4.172   3.774  0.2624 -0.2044 -0.1222
 1123SOL    HW115002   0.800   4.156   3.844  0.9993  1.2913 -0.4519
 1123SOL    HW215003   0.796   4.192   3.701  1.6824 -0.9729  0.8134
 1124SOL     OW15004   3.895   0.487   8.628 -0.4994  0.3943  0.3339
 1124SOL    HW115005   3.913   0.530   8.544  3.1360  0.1517  0.9902
 1124SOL    HW215006   3.980   0.449   8.649 -0.9065 -0.0419  1.2063
 1125SOL     OW15007   0.363   3.782  15.819 -0.2312  0.2149  0.0946
 1125SOL    HW115008   0.381   3.858  15.874  0.5218  1.3813 -1.7665
 1125SOL    HW215009   0.442   3.794  15.766 -0.7437  0.8172 -0.5355
 1126SOL     OW15010   1.512   1.747  12.257 -0.2513  0.4771 -0.0922
 1126SOL    HW115011   1.583   1.753  12.193 -0.8662 -3.3350 -1.1218
 1126SOL    HW215012   1.516   1.655  12.280  0.2370  0.6298  0.4408
 1127SOL     OW15013   2.177   1.944   3.122 -0.5384  0.1854 -0.1453
 1127SOL    HW115014   2.200   1.883   3.192 -1.2223 -0.3570 -0.3987
 1127SOL    HW215015   2.253   2.002   3.130 -1.0178  0.9084 -0.7732
 1128SOL     OW15016   0.785   4.545  10.603  0.0333  0.3352 -0.2468
 1128SOL    HW115017   0.838   4.538  10.524 -1.5040 -3.1143 -0.9191
 1128SOL    HW215018   0.796   4.457  10.639 -1.2320  0.1080 -0.4338
 1129SOL     OW15019   1.843   2.427   8.677 -0.2637  0.0778 -0.0577
 1129SOL    HW115020   1.828   2.457   8.767  1.9743 -0.5684  0.5443
 1129SOL    HW215021   1.820   2.334   8.685  0.8643 -0.2944 -1.1157
 1130SOL     OW15022   2.517   4.164   1.068 -0.1193  0.5861 -0.2302
 1130SOL    HW115023   2.485   4.254   1.068  0.4548  0.7883  0.0438
 1130SOL    HW215024   2.453   4.126   1.127 -0.9837  1.3180 -0.7009
 1131SOL     OW15025   2.891   2.643   8.258 -0.6759 -0.4500  0.5030
 1131SOL    HW115026   2.878   2.640   8.163 -0.5735 -1.3046  0.5171
 1131SOL    HW215027   2.826   2.579   8.284 -2.9015  2.6359  2.4145
 1132SOL     OW15028   0.131   3.920   1.581 -0.7318  0.4387  0.0759
 1132SOL    HW115029   0.101   3.839   1.541  0.9328  0.3148 -0.9626
 1132SOL    HW215030   0.071   3.981   1.538 -1.8539 -2.1001 -1.9438
 1133SOL     OW15031   3.882   4.481  11.481  0.0123  0.7156 -0.2168
 1133SOL    HW115032   3.970   4.465  11.446  0.5485  1.5920  0.7244
 1133SOL    HW215033   3.850   4.541  11.414  2.4350 -0.2586 -2.2668
 1134SOL     OW15034   2.772   2.795   8.711 -0.3281  1.2194  0.6298
 1134SOL    HW115035   2.862   2.798   8.678 -1.2192 -0.1781 -1.9754
 1134SOL    HW215036   2.766   2.702   8.735 -1.5085  0.6186 -1.9345
 1135SOL     OW15037   2.174   0.072   8.688  0.2584  0.2803 -0.3906
 1135SOL    HW115038   2.102   0.056   8.628 -1.4542  0.0411  1.7410
 1135SOL    HW215039   2.240   0.071   8.618 -1.6923 -1.3843 -2.1770
 1136SOL     OW15040   3.484   2.210  12.716 -0.1015  0.2911  0.4750
 1136SOL    HW115041   3.574   2.180  12.700 -1.2267 -2.5122 -0.5006
 1136SOL    HW215042   3.455   2.150  12.785  1.7465 -2.4892 -1.1771
 1137SOL     OW15043   4.405   1.738   7.866 -0.0328  0.4162  0.1918
 1137SOL    HW115044   4.410   1.785   7.949  3.0778 -0.1028  0.2974
 1137SOL    HW215045   4.437   1.803   7.803  0.9093 -0.2269  0.0212
 1138SOL     OW15046   0.124   2.856   9.881  0.5459 -0.0881  0.8692
 1138SOL    HW115047   0.181   2.880   9.809 -2.3774  0.1488 -1.3536
 1138SOL    HW215048   0.090   2.940   9.913 -1.9772 -0.5422 -0.5817
 1139SOL     OW15049   2.977   0.878   5.860 -0.5088  0.0186  0.0086
 1139SOL    HW115050   2.916   0.852   5.791  0.4101 -0.3193 -0.6836
 1139SOL    HW215051   2.978   0.974   5.859 -0.4504  0.0368  1.4306
 1140SOL     OW15052   0.485   0.437   7.351  0.2835  0.3110 -0.2905
 1140SOL    HW115053   0.519   0.433   7.262 -3.4108 -1.4105 -1.5964
 1140SOL    HW215054   0.461   0.350   7.381 -0.0512  0.5601  0.1733
 1141SOL     OW15055   1.415   1.431  10.613  0.7331 -0.1062 -0.2771
 1141SOL    HW115056   1.442   1.457  10.701  1.0107  0.7503 -0.6054
 1141SOL    HW215057   1.320   1.422  10.618  0.5025  1.2485 -1.9288
 1142SOL     OW15058   0.197   1.939  16.288  0.4759  0.2917 -0.6920
 1142SOL    HW115059   0.280   1.892  16.284  0.2463 -0.0807 -1.0763
 1142SOL    HW215060   0.209   1.997  16.364 -3.2982  0.2411 -0.0432
 1143SOL     OW15061   4.451   3.886   6.037 -0.3486  0.4537 -0.8339
 1143SOL    HW115062   4.524   3.846   5.990  1.7089  1.0974  1.8565
 1143SOL    HW215063   4.500   3.918   6.112 -1.5146  1.4656 -0.5033
 1144SOL     OW15064   2.637   2.848   8.341  0.0902 -0.4748  0.0951
 1144SOL    HW115065   2.552   2.806   8.327  0.5645 -0.9233 -1.4516
 1144SOL    HW215066   2.707   2.792   8.306 -0.8235 -1.1624 -0.6760
 1145SOL     OW15067   4.533   4.340  12.543  0.6333 -0.3199 -0.3902
 1145SOL    HW115068   4.629   4.344  12.541  0.7438 -2.7236 -0.1176
 1145SOL    HW215069   4.515   4.419  12.594  1.2588 -2.2116  2.7689
 1146SOL     OW15070   3.079   4.482   6.632 -0.4337 -0.6086  0.1384
 1146SOL    HW115071   3.094   4.444   6.718 -0.6430 -1.3558 -0.1537
 1146SOL    HW215072   3.149   4.547   6.633 -1.9688  1.0827 -0.7882
 1147SOL     OW15073   4.244   4.277  13.929  0.5957  0.7961 -0.2410
 1147SOL    HW115074   4.292   4.359  13.939  0.0211  1.0499  0.4037
 1147SOL    HW215075   4.200   4.278  14.014  1.0652  1.6124 -0.0087
 1148SOL     OW15076   0.354   2.470   7.937 -0.6403  0.2095 -0.5262
 1148SOL    HW115077   0.367   2.455   7.844 -0.4643  1.4988 -0.7068
 1148SOL    HW215078   0.366   2.565   7.945  1.5574 -0.0934 -0.0512
 1149SOL     OW15079   3.572   3.349  15.612  0.1407  0.1175  0.6091
 1149SOL    HW115080   3.599   3.433  15.576 -0.8166 -0.2089 -0.8918
 1149SOL    HW215081   3.486   3.343  15.571  0.3862 -0.0410  0.1151
 1150SOL     OW15082   0.878   2.644   6.901  0.3758  0.1323  0.1002
 1150SOL    HW115083   0.824   2.664   6.978 -2.4706 -1.1630 -1.5675
 1150SOL    HW215084   0.963   2.687   6.914 -0.8020  1.2262  4.2655
 1151SOL     OW15085   3.313   0.290   7.436 -0.5944  0.0365  0.5009
 1151SOL    HW115086   3.398   0.333   7.426 -1.6074  2.1816  1.1176
 1151SOL    HW215087   3.251   0.344   7.388  2.4119  0.9938 -2.3449
 1152SOL     OW15088   2.790   2.265  13.769  0.1514  0.3970 -0.6328
 1152SOL    HW115089   2.821   2.354  13.754 -0.2275  1.0269  2.1544
 1152SOL    HW215090   2.781   2.271  13.865 -2.6617 -0.7663 -0.8409
 1153SOL     OW15091   3.238   4.076  14.518  0.3468 -0.1267 -0.4888
 1153SOL    HW115092   3.203   4.115  14.598 -1.0852 -1.6198 -0.3805
 1153SOL    HW215093   3.189   4.117  14.447  2.4377 -2.9507 -3.6063
 1154SOL     OW15094   1.146   3.829   3.448  0.3046  0.8571 -0.3271
 1154SOL    HW115095   1.105   3.804   3.531  0.8708  0.4153 -0.1778
 1154SOL    HW215096   1.213   3.763   3.429 -1.8251 -0.7519 -2.3262
 1155SOL     OW15097   1.374   0.154   0.979 -0.0527  0.2016  0.1675
 1155SOL    HW115098   1.435   0.224   1.001 -0.7781  0.6362  0.8148
 1155SOL    HW215099   1.303   0.211   0.950  0.5547  0.6900 -0.3469
 1156SOL     OW15100   0.305   3.905   7.610 -0.1130 -0.0978  0.0349
 1156SOL    HW115101   0.368   3.851   7.658 -2.5718 -1.0237  2.2266
 1156SOL    HW215102   0.253   3.834   7.572 -0.7366  0.4159 -0.0770
 1157SOL     OW15103   0.765   1.545  16.796  0.0246 -0.1608 -0.0533
 1157SOL    HW115104   0.810   1.622  16.831  1.3144 -0.4447 -1.0929
 1157SOL    HW215105   0.787   1.478  16.861  3.4723  2.3254  1.3368
 1158SOL     OW15106   1.113   0.584   2.257  0.0403  0.4779 -0.2672
 1158SOL    HW115107   1.128   0.669   2.296 -1.9552  0.5412  0.3637
 1158SOL    HW215108   1.199   0.543   2.266 -0.7925 -1.2818 -0.2841
 1159SOL     OW15109   2.767   2.264   3.394  0.1475 -0.4335 -0.3078
 1159SOL    HW115110   2.743   2.351   3.427 -3.3024 -1.4391 -0.1418
 1159SOL    HW215111   2.857   2.273   3.363  0.7015  1.2883  1.7915
 1160SOL     OW15112   1.502   1.400   4.975  0.4264 -0.1606 -0.4007
 1160SOL    HW115113   1.553   1.376   4.898  1.4079 -0.1536  0.2437
 1160SOL    HW215114   1.582   1.425   5.022 -1.2017 -0.1684  2.3830
 1161SOL     OW15115   1.434   4.180   7.573  0.1218  0.3192  0.0772
 1161SOL    HW115116   1.475   4.264   7.592  0.6398 -0.1549  1.0187
 1161SOL    HW215117   1.458   4.166   7.481 -0.7262  2.2255 -0.4337
 1162SOL     OW15118   1.765   3.459  10.547 -0.3592  0.4133  0.6112
 1162SOL    HW115119   1.847   3.483  10.504  0.3774  0.3084  1.9465
 1162SOL    HW215120   1.714   3.524  10.498 -0.9831 -2.4672 -2.5848
 1163SOL     OW15121   1.658   0.941   3.650 -0.3690  0.3162 -0.1963
 1163SOL    HW115122   1.729   0.970   3.594  0.0332  1.3259  0.8311
 1163SOL    HW215123   1.637   0.858   3.608  0.9535 -0.3234  0.4348
 1164SOL     OW15124   3.208   2.220   2.846 -0.2964  0.7089  0.7538
 1164SOL    HW115125   3.241   2.148   2.901 -1.2331  0.2153  0.6706
 1164SOL    HW215126   3.140   2.166   2.805  0.7747 -0.4595  0.5090
 1165SOL     OW15127   1.025   4.428   4.418 -0.0329 -0.5686  0.5136
 1165SOL    HW115128   0.984   4.440   4.504 -1.6946 -0.7008 -0.2553
 1165SOL    HW215129   1.117   4.444   4.439 -0.6034  1.2983  1.5809
 1166SOL     OW15130   2.991   3.649   3.049 -0.6834 -0.2824  0.4267
 1166SOL    HW115131   3.043   3.569   3.039 -0.5930 -0.1090 -0.4605
 1166SOL    HW215132   3.041   3.687   3.122  1.6432  0.8160 -1.7353
 1167SOL     OW15133   0.779   4.206   8.705  0.1057  0.4622  0.0766
 1167SOL    HW115134   0.729   4.140   8.752 -3.7465  3.3546 -0.0130
 1167SOL    HW215135   0.742   4.206   8.616 -1.6309 -0.6531  0.8082
 1168SOL     OW15136   1.647   0.163   5.456 -0.2704  0.1399 -0.2940
 1168SOL    HW115137   1.718   0.227   5.445  0.5545 -0.2210  2.9640
 1168SOL    HW215138   1.677   0.116   5.533  1.1566 -2.0095 -2.1694
 1169SOL     OW15139   0.442   3.347   5.583  0.0314 -0.8279  0.0673
 1169SOL    HW115140   0.359   3.320   5.544 -0.0608  0.2725 -0.4918
 1169SOL    HW215141   0.434   3.442   5.581  5.0997 -0.4150 -0.4294
 1170SOL     OW15142   0.441   0.329   3.676 -0.1573  0.0797 -0.4105
 1170SOL    HW115143   0.531   0.348   3.651 -0.9534  0.2788 -3.2369
 1170SOL    HW215144   0.406   0.310   3.588  0.2425 -0.3290 -0.4809
 1171SOL     OW15145   1.670   0.603   6.346  0.1930 -0.3194 -0.6849
 1171SOL    HW115146   1.754   0.648   6.353 -0.4503  1.0130 -1.5474
 1171SOL    HW215147   1.697   0.524   6.299 -0.7288  0.2730 -2.1995
 1172SOL     OW15148   0.488   4.159   1.046 -0.3806 -0.2514  0.0526
 1172SOL    HW115149   0.492   4.107   0.965  1.6205 -1.6821  1.0543
 1172SOL    HW215150   0.507   4.078   1.093 -1.1320 -0.5893 -0.2302
 1173SOL     OW15151   3.790   0.295   8.326 -0.6519  0.4610  0.3255
 1173SOL    HW115152   3.864   0.342   8.365 -0.5147 -0.5677  1.3037
 1173SOL    HW215153   3.814   0.287   8.233  2.4095  1.0744  1.0782
 1174SOL     OW15154   1.995   2.494   1.404 -0.1663 -0.0985 -0.2079
 1174SOL    HW115155   2.082   2.485   1.443  0.4366  0.6968 -1.3715
 1174SOL    HW215156   1.951   2.446   1.473  0.9761  0.7333  1.0890
 1175SOL     OW15157   2.716   1.349   6.995  0.4768  0.7684  0.0168
 1175SOL    HW115158   2.695   1.289   7.066  0.0928  1.7690  0.7535
 1175SOL    HW215159   2.659   1.314   6.927  1.7714 -0.7522 -0.2905
 1176SOL     OW15160   0.269   0.775  12.859 -0.3686 -0.6578  0.1418
 1176SOL    HW115161   0.207   0.848  12.861  0.1599 -0.2145  0.2784
 1176SOL    HW215162   0.319   0.795  12.780 -1.6694  0.1733 -0.4856
 1177SOL     OW15163   0.566   1.039   7.605 -0.4356  0.2072  0.3729
 1177SOL    HW115164   0.519   0.955   7.609  0.2584 -0.2245 -0.4819
 1177SOL    HW215165   0.654   1.014   7.631 -0.8033 -0.4767  0.9482
 1178SOL     OW15166   0.635   1.063   2.492  0.3057 -0.0007  0.4585
 1178SOL    HW115167   0.643   1.075   2.587 -1.2515  2.7214  0.2392
 1178SOL    HW215168   0.571   0.992   2.495  0.0456  0.2195  0.0454
 1179SOL     OW15169   0.964   1.552   3.914  0.6517  0.0272  0.0945
 1179SOL    HW115170   1.010   1.473   3.885 -2.7743 -1.6554 -0.8184
 1179SOL    HW215171   0.975   1.620   3.848 -0.7801 -0.4460 -0.6327
 1180SOL     OW15172   1.771   4.566   2.602 -0.4321 -0.0823 -0.1413
 1180SOL    HW115173   1.851   4.531   2.563 -0.4474  2.3132 -2.3041
 1180SOL    HW215174   1.806   4.597   2.686 -0.6954 -1.8576  0.6220
 1181SOL     OW15175   4.628   2.263   7.869 -0.2291 -0.4436 -0.1544
 1181SOL    HW115176   4.687   2.298   7.802 -0.3516 -0.3199 -0.1973
 1181SOL    HW215177   4.663   2.302   7.949  0.5477 -3.1304  0.8322
 1182SOL     OW15178   1.175   1.001   3.632  0.6036  0.2746 -0.9318
 1182SOL    HW115179   1.103   0.974   3.689 -0.0290  3.4802 -0.1959
 1182SOL    HW215180   1.179   1.095   3.646  0.6152  0.1290  0.0474
 1183SOL     OW15181   1.208   4.625  11.028  0.2362  0.4108  0.4668
 1183SOL    HW115182   1.182   4.698  10.972 -0.1100 -0.2577 -0.2404
 1183SOL    HW215183   1.131   4.568  11.029  2.4060 -2.5065  0.4711
 1184SOL     OW15184   3.772   2.692   4.246  0.1951 -0.0063  0.2326
 1184SOL    HW115185   3.867   2.686   4.256  0.1605  1.8296  1.5528
 1184SOL    HW215186   3.744   2.606   4.278  1.1515 -0.2056  0.5558
 1185SOL     OW15187   3.645   0.991   2.819  0.2981  0.1690 -0.4702
 1185SOL    HW115188   3.626   0.934   2.893 -1.4731 -1.0006 -1.8164
 1185SOL    HW215189   3.556   1.027   2.815  0.3490  0.4566  0.9105
 1186SOL     OW15190   2.152   2.154   6.080  0.9055 -0.2158  0.4181
 1186SOL    HW115191   2.093   2.141   6.006  1.0936  0.9612  0.0624
 1186SOL    HW215192   2.088   2.161   6.151 -1.3723  1.4539 -1.8039
 1187SOL     OW15193   0.499   0.719   5.707 -0.1964 -0.5560  0.2113
 1187SOL    HW115194   0.550   0.652   5.752 -0.6797 -1.3959 -0.5009
 1187SOL    HW215195   0.571   0.749   5.652 -1.1242  0.1263 -0.6206
 1188SOL     OW15196   3.042   2.650  10.071 -0.5677 -0.5395 -0.6471
 1188SOL    HW115197   3.050   2.726  10.129 -4.3411 -0.2989 -0.4596
 1188SOL    HW215198   3.055   2.695   9.988  0.6060  3.1160  1.5142
 1189SOL     OW15199   0.770   4.720   5.892 -0.1425  0.0903  0.1275
 1189SOL    HW115200   0.862   0.007   5.880  0.3198 -1.6974  0.0361
 1189SOL    HW215201   0.733   4.729   5.804  2.3885  1.3545 -0.8029
 1190SOL     OW15202   0.657   3.548   8.938 -0.2008 -0.3019  0.1568
 1190SOL    HW115203   0.601   3.605   8.885 -0.2289  0.0526  0.5644
 1190SOL    HW215204   0.729   3.549   8.873 -0.2693 -1.8626  0.0596
 1191SOL     OW15205   4.328   4.097   5.286 -0.2613  0.3479  0.3868
 1191SOL    HW115206   4.321   4.088   5.191  0.7238 -0.9544  0.4430
 1191SOL    HW215207   4.285   4.020   5.324  0.9105  0.1482  1.2782
 1192SOL     OW15208   4.073   2.141   1.410  0.3231  0.3849 -0.2490
 1192SOL    HW115209   4.049   2.097   1.492  0.4833  0.2951 -0.2489
 1192SOL    HW215210   4.031   2.082   1.348 -1.9754  3.5774 -1.6927
 1193SOL     OW15211   3.983   4.186   6.260  0.3190  0.2853  0.3800
 1193SOL    HW115212   4.030   4.103   6.263 -0.6462 -0.3241 -1.4593
 1193SOL    HW215213   4.050   4.243   6.298 -0.0972 -0.4041  2.1555
 1194SOL     OW15214   0.771   3.142   1.770 -0.2015  0.6868  0.7431
 1194SOL    HW115215   0.828   3.214   1.743 -0.0867  0.1495 -0.4560
 1194SOL    HW215216   0.771   3.082   1.695  0.1437  1.4427  0.1363
 1195SOL     OW15217   1.796   2.844   7.143  0.1350 -0.3108 -0.1032
 1195SOL    HW115218   1.718   2.883   7.103  0.0387 -0.4656 -0.0690
 1195SOL    HW215219   1.772   2.752   7.128 -0.8693 -0.1362  0.4482
 1196SOL     OW15220   3.922   1.642   4.628  0.0122 -0.2799  0.1275
 1196SOL    HW115221   3.980   1.633   4.704  2.5278 -0.3399 -1.8009
 1196SOL    HW215222   3.933   1.736   4.612 -3.3756  0.7449  3.8197
 1197SOL     OW15223   2.709   2.431   3.030  0.4470  0.0407  0.4061
 1197SOL    HW115224   2.779   2.495   3.014 -1.9306  2.0654 -1.7241
 1197SOL    HW215225   2.643   2.475   3.084  1.0674  1.3973  0.0544
 1198SOL     OW15226   1.635   3.705  10.136  0.2062 -0.3393 -0.6270
 1198SOL    HW115227   1.621   3.799  10.143  1.1411 -0.2781  0.3943
 1198SOL    HW215228   1.713   3.688  10.188  0.9665  2.7247 -0.8124
 1199SOL     OW15229   4.090   3.304   9.406 -0.3865 -0.5206 -0.3289
 1199SOL    HW115230   4.071   3.274   9.495  0.6038 -1.3004 -0.3843
 1199SOL    HW215231   4.009   3.351   9.385  0.9042  0.2669 -3.4932
 1200SOL     OW15232   1.138   3.157   4.487 -0.0743  0.4577 -0.3384
 1200SOL    HW115233   1.208   3.215   4.458  0.7633 -0.3186  0.1196
 1200SOL    HW215234   1.167   3.128   4.574 -0.1298 -0.8575 -0.7652
 1201SOL     OW15235   3.696   4.200   9.470  0.1511 -0.0689 -0.1653
 1201SOL    HW115236   3.674   4.125   9.415 -0.1413  0.4249 -0.7301
 1201SOL    HW215237   3.613   4.218   9.514  0.3937 -0.2822  0.3730
 1202SOL     OW15238   1.219   0.338   9.708  0.2063 -1.1428 -0.3977
 1202SOL    HW115239   1.157   0.280   9.751 -0.8613  1.8678  2.1774
 1202SOL    HW215240   1.292   0.277   9.709  1.1068 -0.0727  0.2195
 1203SOL     OW15241   0.881   2.975  15.096  0.3047  0.3554 -0.6306
 1203SOL    HW115242   0.832   2.900  15.063 -0.6069  0.5892  0.1701
 1203SOL    HW215243   0.875   3.037  15.023 -0.6243 -1.5010 -2.1144
 1204SOL     OW15244   1.284   1.491   5.234  0.2311  0.5409 -0.1918
 1204SOL    HW115245   1.322   1.435   5.302 -1.6601  0.8228  1.0807
 1204SOL    HW215246   1.218   1.432   5.198 -0.7109  0.5559  1.4914
 1205SOL     OW15247   4.609   1.536   3.755 -0.4367 -0.6561  0.0443
 1205SOL    HW115248   4.572   1.623   3.772  2.4004  0.5385  0.0786
 1205SOL    HW215249   4.677   1.553   3.690 -1.2439 -0.2031 -0.6838
 1206SOL     OW15250   4.436   3.589   8.665  0.0460 -0.2157  0.0846
 1206SOL    HW115251   4.363   3.536   8.697 -1.1401  0.2749 -1.8137
 1206SOL    HW215252   4.468   3.559   8.580  1.3885  3.4777 -0.7312
 1207SOL     OW15253   2.796   1.474   1.466 -0.0369  0.0585  0.2859
 1207SOL    HW115254   2.786   1.453   1.559 -0.2446 -0.4750  0.1473
 1207SOL    HW215255   2.855   1.401   1.442  0.3137  0.4037  0.0958
 1208SOL     OW15256   4.185   1.761   3.673 -0.3042 -0.4048 -0.1167
 1208SOL    HW115257   4.155   1.704   3.602 -0.2745 -1.5162  0.7619
 1208SOL    HW215258   4.107   1.814   3.682 -1.2255 -1.5403 -1.2874
 1209SOL     OW15259   3.777   3.564  16.279 -0.6030 -0.5143  0.0316
 1209SOL    HW115260   3.837   3.638  16.269  0.6964 -1.8080 -1.7404
 1209SOL    HW215261   3.691   3.607  16.273 -0.5352 -0.5767 -1.5471
 1210SOL     OW15262   1.626   3.463   6.622  0.2451 -0.3397  0.0396
 1210SOL    HW115263   1.658   3.513   6.547  1.4160 -1.7827 -0.4318
 1210SOL    HW215264   1.632   3.372   6.591  0.8638 -0.8907  1.7807
 1211SOL     OW15265   4.483   0.208   8.302 -0.2650 -0.4705 -0.8441
 1211SOL    HW115266   4.399   0.253   8.310  1.3948  2.5162  0.0290
 1211SOL    HW215267   4.549   0.276   8.284 -0.7251  0.8067  2.3318
 1212SOL     OW15268   3.547   0.928   5.103  0.2436  0.3784 -0.1392
 1212SOL    HW115269   3.599   0.868   5.157  1.3758  1.8663  0.4288
 1212SOL    HW215270   3.621   0.976   5.066 -1.4071  1.9505 -1.3867
 1213SOL     OW15271   3.027   3.607   6.048  0.3036  0.8177  0.5961
 1213SOL    HW115272   3.017   3.633   5.956 -1.2459 -3.4221 -0.3896
 1213SOL    HW215273   3.110   3.561   6.059 -0.2084 -0.0897  0.6015
 1214SOL     OW15274   4.493   0.275   4.117 -0.4091 -0.0655  0.0065
 1214SOL    HW115275   4.491   0.371   4.125 -0.5007 -0.1369  0.8834
 1214SOL    HW215276   4.545   0.271   4.037 -0.5198  2.1451 -0.1753
 1215SOL     OW15277   2.843   0.713   7.898 -0.6207  0.3888  0.1214
 1215SOL    HW115278   2.865   0.758   7.816 -0.6002  0.1606  0.0007
 1215SOL    HW215279   2.765   0.762   7.922  0.3240  1.3041  1.3391
 1216SOL     OW15280   2.274   4.121  11.935 -0.1820 -0.0202  0.2760
 1216SOL    HW115281   2.329   4.064  11.882 -1.4262 -0.5853 -0.4079
 1216SOL    HW215282   2.238   4.179  11.868 -0.5177  2.5673  2.7061
 1217SOL     OW15283   2.672   3.705   1.691 -0.0521 -0.1372  0.1607
 1217SOL    HW115284   2.593   3.712   1.637  0.3986 -0.1593 -0.5023
 1217SOL    HW215285   2.733   3.754   1.636  0.2655 -0.7688 -0.0548
 1218SOL     OW15286   1.222   2.404   6.642 -0.6325  0.5225  0.4275
 1218SOL    HW115287   1.199   2.438   6.555 -1.6407 -1.9410 -0.2803
 1218SOL    HW215288   1.313   2.393   6.615 -0.7551 -1.4542  0.8252
 1219SOL     OW15289   3.292   3.209   5.957 -0.0118 -0.0411  0.2193
 1219SOL    HW115290   3.254   3.280   6.010 -2.6601 -0.9374 -0.4927
 1219SOL    HW215291   3.382   3.213   5.989  0.1435 -0.7276 -0.1501
 1220SOL     OW15292   2.741   2.489  12.524 -0.0902  0.0013  0.4265
 1220SOL    HW115293   2.752   2.475  12.618 -0.3339 -2.6124  0.0707
 1220SOL    HW215294   2.714   2.400  12.502  3.6220 -0.9078 -0.4413
 1221SOL     OW15295   2.994   4.305   3.045  0.1829  0.5227  0.4640
 1221SOL    HW115296   3.045   4.266   3.116 -1.3509 -1.0027  0.7164
 1221SOL    HW215297   2.906   4.274   3.065  0.0069  0.5091 -0.3400
 1222SOL     OW15298   0.883   0.555   6.091 -0.1922  0.3119  0.0054
 1222SOL    HW115299   0.886   0.650   6.084 -2.0659  0.3019 -1.0221
 1222SOL    HW215300   0.793   0.539   6.120 -0.4449  0.3128 -0.7898
 1223SOL     OW15301   2.887   3.807   1.102  0.1961 -0.0700 -0.2116
 1223SOL    HW115302   2.853   3.890   1.068 -2.2770  0.3812  3.3301
 1223SOL    HW215303   2.956   3.786   1.039  0.6407 -0.8830  0.5350
 1224SOL     OW15304   1.548   2.943   0.569  0.3402  0.2127 -0.5853
 1224SOL    HW115305   1.612   2.990   0.514  0.8090  2.3578  1.8009
 1224SOL    HW215306   1.487   3.014   0.587 -1.0301 -1.5582  1.7242
 1225SOL     OW15307   2.844   4.147   3.737 -0.3115  0.3641  0.4464
 1225SOL    HW115308   2.763   4.191   3.763  0.1092  1.0705  0.5870
 1225SOL    HW215309   2.905   4.189   3.799 -0.9206  1.1783  0.4999
 1226SOL     OW15310   3.585   1.088   3.949 -0.1164  0.0027  0.2196
 1226SOL    HW115311   3.496   1.086   3.984  0.1706  0.1041  0.9333
 1226SOL    HW215312   3.570   1.138   3.868 -0.3027  2.5793  1.8675
 1227SOL     OW15313   0.983   0.290  11.479 -0.2053 -0.3958 -0.1525
 1227SOL    HW115314   0.894   0.326  11.483  0.4094  1.3238 -2.0510
 1227SOL    HW215315   1.023   0.332  11.555 -1.7034 -1.8334  1.4344
 1228SOL     OW15316   3.814   1.489   7.455  0.0921  0.3872 -0.6603
 1228SOL    HW115317   3.872   1.531   7.392  1.3798 -1.5244 -0.7498
 1228SOL    HW215318   3.726   1.499   7.420  0.3286  1.9551 -0.8006
 1229SOL     OW15319   1.445   0.293   1.303 -0.4608  0.2194  0.0545
 1229SOL    HW115320   1.428   0.275   1.395  0.7701  0.5920  0.3493
 1229SOL    HW215321   1.438   0.388   1.306  1.1288  0.4260 -2.1642
 1230SOL     OW15322   0.289   4.178   1.745 -0.6497  0.2734  0.1705
 1230SOL    HW115323   0.314   4.246   1.683  2.2276 -1.1983 -0.3095
 1230SOL    HW215324   0.338   4.111   1.698 -1.4990 -0.4232  0.2736
 1231SOL     OW15325   1.711   3.036   5.839 -0.2067 -0.2870  0.4519
 1231SOL    HW115326   1.628   3.082   5.824  0.4546  0.4693 -0.8392
 1231SOL    HW215327   1.693   2.961   5.782 -1.6438 -0.0168  0.5328
 1232SOL     OW15328   2.855   3.375   2.008 -0.0549  0.1937 -0.3447
 1232SOL    HW115329   2.783   3.436   1.990  1.6107  2.3079  0.1190
 1232SOL    HW215330   2.835   3.357   2.100 -0.5431  0.1203 -0.4634
 1233SOL     OW15331   2.908   1.470   8.945 -0.3400 -0.7622 -0.3676
 1233SOL    HW115332   2.940   1.385   8.975  0.3540  0.3475  2.0242
 1233SOL    HW215333   2.984   1.493   8.891 -0.6863  1.2352 -0.0225
 1234SOL     OW15334   0.248   2.277   6.013  0.0566 -0.6078 -0.3307
 1234SOL    HW115335   0.317   2.223   5.974  1.4746  1.9437 -1.3589
 1234SOL    HW215336   0.180   2.270   5.946  1.3132 -0.7273 -1.6022
 1235SOL     OW15337   2.126   3.964  17.490  0.5876 -0.3487 -0.0783
 1235SOL    HW115338   2.110   4.051  17.527 -1.5503 -0.8081  0.1165
 1235SOL    HW215339   2.067   3.956  17.414  0.2064  0.0534  0.1749
 1236SOL     OW15340   1.442   2.202   6.353 -0.0799 -0.6233  0.3817
 1236SOL    HW115341   1.347   2.207   6.359  0.0079  0.6914  0.5680
 1236SOL    HW215342   1.470   2.178   6.441 -0.3430  0.6317  0.8005
 1237SOL     OW15343   3.925   3.970  12.585  0.4105 -0.0852 -1.0895
 1237SOL    HW115344   3.893   3.886  12.554 -4.6943  1.4923 -0.0429
 1237SOL    HW215345   3.859   4.035  12.560 -1.2284 -0.6595  1.7223
 1238SOL     OW15346   2.506   2.113   4.592  1.0299 -0.3052 -0.3727
 1238SOL    HW115347   2.498   2.064   4.674 -0.4704 -1.5645 -1.2864
 1238SOL    HW215348   2.495   2.045   4.526 -0.3943 -0.1972 -0.2294
 1239SOL     OW15349   3.381   3.694   0.974  0.0519  0.2812 -0.2858
 1239SOL    HW115350   3.425   3.776   0.953  2.5502 -1.0459 -0.1725
 1239SOL    HW215351   3.348   3.712   1.062  1.3760  0.4084  0.1770
 1240SOL     OW15352   3.571   3.572   8.529  0.2166 -0.2404  0.0488
 1240SOL    HW115353   3.546   3.665   8.536  2.2609  0.1568  1.9876
 1240SOL    HW215354   3.666   3.577   8.515 -0.0651 -2.7096 -2.6825
 1241SOL     OW15355   0.259   4.466   3.454  0.0444  0.1652 -0.3593
 1241SOL    HW115356   0.209   4.489   3.376  1.8131 -2.6158 -2.3323
 1241SOL    HW215357   0.325   4.535   3.461  1.5871 -1.1291 -2.0972
 1242SOL     OW15358   2.100   3.749   2.804 -0.0908  0.1488 -0.2957
 1242SOL    HW115359   2.136   3.691   2.871 -1.0904 -1.4520 -1.1291
 1242SOL    HW215360   2.140   3.830   2.836  0.3603 -0.2443  0.1333
 1243SOL     OW15361   2.848   1.108   2.289 -0.3723 -0.0960  0.6081
 1243SOL    HW115362   2.770   1.058   2.314 -0.2126 -0.4707  0.3555
 1243SOL    HW215363   2.841   1.195   2.327 -0.9341  0.1836 -0.1407
 1244SOL     OW15364   1.020   0.397   1.174 -0.7053  0.2973  0.0256
 1244SOL    HW115365   0.992   0.437   1.257  0.7893  0.6598  0.3582
 1244SOL    HW215366   0.953   0.430   1.115 -1.0278 -0.0348  0.2081
 1245SOL     OW15367   3.365   0.886  14.429  0.4251 -0.4182 -0.1861
 1245SOL    HW115368   3.402   0.802  14.403  0.4793 -1.2218  2.5703
 1245SOL    HW215369   3.300   0.913  14.364  0.5553 -1.6883 -0.8324
 1246SOL     OW15370   2.016   4.593  14.115  0.3387 -0.0783  0.3819
 1246SOL    HW115371   2.078   4.562  14.049 -0.5626 -0.7219 -0.1716
 1246SOL    HW215372   2.075   4.620  14.186  1.0492  1.0352 -0.6390
 1247SOL     OW15373   1.665   0.728   2.717  0.7832  0.9334  0.6354
 1247SOL    HW115374   1.756   0.703   2.706  0.3167 -0.0580 -0.9870
 1247SOL    HW215375   1.657   0.727   2.812  0.0485 -0.4419  0.5616
 1248SOL     OW15376   2.801   4.506   4.644 -0.0408 -0.0463 -0.4446
 1248SOL    HW115377   2.744   4.533   4.572 -2.3395  1.5190  1.9872
 1248SOL    HW215378   2.760   4.528   4.727 -1.3069 -0.5242 -0.9522
 1249SOL     OW15379   3.405   3.526  16.411 -0.2985 -0.0125  0.1363
 1249SOL    HW115380   3.421   3.512  16.318 -0.5434  2.0184 -0.2181
 1249SOL    HW215381   3.326   3.581  16.407 -0.2468  0.0116 -0.5678
 1250SOL     OW15382   3.836   1.775   4.974  0.4923  0.6600  0.1878
 1250SOL    HW115383   3.883   1.835   4.917  0.0532  0.9423  0.1238
 1250SOL    HW215384   3.781   1.832   5.027 -0.9390 -0.2558 -0.2868
 1251SOL     OW15385   0.059   0.525  12.140  0.5549  0.1962  0.0454
 1251SOL    HW115386   4.729   0.538  12.207 -0.6772  2.0850 -1.5778
 1251SOL    HW215387   0.013   0.559  12.064 -0.7140  0.5964  1.0005
 1252SOL     OW15388   0.518   0.554   3.315  0.5020  0.6631  0.1579
 1252SOL    HW115389   0.589   0.548   3.378 -1.2776 -2.5505  1.8189
 1252SOL    HW215390   0.556   0.585   3.232  0.7026 -2.0207 -0.7307
 1253SOL     OW15391   0.158   1.047   2.490 -0.0344 -0.1815 -0.2301
 1253SOL    HW115392   0.147   0.958   2.457 -0.8095  0.0744 -0.6672
 1253SOL    HW215393   0.251   1.065   2.478  0.2151  0.1730  2.2185
 1254SOL     OW15394   4.341   1.331  11.681 -0.4381  0.3420  0.2944
 1254SOL    HW115395   4.407   1.280  11.728  1.2530  0.2094 -2.1629
 1254SOL    HW215396   4.400   1.380  11.623  1.1033 -1.3965  0.3739
 1255SOL     OW15397   0.268   4.695   4.659 -0.3681 -0.4742  0.1570
 1255SOL    HW115398   0.323   4.628   4.621 -0.6796 -0.5632 -0.1369
 1255SOL    HW215399   0.231   0.010   4.587 -1.3120  1.2155  1.8323
 1256SOL     OW15400   2.117   3.708   7.256  0.1258 -0.0300 -0.1431
 1256SOL    HW115401   2.107   3.795   7.294  0.6167 -0.9714  2.1561
 1256SOL    HW215402   2.126   3.730   7.163 -0.1889  1.9117  0.2858
 1257SOL     OW15403   1.696   4.714   4.899 -0.0956 -1.0359  0.0446
 1257SOL    HW115404   1.736   4.637   4.859 -0.5568 -0.7078 -1.0604
 1257SOL    HW215405   1.780   0.013   4.925 -0.0405 -0.3173 -1.1117
 1258SOL     OW15406   2.258   0.374   6.406 -0.3960 -0.9559  0.8849
 1258SOL    HW115407   2.319   0.439   6.442  0.2884 -0.0872 -1.7841
 1258SOL    HW215408   2.185   0.378   6.467 -0.0292  0.8462  1.2204
 1259SOL     OW15409   4.071   2.839   7.330  0.5242  0.0434 -0.1908
 1259SOL    HW115410   4.156   2.882   7.326  0.3867  0.1476 -1.8183
 1259SOL    HW215411   4.085   2.788   7.410  0.6199  0.0600 -0.1979
 1260SOL     OW15412   3.970   2.114   2.078  0.1056 -0.1238 -0.1668
 1260SOL    HW115413   3.941   2.200   2.047  0.4909 -0.3915 -1.2777
 1260SOL    HW215414   3.991   2.073   1.994  0.4596  2.0916 -1.1584
 1261SOL     OW15415   2.893   4.412   5.274 -0.1274  0.0984  0.5743
 1261SOL    HW115416   2.965   4.380   5.221  0.7359  2.1856  0.4738
 1261SOL    HW215417   2.919   4.498   5.309 -0.0388  0.3405 -0.0884
 1262SOL     OW15418   2.049   0.785   8.238  0.2290  0.0937  0.2130
 1262SOL    HW115419   2.034   0.739   8.155  0.8237 -1.6456  1.0706
 1262SOL    HW215420   2.001   0.868   8.240  1.1737  0.6396  0.3380
 1263SOL     OW15421   1.285   2.946   3.084  0.3435 -0.7117 -0.5737
 1263SOL    HW115422   1.284   2.880   3.153 -4.2849  0.1486  0.2243
 1263SOL    HW215423   1.346   2.906   3.022 -0.3942  0.5683 -2.1225
 1264SOL     OW15424   1.620   3.870   2.266  0.2500  0.1720 -0.4763
 1264SOL    HW115425   1.629   3.778   2.242  1.8942 -0.3379  2.1481
 1264SOL    HW215426   1.665   3.917   2.195 -0.4086  1.3830 -0.0825
 1265SOL     OW15427   1.336   1.569  14.502  0.4060 -0.0438  0.1104
 1265SOL    HW115428   1.312   1.496  14.559 -3.0404  1.3118  0.3814
 1265SOL    HW215429   1.302   1.538  14.418  2.4321  1.5476 -1.2874
 1266SOL     OW15430   1.769   4.411   0.668  0.1396  0.4354  0.1891
 1266SOL    HW115431   1.716   4.370   0.737  2.1812 -0.6112  1.1290
 1266SOL    HW215432   1.838   4.455   0.718  0.1560  2.1697 -1.3588
 1267SOL     OW15433   1.614   2.620  13.125  0.0736  0.1662  0.3043
 1267SOL    HW115434   1.702   2.631  13.160 -0.5025  0.9032  1.5293
 1267SOL    HW215435   1.626   2.536  13.082  1.0449 -0.4694  1.8294
 1268SOL     OW15436   3.592   3.995  12.431  0.1972 -0.4547  0.1743
 1268SOL    HW115437   3.655   4.059  12.463  2.8234 -3.8709  1.9114
 1268SOL    HW215438   3.638   3.913  12.448 -0.2500 -0.8526 -0.5033
 1269SOL     OW15439   3.997   2.826   2.143 -0.4638  0.1856  0.1669
 1269SOL    HW115440   4.069   2.878   2.107 -2.3463  1.3221 -1.9551
 1269SOL    HW215441   3.944   2.796   2.069  3.1089  0.6364 -2.6188
 1270SOL     OW15442   3.399   2.001  12.933  0.0207 -0.0021  0.0721
 1270SOL    HW115443   3.353   2.067  12.984  0.8510  1.2821 -0.8102
 1270SOL    HW215444   3.481   2.008  12.982  0.4252  1.8447 -0.8686
 1271SOL     OW15445   1.731   1.019   7.484  0.2502  0.6602 -0.1759
 1271SOL    HW115446   1.732   1.091   7.421  1.6348  0.8170  0.0322
 1271SOL    HW215447   1.813   1.031   7.533  0.0131  0.0379  0.3789
 1272SOL     OW15448   3.814   3.246  10.622  0.0436  0.2910  0.4781
 1272SOL    HW115449   3.812   3.176  10.687 -0.7942 -0.4929 -0.3935
 1272SOL    HW215450   3.728   3.224  10.586  0.9388 -1.8699 -0.2977
 1273SOL     OW15451   1.694   1.140   2.724  0.6631 -0.1304 -0.6264
 1273SOL    HW115452   1.720   1.213   2.780  0.5495 -2.0753  1.9431
 1273SOL    HW215453   1.776   1.090   2.723  0.7795  0.0617 -1.2614
 1274SOL     OW15454   1.351   4.453   1.352 -0.1307 -0.5035  0.2261
 1274SOL    HW115455   1.321   4.545   1.348 -1.3530 -0.8398  1.4782
 1274SOL    HW215456   1.339   4.437   1.446 -2.7392 -0.5058 -0.1099
 1275SOL     OW15457   2.128   2.817   6.495 -0.2483 -0.2272 -0.2891
 1275SOL    HW115458   2.216   2.791   6.468 -0.3258  1.6432 -2.4188
 1275SOL    HW215459   2.079   2.757   6.439 -1.4683  0.5199 -0.0308
 1276SOL     OW15460   1.206   0.840   2.347  0.0448 -0.0414 -0.7461
 1276SOL    HW115461   1.270   0.891   2.397  0.2507 -1.2554  0.2177
 1276SOL    HW215462   1.267   0.774   2.312 -0.3145 -0.3376 -0.8144
 1277SOL     OW15463   3.809   0.350   3.684 -0.2270  0.1706  0.1300
 1277SOL    HW115464   3.865   0.406   3.629  1.7884 -0.6380  1.3453
 1277SOL    HW215465   3.786   0.276   3.628  1.9813 -1.1918  1.0082
 1278SOL     OW15466   2.962   2.347   2.460 -0.1106 -0.4129  0.2416
 1278SOL    HW115467   2.946   2.252   2.456 -0.1460 -0.3657 -0.7574
 1278SOL    HW215468   2.973   2.364   2.553  2.6882 -1.2033  0.0508
 1279SOL     OW15469   1.862   3.322   7.989  0.0583 -0.4579  0.6940
 1279SOL    HW115470   1.942   3.295   8.034  0.0085 -2.2918 -0.3294
 1279SOL    HW215471   1.822   3.375   8.059 -2.8530 -1.1234 -0.4425
 1280SOL     OW15472   0.917   2.655  10.719 -0.0140  0.8179  0.7654
 1280SOL    HW115473   0.827   2.664  10.747 -0.3704  2.6976 -1.0366
 1280SOL    HW215474   0.927   2.743  10.682  2.1841  0.2009 -0.1789
 1281SOL     OW15475   2.090   2.098   7.535 -0.4412  0.0655  0.4383
 1281SOL    HW115476   2.127   2.012   7.555  0.0748  0.4563  1.1671
 1281SOL    HW215477   2.007   2.100   7.582  0.0662  0.5077  1.3077
 1282SOL     OW15478   4.328   3.581   5.630 -0.0982 -0.9793  0.3703
 1282SOL    HW115479   4.300   3.591   5.721 -0.3105  2.9084 -0.1059
 1282SOL    HW215480   4.258   3.526   5.595 -0.5944 -0.4483  0.5310
 1283SOL     OW15481   2.003   0.230   2.517 -0.0288 -0.3731 -0.2548
 1283SOL    HW115482   2.026   0.322   2.523 -0.4248 -0.2674 -0.3680
 1283SOL    HW215483   1.978   0.211   2.607 -0.6819  1.8953  0.0221
 1284SOL     OW15484   1.506   2.994   6.796 -0.4287  0.1499  0.4866
 1284SOL    HW115485   1.531   2.909   6.761  2.6928  0.6588  1.4811
 1284SOL    HW215486   1.493   3.031   6.709 -0.0881 -0.0702  0.3424
 1285SOL     OW15487   3.061   3.271   6.357 -0.4542  0.1178 -0.3337
 1285SOL    HW115488   3.071   3.194   6.413 -3.6134 -2.2610 -3.1324
 1285SOL    HW215489   3.097   3.230   6.279 -1.3719  0.9970 -1.2059
 1286SOL     OW15490   4.585   2.885   2.306  0.2777  0.2713 -0.2716
 1286SOL    HW115491   4.553   2.848   2.224 -4.1327  1.3089  0.9723
 1286SOL    HW215492   4.643   2.819   2.342 -0.7771 -1.4659 -1.7436
 1287SOL     OW15493   2.485   4.274   3.092  0.3760  0.1198  0.2206
 1287SOL    HW115494   2.397   4.305   3.070  1.3065  2.3480 -0.3505
 1287SOL    HW215495   2.513   4.222   3.017 -0.2260  0.3853 -0.1826
 1288SOL     OW15496   1.137   3.675   5.833 -0.2503 -0.1863  0.2206
 1288SOL    HW115497   1.113   3.586   5.809 -0.5167  0.2196 -1.0063
 1288SOL    HW215498   1.227   3.667   5.801 -0.1612 -1.2742  0.7583
 1289SOL     OW15499   2.485   4.173   5.668  0.3657 -0.3319 -0.5205
 1289SOL    HW115500   2.535   4.243   5.627  0.0989 -0.2170 -0.6517
 1289SOL    HW215501   2.528   4.105   5.615 -2.2515 -1.2794 -1.4657
 1290SOL     OW15502   1.338   1.914  12.431 -0.1954  0.1159  0.7140
 1290SOL    HW115503   1.386   1.836  12.403 -0.5874  0.5519 -1.1896
 1290SOL    HW215504   1.369   1.917  12.521 -0.6441 -1.6082  0.9378
 1291SOL     OW15505   0.263   1.369   8.852 -0.3857 -0.2520 -0.0518
 1291SOL    HW115506   0.210   1.303   8.897  0.1307  0.6325  1.8414
 1291SOL    HW215507   0.311   1.417   8.919 -1.7224  0.0002  0.7241
 1292SOL     OW15508   1.726   1.173   5.059 -0.0316 -0.1993 -0.0595
 1292SOL    HW115509   1.808   1.123   5.051 -0.8931 -1.7124  0.5578
 1292SOL    HW215510   1.755   1.264   5.049 -2.3141  0.5195  0.0131
 1293SOL     OW15511   4.094   3.941   6.328  0.4672 -0.2224 -0.2393
 1293SOL    HW115512   4.062   3.865   6.377 -1.1260  1.5636  1.4759
 1293SOL    HW215513   4.134   3.979   6.406 -1.5652 -0.0275  0.6994
 1294SOL     OW15514   4.412   1.925  16.627 -0.1052  0.7869 -0.0945
 1294SOL    HW115515   4.456   1.844  16.602  0.9404  0.9269  1.2574
 1294SOL    HW215516   4.474   1.991  16.597 -0.5698  1.5665  0.6575
 1295SOL     OW15517   1.382   3.988   2.357  0.1884 -0.0703  0.0204
 1295SOL    HW115518   1.316   4.002   2.289 -1.1933 -3.2982  0.7039
 1295SOL    HW215519   1.462   3.977   2.306  0.2165  1.5685 -0.3068
 1296SOL     OW15520   2.289   2.698  12.777  0.3277  0.0459  0.2205
 1296SOL    HW115521   2.223   2.677  12.710  1.4001 -0.6964 -0.5970
 1296SOL    HW215522   2.362   2.654  12.734 -0.8958 -1.2965 -0.4728
 1297SOL     OW15523   0.827   4.528   2.724  0.0938 -0.3264 -0.4606
 1297SOL    HW115524   0.839   4.617   2.758 -2.1912 -0.5712  0.9814
 1297SOL    HW215525   0.756   4.493   2.778 -1.7214  1.7214 -1.5096
 1298SOL     OW15526   2.458   4.536   7.482 -0.1507 -0.5839  0.5088
 1298SOL    HW115527   2.447   4.516   7.389  1.3176  1.0526 -0.0077
 1298SOL    HW215528   2.366   4.547   7.505 -0.2865 -1.0999  0.2346
 1299SOL     OW15529   0.913   2.815   1.448  0.5459  0.2912 -0.4772
 1299SOL    HW115530   0.896   2.763   1.527  3.6418  0.4435  0.2656
 1299SOL    HW215531   0.829   2.858   1.433  0.8581  0.8656 -0.5498
 1300SOL     OW15532   4.303   1.818   8.661 -0.1176  0.4950  0.3924
 1300SOL    HW115533   4.289   1.910   8.641  1.2590  0.6429  0.1149
 1300SOL    HW215534   4.340   1.783   8.580 -0.7887  0.7764 -0.0368
 1301SOL     OW15535   4.460   4.385   6.718  0.1929  0.0503 -0.2126
 1301SOL    HW115536   4.376   4.341   6.705 -0.9163  2.1611 -0.2738
 1301SOL    HW215537   4.511   4.320   6.670  2.6271  1.3647  0.5863
 1302SOL     OW15538   1.203   2.223  15.411 -0.7114  0.2791  0.4591
 1302SOL    HW115539   1.185   2.316  15.426 -3.0508  0.4644 -3.2478
 1302SOL    HW215540   1.115   2.187  15.424 -1.0521  1.2030  0.6933
 1303SOL     OW15541   0.092   2.748   5.189 -0.2641  0.1367 -0.5527
 1303SOL    HW115542   0.044   2.811   5.136 -3.4583 -0.5915  1.4917
 1303SOL    HW215543   0.139   2.696   5.125 -0.5830  0.0436 -0.7087
 1304SOL     OW15544   1.968   1.005   3.001 -0.1088 -0.1711  0.0806
 1304SOL    HW115545   1.984   0.915   3.028 -0.9613 -0.2656  0.2841
 1304SOL    HW215546   1.999   1.007   2.911  1.1745 -0.4160  0.5236
 1305SOL     OW15547   3.647   3.834   7.683  0.4872 -0.2113 -0.3550
 1305SOL    HW115548   3.697   3.777   7.624  0.5363 -0.5685  0.0316
 1305SOL    HW215549   3.627   3.768   7.749 -1.4238 -0.2783 -1.0133
 1306SOL     OW15550   2.969   1.304   0.972 -0.0599 -0.3464 -0.3260
 1306SOL    HW115551   3.040   1.263   1.020  1.1348  0.4573 -1.4249
 1306SOL    HW215552   2.952   1.382   1.025  2.6980  0.0182  0.0241
 1307SOL     OW15553   0.277   2.473   2.042 -0.3895  0.4853 -0.1596
 1307SOL    HW115554   0.254   2.404   2.104  2.9612 -0.1719  0.3083
 1307SOL    HW215555   0.199   2.478   1.986 -0.3174 -0.7676 -0.3607
 1308SOL     OW15556   1.502   2.438   6.137 -0.1513 -0.2635 -0.4299
 1308SOL    HW115557   1.483   2.348   6.165 -0.2065  0.2573  1.2016
 1308SOL    HW215558   1.594   2.426   6.113  0.0431 -1.0418  0.7280
 1309SOL     OW15559   0.471   0.678   8.886  0.0882  0.3043 -0.2905
 1309SOL    HW115560   0.423   0.759   8.868 -1.5086 -0.5037  0.3408
 1309SOL    HW215561   0.559   0.677   8.847  0.2023  0.8647 -0.0477
 1310SOL     OW15562   2.184   4.363   1.989  0.0548 -0.1597  0.0014
 1310SOL    HW115563   2.174   4.280   2.035 -1.4222  0.0707  0.0887
 1310SOL    HW215564   2.258   4.348   1.930  0.6712 -0.8939  0.9757
 1311SOL     OW15565   1.738   3.932   6.509 -0.1736 -0.0221  0.1720
 1311SOL    HW115566   1.728   3.996   6.439 -1.0020  1.5781  1.7498
 1311SOL    HW215567   1.765   3.980   6.588 -0.7952  4.1583 -2.1623
 1312SOL     OW15568   3.947   2.382   9.494 -0.1712  0.3640 -0.3610
 1312SOL    HW115569   4.026   2.330   9.509  0.3415  1.4827  0.8561
 1312SOL    HW215570   3.889   2.323   9.447  1.3904 -0.6744 -0.9853
 1313SOL     OW15571   0.716   3.495   2.721 -0.2206 -0.2287 -0.3253
 1313SOL    HW115572   0.811   3.499   2.707 -0.2254 -1.0229 -0.5837
 1313SOL    HW215573   0.683   3.490   2.631 -0.2024  3.1995 -0.5325
 1314SOL     OW15574   2.370   3.995   7.501 -0.2320  0.3628  0.0704
 1314SOL    HW115575   2.411   4.076   7.471 -0.9847 -0.1236 -2.2105
 1314SOL    HW215576   2.440   3.953   7.551 -0.8675  0.2885  0.9068
 1315SOL     OW15577   4.299   4.033   3.083  0.3596  0.8424  0.2843
 1315SOL    HW115578   4.241   4.102   3.049 -0.7918 -0.5582 -0.6089
 1315SOL    HW215579   4.246   3.956   3.065  0.7913  0.9087 -1.2053
 1316SOL     OW15580   0.470   2.155   2.609  0.7474 -0.3018 -0.3020
 1316SOL    HW115581   0.544   2.106   2.572 -0.7374 -0.0802 -3.5761
 1316SOL    HW215582   0.417   2.078   2.628 -0.0606  0.8157  1.9750
 1317SOL     OW15583   4.541   2.482   7.058 -0.4193 -0.3317 -0.1919
 1317SOL    HW115584   4.608   2.447   6.999 -1.1685  0.5682 -1.5890
 1317SOL    HW215585   4.476   2.412   7.049 -0.9281  0.1898 -0.5322
 1318SOL     OW15586   2.088   0.209   6.557 -0.2430 -0.2212 -0.3691
 1318SOL    HW115587   2.041   0.151   6.617 -1.2707  1.8759  0.8553
 1318SOL    HW215588   2.070   0.296   6.593  1.1298  0.0187 -0.2869
 1319SOL     OW15589   0.881   4.478  11.496 -0.7606  0.3985 -0.0614
 1319SOL    HW115590   0.862   4.571  11.509  0.4511  0.4412  1.4321
 1319SOL    HW215591   0.907   4.491  11.405  2.7320  1.4053  1.0973
 1320SOL     OW15592   0.812   1.339   8.837 -0.9207 -0.5775  0.0660
 1320SOL    HW115593   0.892   1.319   8.886  1.4477  2.6884 -2.5240
 1320SOL    HW215594   0.821   1.268   8.773 -1.6005 -1.3413  0.8151
 1321SOL     OW15595   2.527   4.712   1.846  0.0545  0.0980 -0.3080
 1321SOL    HW115596   2.616   4.695   1.879  0.5143  1.4814 -0.8254
 1321SOL    HW215597   2.527   0.068   1.825  0.3414  0.0239 -0.6368
 1322SOL     OW15598   0.243   2.835  13.006 -0.3987  0.2449 -0.2157
 1322SOL    HW115599   0.313   2.883  12.962 -2.2806  3.7228  0.5603
 1322SOL    HW215600   0.177   2.831  12.937 -0.9978  1.7651  0.2540
 1323SOL     OW15601   1.367   3.185  16.327  0.4176 -0.2089  0.0474
 1323SOL    HW115602   1.313   3.149  16.257  0.1068  1.0157 -0.3348
 1323SOL    HW215603   1.351   3.273  16.294 -0.4597 -0.6197 -0.6205
 1324SOL     OW15604   0.391   0.270   7.708 -0.1337  0.2791 -0.6471
 1324SOL    HW115605   0.437   0.229   7.635 -1.2365 -0.2985 -1.0231
 1324SOL    HW215606   0.360   0.347   7.660 -0.9214  1.0941  1.1388
 1325SOL     OW15607   2.492   3.180  15.340  0.0118 -0.6488 -0.3259
 1325SOL    HW115608   2.482   3.275  15.327  0.4027 -0.3221  1.7917
 1325SOL    HW215609   2.398   3.160  15.338  0.1073 -1.1612  0.6888
 1326SOL     OW15610   3.233   1.228   8.423  0.0266  0.6656 -0.3145
 1326SOL    HW115611   3.209   1.274   8.504  0.4696  1.2931 -0.5386
 1326SOL    HW215612   3.327   1.214   8.434 -0.1726 -0.7067 -0.3592
 1327SOL     OW15613   4.514   1.585  12.119  0.5263  0.3622  0.5787
 1327SOL    HW115614   4.568   1.560  12.194  0.0627  0.2209  0.8647
 1327SOL    HW215615   4.570   1.547  12.052 -0.3268 -3.2171  1.8578
 1328SOL     OW15616   2.015   3.804  12.134 -0.4841 -0.4110 -0.3145
 1328SOL    HW115617   1.978   3.886  12.166 -1.2696 -1.3988  1.3271
 1328SOL    HW215618   2.041   3.758  12.214  0.4762  0.9915  0.1763
 1329SOL     OW15619   3.015   2.621   7.279  0.0473 -0.1047 -0.3889
 1329SOL    HW115620   2.969   2.545   7.315  1.6533 -0.9386 -0.1087
 1329SOL    HW215621   2.953   2.690   7.302 -0.2995 -1.1208  1.6885
 1330SOL     OW15622   0.216   1.795   8.575 -0.6128 -0.8659 -0.8841
 1330SOL    HW115623   0.204   1.889   8.560  1.2996 -0.5304 -0.2869
 1330SOL    HW215624   0.256   1.772   8.659 -1.6965 -1.8655 -0.6443
 1331SOL     OW15625   3.835   1.932   9.208 -0.2227 -0.1521  0.5155
 1331SOL    HW115626   3.872   1.864   9.265 -0.0698 -0.3063  0.2323
 1331SOL    HW215627   3.747   1.926   9.243 -0.4532 -1.8512 -0.3343
 1332SOL     OW15628   2.403   3.943  11.243  0.2939 -0.3196  0.0506
 1332SOL    HW115629   2.466   3.905  11.304 -0.2276 -1.2903 -0.0095
 1332SOL    HW215630   2.336   3.874  11.235  1.3349 -1.2594 -0.6605
 1333SOL     OW15631   1.937   1.037   8.258  0.3980 -0.0255 -0.3355
 1333SOL    HW115632   1.993   1.113   8.274  0.9617 -0.6985  0.9140
 1333SOL    HW215633   1.853   1.075   8.283  0.2518  0.6559 -1.9057
 1334SOL     OW15634   3.386   3.792   4.613  0.5687  0.0520 -0.2209
 1334SOL    HW115635   3.332   3.853   4.563  1.6259 -0.2856 -1.7680
 1334SOL    HW215636   3.477   3.822   4.604 -0.0568  1.2082 -2.6235
 1335SOL     OW15637   2.743   3.513  11.154 -0.1313  0.7104  0.2584
 1335SOL    HW115638   2.770   3.590  11.103 -0.5942  0.8135  0.1713
 1335SOL    HW215639   2.697   3.554  11.227 -0.1242 -0.6811  1.0443
 1336SOL     OW15640   4.620   0.669   8.472  0.0679 -0.2354  0.1234
 1336SOL    HW115641   4.689   0.638   8.414  1.4909 -1.9332  2.7319
 1336SOL    HW215642   4.603   0.757   8.437  0.1615 -0.1749  0.2318
 1337SOL     OW15643   3.321   0.841   8.323  0.0840 -0.0393  0.4508
 1337SOL    HW115644   3.307   0.803   8.236  2.1746  0.5829 -0.1516
 1337SOL    HW215645   3.327   0.762   8.376 -0.9200  0.0745  0.7476
 1338SOL     OW15646   4.168   3.033   1.240  0.6644  0.1236 -0.1225
 1338SOL    HW115647   4.165   2.938   1.224  0.4992  0.0142  0.5616
 1338SOL    HW215648   4.101   3.054   1.175  0.0639  2.9672  1.4289
 1339SOL     OW15649   3.431   3.972  13.971  0.2065  0.3788  0.2679
 1339SOL    HW115650   3.366   4.042  13.980  2.0767  1.9823  1.1981
 1339SOL    HW215651   3.512   4.023  13.967  0.1922  0.4040  0.2975
 1340SOL     OW15652   3.987   4.338   7.832  0.0187 -0.0079 -0.2999
 1340SOL    HW115653   4.017   4.344   7.923 -1.9283  1.2504  0.2541
 1340SOL    HW215654   3.994   4.243   7.826 -2.3418 -0.2974  1.6607
 1341SOL     OW15655   2.792   4.091   5.341 -0.1003 -0.2965 -0.1382
 1341SOL    HW115656   2.818   4.109   5.250 -0.5150  1.8477  0.1692
 1341SOL    HW215657   2.794   4.174   5.388 -1.4191  0.8176 -2.0043
 1342SOL     OW15658   1.071   0.601   7.608 -0.0803 -0.3955  0.1294
 1342SOL    HW115659   1.116   0.557   7.680  1.4750 -1.3057 -1.4121
 1342SOL    HW215660   1.113   0.547   7.541 -1.0278  0.0255 -0.8190
 1343SOL     OW15661   3.024   4.293   0.688  0.3745  0.4832  0.1459
 1343SOL    HW115662   3.009   4.280   0.595 -2.2265 -0.4269  0.6767
 1343SOL    HW215663   2.982   4.212   0.717 -0.0932  0.6376 -0.0881
 1344SOL     OW15664   0.902   0.561   5.616  0.2235  0.1690 -0.2803
 1344SOL    HW115665   0.890   0.611   5.696 -0.5058 -0.9738  0.3197
 1344SOL    HW215666   0.980   0.605   5.583 -1.3338  2.3049 -1.0818
 1345SOL     OW15667   2.063   1.925   7.055 -0.0912  0.5125 -0.2775
 1345SOL    HW115668   1.970   1.947   7.045 -0.4404 -0.8920 -0.1642
 1345SOL    HW215669   2.089   1.973   7.134  1.0787 -1.1049  0.3178
 1346SOL     OW15670   4.346   3.730   7.153 -0.3339  0.0254 -0.3979
 1346SOL    HW115671   4.418   3.706   7.095 -0.5374  0.5896 -0.8872
 1346SOL    HW215672   4.377   3.721   7.243  0.8587  0.0766 -0.8153
 1347SOL     OW15673   4.373   0.607   5.240  0.1444 -0.1552  0.5670
 1347SOL    HW115674   4.392   0.654   5.321  0.7093  0.7239 -0.0828
 1347SOL    HW215675   4.277   0.601   5.239  0.0096  2.3244 -1.9998
 1348SOL     OW15676   0.036   3.810   2.431 -0.0688 -0.7913 -0.7034
 1348SOL    HW115677   4.707   3.816   2.500  0.7895 -1.5652  0.1867
 1348SOL    HW215678   0.000   3.868   2.364 -0.7206  0.3929  0.6807
 1349SOL     OW15679   4.618   3.321   3.337  0.0681 -0.2278 -0.1058
 1349SOL    HW115680   4.702   3.286   3.367  0.4858 -0.3612 -1.4493
 1349SOL    HW215681   4.623   3.413   3.364  0.8513 -0.3489  0.1604
 1350SOL     OW15682   0.192   0.866   4.235 -0.3793  0.4107 -0.4422
 1350SOL    HW115683   0.096   0.859   4.236 -0.3430 -0.4474 -2.5734
 1350SOL    HW215684   0.220   0.874   4.326  0.8884 -0.5239 -0.7475
 1351SOL     OW15685   3.425   4.162   7.817  0.5461  0.3800 -0.0701
 1351SOL    HW115686   3.356   4.178   7.882  0.5271 -0.3934  0.1001
 1351SOL    HW215687   3.400   4.223   7.748 -0.7269  1.8443  1.6830
 1352SOL     OW15688   1.734   2.254   7.656 -0.4316 -0.0680 -0.1487
 1352SOL    HW115689   1.726   2.343   7.620 -0.1751 -0.5082 -1.2845
 1352SOL    HW215690   1.731   2.203   7.575  0.2779 -0.0168 -0.2046
 1353SOL     OW15691   3.071   3.278   6.693 -0.1771 -0.4506 -0.1192
 1353SOL    HW115692   3.150   3.330   6.673  0.5144 -1.5840 -0.3421
 1353SOL    HW215693   3.117   3.196   6.712 -0.4681 -0.6724 -0.3742
 1354SOL     OW15694   4.492   0.411   6.044  0.8086  0.2848  0.1474
 1354SOL    HW115695   4.479   0.355   5.968 -3.9397  0.1493  1.0323
 1354SOL    HW215696   4.414   0.395   6.098  0.6905 -1.1393 -0.4570
 1355SOL     OW15697   2.357   0.035   5.694  0.2471  0.3684 -0.5993
 1355SOL    HW115698   2.312   4.690   5.713  0.2265  1.0345  2.1530
 1355SOL    HW215699   2.405   0.051   5.775  1.5152  0.0567 -1.2856
 1356SOL     OW15700   2.382   1.448   3.304 -0.0129  0.0360  0.5559
 1356SOL    HW115701   2.402   1.525   3.251 -1.4807  0.2475  0.2898
 1356SOL    HW215702   2.455   1.434   3.364  0.6117 -0.0881 -0.2514
 1357SOL     OW15703   2.959   1.246   4.066 -0.0135  0.1714 -0.2708
 1357SOL    HW115704   2.966   1.155   4.038  0.9470  0.2509 -0.2585
 1357SOL    HW215705   2.979   1.298   3.988  1.7354  2.1792  1.5321
 1358SOL     OW15706   4.005   2.497   3.011 -0.1035 -0.1701  0.2572
 1358SOL    HW115707   3.937   2.532   3.069  1.5724 -1.7009  3.1367
 1358SOL    HW215708   3.963   2.509   2.926  0.0423  0.7004  0.3063
 1359SOL     OW15709   2.124   0.251   7.261  0.0350  0.1975  0.3459
 1359SOL    HW115710   2.082   0.173   7.226  0.5221 -0.7371  1.8883
 1359SOL    HW215711   2.075   0.290   7.333  2.1230 -0.7827  2.2789
 1360SOL     OW15712   0.429   3.034   3.449 -0.2055 -0.0754  0.5758
 1360SOL    HW115713   0.362   2.999   3.390  0.6597 -0.0098 -0.4304
 1360SOL    HW215714   0.390   3.019   3.535  0.6841  0.7805  1.1214
 1361SOL     OW15715   1.020   1.927   9.503  0.7077 -0.1778 -0.6509
 1361SOL    HW115716   1.098   1.982   9.492  0.6357 -0.1641 -1.0851
 1361SOL    HW215717   0.993   1.921   9.411 -2.9377 -0.8486  0.4726
 1362SOL     OW15718   4.698   4.180   3.654 -0.2011  0.5245  0.1775
 1362SOL    HW115719   4.669   4.115   3.718  1.6480 -0.7530 -0.2650
 1362SOL    HW215720   0.056   4.175   3.663 -0.3550  0.5623  1.8015
 1363SOL     OW15721   1.823   1.484  12.088 -0.1934  0.0849  1.3450
 1363SOL    HW115722   1.832   1.561  12.032 -2.4994 -1.7365 -1.5093
 1363SOL    HW215723   1.732   1.496  12.115  0.1487  0.9706  2.1038
 1364SOL     OW15724   2.414   3.931   5.167 -0.4611 -0.2123 -0.2022
 1364SOL    HW115725   2.403   3.940   5.072  0.8625 -0.0576 -0.3455
 1364SOL    HW215726   2.505   3.901   5.162  0.3110  2.1491 -0.1240
 1365SOL     OW15727   4.002   1.685   8.155 -0.2532 -0.0192  0.2076
 1365SOL    HW115728   4.006   1.598   8.116  0.4196 -0.1297  0.5365
 1365SOL    HW215729   3.923   1.691   8.209 -0.4621 -2.2799  0.1166
 1366SOL     OW15730   0.690   3.636   1.899 -0.1868  0.1510 -0.4459
 1366SOL    HW115731   0.620   3.577   1.927 -1.0358  1.7526  0.8347
 1366SOL    HW215732   0.639   3.717   1.890 -2.3029 -1.0866  0.2913
 1367SOL     OW15733   3.385   0.683  12.036 -0.4367 -0.0930 -0.0206
 1367SOL    HW115734   3.364   0.725  11.953  0.6000  0.0686 -0.2057
 1367SOL    HW215735   3.467   0.644  12.004  0.0775 -0.6075  1.8800
 1368SOL     OW15736   1.418   3.440   5.042 -0.1448  0.3615  0.0284
 1368SOL    HW115737   1.379   3.467   5.125  0.5511 -1.0236  0.8070
 1368SOL    HW215738   1.347   3.397   4.994  0.0852  0.2635 -0.2223
 1369SOL     OW15739   0.587   1.567  11.961  0.7199  0.0047  0.2734
 1369SOL    HW115740   0.573   1.607  12.047 -0.6512  3.4543 -1.5580
 1369SOL    HW215741   0.653   1.498  11.974 -0.0705 -0.8060 -0.0244
 1370SOL     OW15742   0.915   3.603   5.082 -0.0879  0.2025  0.2806
 1370SOL    HW115743   0.995   3.639   5.120  0.2245  0.6193 -0.7755
 1370SOL    HW215744   0.893   3.538   5.149  1.6338  0.0203  0.6562
 1371SOL     OW15745   0.066   2.984   4.553 -0.4952  0.8004  0.6091
 1371SOL    HW115746   0.158   3.010   4.544 -0.4334  0.3037 -0.2043
 1371SOL    HW215747   0.032   3.018   4.471 -1.7755  0.3276  0.9445
 1372SOL     OW15748   1.417   1.163   8.936  0.7064 -0.0821  0.0324
 1372SOL    HW115749   1.505   1.139   8.963  0.4617 -3.0359 -1.7912
 1372SOL    HW215750   1.397   1.092   8.875  0.5707  0.7013 -0.8294
 1373SOL     OW15751   0.317   2.169   9.083  0.3489 -0.4880 -0.1137
 1373SOL    HW115752   0.395   2.156   9.029  0.4310 -0.9746  0.1199
 1373SOL    HW215753   0.315   2.265   9.087 -2.4260 -0.4925 -1.5097
 1374SOL     OW15754   2.034   0.778   2.271  0.2462 -0.1133 -0.5265
 1374SOL    HW115755   2.093   0.817   2.206 -0.5055 -0.8004 -1.6124
 1374SOL    HW215756   2.055   0.687   2.253 -0.2737 -0.0959 -1.2332
 1375SOL     OW15757   0.328   2.136  15.019  0.5106 -0.5032  0.0902
 1375SOL    HW115758   0.370   2.177  14.943  1.2806 -0.8890  0.3133
 1375SOL    HW215759   0.346   2.204  15.084 -1.3367  1.1461 -1.1219
 1376SOL     OW15760   0.444   1.416   5.603 -0.7301  0.2704  0.4132
 1376SOL    HW115761   0.385   1.347   5.571 -1.2312  0.2965  1.2570
 1376SOL    HW215762   0.396   1.430   5.685 -1.8592  3.2112 -0.7493
 1377SOL     OW15763   2.260   2.539  10.820 -0.1728 -0.3027  0.7109
 1377SOL    HW115764   2.337   2.570  10.867  1.3952 -0.8642 -1.4751
 1377SOL    HW215765   2.199   2.531  10.893 -1.8454  1.8299 -0.4720
 1378SOL     OW15766   3.652   4.666   6.897  0.2480 -0.5067  0.1488
 1378SOL    HW115767   3.714   4.684   6.968  0.7311 -0.7328 -0.2200
 1378SOL    HW215768   3.569   4.692   6.938  1.0546 -1.1664  2.2092
 1379SOL     OW15769   3.260   1.794   2.721  0.4068 -0.2501  0.2882
 1379SOL    HW115770   3.231   1.884   2.705  1.4714  0.5605  3.0153
 1379SOL    HW215771   3.321   1.779   2.648  1.1184 -2.9081  1.4405
 1380SOL     OW15772   2.520   1.488   4.366 -0.8165  0.2517  0.0727
 1380SOL    HW115773   2.615   1.480   4.365 -0.9963 -1.5914 -1.5803
 1380SOL    HW215774   2.506   1.557   4.302  1.4728  0.8401  0.2377
 1381SOL     OW15775   3.614   1.837   6.820  0.5069  0.6704 -0.1028
 1381SOL    HW115776   3.688   1.894   6.799  1.6216 -0.2756  1.3262
 1381SOL    HW215777   3.664   1.789   6.886 -0.2701  0.6814  0.4921
 1382SOL     OW15778   1.470   3.267   4.401  0.9594  1.4084 -0.3788
 1382SOL    HW115779   1.513   3.184   4.385 -1.1689  0.2448 -0.0977
 1382SOL    HW215780   1.428   3.285   4.317  1.2560  0.6771 -0.6789
 1383SOL     OW15781   4.258   0.089   5.763  0.5768 -0.1130 -0.0488
 1383SOL    HW115782   4.287   0.048   5.681 -3.4298 -2.6982 -0.1699
 1383SOL    HW215783   4.164   0.099   5.753  0.4966 -0.9614 -0.1614
 1384SOL     OW15784   2.970   0.945   0.607  0.6028 -0.3401  0.5661
 1384SOL    HW115785   2.994   0.858   0.639 -2.2893 -0.8070  1.4596
 1384SOL    HW215786   2.969   0.933   0.512 -0.7667 -0.7698  0.6340
 1385SOL     OW15787   2.774   0.097   3.381  0.5723 -0.6241  0.1342
 1385SOL    HW115788   2.801   0.012   3.345  0.0753 -0.5048 -0.5300
 1385SOL    HW215789   2.840   0.115   3.447 -0.6260 -3.1864  2.0378
 1386SOL     OW15790   4.592   1.586   2.598 -0.2280 -0.2876 -0.5782
 1386SOL    HW115791   4.661   1.614   2.659 -1.6720  1.5885  0.2137
 1386SOL    HW215792   4.543   1.519   2.646 -0.2127  1.3844  1.7711
 1387SOL     OW15793   3.245   0.227   7.729 -0.0821 -0.0782  0.1655
 1387SOL    HW115794   3.248   0.224   7.634  1.0092 -0.2313  0.2111
 1387SOL    HW215795   3.173   0.289   7.743  0.3430  0.4497 -0.0122
 1388SOL     OW15796   2.858   4.170   5.733  0.0363  0.1492  0.3016
 1388SOL    HW115797   2.778   4.201   5.691 -0.2388 -0.2914  0.4946
 1388SOL    HW215798   2.832   4.160   5.825 -0.3937 -0.8668  0.0721
 1389SOL     OW15799   2.761   2.547   3.418  0.1788 -0.0422  0.2155
 1389SOL    HW115800   2.720   2.556   3.505  1.5657  0.7278  0.7860
 1389SOL    HW215801   2.766   2.638   3.389 -0.1296  0.2493  1.0740
 1390SOL     OW15802   1.816   4.167   0.001 -0.1789 -0.2860  0.3514
 1390SOL    HW115803   1.902   4.133   0.028  0.2587  1.5199  1.2294
 1390SOL    HW215804   1.836   4.258  17.728 -1.4561  0.6435  3.2937
 1391SOL     OW15805   1.322   2.945   2.134 -0.1013 -0.2331 -0.0041
 1391SOL    HW115806   1.271   2.992   2.200 -2.9075 -1.3070 -1.3716
 1391SOL    HW215807   1.284   2.976   2.052  2.9921 -1.6968 -1.9689
 1392SOL     OW15808   3.665   2.781   4.965  0.2575  0.5439  0.3989
 1392SOL    HW115809   3.572   2.803   4.959  0.9014  2.8330 -1.0910
 1392SOL    HW215810   3.669   2.720   5.039  1.7962  0.2645  0.0783
 1393SOL     OW15811   0.344   3.095   6.149 -0.5215  0.0948  0.7242
 1393SOL    HW115812   0.401   3.092   6.225  0.5924 -0.4600 -0.1272
 1393SOL    HW215813   0.406   3.094   6.076 -1.4879  1.4255 -0.1023
 1394SOL     OW15814   1.271   3.603   0.950 -0.5805  0.5379  0.4388
 1394SOL    HW115815   1.357   3.644   0.962  1.2343 -2.8944 -0.7545
 1394SOL    HW215816   1.290   3.539   0.880 -1.1212  1.8429 -0.8983
 1395SOL     OW15817   0.785   2.891   0.128 -0.0048  0.2374 -0.4729
 1395SOL    HW115818   0.719   2.903   0.195  0.1727 -1.9338  0.0890
 1395SOL    HW215819   0.819   2.980   0.123  2.3930 -0.7839 -2.9167
 1396SOL     OW15820   0.684   3.643  11.399 -0.7755  0.1758 -0.4301
 1396SOL    HW115821   0.673   3.597  11.483 -0.4085  1.7167  0.4666
 1396SOL    HW215822   0.593   3.674  11.401 -0.9376 -0.2757 -1.2517
 1397SOL     OW15823   2.279   3.832  12.045 -0.5952  0.1096 -0.4434
 1397SOL    HW115824   2.197   3.839  12.093  0.0799  1.0702  0.5855
 1397SOL    HW215825   2.295   3.925  12.028 -2.1760  0.2510 -1.1976
 1398SOL     OW15826   1.705   4.226   2.461 -0.1506  0.2306 -0.5232
 1398SOL    HW115827   1.652   4.277   2.523  0.2649  0.3395 -0.2557
 1398SOL    HW215828   1.670   4.138   2.476  2.7990 -1.1589 -1.8189
 1399SOL     OW15829   4.375   2.360   4.313  0.0424 -0.1149 -0.2741
 1399SOL    HW115830   4.332   2.310   4.243 -3.3665  1.4182  0.7065
 1399SOL    HW215831   4.446   2.303   4.344 -1.2624 -1.6741 -0.1450
 1400SOL     OW15832   2.126   4.510   3.200  0.3681 -0.0279  0.0852
 1400SOL    HW115833   2.147   4.593   3.157 -2.3430  0.8057  0.4049
 1400SOL    HW215834   2.161   4.443   3.141  0.0235 -1.2376  1.2480
 1401SOL     OW15835   4.293   2.280   9.195 -0.2026 -0.1890 -0.2259
 1401SOL    HW115836   4.376   2.322   9.216  0.6674 -0.7939 -2.4713
 1401SOL    HW215837   4.296   2.205   9.254  3.0349 -1.4424 -1.9604
 1402SOL     OW15838   0.792   3.519   7.527  0.1186 -0.1731 -0.6799
 1402SOL    HW115839   0.885   3.542   7.516  0.4592 -0.5974  1.3964
 1402SOL    HW215840   0.804   3.438   7.477 -1.6363  0.2578 -1.8063
 1403SOL     OW15841   1.114   0.731   1.916 -0.1198 -0.0701 -0.4485
 1403SOL    HW115842   1.023   0.702   1.926 -0.9996  2.5238 -0.7392
 1403SOL    HW215843   1.135   0.790   1.988 -0.2401 -1.0014  0.3441
 1404SOL     OW15844   0.707   4.184   3.122  0.0453 -0.8042  0.1891
 1404SOL    HW115845   0.753   4.252   3.172 -1.7557  1.0792 -0.7198
 1404SOL    HW215846   0.619   4.200   3.155  0.5375  0.8037  0.7403
 1405SOL     OW15847   2.086   3.600   7.943 -0.3922 -0.4941  0.2598
 1405SOL    HW115848   2.065   3.591   8.035 -1.8104 -0.7137 -0.0950
 1405SOL    HW215849   2.060   3.690   7.925  0.0766 -0.2288  0.8942
 1406SOL     OW15850   3.697   2.426   4.279  0.1945  0.4601 -0.0092
 1406SOL    HW115851   3.675   2.334   4.264 -2.2823  1.0000  0.3414
 1406SOL    HW215852   3.620   2.457   4.326 -0.1374  1.6800 -1.3515
 1407SOL     OW15853   2.045   2.482   7.701 -0.0805 -0.0122 -0.2076
 1407SOL    HW115854   2.100   2.420   7.748 -0.6260 -2.0402 -2.2457
 1407SOL    HW215855   2.055   2.552   7.766 -0.1408  0.3968 -0.6406
 1408SOL     OW15856   2.328   0.288   5.957 -0.0661 -0.2374 -0.3915
 1408SOL    HW115857   2.391   0.359   5.962  0.0605 -0.4569  1.3196
 1408SOL    HW215858   2.369   0.202   5.957  0.2706 -0.0766  0.0823
 1409SOL     OW15859   2.581   1.410  17.608 -0.3890  0.0201 -0.0229
 1409SOL    HW115860   2.654   1.363  17.568  0.8145  1.8303  0.0639
 1409SOL    HW215861   2.517   1.403  17.537  0.0386 -1.1005 -0.2950
 1410SOL     OW15862   4.523   2.369   2.677  0.1108 -0.1922  0.1713
 1410SOL    HW115863   4.457   2.389   2.743 -1.6651 -1.3256 -1.2571
 1410SOL    HW215864   4.457   2.358   2.608 -1.0925  1.3684  1.0579
 1411SOL     OW15865   0.525   3.039   8.814 -0.3122 -0.0912  0.2036
 1411SOL    HW115866   0.457   3.096   8.778 -0.0965 -0.2023 -0.3745
 1411SOL    HW215867   0.572   3.107   8.862 -1.7596  1.0324  0.0279
 1412SOL     OW15868   3.217   0.268   3.960 -0.0441 -0.8727 -0.3597
 1412SOL    HW115869   3.165   0.284   4.039 -0.3828  0.4342 -0.8452
 1412SOL    HW215870   3.274   0.197   3.990 -2.3728 -1.9355  1.5692
 1413SOL     OW15871   1.044   4.470  12.647 -0.1217  0.2602  0.2630
 1413SOL    HW115872   1.006   4.519  12.721  1.2902  2.8171 -0.7366
 1413SOL    HW215873   1.132   4.449  12.679 -0.0022  2.0577  1.1068
 1414SOL     OW15874   2.804   2.502  14.819  0.1611 -0.1118 -0.4101
 1414SOL    HW115875   2.836   2.544  14.899  0.1571  1.8160 -1.4011
 1414SOL    HW215876   2.784   2.579  14.765  1.8933 -0.7370 -1.9294
 1415SOL     OW15877   2.017   0.820  12.522 -0.2993  0.6038  0.7567
 1415SOL    HW115878   1.968   0.821  12.440  0.6115  1.9112  0.2312
 1415SOL    HW215879   2.052   0.731  12.515  1.5142  1.3456  0.5773
 1416SOL     OW15880   3.938   3.027   1.125 -0.2661  0.1098  0.0022
 1416SOL    HW115881   3.862   2.985   1.083  0.2146 -0.8610  0.1002
 1416SOL    HW215882   3.906   3.018   1.215 -1.3590  2.3806 -0.1574
 1417SOL     OW15883   1.284   2.205   2.611  0.7601  0.5304 -0.1939
 1417SOL    HW115884   1.247   2.243   2.531  1.6987 -0.7557 -1.2215
 1417SOL    HW215885   1.318   2.123   2.576 -1.3423 -0.5205  0.2660
 1418SOL     OW15886   0.551   0.150  16.542 -0.3083  0.3208  0.2393
 1418SOL    HW115887   0.546   0.093  16.465  1.2113 -1.4236  1.4196
 1418SOL    HW215888   0.459   0.161  16.566 -0.0419 -1.4588  2.1168
 1419SOL     OW15889   4.023   3.607   5.747  0.4346  0.5600 -0.2106
 1419SOL    HW115890   3.960   3.595   5.818  2.5945  0.0081  1.6091
 1419SOL    HW215891   4.096   3.645   5.795  0.6843  1.1150 -1.0501
 1420SOL     OW15892   3.068   0.239   5.832 -0.2375 -0.7940 -0.7159
 1420SOL    HW115893   3.055   0.305   5.899 -1.8858 -1.3789 -0.4544
 1420SOL    HW215894   3.140   0.190   5.872 -1.0772 -1.1268  0.3991
 1421SOL     OW15895   4.174   0.563   8.999  0.7520  0.2745  0.4673
 1421SOL    HW115896   4.111   0.613   8.946 -0.9034 -1.9095  0.3855
 1421SOL    HW215897   4.252   0.591   8.952 -0.2194  0.5428 -1.0001
 1422SOL     OW15898   3.122   4.238   4.860  0.2442 -0.6253  0.2940
 1422SOL    HW115899   3.075   4.162   4.826  0.1604 -0.1442 -0.6608
 1422SOL    HW215900   3.210   4.202   4.847 -0.7498 -2.5988 -0.9610
 1423SOL     OW15901   4.215   4.298  10.418  0.7825  0.5040  0.7390
 1423SOL    HW115902   4.184   4.298  10.508  2.2347 -0.2149  1.2469
 1423SOL    HW215903   4.143   4.334  10.366 -0.5400 -1.3599  1.2726
 1424SOL     OW15904   1.579   4.078  15.982  0.0009  0.3602 -0.2204
 1424SOL    HW115905   1.583   3.995  16.029  1.2236  0.9612  0.7149
 1424SOL    HW215906   1.611   4.061  15.893  0.4619  1.9112 -0.3532
 1425SOL     OW15907   4.466   4.012  14.669  0.0766  0.4304 -0.7350
 1425SOL    HW115908   4.393   3.983  14.614  0.9561 -0.4672 -1.4212
 1425SOL    HW215909   4.415   4.024  14.750  2.9721  1.2039  0.9653
 1426SOL     OW15910   2.635   3.528   2.815 -0.0509 -0.3315 -0.0942
 1426SOL    HW115911   2.610   3.612   2.778 -1.1589 -0.1462  1.0605
 1426SOL    HW215912   2.632   3.471   2.739 -0.1231  1.3861 -1.3762
 1427SOL     OW15913   1.798   2.376  16.844  0.0620  0.1680 -0.3552
 1427SOL    HW115914   1.716   2.381  16.893  1.3688  1.1671  1.7240
 1427SOL    HW215915   1.782   2.298  16.790 -0.5745 -0.6273  0.9876
 1428SOL     OW15916   4.595   4.279   5.908 -0.1483  0.9287 -0.2119
 1428SOL    HW115917   4.583   4.210   5.843  1.3232  1.3830 -0.9768
 1428SOL    HW215918   4.591   4.357   5.853  0.3288  1.9189  1.1671
 1429SOL     OW15919   4.271   3.833   2.364  0.3547  0.4107  0.5103
 1429SOL    HW115920   4.283   3.822   2.269  0.0807  0.6906  0.4418
 1429SOL    HW215921   4.320   3.755   2.389  0.3400 -0.1186 -1.0942
 1430SOL     OW15922   1.105   0.414   2.763  0.2066 -0.4336  0.0979
 1430SOL    HW115923   1.047   0.476   2.719 -1.0154 -1.1697  0.6647
 1430SOL    HW215924   1.042   0.364   2.814  0.6320 -3.2572 -2.0981
 1431SOL     OW15925   1.177   2.442   9.396  0.0071 -0.4002  0.5213
 1431SOL    HW115926   1.272   2.457   9.401  0.2822 -2.5384  1.8709
 1431SOL    HW215927   1.149   2.465   9.485  4.2797 -0.5407  1.9062
 1432SOL     OW15928   0.113   3.925   8.407 -0.1705 -0.4495 -0.6908
 1432SOL    HW115929   0.207   3.910   8.417  0.2380  2.5887 -0.1713
 1432SOL    HW215930   0.097   3.952   8.498  0.0097 -0.6030 -0.6126
 1433SOL     OW15931   1.718   2.827  12.945  0.1003  0.3588 -0.0510
 1433SOL    HW115932   1.682   2.749  12.987  0.6652 -0.1978 -0.5878
 1433SOL    HW215933   1.755   2.795  12.863 -1.4465 -2.7973  0.4700
 1434SOL     OW15934   3.551   3.864  11.005  0.5760 -0.0665  0.4294
 1434SOL    HW115935   3.574   3.895  11.093 -2.2418  1.3634  0.6886
 1434SOL    HW215936   3.472   3.915  10.988  0.2481 -0.3942  0.9599
 1435SOL     OW15937   3.688   1.004   8.445  0.1421  0.2601 -0.2442
 1435SOL    HW115938   3.729   1.060   8.379  1.6475 -1.0259 -0.3816
 1435SOL    HW215939   3.703   0.917   8.409  0.2365 -0.0518  0.5531
 1436SOL     OW15940   1.988   3.976   0.970 -0.0601 -0.0761  0.3972
 1436SOL    HW115941   1.906   3.961   1.017 -0.8862 -1.5988 -1.5424
 1436SOL    HW215942   1.954   3.981   0.881  2.3050  1.2787 -0.4424
 1437SOL     OW15943   2.898   3.988  16.640 -0.2133 -0.1611 -0.0239
 1437SOL    HW115944   2.822   3.954  16.593 -1.4120  0.8009  1.2242
 1437SOL    HW215945   2.886   3.944  16.724  0.2184 -0.2231  0.0102
 1438SOL     OW15946   2.747   1.853  15.832  0.0978 -0.5894 -0.2096
 1438SOL    HW115947   2.771   1.774  15.784  1.1711  0.1614 -0.9184
 1438SOL    HW215948   2.817   1.849  15.898  0.9327  0.1687 -1.0464
 1439SOL     OW15949   2.545   2.738   0.001  0.7821 -0.1841 -0.2679
 1439SOL    HW115950   2.599   2.700   0.070 -0.5299 -0.5171  0.5615
 1439SOL    HW215951   2.456   2.712   0.025  1.0570 -0.0197  0.9168
 1440SOL     OW15952   1.159   2.634   2.030  0.7700 -0.4918  0.7355
 1440SOL    HW115953   1.140   2.540   2.029 -0.2645 -0.2768  0.3412
 1440SOL    HW215954   1.111   2.662   2.108  0.2925  1.4005 -0.2322
 1441SOL     OW15955   3.900   0.999   8.125 -0.3331  0.2455 -0.5493
 1441SOL    HW115956   3.901   1.059   8.050  4.3646 -0.4926 -1.0726
 1441SOL    HW215957   3.986   0.958   8.128 -0.1432  0.5627 -1.4554
 1442SOL     OW15958   3.535   1.024   2.373 -0.3847 -0.3765  0.3571
 1442SOL    HW115959   3.464   1.005   2.311  1.4210  0.2296 -1.8622
 1442SOL    HW215960   3.567   1.111   2.350  1.6969 -1.3003 -0.1942
 1443SOL     OW15961   4.343   2.032   3.069  0.1152 -0.0153  0.1026
 1443SOL    HW115962   4.331   1.938   3.085 -2.4841  0.4912  1.1549
 1443SOL    HW215963   4.251   2.054   3.082 -0.4623 -2.6190  0.4451
 1444SOL     OW15964   3.768   0.491   9.705  0.2251  0.4384  0.0898
 1444SOL    HW115965   3.672   0.491   9.702  0.2358  0.9406 -0.2689
 1444SOL    HW215966   3.770   0.566   9.765  2.0497  0.9909 -0.6706
 1445SOL     OW15967   3.137   2.521   5.949 -0.0339 -0.4103 -0.6323
 1445SOL    HW115968   3.098   2.582   6.012 -0.0393 -1.0871  0.0278
 1445SOL    HW215969   3.156   2.579   5.876 -1.0593  0.3160 -0.3188
 1446SOL     OW15970   2.000   2.473   8.450 -0.4333  0.3230  0.8932
 1446SOL    HW115971   1.956   2.468   8.534  0.6040 -4.0988  1.1770
 1446SOL    HW215972   2.055   2.395   8.459  0.0219  0.5370  0.0033
 1447SOL     OW15973   2.641   0.435   4.629  0.5557  0.3828  0.2184
 1447SOL    HW115974   2.552   0.459   4.603  0.6686  1.1368  0.5231
 1447SOL    HW215975   2.623   0.366   4.694 -1.5688  2.3149  1.6556
 1448SOL     OW15976   2.810   3.028   0.724  0.3875  0.2435  0.1162
 1448SOL    HW115977   2.864   2.952   0.702 -0.1441  0.9347 -3.6152
 1448SOL    HW215978   2.853   3.059   0.804  1.0213 -0.6385  0.1098
 1449SOL     OW15979   3.315   1.133   6.639  0.2428 -0.3662 -0.1979
 1449SOL    HW115980   3.378   1.143   6.710  2.0082  2.1312 -2.0970
 1449SOL    HW215981   3.262   1.210   6.657  1.3637  0.3151  0.1923
 1450SOL     OW15982   3.373   4.371   3.042  0.0207  0.2356  0.1589
 1450SOL    HW115983   3.317   4.431   2.992  0.3175 -0.0661 -0.5352
 1450SOL    HW215984   3.322   4.372   3.123 -0.1843 -2.5496  0.0553
 1451SOL     OW15985   1.625   2.281   5.461 -0.2875 -0.3382 -0.0062
 1451SOL    HW115986   1.676   2.339   5.518 -0.5808 -2.1038  2.0686
 1451SOL    HW215987   1.553   2.265   5.522 -0.3015  0.4841  0.1954
 1452SOL     OW15988   3.165   0.458   3.502 -0.0025 -0.3186  0.2570
 1452SOL    HW115989   3.227   0.390   3.530 -0.0143  0.3510  1.8724
 1452SOL    HW215990   3.135   0.418   3.420 -1.8036 -0.7250  1.1228
 1453SOL     OW15991   2.047   3.333  10.477 -0.3038  0.8547  0.0298
 1453SOL    HW115992   2.066   3.400  10.543  0.4313  0.1665  0.5275
 1453SOL    HW215993   2.137   3.301  10.472 -1.3066 -2.2876  1.9010
 1454SOL     OW15994   2.240   2.472   1.498 -0.7075 -0.1174 -0.0471
 1454SOL    HW115995   2.308   2.525   1.540  0.8287 -0.5348 -2.0160
 1454SOL    HW215996   2.249   2.391   1.549  0.9524 -2.5875 -4.2843
 1455SOL     OW15997   3.130   1.591   8.787  0.6633 -0.4765  0.1122
 1455SOL    HW115998   3.111   1.680   8.755 -0.1642 -0.8768 -0.5161
 1455SOL    HW215999   3.208   1.614   8.837  0.6009 -0.2130  0.0931
 1456SOL     OW16000   2.747   2.307  14.044  0.4718 -0.6088  0.2240
 1456SOL    HW116001   2.704   2.236  14.093 -3.2452  1.3979 -0.1481
 1456SOL    HW216002   2.713   2.385  14.087  0.3151  0.4252 -1.7689
 1457SOL     OW16003   4.697   2.733   2.620  0.0463  0.1145 -0.0337
 1457SOL    HW116004   4.622   2.724   2.560  1.8753 -2.3915 -1.9382
 1457SOL    HW216005   0.021   2.664   2.599 -1.4096 -1.1698 -0.0618
 1458SOL     OW16006   1.760   1.755   5.062  0.2268  0.3564  0.1290
 1458SOL    HW116007   1.809   1.790   5.136  0.8247 -0.7614  0.2535
 1458SOL    HW216008   1.668   1.758   5.090 -0.5099  0.0159 -2.1876
 1459SOL     OW16009   3.238   1.016   9.547 -0.8167  0.5247  0.0439
 1459SOL    HW116010   3.259   0.941   9.492 -1.1280 -1.1196  2.1627
 1459SOL    HW216011   3.147   1.001   9.574 -0.8215  1.1352  0.3747
 1460SOL     OW16012   3.269   2.769   0.276 -0.1015  0.8093 -0.2127
 1460SOL    HW116013   3.338   2.817   0.321 -2.5238  1.5027  2.7994
 1460SOL    HW216014   3.328   2.701   0.246  3.2958  4.2471 -1.3780
 1461SOL     OW16015   2.844   2.637   2.614  0.5893 -0.3757 -0.2596
 1461SOL    HW116016   2.858   2.551   2.654 -2.1317 -1.6972 -2.1249
 1461SOL    HW216017   2.750   2.652   2.629  0.9225  1.3972  0.0664
 1462SOL     OW16018   4.109   0.539   3.836  0.3342  0.0577  0.3242
 1462SOL    HW116019   4.199   0.572   3.835  0.4908 -0.3767  0.3156
 1462SOL    HW216020   4.124   0.456   3.792  0.3077  0.3317 -0.1960
 1463SOL     OW16021   0.281   2.453   9.090  0.0441  0.6537  0.3248
 1463SOL    HW116022   0.193   2.489   9.103  0.7842  1.8472  1.9898
 1463SOL    HW216023   0.285   2.502   9.007 -1.1337  0.3963  0.1137
 1464SOL     OW16024   0.473   0.624   5.021 -0.1013 -0.6789 -0.2222
 1464SOL    HW116025   0.386   0.617   4.981 -0.3167  0.8652  0.0077
 1464SOL    HW216026   0.527   0.575   4.959 -0.2631 -0.1683 -0.7698
 1465SOL     OW16027   2.092   3.160   9.167  0.0599  0.0539  0.6917
 1465SOL    HW116028   2.123   3.100   9.234 -2.0679 -1.7458  0.0447
 1465SOL    HW216029   2.122   3.240   9.210 -0.8681  1.4003 -1.1648
 1466SOL     OW16030   0.914   2.084   4.362  0.1995 -0.1550 -0.0255
 1466SOL    HW116031   0.904   2.176   4.341  1.4079 -0.9716 -4.3144
 1466SOL    HW216032   0.858   2.080   4.439 -0.9814 -1.3429 -0.9422
 1467SOL     OW16033   4.364   2.405  14.963 -0.0053  0.1780  0.2992
 1467SOL    HW116034   4.359   2.483  14.907  1.3205 -0.2115 -0.3508
 1467SOL    HW216035   4.271   2.382  14.967 -0.0620  0.6316  1.5214
 1468SOL     OW16036   3.388   4.690   2.520 -0.2654  0.0265 -0.2116
 1468SOL    HW116037   3.387   0.027   2.459 -0.7431  0.0280 -0.2078
 1468SOL    HW216038   3.479   4.693   2.550 -0.5107 -0.9701  0.6382
 1469SOL     OW16039   1.748   3.460   7.806 -0.4129  1.2223 -0.5956
 1469SOL    HW116040   1.772   3.428   7.720 -1.6978  1.1569 -0.9286
 1469SOL    HW216041   1.820   3.418   7.853 -0.5797  1.0449 -0.5004
 1470SOL     OW16042   3.784   3.098   0.082 -0.2500 -0.2989  0.1874
 1470SOL    HW116043   3.751   3.009   0.077  0.7574 -0.6057 -0.8790
 1470SOL    HW216044   3.719   3.128   0.145 -0.8002  1.1350 -1.0621
 1471SOL     OW16045   4.653   1.940   5.036  0.2888  0.1923  0.5513
 1471SOL    HW116046   4.710   1.890   4.978 -1.6534 -3.2316  1.5482
 1471SOL    HW216047   4.648   1.874   5.106  0.3877 -0.6272 -0.2241
 1472SOL     OW16048   0.419   3.157  10.584  0.0112  0.0570  0.3700
 1472SOL    HW116049   0.329   3.125  10.577  0.0291  0.1550 -0.3171
 1472SOL    HW216050   0.466   3.074  10.595  0.5137  0.3415  0.3501
 1473SOL     OW16051   4.243   3.720   5.848  0.3916 -0.1230 -0.0217
 1473SOL    HW116052   4.222   3.761   5.932 -1.2198 -0.3328 -0.3287
 1473SOL    HW216053   4.300   3.788   5.811  0.1731 -0.1830 -0.4603
 1474SOL     OW16054   1.238   1.351   4.689  0.1700  0.1013 -0.3421
 1474SOL    HW116055   1.217   1.285   4.622 -0.8363  0.6614 -0.5828
 1474SOL    HW216056   1.255   1.300   4.768 -0.0437  1.0447  0.3047
 1475SOL     OW16057   4.610   3.334   2.139  0.0495 -0.0266  0.3154
 1475SOL    HW116058   4.633   3.331   2.232 -1.7081  2.4849  0.8516
 1475SOL    HW216059   4.544   3.403   2.137  1.9918  1.8978  1.8196
 1476SOL     OW16060   4.670   0.708   7.271  0.4082  0.3464  0.0013
 1476SOL    HW116061   4.616   0.694   7.193 -0.2140 -1.4228  0.7371
 1476SOL    HW216062   4.687   0.617   7.298  1.8988 -0.1181 -2.5712
 1477SOL     OW16063   3.330   4.629  11.115  0.0376  0.6729  0.1156
 1477SOL    HW116064   3.238   4.603  11.123  0.1928  0.3244  0.7760
 1477SOL    HW216065   3.333   4.670  11.028 -2.7096  0.1013 -0.2592
 1478SOL     OW16066   2.231   2.693   6.886 -0.2637 -0.2948 -0.0786
 1478SOL    HW116067   2.260   2.782   6.865 -0.8429  0.1766  1.0999
 1478SOL    HW216068   2.283   2.646   6.821  1.2194  0.3530  0.6330
 1479SOL     OW16069   1.716   3.331   6.326  0.1579 -0.0530 -0.4347
 1479SOL    HW116070   1.760   3.309   6.408 -0.4026  1.5756  0.3031
 1479SOL    HW216071   1.775   3.389   6.278 -0.5613  0.1834 -1.0397
 1480SOL     OW16072   4.076   4.698   3.465 -0.4118 -0.1764  0.7749
 1480SOL    HW116073   4.010   4.645   3.510 -0.1789 -1.2694 -0.1526
 1480SOL    HW216074   4.087   0.038   3.520 -1.2965  0.3149  0.2599
 1481SOL     OW16075   3.078   2.723   6.114  0.2782 -0.1097 -0.6228
 1481SOL    HW116076   3.053   2.716   6.207  1.6550 -0.8420 -0.3028
 1481SOL    HW216077   3.147   2.788   6.128  1.1437 -0.8545 -1.4274
 1482SOL     OW16078   0.471   0.988   9.246  0.1507 -0.0833 -0.0429
 1482SOL    HW116079   0.473   1.055   9.314 -0.0679  0.0577 -0.1751
 1482SOL    HW216080   0.553   0.940   9.262  1.1643  1.2873 -1.1178
 1483SOL     OW16081   3.980   1.411   6.483  0.3847  0.2615  0.2334
 1483SOL    HW116082   4.075   1.403   6.489  0.0389 -2.1216  2.5620
 1483SOL    HW216083   3.955   1.439   6.571  0.0802 -1.6665  0.7684
 1484SOL     OW16084   2.627   4.531   6.736 -0.8819  0.2899  0.1792
 1484SOL    HW116085   2.605   4.496   6.650  2.4238  1.1060 -0.9928
 1484SOL    HW216086   2.624   4.624   6.714  1.7126  0.3874  0.2827
 1485SOL     OW16087   1.294   2.734   9.210 -0.3677  0.3022 -0.1506
 1485SOL    HW116088   1.288   2.804   9.144  0.5336 -0.6582 -1.2446
 1485SOL    HW216089   1.221   2.676   9.189 -0.4803  0.0753  0.8629
 1486SOL     OW16090   1.555   2.770   3.468  0.0175  0.1237  0.1142
 1486SOL    HW116091   1.641   2.750   3.431  0.7076  1.0477  1.2073
 1486SOL    HW216092   1.574   2.736   3.556 -1.2363 -1.5566 -0.2781
 1487SOL     OW16093   2.292   0.107   0.984  0.5281 -0.0391 -0.4327
 1487SOL    HW116094   2.223   0.111   0.919 -0.1087  0.2244  0.2620
 1487SOL    HW216095   2.258   0.176   1.042 -3.4575 -2.5388  0.2015
 1488SOL     OW16096   3.082   4.719   6.377  0.5193 -0.2511 -0.5561
 1488SOL    HW116097   3.031   4.709   6.297 -0.6953  1.9924 -0.0386
 1488SOL    HW216098   3.029   0.042   6.429 -0.2859 -1.1452 -0.3537
 1489SOL     OW16099   4.220   0.427   6.776  0.4206  0.0599  0.0106
 1489SOL    HW116100   4.170   0.505   6.756  1.9873  1.0814  0.1087
 1489SOL    HW216101   4.158   0.388   6.838  0.9118 -2.0407 -0.8083
 1490SOL     OW16102   1.516   3.512   9.258  0.0187 -0.5361 -0.0703
 1490SOL    HW116103   1.473   3.578   9.204  1.7306 -0.4446 -1.3154
 1490SOL    HW216104   1.526   3.444   9.192  0.9584 -0.4878  0.0299
 1491SOL     OW16105   2.324   2.439   5.265 -0.1226 -0.2786 -0.0359
 1491SOL    HW116106   2.295   2.426   5.355 -2.5116  1.8919 -0.4947
 1491SOL    HW216107   2.294   2.360   5.221 -1.3456  0.8118 -1.1808
 1492SOL     OW16108   2.286   1.138  14.689  0.7165  0.4198  0.6590
 1492SOL    HW116109   2.195   1.161  14.671  0.4763 -1.5263 -0.5372
 1492SOL    HW216110   2.297   1.048  14.657 -0.2008  1.1886 -1.8196
 1493SOL     OW16111   2.008   4.208   3.111  1.0800 -0.4038 -0.1726
 1493SOL    HW116112   1.946   4.260   3.060 -0.9448 -1.0250  1.6316
 1493SOL    HW216113   1.985   4.121   3.076  0.3359  0.0348 -0.7878
 1494SOL     OW16114   2.547   1.110   6.420 -0.4592  0.2234  0.3093
 1494SOL    HW116115   2.562   1.185   6.477  0.1648  0.2244  0.1498
 1494SOL    HW216116   2.531   1.153   6.336 -1.4676  2.9943  1.9300
 1495SOL     OW16117   1.327   3.771   8.005  0.1573  0.4630  0.0604
 1495SOL    HW116118   1.402   3.794   7.950 -1.2998  0.5927 -1.8927
 1495SOL    HW216119   1.369   3.719   8.073  1.1717  1.1927 -0.0207
 1496SOL     OW16120   4.050   2.709  14.729  0.1629  0.1036  0.6193
 1496SOL    HW116121   3.969   2.724  14.680  2.2550  2.3926 -2.1205
 1496SOL    HW216122   4.062   2.614  14.724  0.4920  0.3735 -3.5124
 1497SOL     OW16123   1.487   2.670   2.736  0.2189 -0.0383 -0.0517
 1497SOL    HW116124   1.507   2.638   2.648  0.6735 -1.4581  0.5727
 1497SOL    HW216125   1.449   2.590   2.771 -0.8217  1.1318  1.4478
 1498SOL     OW16126   4.180   0.528   9.810 -0.4236 -0.4210  0.0649
 1498SOL    HW116127   4.185   0.523   9.715  0.7801 -1.8392  0.2024
 1498SOL    HW216128   4.128   0.608   9.819  0.1002 -0.0343 -0.3999
 1499SOL     OW16129   3.669   3.216   1.762  0.6050 -0.3780  0.3095
 1499SOL    HW116130   3.730   3.206   1.835  0.5056  3.1942  0.8703
 1499SOL    HW216131   3.595   3.241   1.818  1.2853  0.1557  0.9798
 1500SOL     OW16132   4.390   3.791  17.238 -0.0921 -0.0744 -0.1888
 1500SOL    HW116133   4.432   3.863  17.286  0.2616 -1.1418  1.1143
 1500SOL    HW216134   4.461   3.733  17.211  0.6996  0.4482  0.7395
 1501SOL     OW16135   3.621   2.546  14.532  0.5831  0.4232 -0.4131
 1501SOL    HW116136   3.570   2.508  14.461  0.3927 -0.1052  0.0064
 1501SOL    HW216137   3.547   2.569  14.588  0.3467 -1.6108  0.1364
 1502SOL     OW16138   3.345   2.803   0.003 -0.2330 -0.4105 -0.3427
 1502SOL    HW116139   3.332   2.890  17.712  0.5679 -0.0055  0.3018
 1502SOL    HW216140   3.366   2.836   0.091  2.1958 -0.6614 -0.8212
 1503SOL     OW16141   4.059   1.546   2.301 -0.0143  0.2439  0.0361
 1503SOL    HW116142   4.020   1.633   2.307 -0.3335  0.1035 -0.0274
 1503SOL    HW216143   4.030   1.540   2.210 -0.1934  0.1697  0.0981
 1504SOL     OW16144   4.126   2.847   8.975 -0.2706 -0.0306  0.3143
 1504SOL    HW116145   4.049   2.855   8.918  0.0477  4.3257  0.4825
 1504SOL    HW216146   4.180   2.917   8.938 -0.3227 -0.4587 -0.5791
 1505SOL     OW16147   2.851   3.641   2.264  0.0745  0.1661 -0.1040
 1505SOL    HW116148   2.778   3.701   2.248  1.0351  1.2481 -0.3991
 1505SOL    HW216149   2.913   3.672   2.198 -0.5039 -0.4222 -0.9219
 1506SOL     OW16150   1.353   0.127  10.810  0.1407  0.1393 -0.4061
 1506SOL    HW116151   1.314   0.174  10.885 -0.9039 -0.3556 -0.6282
 1506SOL    HW216152   1.437   0.170  10.821  0.9283 -0.9663 -2.0827
 1507SOL     OW16153   3.699   2.472   3.703  0.6543  0.4426 -0.0499
 1507SOL    HW116154   3.763   2.401   3.702  0.2238  0.0220  1.8011
 1507SOL    HW216155   3.724   2.523   3.779 -2.0003  4.1153 -1.6621
 1508SOL     OW16156   4.093   1.601   4.845 -0.3846 -0.8450 -0.2371
 1508SOL    HW116157   4.165   1.623   4.903 -0.3405  0.6897 -0.8926
 1508SOL    HW216158   4.028   1.584   4.913 -2.0539  4.0062 -0.6200
 1509SOL     OW16159   1.614   2.199  16.280 -0.3536 -0.2691 -0.5137
 1509SOL    HW116160   1.695   2.196  16.330 -1.6819  1.0136  1.7254
 1509SOL    HW216161   1.574   2.282  16.305 -3.9839 -1.9124 -0.7503
 1510SOL     OW16162   1.050   3.035   7.304 -0.0374 -0.2621 -0.0057
 1510SOL    HW116163   1.071   2.975   7.233  0.4682 -1.8075  1.4497
 1510SOL    HW216164   1.031   2.972   7.373  1.1153  0.4418  0.9668
 1511SOL     OW16165   1.295   2.666  12.712  0.3554 -0.1820  0.3433
 1511SOL    HW116166   1.351   2.680  12.788 -0.8280  0.8325  1.0392
 1511SOL    HW216167   1.273   2.574  12.720  1.8725 -0.4503  1.4009
 1512SOL     OW16168   3.888   3.442   4.826  0.4222 -0.4810  0.3629
 1512SOL    HW116169   3.846   3.458   4.742 -0.6739  3.8574  1.7298
 1512SOL    HW216170   3.958   3.381   4.803 -0.7193 -1.2801 -0.9313
 1513SOL     OW16171   1.995   1.356   2.689 -0.5913  0.5365  0.6149
 1513SOL    HW116172   2.067   1.376   2.629  1.9623  0.2946  3.5894
 1513SOL    HW216173   2.044   1.345   2.770  0.7990  1.1415 -0.1309
 1514SOL     OW16174   0.456   0.885   2.565  0.6650 -0.6591  0.0783
 1514SOL    HW116175   0.403   0.824   2.514  0.1802  0.4913 -0.7901
 1514SOL    HW216176   0.443   0.850   2.653  1.8783  0.2333  0.6229
 1515SOL     OW16177   1.851   3.206   4.326 -0.2105  0.2186 -0.3983
 1515SOL    HW116178   1.888   3.138   4.382 -1.5784  1.3052  1.8267
 1515SOL    HW216179   1.827   3.278   4.385 -0.9798 -0.5407  0.2092
 1516SOL     OW16180   2.005   2.718  14.732  0.4254 -0.5992 -0.5536
 1516SOL    HW116181   1.960   2.748  14.811  0.5246 -0.7833 -0.4258
 1516SOL    HW216182   2.016   2.798  14.680  1.2704  1.2958  2.5793
 1517SOL     OW16183   4.504   2.397   3.478 -0.7156 -0.5250 -0.4501
 1517SOL    HW116184   4.458   2.391   3.394  1.0568  1.7650 -1.6013
 1517SOL    HW216185   4.590   2.364   3.453 -0.4238  0.4596 -0.7295
 1518SOL     OW16186   3.815   2.310   4.982 -0.5851 -0.2299  0.2267
 1518SOL    HW116187   3.729   2.276   5.007 -0.0454 -1.2113  0.7434
 1518SOL    HW216188   3.784   2.385   4.931 -0.8615 -0.3458  0.2247
 1519SOL     OW16189   2.574   3.527   1.485 -0.1510 -0.0253  0.2416
 1519SOL    HW116190   2.652   3.475   1.506  0.9244  1.8838  0.8929
 1519SOL    HW216191   2.598   3.564   1.400  2.0421 -1.5287  0.1908
 1520SOL     OW16192   0.017   2.171   9.613 -0.2843 -0.1477  0.6748
 1520SOL    HW116193   0.019   2.187   9.519  1.3799 -0.5820  0.6369
 1520SOL    HW216194   0.106   2.143   9.636  0.3050  2.9702  2.2936
 1521SOL     OW16195   4.631   1.793   4.020  0.0686 -0.2404 -0.1197
 1521SOL    HW116196   4.626   1.818   3.927  0.5353  0.3427  0.0094
 1521SOL    HW216197   4.708   1.846   4.042  0.5664 -1.5907  1.3199
 1522SOL     OW16198   0.317   0.537   5.398 -0.2653  0.1638 -0.4111
 1522SOL    HW116199   0.264   0.517   5.320  0.3097  0.9913 -1.0047
 1522SOL    HW216200   0.349   0.450   5.422  0.6010  1.3821  2.7811
 1523SOL     OW16201   1.554   0.817   6.205 -0.3972 -0.0496 -0.2771
 1523SOL    HW116202   1.580   0.725   6.194  0.7887  0.1612  0.8377
 1523SOL    HW216203   1.573   0.826   6.298  0.0986 -0.4777 -0.3337
 1524SOL     OW16204   4.649   0.643   5.566 -0.1432  0.6175  0.4576
 1524SOL    HW116205   4.719   0.678   5.510  0.3972 -0.6165  0.3658
 1524SOL    HW216206   4.571   0.691   5.539  0.8885  1.2688 -1.3190
 1525SOL     OW16207   0.639   4.429  16.066 -0.0118 -0.0540  0.4974
 1525SOL    HW116208   0.558   4.378  16.062  0.0421  0.1204 -3.0872
 1525SOL    HW216209   0.698   4.357  16.088 -3.6182 -3.1306  0.0454
 1526SOL     OW16210   0.333   1.010   8.356  0.0610  0.6021 -0.4436
 1526SOL    HW116211   0.301   1.033   8.269  1.1380  1.2652 -0.6569
 1526SOL    HW216212   0.421   0.977   8.337 -0.9243 -2.6432  0.5970
 1527SOL     OW16213   0.141   4.445   3.939  0.3659  0.0556 -0.5922
 1527SOL    HW116214   0.091   4.518   3.974 -0.8957 -1.4792  0.7962
 1527SOL    HW216215   0.111   4.449   3.848  1.3127 -3.0542 -1.0468
 1528SOL     OW16216   0.143   1.900   4.003 -0.0224  0.1817 -0.0838
 1528SOL    HW116217   0.117   1.992   4.001 -2.8186 -0.5752  2.2249
 1528SOL    HW216218   0.217   1.893   3.942  0.6490  2.3480  0.4948
 1529SOL     OW16219   0.144   1.859   5.906  0.0168  0.6163  0.2438
 1529SOL    HW116220   0.153   1.919   5.980  1.3865  0.8891 -0.1405
 1529SOL    HW216221   0.237   1.843   5.891 -0.4206 -1.8245  0.1466
 1530SOL     OW16222   1.294   4.234  12.865 -0.1721 -0.2504 -0.4606
 1530SOL    HW116223   1.364   4.171  12.877  0.3666  0.1573 -1.4404
 1530SOL    HW216224   1.323   4.299  12.801  3.2994 -1.5359 -0.1493
 1531SOL     OW16225   0.885   4.674  11.253 -0.2965 -0.4169  0.1248
 1531SOL    HW116226   0.918   0.024  11.232 -3.1238  0.7808  0.7295
 1531SOL    HW216227   0.819   4.692  11.319  0.0713 -1.3410  0.7433
 1532SOL     OW16228   3.764   3.352   6.961  0.0983  0.0487  0.0925
 1532SOL    HW116229   3.809   3.382   7.040 -3.9169 -0.8464  2.7860
 1532SOL    HW216230   3.701   3.423   6.956 -0.3596 -0.4641 -1.4133
 1533SOL     OW16231   2.017   0.479   5.427  0.1695  0.3967 -0.8904
 1533SOL    HW116232   2.056   0.522   5.350  3.0904 -0.4707  0.0837
 1533SOL    HW216233   1.942   0.434   5.389 -0.6928  0.6020  0.5705
 1534SOL     OW16234   0.136   0.178   9.451 -0.3421  0.1152  0.5450
 1534SOL    HW116235   0.125   0.236   9.527 -4.1747 -0.1289  0.2172
 1534SOL    HW216236   0.165   0.095   9.488  0.5257 -0.5655 -1.6882
 1535SOL     OW16237   4.396   1.147   8.269  0.0772 -0.5475  0.0303
 1535SOL    HW116238   4.431   1.103   8.191 -1.2583  0.9595 -1.4095
 1535SOL    HW216239   4.469   1.203   8.294  0.4251 -0.0350 -2.1293
 1536SOL     OW16240   3.848   4.103   7.782 -0.5006  0.4690 -0.4139
 1536SOL    HW116241   3.811   4.112   7.694 -2.9219  0.2690  0.5821
 1536SOL    HW216242   3.788   4.146   7.842  0.6418  0.1680  0.9340
 1537SOL     OW16243   1.285   2.575   4.308  0.6294  0.3382 -0.2157
 1537SOL    HW116244   1.355   2.518   4.279 -0.2042 -0.6336 -0.3289
 1537SOL    HW216245   1.270   2.538   4.395  2.2998  0.9124  0.3075
 1538SOL     OW16246   3.090   2.351  12.244  0.2167  0.4140 -0.1377
 1538SOL    HW116247   3.154   2.334  12.314 -0.6657  1.2547  0.8871
 1538SOL    HW216248   3.076   2.265  12.205 -1.0485 -0.4452  2.1676
 1539SOL     OW16249   1.187   0.534  14.738 -0.5020 -0.0709  0.5912
 1539SOL    HW116250   1.124   0.544  14.810 -1.3514 -3.6937  0.3525
 1539SOL    HW216251   1.251   0.600  14.766 -2.2651  1.3064  1.3716
 1540SOL     OW16252   0.599   2.635   1.734  0.0786  0.0294 -0.2100
 1540SOL    HW116253   0.531   2.599   1.791 -0.3891 -0.3625 -1.0210
 1540SOL    HW216254   0.627   2.547   1.710  2.8670  0.6054  0.9001
 1541SOL     OW16255   0.658   2.359   9.620 -0.5737  0.3370 -0.0793
 1541SOL    HW116256   0.612   2.370   9.537  1.4049  1.4981 -1.0091
 1541SOL    HW216257   0.617   2.281   9.658 -2.5758  1.3821 -0.0980
 1542SOL     OW16258   2.145   4.531   4.305 -0.3995  0.1379  0.2565
 1542SOL    HW116259   2.060   4.575   4.306 -1.9417 -2.8090  1.1100
 1542SOL    HW216260   2.171   4.501   4.392 -0.2767  3.0923  1.2461
 1543SOL     OW16261   1.803   3.265   8.824 -0.2812  0.1818 -0.4053
 1543SOL    HW116262   1.807   3.290   8.916 -0.3357  1.8144 -0.8541
 1543SOL    HW216263   1.866   3.194   8.819  0.6204  0.9947 -0.4398
 1544SOL     OW16264   2.252   3.584  15.725 -0.1215  0.1923  0.1091
 1544SOL    HW116265   2.289   3.648  15.786 -0.0807 -1.2869  1.6422
 1544SOL    HW216266   2.328   3.549  15.678  0.4742  0.4607  0.8662
 1545SOL     OW16267   3.162   0.948   5.541 -0.0463  0.1186 -0.4124
 1545SOL    HW116268   3.233   1.010   5.523 -0.3296 -0.0334 -2.0844
 1545SOL    HW216269   3.087   0.978   5.490 -0.5670  1.8643  1.3792
 1546SOL     OW16270   3.835   3.186   4.113  0.5356  0.0263 -0.0078
 1546SOL    HW116271   3.781   3.199   4.035 -3.9353 -0.9023  2.9097
 1546SOL    HW216272   3.896   3.258   4.102  0.6214 -0.2950 -1.6235
 1547SOL     OW16273   0.418   1.601  11.611 -0.2492 -0.4491 -0.5020
 1547SOL    HW116274   0.396   1.666  11.545  1.9378  0.8449  0.0667
 1547SOL    HW216275   0.510   1.625  11.616  0.5314 -3.1714 -1.8289
 1548SOL     OW16276   2.716   1.597   4.627 -0.0440  0.1330 -0.0941
 1548SOL    HW116277   2.768   1.630   4.701 -0.7933  0.9500  0.0708
 1548SOL    HW216278   2.774   1.529   4.593  0.9163  1.0116 -0.2084
 1549SOL     OW16279   3.661   2.715   1.643  0.2407  0.0305 -0.2627
 1549SOL    HW116280   3.740   2.676   1.607  0.7947 -0.2270  1.2270
 1549SOL    HW216281   3.602   2.658   1.595  1.4376 -0.2196 -1.4242
 1550SOL     OW16282   3.824   1.195   2.447 -0.2894 -0.1859  0.5615
 1550SOL    HW116283   3.887   1.143   2.397  0.0860  1.1347 -0.3325
 1550SOL    HW216284   3.753   1.189   2.383  0.6330 -1.9333 -0.2859
 1551SOL     OW16285   2.910   3.358   3.881 -0.5347 -0.9342  0.7303
 1551SOL    HW116286   2.834   3.310   3.912 -0.8997 -1.5853 -1.1805
 1551SOL    HW216287   2.965   3.280   3.885  2.0635  0.7861 -1.5716
 1552SOL     OW16288   3.584   1.008  15.475  0.3203 -0.0090  0.1962
 1552SOL    HW116289   3.600   1.074  15.543  0.6790 -2.9149  2.8917
 1552SOL    HW216290   3.490   0.997  15.494  0.4732 -1.0408  0.2976
 1553SOL     OW16291   0.269   0.052   5.651  0.2802  0.0329 -0.3572
 1553SOL    HW116292   0.348   0.103   5.665  0.8482 -0.7214 -0.8332
 1553SOL    HW216293   0.199   0.118   5.644 -0.9248 -1.2606 -0.5150
 1554SOL     OW16294   4.151   1.236   3.347  0.5508  0.2688  0.1260
 1554SOL    HW116295   4.189   1.268   3.265  1.0299  1.7471  0.9276
 1554SOL    HW216296   4.063   1.273   3.338  0.3520  0.0770  1.2562
 1555SOL     OW16297   0.802   0.565   7.184 -0.3256  0.3383  0.0088
 1555SOL    HW116298   0.718   0.604   7.204 -0.4821  0.8513 -1.6545
 1555SOL    HW216299   0.860   0.640   7.193 -0.5549  0.6524 -1.0624
 1556SOL     OW16300   4.544   0.975   9.148 -0.0296  0.3276 -0.6085
 1556SOL    HW116301   4.453   1.002   9.159 -0.4938 -1.6679  0.4148
 1556SOL    HW216302   4.532   0.882   9.127  0.6528  0.1554 -0.2308
 1557SOL     OW16303   1.615   4.024   1.705  0.2272 -0.8066  0.4983
 1557SOL    HW116304   1.599   3.960   1.636  0.3276  2.8663 -2.9246
 1557SOL    HW216305   1.619   3.964   1.779  0.1455 -1.2510  0.1411
 1558SOL     OW16306   1.694   4.699   3.706  0.4104 -0.3994 -0.3282
 1558SOL    HW116307   1.693   4.620   3.759 -1.5723  0.1406  0.4284
 1558SOL    HW216308   1.650   0.020   3.768  0.0324 -1.1900  0.1349
 1559SOL     OW16309   3.257   4.567   2.018 -0.5322  0.3008  0.0618
 1559SOL    HW116310   3.325   4.561   2.084  0.1313 -2.4800 -0.8853
 1559SOL    HW216311   3.292   4.507   1.952 -1.9209 -0.3053 -0.1436
 1560SOL     OW16312   1.807   4.430   2.307 -0.1077  0.4720 -0.3323
 1560SOL    HW116313   1.887   4.452   2.355 -1.0091  0.3812  1.2160
 1560SOL    HW216314   1.772   4.350   2.346 -0.9270  0.9535 -0.0741
 1561SOL     OW16315   0.469   2.555   6.928 -0.2126  0.4269 -0.1454
 1561SOL    HW116316   0.479   2.553   6.832 -0.8517 -0.5393 -0.1864
 1561SOL    HW216317   0.404   2.623   6.943  0.4364  1.0583 -0.1379
 1562SOL     OW16318   0.089   1.451   8.018  0.2414 -0.1277  0.1153
 1562SOL    HW116319   0.040   1.533   8.009  2.8670  1.0573 -3.1785
 1562SOL    HW216320   0.172   1.492   8.042  1.1378 -1.3589 -0.9144
 1563SOL     OW16321   1.073   3.195   9.891  0.8267 -0.1569 -0.1859
 1563SOL    HW116322   1.029   3.113   9.914  1.1267  0.6705  3.4150
 1563SOL    HW216323   1.047   3.198   9.799 -0.5715  0.8216  0.2379
 1564SOL     OW16324   3.401   0.772   3.456 -0.0962  0.0777  0.0397
 1564SOL    HW116325   3.421   0.821   3.536 -0.5058  0.8508 -0.3288
 1564SOL    HW216326   3.483   0.726   3.442 -0.0209 -0.2934  1.7461
 1565SOL     OW16327   0.608   4.711   6.766 -0.3715 -0.4189 -0.0984
 1565SOL    HW116328   0.579   4.714   6.857 -0.4370 -0.7372 -0.1087
 1565SOL    HW216329   0.590   0.064   6.740  0.6018 -0.1251  0.2645
 1566SOL     OW16330   1.334   4.205   2.516  0.0205  0.3087  0.4956
 1566SOL    HW116331   1.358   4.135   2.455 -0.6227 -0.5428  1.2165
 1566SOL    HW216332   1.239   4.200   2.506  0.1387  0.1131 -0.5607
 1567SOL     OW16333   0.409   4.422   2.852  0.4330  0.0771 -0.6740
 1567SOL    HW116334   0.504   4.422   2.863  0.6675  0.5784 -2.7152
 1567SOL    HW216335   0.393   4.411   2.759  0.5225 -0.2549 -0.6513
 1568SOL     OW16336   2.084   1.305   5.133 -0.1488  0.1631 -0.3855
 1568SOL    HW116337   2.036   1.229   5.100 -0.5585  0.3133 -0.1455
 1568SOL    HW216338   2.113   1.363   5.063 -1.2457  0.5742 -0.5058
 1569SOL     OW16339   3.577   3.134   2.074 -0.8531  0.3622 -0.2494
 1569SOL    HW116340   3.524   3.150   1.996 -1.2831  1.0948  0.1990
 1569SOL    HW216341   3.533   3.181   2.145 -1.8365  0.1669 -0.7378
 1570SOL     OW16342   0.815   2.034   7.680 -0.2348  0.2183  0.2996
 1570SOL    HW116343   0.741   2.002   7.732 -1.2473  1.7956 -0.1434
 1570SOL    HW216344   0.874   1.961   7.696 -0.7921 -0.5208 -1.0632
 1571SOL     OW16345   3.297   3.312   1.249  0.7791  0.2199  0.4996
 1571SOL    HW116346   3.312   3.397   1.290 -0.8592  0.0973  1.3445
 1571SOL    HW216347   3.242   3.273   1.317 -0.4291  0.6900 -0.2143
 1572SOL     OW16348   4.325   0.493  13.143 -0.6187  0.4359  0.5327
 1572SOL    HW116349   4.255   0.548  13.108 -0.8674 -0.4438 -0.3635
 1572SOL    HW216350   4.286   0.407  13.131 -1.0334  0.6722  0.1820
 1573SOL     OW16351   4.627   3.415   2.888  0.3565 -0.4422 -0.1090
 1573SOL    HW116352   4.666   3.418   2.975 -0.9182  1.7175  0.3658
 1573SOL    HW216353   4.657   3.326   2.867  0.2309 -0.1416 -1.5624
 1574SOL     OW16354   2.839   3.804   4.578 -0.0640 -0.0356  0.3632
 1574SOL    HW116355   2.747   3.779   4.578 -0.4021  1.1829 -1.2601
 1574SOL    HW216356   2.845   3.843   4.490  0.7813 -0.5694  0.1837
 1575SOL     OW16357   2.153   0.316  13.574  0.2314  0.0455 -0.1263
 1575SOL    HW116358   2.062   0.294  13.591 -0.0368 -0.6820 -2.5110
 1575SOL    HW216359   2.147   0.385  13.507 -0.2541 -0.3027 -0.4372
 1576SOL     OW16360   2.501   0.043   1.198  0.0250  0.0245 -0.1486
 1576SOL    HW116361   2.439   4.714   1.229 -1.6380  1.2151 -0.9083
 1576SOL    HW216362   2.428   0.087   1.155  1.1391 -0.4058 -2.4684
 1577SOL     OW16363   2.281   0.670   7.659  0.0015  0.4242  0.6526
 1577SOL    HW116364   2.285   0.575   7.645 -0.8888  0.8646 -2.5450
 1577SOL    HW216365   2.243   0.682   7.746  1.9751 -0.2733  1.6099
 1578SOL     OW16366   0.942   0.114  17.462 -0.2198  0.2889 -0.3330
 1578SOL    HW116367   0.900   0.170  17.397 -1.2026 -0.0457  0.0246
 1578SOL    HW216368   0.982   0.182  17.516  1.2061 -0.3481 -0.5831
 1579SOL     OW16369   1.259   0.048  15.083 -0.1378 -0.4081 -0.4996
 1579SOL    HW116370   1.264   0.143  15.087 -2.1900 -0.4103  1.7957
 1579SOL    HW216371   1.279   0.032  14.990  0.4928 -1.0163 -0.2645
 1580SOL     OW16372   4.163   1.794   9.529  0.7988  0.0639  0.2225
 1580SOL    HW116373   4.142   1.787   9.622 -1.2260  0.6879 -0.1820
 1580SOL    HW216374   4.236   1.856   9.530  0.7089  0.2116 -1.7339
 1581SOL     OW16375   2.064   1.469   1.615  0.5719  0.0512 -0.5685
 1581SOL    HW116376   2.127   1.441   1.681  0.3079  1.9117  0.4575
 1581SOL    HW216377   2.077   1.392   1.559 -2.9387 -1.3993  0.6603
 1582SOL     OW16378   3.872   4.717   5.964  0.0283 -0.6877  0.1111
 1582SOL    HW116379   3.825   0.008   6.042  1.8347 -0.3638  1.0820
 1582SOL    HW216380   3.921   4.644   6.001  2.5815  0.9985  0.0840
 1583SOL     OW16381   2.264   4.105   5.310 -0.4184  0.1718  0.1750
 1583SOL    HW116382   2.325   4.035   5.288 -0.9250  0.4678 -2.2189
 1583SOL    HW216383   2.182   4.066   5.280  0.0114  0.6891 -1.6742
 1584SOL     OW16384   0.453   0.759   7.997  0.0881  0.3046  0.4260
 1584SOL    HW116385   0.394   0.812   8.051  0.1791  0.8418 -0.0071
 1584SOL    HW216386   0.531   0.814   7.998  1.0435 -1.0268 -0.3976
 1585SOL     OW16387   0.517   4.101   1.405  0.2288  0.7656  0.2643
 1585SOL    HW116388   0.459   4.167   1.443  1.4052  1.6765  0.4908
 1585SOL    HW216389   0.605   4.135   1.420  0.1957  1.0373 -0.1637
 1586SOL     OW16390   4.019   3.139  10.453 -0.3596  0.0443  0.5237
 1586SOL    HW116391   3.941   3.130  10.399  0.6260  1.1528 -1.0851
 1586SOL    HW216392   3.973   3.171  10.530  1.2143  0.7853  1.1390
 1587SOL     OW16393   0.396   1.712   7.886  0.4820  0.6695 -0.1216
 1587SOL    HW116394   0.347   1.703   7.968 -0.2752  5.2566 -0.0703
 1587SOL    HW216395   0.331   1.702   7.816 -0.7390  1.4523  0.8836
 1588SOL     OW16396   2.852   0.392   2.813  0.3182 -0.1850  0.2333
 1588SOL    HW116397   2.831   0.400   2.720  0.1819  0.7120  0.3463
 1588SOL    HW216398   2.893   0.476   2.828 -1.5910  0.8864 -0.4629
 1589SOL     OW16399   0.157   0.978  15.158  0.0457  0.2538  0.0319
 1589SOL    HW116400   0.185   0.962  15.248 -0.5886 -0.7613  0.0453
 1589SOL    HW216401   0.182   1.070  15.152 -1.1153  0.7003  2.1231
 1590SOL     OW16402   3.419   4.297   0.390  0.1343 -0.2115  0.1999
 1590SOL    HW116403   3.507   4.315   0.357  0.3766 -1.2049  0.3060
 1590SOL    HW216404   3.398   4.377   0.438 -1.1356  2.1254 -4.3354
 1591SOL     OW16405   0.244   2.242  10.387  0.1220 -0.3920 -0.0465
 1591SOL    HW116406   0.299   2.168  10.360 -2.8782 -2.3941 -0.6934
 1591SOL    HW216407   0.187   2.194  10.447 -1.4409  1.5290 -0.0163
 1592SOL     OW16408   2.262   2.953   2.544  0.3662 -0.0216 -0.7278
 1592SOL    HW116409   2.206   2.977   2.617  1.0652  0.9214 -0.4952
 1592SOL    HW216410   2.323   2.889   2.582  0.9904  0.1755 -1.4044
 1593SOL     OW16411   2.526   1.031   8.808 -0.7913  0.4033  0.1938
 1593SOL    HW116412   2.479   0.979   8.742  1.2788 -1.0812 -0.1200
 1593SOL    HW216413   2.583   0.963   8.844 -0.4226  0.4416 -0.3144
 1594SOL     OW16414   3.269   2.137   7.774 -0.0041  0.3907  0.2995
 1594SOL    HW116415   3.320   2.060   7.751  1.1227  0.5264  2.3104
 1594SOL    HW216416   3.187   2.099   7.804 -0.4004  0.2050 -1.0375
 1595SOL     OW16417   2.905   3.353   3.036  0.1287 -0.0076 -0.0147
 1595SOL    HW116418   2.978   3.395   2.990 -0.6318  0.3956 -0.8398
 1595SOL    HW216419   2.934   3.347   3.127  2.6758  0.9381 -0.7520
 1596SOL     OW16420   4.689   2.951  17.044  0.0991 -0.0539  0.1996
 1596SOL    HW116421   0.041   2.977  17.021  0.2839  1.5505  2.7348
 1596SOL    HW216422   4.688   2.994  17.130 -0.0181  0.1541  0.0944
 1597SOL     OW16423   3.622   0.041   7.676  0.0980 -0.2215 -0.4570
 1597SOL    HW116424   3.701   0.049   7.729 -0.4303  0.1083  0.2921
 1597SOL    HW216425   3.558   0.103   7.712  1.0968  0.0240  0.8810
 1598SOL     OW16426   1.989   3.783   3.835  0.2272  0.5432  0.6994
 1598SOL    HW116427   1.929   3.749   3.900  0.7708  1.1933  1.5397
 1598SOL    HW216428   2.052   3.714   3.811 -0.3173 -0.4480  2.1335
 1599SOL     OW16429   2.733   0.146   2.827  0.1012 -0.4087  0.0260
 1599SOL    HW116430   2.809   0.102   2.788  1.4461  0.0808  2.0822
 1599SOL    HW216431   2.773   0.232   2.838 -1.0421  0.2511 -1.0093
 1600SOL     OW16432   0.759   3.367  12.771 -0.1656 -0.4269 -0.5657
 1600SOL    HW116433   0.777   3.453  12.810  0.9022 -0.8147 -0.1966
 1600SOL    HW216434   0.709   3.399  12.696  0.2139 -0.5279 -0.8611
 1601SOL     OW16435   4.687   0.724   5.842 -0.3269  0.1503 -0.1911
 1601SOL    HW116436   4.611   0.704   5.898  0.6463  0.0435  1.0917
 1601SOL    HW216437   4.671   0.661   5.772  1.7847 -0.5063 -0.0807
 1602SOL     OW16438   2.764   1.708   3.891 -0.4252 -0.2889  0.2115
 1602SOL    HW116439   2.709   1.642   3.933 -1.5899  1.5590  1.6406
 1602SOL    HW216440   2.842   1.710   3.946  0.5231  1.7179 -1.2194
 1603SOL     OW16441   1.844   1.728   9.269  0.0410  0.5089  0.1677
 1603SOL    HW116442   1.844   1.662   9.338  1.3287 -0.8696 -1.1569
 1603SOL    HW216443   1.931   1.763   9.290  0.2316  0.8192 -1.1663
 1604SOL     OW16444   4.476   1.014   8.571  0.4660  0.5227 -0.3060
 1604SOL    HW116445   4.460   1.087   8.631  0.5739  3.4187 -3.8170
 1604SOL    HW216446   4.401   0.957   8.587  0.9139  0.0446  0.1046
 1605SOL     OW16447   0.673   2.979   2.185  0.3623 -0.2556 -0.6253
 1605SOL    HW116448   0.700   2.936   2.105 -0.5720 -0.3977 -0.8662
 1605SOL    HW216449   0.752   2.974   2.239 -0.3425 -3.6116  0.0989
 1606SOL     OW16450   0.189   0.655  11.260 -0.5543 -0.1557 -0.1911
 1606SOL    HW116451   0.145   0.682  11.340 -1.6596 -2.9353  0.1326
 1606SOL    HW216452   0.161   0.724  11.200 -1.3437 -1.1592 -0.9794
 1607SOL     OW16453   0.415   0.301   5.471 -0.5807  0.2305  1.0724
 1607SOL    HW116454   0.441   0.252   5.549  0.4837  0.4630  0.8698
 1607SOL    HW216455   0.387   0.235   5.408 -0.1841  1.7922 -0.7405
 1608SOL     OW16456   1.631   1.294   9.205  0.5378  0.3673 -0.0641
 1608SOL    HW116457   1.623   1.199   9.195  0.6091  0.4385 -0.7690
 1608SOL    HW216458   1.580   1.304   9.285  1.1780 -2.1623  0.6535
 1609SOL     OW16459   3.497   3.711   9.277 -0.0329  0.2718 -0.0100
 1609SOL    HW116460   3.454   3.787   9.318 -1.6069 -1.7410  2.0812
 1609SOL    HW216461   3.445   3.703   9.197 -0.3447  0.1359  0.2031
 1610SOL     OW16462   0.997   0.619   4.620  0.0111 -0.1450  0.4066
 1610SOL    HW116463   1.061   0.636   4.551 -1.7152  1.8286 -0.7255
 1610SOL    HW216464   1.019   0.670   4.698  1.1120  2.3643 -1.5401
 1611SOL     OW16465   1.126   1.581   4.557  0.1079 -0.1000  0.6268
 1611SOL    HW116466   1.172   1.510   4.601  0.5403 -0.2527 -0.0726
 1611SOL    HW216467   1.046   1.580   4.610  0.3386  0.5121  0.9928
 1612SOL     OW16468   1.469   4.398   6.675 -0.1944  0.1502 -0.3963
 1612SOL    HW116469   1.478   4.310   6.639  2.1067  0.8637 -1.5245
 1612SOL    HW216470   1.503   4.393   6.764 -2.1778 -2.2146  0.2334
 1613SOL     OW16471   4.278   3.141   3.802  0.1444 -0.1220  0.4248
 1613SOL    HW116472   4.191   3.148   3.764  0.3159 -1.8728 -0.2488
 1613SOL    HW216473   4.270   3.206   3.872 -0.5685 -0.0146  0.2414
 1614SOL     OW16474   1.860   1.379   2.462  0.0741  0.1800  0.2790
 1614SOL    HW116475   1.908   1.458   2.437  0.4361 -0.0924  0.0926
 1614SOL    HW216476   1.888   1.370   2.553  0.4993 -1.9618 -0.0507
 1615SOL     OW16477   0.492   1.395   7.356 -0.0484  0.0425 -0.1409
 1615SOL    HW116478   0.437   1.359   7.426 -0.4330 -2.1369 -1.5938
 1615SOL    HW216479   0.574   1.410   7.402 -0.4783 -0.1814  0.7046
 1616SOL     OW16480   1.117   1.851   8.347  0.4197 -0.3025 -0.0580
 1616SOL    HW116481   1.200   1.896   8.363 -0.0632  0.9996 -1.2323
 1616SOL    HW216482   1.101   1.791   8.419  0.6250 -0.3686 -0.0670
 1617SOL     OW16483   3.310   2.149  16.243  0.2516  0.5435 -0.1844
 1617SOL    HW116484   3.343   2.146  16.153 -0.4823 -0.2986 -0.4157
 1617SOL    HW216485   3.223   2.186  16.228  0.2123  0.5825  0.1427
 1618SOL     OW16486   0.422   3.964   1.623  0.4066  0.3050  0.5233
 1618SOL    HW116487   0.338   3.919   1.611  1.1638 -1.0588  0.4040
 1618SOL    HW216488   0.437   3.995   1.533  1.9353  0.8401  0.9705
 1619SOL     OW16489   4.459   0.365   4.961 -0.5211  0.0288  0.2761
 1619SOL    HW116490   4.523   0.360   5.032 -0.6899  0.6298  0.4652
 1619SOL    HW216491   4.383   0.324   5.002 -0.6801 -0.5575 -0.6064
 1620SOL     OW16492   0.023   3.349   2.390  0.2129 -0.0532  0.9157
 1620SOL    HW116493   0.115   3.351   2.418  0.0476  0.5208  1.4265
 1620SOL    HW216494   4.725   3.436   2.371  0.9151  0.1849  0.6755
 1621SOL     OW16495   1.004   2.632  17.066 -0.8536 -0.2304 -0.4351
 1621SOL    HW116496   1.046   2.613  16.983  1.4868 -1.6241  1.1044
 1621SOL    HW216497   1.058   2.594  17.135 -2.2783 -1.9615 -0.2698
 1622SOL     OW16498   1.397   0.627   8.805 -0.0712 -0.2763 -0.4132
 1622SOL    HW116499   1.481   0.591   8.833 -0.4879 -0.8824  0.0738
 1622SOL    HW216500   1.423   0.630   8.713  1.0520 -2.5267 -0.1671
 1623SOL     OW16501   2.600   2.110   9.306  0.3639  0.0148 -0.1593
 1623SOL    HW116502   2.634   2.061   9.381 -0.0544  1.3528  0.8977
 1623SOL    HW216503   2.536   2.172   9.341  2.3195  1.5038  0.7630
 1624SOL     OW16504   2.767   0.652   5.814  0.3744 -0.3725  0.4407
 1624SOL    HW116505   2.744   0.598   5.890  0.6044  0.5120  1.1415
 1624SOL    HW216506   2.724   0.736   5.831 -1.2821 -1.1725  0.2017
 1625SOL     OW16507   1.850   1.657   6.783  0.0187  0.1896 -0.3252
 1625SOL    HW116508   1.837   1.563   6.797 -3.8897  0.6743 -0.7007
 1625SOL    HW216509   1.945   1.660   6.770  0.4884 -1.7556  2.6184
 1626SOL     OW16510   0.847   1.775   2.504 -0.2331  0.1604 -0.2132
 1626SOL    HW116511   0.844   1.713   2.431 -3.7297  1.4174 -1.1259
 1626SOL    HW216512   0.938   1.802   2.488  0.0729 -1.5789 -1.3763
 1627SOL     OW16513   2.681   2.761   3.260  0.1134  0.0834  0.0926
 1627SOL    HW116514   2.762   2.784   3.214 -0.7520  1.0949 -0.9151
 1627SOL    HW216515   2.644   2.849   3.260  2.8495  1.2629 -1.2372
 1628SOL     OW16516   1.930   3.621   4.067 -0.4773 -0.1428  0.4050
 1628SOL    HW116517   1.919   3.527   4.051  1.9384  0.0008 -2.2721
 1628SOL    HW216518   1.950   3.617   4.161  1.3689  1.8471  0.0997
 1629SOL     OW16519   3.355   4.351  14.511  0.2144  0.2004 -0.2295
 1629SOL    HW116520   3.298   4.336  14.436 -0.7919  2.0080  0.1471
 1629SOL    HW216521   3.353   4.265  14.552  3.1064  0.7277  1.0160
 1630SOL     OW16522   4.340   0.304  17.618 -0.1991 -0.3894 -0.8254
 1630SOL    HW116523   4.381   0.220  17.597  0.3856 -0.1126 -0.7997
 1630SOL    HW216524   4.405   0.366  17.586  0.3821  0.2059  1.5399
 1631SOL     OW16525   4.594   1.562  13.639  0.3579 -0.1160  0.2128
 1631SOL    HW116526   4.514   1.612  13.652 -0.4564 -2.1683  3.0057
 1631SOL    HW216527   4.639   1.613  13.571  1.0586  0.2546  0.9601
 1632SOL     OW16528   3.453   2.154   9.639 -0.6039  0.0172  0.2016
 1632SOL    HW116529   3.451   2.066   9.676  0.5988 -0.2550 -0.3724
 1632SOL    HW216530   3.358   2.167   9.632 -0.5488  0.0099 -0.4888
 1633SOL     OW16531   1.645   2.937  12.575  0.2715  0.2799  0.2523
 1633SOL    HW116532   1.603   2.851  12.572  0.4874  0.1269  1.9589
 1633SOL    HW216533   1.574   2.989  12.612  0.7116 -0.6776  2.4214
 1634SOL     OW16534   2.867   3.391   4.265  0.5584 -0.1863 -0.3883
 1634SOL    HW116535   2.774   3.369   4.270  0.5014  0.0273 -0.5070
 1634SOL    HW216536   2.903   3.317   4.313 -1.4016  0.5893  2.2476
 1635SOL     OW16537   3.292   4.097   8.692  0.1893  0.4844  0.0452
 1635SOL    HW116538   3.384   4.102   8.666  0.4401  2.3761  1.2863
 1635SOL    HW216539   3.294   4.137   8.779  0.3807  1.8446 -0.5718
 1636SOL     OW16540   4.107   0.673   6.724 -0.1111  0.1960  0.5838
 1636SOL    HW116541   4.166   0.748   6.716  0.1306 -0.0603 -0.0994
 1636SOL    HW216542   4.034   0.706   6.777 -1.4834  0.6195 -1.5571
 1637SOL     OW16543   2.423   1.716  10.097 -0.7905  0.1454 -0.1715
 1637SOL    HW116544   2.446   1.699  10.189 -1.1915 -0.1429 -0.1246
 1637SOL    HW216545   2.412   1.810  10.111 -2.3759 -0.1658  0.7140
 1638SOL     OW16546   1.248   0.461   7.447 -0.5210  0.2612 -0.1980
 1638SOL    HW116547   1.206   0.420   7.371 -0.6780  1.4416 -0.7489
 1638SOL    HW216548   1.312   0.389   7.450 -0.3865  0.4424  1.0255
 1639SOL     OW16549   4.649   4.381   4.922  0.0407  0.6094  0.2367
 1639SOL    HW116550   4.648   4.286   4.912 -0.8193  0.6519 -0.0067
 1639SOL    HW216551   4.732   4.391   4.969  2.3314  0.6182 -3.7855
 1640SOL     OW16552   3.007   1.932   8.890  0.0420 -0.4687  0.1267
 1640SOL    HW116553   3.101   1.935   8.909  0.8420 -0.1952 -3.8791
 1640SOL    HW216554   3.014   1.886   8.807 -0.1527  2.4155 -1.4950
 1641SOL     OW16555   3.335   1.937   7.316  0.1867  0.4070 -0.1066
 1641SOL    HW116556   3.345   1.971   7.227 -0.1904 -1.5044 -0.8984
 1641SOL    HW216557   3.240   1.935   7.321  0.2636 -0.7564  0.8542
 1642SOL     OW16558   0.740   3.732   0.624  0.1671  0.4786  0.0835
 1642SOL    HW116559   0.778   3.723   0.537 -0.5947 -0.7863 -0.1256
 1642SOL    HW216560   0.818   3.761   0.670  1.1545 -1.5270 -0.3034
 1643SOL     OW16561   1.627   0.024   7.658 -0.1408  0.4499 -0.6532
 1643SOL    HW116562   1.598   4.695   7.720  1.8631 -1.4656 -1.7569
 1643SOL    HW216563   1.706   0.050   7.707  0.7057 -0.9855 -1.2682
 1644SOL     OW16564   4.393   2.637   9.942  0.1009 -0.3270 -0.0770
 1644SOL    HW116565   4.486   2.629   9.960 -0.2038 -0.5047  1.4174
 1644SOL    HW216566   4.391   2.733   9.935 -1.0519 -0.2165  1.7618
 1645SOL     OW16567   1.944   2.171   2.115 -0.3008  0.3533 -0.3594
 1645SOL    HW116568   1.890   2.093   2.124 -0.2597  0.1749 -1.6173
 1645SOL    HW216569   2.022   2.144   2.066  0.0549  0.2467  0.2709
 1646SOL     OW16570   2.429   3.937   1.473 -0.2535 -0.4309  0.2861
 1646SOL    HW116571   2.444   3.970   1.561  1.2539 -2.1493  0.6807
 1646SOL    HW216572   2.333   3.933   1.467 -0.1843 -1.9453 -0.0030
 1647SOL     OW16573   2.628   1.524   4.040  0.0196 -0.0328  0.4792
 1647SOL    HW116574   2.545   1.554   4.077 -0.5386 -0.2018 -0.6337
 1647SOL    HW216575   2.598   1.445   3.995 -1.1065  1.3167 -1.1337
 1648SOL     OW16576   4.580   4.430   1.588 -1.0997  0.6923  0.1322
 1648SOL    HW116577   4.649   4.495   1.588  1.2794 -1.8224 -3.0719
 1648SOL    HW216578   4.600   4.375   1.664 -1.1156 -1.5021 -1.4612
 1649SOL     OW16579   3.447   3.280   2.526 -0.3425 -0.7283  0.2466
 1649SOL    HW116580   3.497   3.267   2.606 -0.5985  0.6081  0.6299
 1649SOL    HW216581   3.369   3.237   2.560 -0.9644  0.6278  0.5408
 1650SOL     OW16582   0.920   3.880  11.297  0.1841 -0.0738  0.0375
 1650SOL    HW116583   1.016   3.869  11.298  0.3144  1.0934  0.0521
 1650SOL    HW216584   0.908   3.943  11.368  1.2774  1.3833 -1.0761
 1651SOL     OW16585   0.719   1.469   1.831 -0.5011 -0.2276  0.1836
 1651SOL    HW116586   0.804   1.429   1.848 -0.0565 -0.8668 -3.5101
 1651SOL    HW216587   0.741   1.531   1.761 -1.0708 -0.5730 -0.2987
 1652SOL     OW16588   0.205   3.351   7.926  0.6456 -0.0592  0.4017
 1652SOL    HW116589   0.224   3.444   7.937  1.3778 -0.0626 -0.8471
 1652SOL    HW216590   0.122   3.339   7.972  0.1607 -1.2331 -0.7736
 1653SOL     OW16591   0.245   2.236   5.449  0.2645  0.4116  0.1436
 1653SOL    HW116592   0.310   2.306   5.440  2.4033 -1.3975  1.2780
 1653SOL    HW216593   0.170   2.249   5.391  0.7947  2.7631 -0.0067
 1654SOL     OW16594   4.256   4.380   3.389  0.3986  0.1904  0.4289
 1654SOL    HW116595   4.199   4.314   3.428  0.4069 -0.0641  0.0103
 1654SOL    HW216596   4.338   4.331   3.395  0.2257 -0.1942 -0.4757
 1655SOL     OW16597   2.086   1.003   1.114  0.2956  0.4283  0.2640
 1655SOL    HW116598   2.136   0.977   1.037 -0.0122 -3.4657  1.3863
 1655SOL    HW216599   2.079   1.098   1.100 -0.6633  0.0250 -1.9846
 1656SOL     OW16600   1.896   1.108   2.467  0.2701 -0.3146  0.7877
 1656SOL    HW116601   1.846   1.062   2.400 -2.7158 -0.1623  2.9420
 1656SOL    HW216602   1.870   1.198   2.449 -0.2308 -0.3555  1.3015
 1657SOL     OW16603   1.344   1.291   2.572  0.3118 -0.0095 -0.0935
 1657SOL    HW116604   1.253   1.316   2.554  0.0008  0.0930  1.6086
 1657SOL    HW216605   1.381   1.266   2.488  1.1653  1.8306 -0.2705
 1658SOL     OW16606   3.292   3.154  12.961  0.3285  0.0501  0.1713
 1658SOL    HW116607   3.199   3.146  12.937  0.3523  3.1098 -0.9559
 1658SOL    HW216608   3.308   3.230  12.905  0.9691  0.2327  0.6138
 1659SOL     OW16609   0.816   0.857   2.531 -0.1267 -0.0908  0.1364
 1659SOL    HW116610   0.775   0.771   2.535 -0.1545  0.0369  2.4180
 1659SOL    HW216611   0.737   0.907   2.509 -0.6871 -1.3191 -0.6909
 1660SOL     OW16612   3.655   3.558   3.925  0.0830  0.1496  0.6374
 1660SOL    HW116613   3.650   3.580   3.832 -2.5760 -0.6422  0.6039
 1660SOL    HW216614   3.687   3.641   3.963  1.0654 -0.2281  0.6395
 1661SOL     OW16615   3.401   0.027   6.250 -0.4998  0.2387 -0.2718
 1661SOL    HW116616   3.349   0.067   6.320  0.5904 -0.8945  1.1921
 1661SOL    HW216617   3.370   0.067   6.169  0.4452  0.0452 -0.7223
 1662SOL     OW16618   0.052   4.413  17.399  0.3292 -0.3086 -0.6450
 1662SOL    HW116619   0.114   4.452  17.337 -0.4821 -0.8089 -1.7763
 1662SOL    HW216620   0.073   4.320  17.393 -2.7597 -1.0624  0.4825
 1663SOL     OW16621   4.178   3.847   6.073  0.1528  0.0241  0.2950
 1663SOL    HW116622   4.153   3.866   6.164  1.5706 -1.2376  0.9399
 1663SOL    HW216623   4.270   3.872   6.075  0.5253 -1.2833 -0.8580
 1664SOL     OW16624   1.967   4.111   9.483 -0.3814 -0.2837  0.5043
 1664SOL    HW116625   1.956   4.092   9.389  2.9651  2.5515 -0.4819
 1664SOL    HW216626   2.024   4.187   9.475 -1.0743  0.4729  3.2108
 1665SOL     OW16627   2.628   3.144   8.014  0.0543 -0.5064  0.0575
 1665SOL    HW116628   2.588   3.057   8.012 -0.0372 -0.4251 -1.1866
 1665SOL    HW216629   2.680   3.134   8.094 -1.6586  0.2819  1.2621
 1666SOL     OW16630   2.720   1.363  12.729  0.0822  0.3980  0.0908
 1666SOL    HW116631   2.750   1.282  12.687  1.4201 -0.1308  2.0661
 1666SOL    HW216632   2.627   1.343  12.725  0.0961  0.5285 -0.9575
 1667SOL     OW16633   4.715   3.133   8.427 -0.0940 -0.4681  0.0485
 1667SOL    HW116634   4.668   3.118   8.509 -3.2937 -1.8609 -2.0786
 1667SOL    HW216635   4.666   3.209   8.395 -0.6154 -0.6498  0.4025
 1668SOL     OW16636   3.346   4.098  14.913  0.2087  0.3990 -0.4648
 1668SOL    HW116637   3.340   4.041  14.836  2.7007  0.1515 -0.4722
 1668SOL    HW216638   3.381   4.184  14.889  1.5049  0.4002  1.4824
 1669SOL     OW16639   4.622   0.883   2.931  0.5598  0.0693  0.2984
 1669SOL    HW116640   4.628   0.838   3.015  1.5428  0.4739  0.4472
 1669SOL    HW216641   4.708   0.862   2.892  2.3557  0.5563  4.0610
 1670SOL     OW16642   2.012   4.506   2.468 -0.4156  0.0133 -0.3846
 1670SOL    HW116643   2.076   4.450   2.511 -2.0654 -1.8413 -0.3139
 1670SOL    HW216644   2.069   4.550   2.405  0.7534  1.3938  1.6523
 1671SOL     OW16645   4.453   1.327   4.535  0.3139 -0.0990 -0.5870
 1671SOL    HW116646   4.443   1.279   4.453 -0.6081  0.5310 -0.8544
 1671SOL    HW216647   4.403   1.406   4.514  1.0739  0.5756  0.1614
 1672SOL     OW16648   2.686   1.976   3.904  0.3805 -0.6926 -0.5047
 1672SOL    HW116649   2.686   2.013   3.815 -1.5075 -0.6625 -0.4793
 1672SOL    HW216650   2.728   1.891   3.895 -1.4267 -1.3839 -2.4170
 1673SOL     OW16651   4.637   1.832   3.741  0.5448 -0.0610  0.3727
 1673SOL    HW116652   4.556   1.870   3.706  1.0765  1.7781  1.1371
 1673SOL    HW216653   4.687   1.837   3.659  1.4826  0.3194  0.9625
 1674SOL     OW16654   0.417   3.388   9.382 -0.0234  0.1203 -0.5761
 1674SOL    HW116655   0.364   3.459   9.343 -0.2463  0.8348  1.0345
 1674SOL    HW216656   0.502   3.415   9.346  0.7233 -0.9524  0.4086
 1675SOL     OW16657   4.607   0.290   5.178 -0.0426 -0.9224  0.2465
 1675SOL    HW116658   4.608   0.266   5.271  2.3215 -1.6352  0.0406
 1675SOL    HW216659   4.614   0.200   5.146 -0.8231 -0.9097  0.0252
 1676SOL     OW16660   2.020   2.676   8.227  0.4654 -0.4640  0.9663
 1676SOL    HW116661   2.046   2.643   8.313 -0.1781 -1.2753  0.8523
 1676SOL    HW216662   1.988   2.759   8.261  3.4159  0.4317  1.5416
 1677SOL     OW16663   0.569   1.727   1.867  0.2309  0.2950 -0.1618
 1677SOL    HW116664   0.572   1.816   1.902 -1.2753  0.7582 -1.2104
 1677SOL    HW216665   0.639   1.713   1.802 -0.0719 -0.3397 -0.3505
 1678SOL     OW16666   0.276   3.023   7.668  0.1808 -0.0448 -0.3104
 1678SOL    HW116667   0.273   3.085   7.595  0.9096  0.9344  0.5005
 1678SOL    HW216668   0.312   3.081   7.734  0.2077  1.3758 -1.5621
 1679SOL     OW16669   1.696   2.718  14.599  0.4159  0.4602  0.2424
 1679SOL    HW116670   1.776   2.670  14.620  1.3248  2.0170  0.4076
 1679SOL    HW216671   1.720   2.810  14.612 -0.5845  0.6909  0.4503
 1680SOL     OW16672   1.230   0.933  15.380  0.3020  0.6763 -0.0326
 1680SOL    HW116673   1.209   0.841  15.364 -0.8190  1.0018 -0.4274
 1680SOL    HW216674   1.244   0.944  15.474  1.4207 -1.5745  0.0552
 1681SOL     OW16675   3.356   4.071   0.560 -0.2971 -0.1266  0.1310
 1681SOL    HW116676   3.385   4.157   0.530 -1.1094  0.8455  2.1544
 1681SOL    HW216677   3.347   4.027   0.475  0.2518 -0.0077  0.0085
 1682SOL     OW16678   0.346   3.847   3.974  0.2255  0.3008  0.0329
 1682SOL    HW116679   0.436   3.874   3.956 -0.0946  1.4690  0.2063
 1682SOL    HW216680   0.299   3.927   3.998  0.4805 -0.2141  2.2059
 1683SOL     OW16681   4.066   0.537   7.580  0.1064 -0.3102  0.2570
 1683SOL    HW116682   4.078   0.464   7.520  1.3252  0.2887 -0.2325
 1683SOL    HW216683   4.133   0.589   7.535 -1.3661 -0.2683 -1.8496
 1684SOL     OW16684   2.247   4.519   8.887 -0.2277 -0.3864  0.4713
 1684SOL    HW116685   2.201   4.467   8.822 -1.6520 -1.2239  2.1363
 1684SOL    HW216686   2.339   4.508   8.862 -0.2932 -0.0957  0.1006
 1685SOL     OW16687   0.874   1.860   3.815 -0.2113 -0.0444  0.3370
 1685SOL    HW116688   0.787   1.840   3.778 -0.0880  0.5104 -0.2648
 1685SOL    HW216689   0.846   1.888   3.902 -2.4109 -1.0161 -0.0535
 1686SOL     OW16690   3.242   4.311   0.945  0.3411 -0.4354  0.2637
 1686SOL    HW116691   3.244   4.216   0.935  0.4889 -0.5091  0.9796
 1686SOL    HW216692   3.192   4.325   0.865 -0.2909 -0.0334  0.7267
 1687SOL     OW16693   2.437   4.378   1.868 -0.4074  0.2206  1.3553
 1687SOL    HW116694   2.484   4.304   1.907  2.2708  1.1484 -0.1285
 1687SOL    HW216695   2.512   4.426   1.832  1.5420 -1.9103  2.5996
 1688SOL     OW16696   2.792   2.623   6.964  0.3207 -0.2572 -0.0396
 1688SOL    HW116697   2.774   2.653   6.875  0.1434 -1.3270 -0.3605
 1688SOL    HW216698   2.830   2.703   7.000  3.1499 -1.0365 -1.2660
 1689SOL     OW16699   1.115   2.049  12.587 -0.1037 -0.0829  0.6965
 1689SOL    HW116700   1.153   1.988  12.650 -0.1469  0.6625  1.4559
 1689SOL    HW216701   1.181   2.056  12.519  1.2662  0.0482  2.0298
 1690SOL     OW16702   3.268   4.011   2.656  0.0318  0.9263 -0.2805
 1690SOL    HW116703   3.320   4.072   2.605 -1.2685  2.7343  0.5594
 1690SOL    HW216704   3.187   4.057   2.680 -0.5541 -0.7071  0.9347
 1691SOL     OW16705   4.547   1.203   9.725 -0.0190 -0.0238 -0.1573
 1691SOL    HW116706   4.524   1.183   9.634 -0.4829  0.4623 -0.1450
 1691SOL    HW216707   4.461   1.191   9.765 -0.3380 -1.3954 -1.2445
 1692SOL     OW16708   3.109   0.719   3.424 -0.1920 -0.3950 -0.3395
 1692SOL    HW116709   3.145   0.639   3.463  0.5724  0.4828  0.7643
 1692SOL    HW216710   3.190   0.765   3.402 -0.7281  0.5391 -0.3657
 1693SOL     OW16711   1.992   3.616   4.330  0.3949 -0.7434  0.4058
 1693SOL    HW116712   2.070   3.561   4.337  0.0384 -1.1345  1.4181
 1693SOL    HW216713   1.933   3.551   4.369 -1.2845  0.6663  0.2215
 1694SOL     OW16714   2.965   0.170  16.662  0.3252  0.0752  0.6431
 1694SOL    HW116715   3.030   0.128  16.606 -2.7216  0.4831 -3.2735
 1694SOL    HW216716   3.020   0.202  16.733  0.7065  1.5731 -0.3195
 1695SOL     OW16717   2.862   4.189   1.961 -0.4999  0.1067 -0.3716
 1695SOL    HW116718   2.909   4.242   2.025 -1.2497  2.4302 -1.7734
 1695SOL    HW216719   2.889   4.097   1.968  0.3273  0.5875  2.8160
 1696SOL     OW16720   1.800   3.796   4.895  0.0306 -0.0741 -0.2439
 1696SOL    HW116721   1.777   3.779   4.803  1.5695 -0.7476 -0.5027
 1696SOL    HW216722   1.759   3.881   4.911  0.0038 -0.6879  2.9012
 1697SOL     OW16723   1.509   1.416   3.704  0.2252 -0.1452 -0.7504
 1697SOL    HW116724   1.562   1.454   3.634  0.2734  1.8618  0.3528
 1697SOL    HW216725   1.576   1.408   3.772 -0.6225  0.8614  0.2013
 1698SOL     OW16726   3.336   3.952  10.633 -0.0306  0.3006  0.3378
 1698SOL    HW116727   3.375   4.027  10.677  0.3392  0.2105  0.1593
 1698SOL    HW216728   3.410   3.892  10.643  0.8204  1.5695  1.6127
 1699SOL     OW16729   0.748   0.698   1.510 -0.4010 -0.1637  0.0578
 1699SOL    HW116730   0.741   0.670   1.601 -1.6871 -1.3111 -0.3933
 1699SOL    HW216731   0.664   0.745   1.507 -0.1046  0.2104 -2.0640
 1700SOL     OW16732   2.499   0.794   8.134 -0.7176  0.8591  0.2086
 1700SOL    HW116733   2.589   0.823   8.151 -0.8304  1.7532 -0.7042
 1700SOL    HW216734   2.499   0.801   8.038  0.1955  3.8894  0.4214
 1701SOL     OW16735   3.025   1.897   7.098  0.6803  0.0793  0.3512
 1701SOL    HW116736   3.073   1.934   7.024  0.4541  0.2649  0.2956
 1701SOL    HW216737   3.049   1.956   7.170  0.3650  0.2330  0.3310
 1702SOL     OW16738   0.548   3.841  11.699  0.1056  0.9126  0.5303
 1702SOL    HW116739   0.592   3.866  11.617 -0.8798  1.6300  0.2273
 1702SOL    HW216740   0.523   3.750  11.683  2.8826  0.0620  1.0534
 1703SOL     OW16741   3.910   0.966  10.060 -0.3572  0.1817 -0.0047
 1703SOL    HW116742   3.936   1.048  10.019 -0.1213 -1.2319 -2.6541
 1703SOL    HW216743   3.998   0.946  10.092  0.8054  0.8949 -2.7996
 1704SOL     OW16744   4.556   0.411   3.645 -0.1743  0.0630  0.5479
 1704SOL    HW116745   4.480   0.360   3.620  0.5588 -0.9114  0.3258
 1704SOL    HW216746   4.604   0.344   3.693  1.1550 -0.3086 -1.2790
 1705SOL     OW16747   2.650   3.512   1.896  0.0791  0.4391 -0.2392
 1705SOL    HW116748   2.564   3.552   1.910 -0.5197 -0.9827  0.1298
 1705SOL    HW216749   2.680   3.557   1.817 -0.2311 -0.1144 -0.6720
 1706SOL     OW16750   2.245   4.572   9.311 -1.1141  0.4059  0.3589
 1706SOL    HW116751   2.340   4.565   9.319 -1.1129  2.7934  2.3183
 1706SOL    HW216752   2.235   4.624   9.231 -2.2793  0.0165  0.2553
 1707SOL     OW16753   4.277   0.806   3.623 -0.5814 -0.1945  0.1353
 1707SOL    HW116754   4.185   0.821   3.648 -1.2766 -1.4028 -1.7022
 1707SOL    HW216755   4.321   0.805   3.708  1.3574  0.7636 -0.8669
 1708SOL     OW16756   2.551   1.005   4.506 -0.4297 -0.2334  0.0040
 1708SOL    HW116757   2.577   0.942   4.439 -1.9019 -2.9275  1.9643
 1708SOL    HW216758   2.594   1.087   4.484 -0.3658  0.0721  1.2659
 1709SOL     OW16759   1.816   3.592   1.193 -0.1762  0.3383 -0.0938
 1709SOL    HW116760   1.832   3.652   1.120  1.3871 -1.6092 -1.3454
 1709SOL    HW216761   1.720   3.594   1.203 -0.4832 -0.4235 -2.8866
 1710SOL     OW16762   3.527   2.803   1.254  0.0553  0.4695  0.1399
 1710SOL    HW116763   3.476   2.883   1.241 -0.5084  0.2309  0.9243
 1710SOL    HW216764   3.482   2.754   1.322 -1.1940  0.7536 -0.4859
 1711SOL     OW16765   4.461   4.100   6.243 -0.3709 -0.2042 -0.2073
 1711SOL    HW116766   4.502   4.179   6.280 -0.5917  0.9902 -2.4974
 1711SOL    HW216767   4.390   4.142   6.194  0.4853  1.4676 -0.0360
 1712SOL     OW16768   0.556   0.287  16.104  0.0086 -0.0473 -0.3821
 1712SOL    HW116769   0.591   0.229  16.037  1.9829  1.1727 -0.4121
 1712SOL    HW216770   0.631   0.296  16.162 -0.5039 -0.9321  0.4095
 1713SOL     OW16771   0.700   0.048   7.886 -0.7461 -0.3460  0.3098
 1713SOL    HW116772   0.706   0.105   7.963  0.5415 -0.5847  0.3853
 1713SOL    HW216773   0.628   4.730   7.917 -1.1804  0.2451  0.3503
 1714SOL     OW16774   3.015   2.783  12.087  0.0512 -0.5545 -0.4150
 1714SOL    HW116775   3.106   2.758  12.102 -0.4853 -1.7233  0.9242
 1714SOL    HW216776   2.980   2.756  12.172 -1.2272  1.6087 -0.2671
 1715SOL     OW16777   0.500   4.468  15.315  0.0343  0.1636  0.0038
 1715SOL    HW116778   0.491   4.469  15.410  0.0333 -1.1515  0.0221
 1715SOL    HW216779   0.575   4.409  15.305  0.1725  0.2306  0.6254
 1716SOL     OW16780   0.608   1.958   5.973  0.0164  0.7801 -0.3150
 1716SOL    HW116781   0.548   2.001   6.034 -1.5261  0.0196 -1.2919
 1716SOL    HW216782   0.680   2.019   5.959 -0.1389  1.2380  0.9067
 1717SOL     OW16783   1.139   3.693   1.819 -0.5738  0.3774  0.3090
 1717SOL    HW116784   1.148   3.615   1.874  0.3892 -0.0957 -0.5153
 1717SOL    HW216785   1.052   3.678   1.783 -0.7083 -0.7748  1.0917
 1718SOL     OW16786   3.661   0.609   2.349 -0.9335 -0.1187 -0.3840
 1718SOL    HW116787   3.738   0.558   2.324  0.3503  1.4786  0.2614
 1718SOL    HW216788   3.688   0.700   2.332 -1.6937  0.5260  1.7777
 1719SOL     OW16789   2.626   1.627   1.326  0.4140 -0.2554  0.1161
 1719SOL    HW116790   2.677   1.562   1.374  1.2524 -0.7735 -1.4767
 1719SOL    HW216791   2.667   1.623   1.240 -0.8175  1.7472 -0.5624
 1720SOL     OW16792   1.942   1.114   9.295 -0.3911 -0.1156  0.0109
 1720SOL    HW116793   1.963   1.202   9.326  1.1186 -0.5384  0.1684
 1720SOL    HW216794   2.012   1.095   9.233  0.6170  3.1746  0.1312
 1721SOL     OW16795   1.357   3.753   2.984 -0.5387  0.3185  0.2025
 1721SOL    HW116796   1.288   3.729   2.923 -1.2888  0.7844  0.8688
 1721SOL    HW216797   1.323   3.716   3.066  0.1663 -1.5608 -0.3682
 1722SOL     OW16798   1.341   0.111   6.157  0.0740 -0.0210  0.1942
 1722SOL    HW116799   1.384   0.135   6.239 -0.8553 -0.2495  0.7512
 1722SOL    HW216800   1.274   0.180   6.165 -0.8743 -0.7240 -1.9417
 1723SOL     OW16801   1.993   2.961   1.113 -0.5788 -0.3165  0.0034
 1723SOL    HW116802   2.041   2.880   1.128 -2.1699 -0.8245  2.3398
 1723SOL    HW216803   2.067   3.008   1.075  0.7663 -0.9584  1.8801
 1724SOL     OW16804   3.699   0.502   9.424  0.6498 -0.0406  0.1418
 1724SOL    HW116805   3.695   0.596   9.408 -1.4087 -0.0249  0.8054
 1724SOL    HW216806   3.738   0.490   9.510 -1.9894 -0.5322  1.2602
 1725SOL     OW16807   2.326   4.078  15.038  0.1466 -0.1888  0.3020
 1725SOL    HW116808   2.235   4.103  15.053  0.7825  1.4445  1.4399
 1725SOL    HW216809   2.362   4.166  15.045 -0.9428  0.3197 -0.6270
 1726SOL     OW16810   4.717   4.269  14.977  0.2503  0.2900  0.3050
 1726SOL    HW116811   4.710   4.324  14.898  1.4229 -0.1607 -0.1090
 1726SOL    HW216812   4.639   4.301  15.022  0.4785  1.6764 -0.2603
 1727SOL     OW16813   2.272   3.800  14.026  0.0922  0.3689  0.1979
 1727SOL    HW116814   2.193   3.790  13.972 -0.1245  1.4757  0.3104
 1727SOL    HW216815   2.234   3.857  14.093 -1.5794 -2.9511  2.0742
 1728SOL     OW16816   0.076   3.153   5.024  0.1279 -0.0682  0.3263
 1728SOL    HW116817   4.733   3.194   4.992  1.8596  2.4039 -0.8232
 1728SOL    HW216818   0.141   3.177   4.958 -0.3501 -3.4275 -1.3932
 1729SOL     OW16819   3.984   2.399   6.577  0.2429 -0.7426  0.1114
 1729SOL    HW116820   4.012   2.406   6.668  0.3201  0.1782  0.0237
 1729SOL    HW216821   4.000   2.489   6.546  1.9844 -1.1127 -0.0667
 1730SOL     OW16822   1.517   1.852   1.274 -0.3017  0.5825  0.5965
 1730SOL    HW116823   1.467   1.881   1.350  0.2054 -1.2135  1.5991
 1730SOL    HW216824   1.591   1.913   1.280 -0.6233  0.9406  0.9651
 1731SOL     OW16825   4.085   3.018   5.414  0.0381  0.0027 -0.2355
 1731SOL    HW116826   4.101   2.990   5.504 -1.0717  1.5917  0.4490
 1731SOL    HW216827   4.169   3.060   5.394 -0.8700  1.7818 -0.3104
 1732SOL     OW16828   4.676   4.284   1.979  0.3238 -1.0333  0.2759
 1732SOL    HW116829   4.672   4.249   1.890  3.7107  1.5987 -0.8704
 1732SOL    HW216830   4.735   4.222   2.022  0.2094  0.0768  2.0280
 1733SOL     OW16831   3.560   0.632   6.274  0.2785  0.2772 -0.2533
 1733SOL    HW116832   3.567   0.647   6.180 -0.9273  2.0930 -0.0590
 1733SOL    HW216833   3.570   0.721   6.309  2.0604 -1.1175  2.7612
 1734SOL     OW16834   3.177   4.563   7.219  0.3336 -0.0852 -0.2893
 1734SOL    HW116835   3.185   4.659   7.218 -2.2621  0.1709  3.0226
 1734SOL    HW216836   3.185   4.549   7.313  2.2464  0.5423 -0.3528
 1735SOL     OW16837   0.329   2.677  12.052  0.0736  0.5108 -0.5585
 1735SOL    HW116838   0.365   2.696  11.965  1.6656 -0.4220 -0.0899
 1735SOL    HW216839   0.270   2.752  12.063 -0.5815 -0.4904  2.6745
 1736SOL     OW16840   0.311   4.515  16.044  0.4509 -0.4839 -0.1810
 1736SOL    HW116841   0.216   4.502  16.037  0.6002 -1.1923 -0.8652
 1736SOL    HW216842   0.339   4.435  16.087  1.7711  0.2076  0.2454
 1737SOL     OW16843   1.463   3.462  16.929  0.0446 -0.3431  0.2565
 1737SOL    HW116844   1.422   3.532  16.982 -2.5212 -2.2094  0.7300
 1737SOL    HW216845   1.528   3.421  16.987 -0.1076 -1.7574 -0.5837
 1738SOL     OW16846   1.035   2.228  17.030 -0.1347  0.5243  0.4120
 1738SOL    HW116847   0.978   2.199  17.101 -0.2738  0.9831  0.4884
 1738SOL    HW216848   0.985   2.224  16.948 -0.0857 -0.4565  0.4320
 1739SOL     OW16849   3.175   0.542   8.694 -0.2889 -0.3503 -0.5577
 1739SOL    HW116850   3.211   0.476   8.754  0.8179 -1.1617 -2.1135
 1739SOL    HW216851   3.087   0.557   8.729 -0.2746 -2.5641  0.3973
 1740SOL     OW16852   4.053   0.852   6.366  0.0235  0.6322  0.2483
 1740SOL    HW116853   4.087   0.880   6.451 -0.1186 -1.0902  0.8756
 1740SOL    HW216854   4.082   0.921   6.307 -0.5121 -0.5300 -1.3706
 1741SOL     OW16855   1.187   3.617  14.111 -0.2584  0.1306 -0.0155
 1741SOL    HW116856   1.160   3.685  14.173 -1.9068 -1.0887  0.5816
 1741SOL    HW216857   1.173   3.663  14.028  0.0110 -1.6513 -1.0366
 1742SOL     OW16858   1.707   4.299   4.503  0.1150 -0.2993  0.5898
 1742SOL    HW116859   1.793   4.301   4.462  0.0018  0.2071  0.3840
 1742SOL    HW216860   1.670   4.384   4.480  2.1618  0.4294 -0.0307
 1743SOL     OW16861   4.561   0.009   6.894 -0.4421  0.2412  0.0797
 1743SOL    HW116862   4.516   4.662   6.886  0.1243  0.1223 -1.8508
 1743SOL    HW216863   4.493   0.076   6.881 -0.9408 -0.4124 -0.6425
 1744SOL     OW16864   2.426   3.956   0.387 -0.0693  0.1221  0.1958
 1744SOL    HW116865   2.405   3.944   0.294 -1.1205  0.2650  0.4187
 1744SOL    HW216866   2.398   4.047   0.397  1.0504  0.4621  0.2381
 1745SOL     OW16867   0.746   4.343  12.877  0.0865  0.2725 -0.3346
 1745SOL    HW116868   0.752   4.438  12.875 -1.6346  0.4092  0.7571
 1745SOL    HW216869   0.804   4.320  12.949 -1.1687 -2.6272 -0.2257
 1746SOL     OW16870   3.934   1.659   2.845  0.1071 -0.3531  0.6449
 1746SOL    HW116871   4.006   1.633   2.787  0.3657  2.4989 -0.3454
 1746SOL    HW216872   3.907   1.741   2.804 -2.6770 -3.3530 -3.5248
 1747SOL     OW16873   1.691   2.448  10.898 -0.2387 -0.6352 -0.3885
 1747SOL    HW116874   1.732   2.378  10.847  1.0945 -0.5576  0.5809
 1747SOL    HW216875   1.638   2.424  10.974 -0.6301  0.4000 -0.3242
 1748SOL     OW16876   1.713   2.227   3.394  0.3352  0.3658 -0.3755
 1748SOL    HW116877   1.722   2.149   3.339  0.1536 -0.8426  1.3108
 1748SOL    HW216878   1.780   2.212   3.462 -0.0025 -1.2534 -0.3886
 1749SOL     OW16879   0.802   3.749   8.283  0.2828 -0.0923 -0.0195
 1749SOL    HW116880   0.859   3.817   8.318  1.6784 -1.2273 -0.0855
 1749SOL    HW216881   0.735   3.742   8.352  0.4003  2.1777  0.3162
 1750SOL     OW16882   2.393   3.979   4.223  0.4837 -0.3627  0.1365
 1750SOL    HW116883   2.420   4.017   4.140  0.6454  0.4908  0.5714
 1750SOL    HW216884   2.328   3.913   4.198  0.4112 -0.5312  0.7690
 1751SOL     OW16885   0.850   3.870   2.171  0.1642  0.2650  0.3078
 1751SOL    HW116886   0.872   3.960   2.148 -0.8152  0.7275  1.2057
 1751SOL    HW216887   0.871   3.824   2.090 -0.6811  1.8718 -0.7971
 1752SOL     OW16888   4.549   1.030   8.060  0.5722  0.7289  0.1453
 1752SOL    HW116889   4.587   0.942   8.063  2.0678  1.2545 -3.4570
 1752SOL    HW216890   4.619   1.094   8.071  2.6420 -1.0223 -2.9471
 1753SOL     OW16891   3.102   4.149  11.093 -0.1492 -0.1701 -0.2294
 1753SOL    HW116892   3.040   4.201  11.042  0.5067 -0.0312 -0.8832
 1753SOL    HW216893   3.086   4.190  11.178 -2.0486 -0.3875 -0.4917
 1754SOL     OW16894   1.728   3.252   4.688 -0.3362 -0.7357 -0.1160
 1754SOL    HW116895   1.716   3.287   4.776  0.7847 -0.3766 -0.0991
 1754SOL    HW216896   1.747   3.161   4.710  1.0266 -0.1943  0.9829
 1755SOL     OW16897   1.583   4.329  15.595 -0.0373 -0.0501 -0.0971
 1755SOL    HW116898   1.655   4.392  15.595 -0.4009  0.3632  1.7129
 1755SOL    HW216899   1.624   4.256  15.549  2.8598  1.8229 -0.4553
 1756SOL     OW16900   0.276   0.173  16.577  0.0352 -0.3937 -0.6299
 1756SOL    HW116901   0.247   0.238  16.640 -2.6078 -1.8843 -0.3048
 1756SOL    HW216902   0.215   0.191  16.505  1.4530  0.5858 -1.5980
 1757SOL     OW16903   3.769   0.331  12.965  0.1212 -0.5833 -0.4284
 1757SOL    HW116904   3.824   0.264  12.923 -1.4188 -0.6856 -2.2857
 1757SOL    HW216905   3.811   0.411  12.934 -1.5191  0.7920  0.8932
 1758SOL     OW16906   4.386   2.994  15.619  0.6432  0.0429  0.6448
 1758SOL    HW116907   4.396   2.942  15.540  0.4681  1.2358 -0.1745
 1758SOL    HW216908   4.293   2.984  15.642  0.1425 -0.6975 -1.6499
 1759SOL     OW16909   3.468   2.466   2.441 -0.2024 -0.8113  0.2713
 1759SOL    HW116910   3.486   2.520   2.518 -2.2435  1.3069 -0.7285
 1759SOL    HW216911   3.435   2.380   2.468 -1.1533  0.2252  2.3827
 1760SOL     OW16912   0.684   2.389  13.233 -0.6245  0.0025 -0.6723
 1760SOL    HW116913   0.651   2.361  13.318 -0.1412  1.7016  0.0869
 1760SOL    HW216914   0.770   2.412  13.266 -1.3665  1.2822  0.3711
 1761SOL     OW16915   0.981   2.526   4.998 -0.2114  0.7102 -0.3565
 1761SOL    HW116916   0.978   2.554   5.089 -0.4958  0.6633 -0.3522
 1761SOL    HW216917   0.964   2.432   5.006 -0.4961  0.8603  0.6950
 1762SOL     OW16918   1.974   2.158   6.272 -0.2014  0.1331 -0.1738
 1762SOL    HW116919   1.895   2.201   6.304 -0.8520  0.2122 -1.8772
 1762SOL    HW216920   1.982   2.088   6.337 -0.5416  1.4072  1.2343
 1763SOL     OW16921   0.957   2.337   1.175  0.2822 -0.0267  0.2692
 1763SOL    HW116922   0.946   2.431   1.186  1.6325  0.1186  0.4036
 1763SOL    HW216923   0.978   2.305   1.263  0.5156 -0.4973  0.0435
 1764SOL     OW16924   3.382   3.404   7.041 -0.0862  0.8394  0.2305
 1764SOL    HW116925   3.402   3.317   7.009 -1.3358  0.2790  0.9674
 1764SOL    HW216926   3.459   3.433   7.091  0.6937 -1.1608  0.1553
 1765SOL     OW16927   1.758   3.052   3.625  0.0689 -0.2278  0.2578
 1765SOL    HW116928   1.679   3.055   3.571 -0.2856 -0.4273  0.7655
 1765SOL    HW216929   1.755   2.956   3.635 -2.6414 -0.1865 -0.1790
 1766SOL     OW16930   2.317   3.097   5.878  0.3539 -0.0328  0.1933
 1766SOL    HW116931   2.338   3.020   5.930  1.4215 -0.7286 -1.2710
 1766SOL    HW216932   2.243   3.138   5.923  1.0064  2.3744 -0.8884
 1767SOL     OW16933   1.107   2.987   8.433  0.0532 -0.5225 -0.1292
 1767SOL    HW116934   1.095   3.080   8.451  0.9970 -0.2203 -1.0587
 1767SOL    HW216935   1.016   2.958   8.426 -0.0303 -0.2111 -0.3124
 1768SOL     OW16936   2.174   2.743   8.469  0.0616 -0.0066  0.4043
 1768SOL    HW116937   2.226   2.822   8.484 -1.5717  0.9047  1.2734
 1768SOL    HW216938   2.229   2.688   8.412 -0.1969 -0.2050  0.3458
 1769SOL     OW16939   0.426   1.971   3.511 -0.0735 -0.3779  0.1536
 1769SOL    HW116940   0.392   1.889   3.547 -1.4466  1.7413  3.7346
 1769SOL    HW216941   0.511   1.942   3.479  0.1464 -0.3134  0.6866
 1770SOL     OW16942   2.645   4.185   6.405  0.2577 -0.1398 -0.5776
 1770SOL    HW116943   2.720   4.143   6.364  0.5074 -1.6658  1.4509
 1770SOL    HW216944   2.695   4.199   6.486 -0.1349 -1.2400 -0.1422
 1771SOL     OW16945   0.972   3.900   1.012 -0.0546  0.7442  0.0733
 1771SOL    HW116946   0.884   3.864   1.021 -0.1878  0.7769 -1.1047
 1771SOL    HW216947   0.997   3.835   0.946  0.5275 -0.0587  1.0808
 1772SOL     OW16948   1.266   1.795   2.057 -0.4274 -0.3667 -0.5285
 1772SOL    HW116949   1.331   1.727   2.038  0.1448 -0.5311  1.9537
 1772SOL    HW216950   1.332   1.861   2.082 -0.9426  0.4095 -1.2335
 1773SOL     OW16951   3.641   2.239   2.755  0.4480  0.5697 -0.1390
 1773SOL    HW116952   3.614   2.181   2.826 -0.5356  0.6203 -0.4726
 1773SOL    HW216953   3.652   2.186   2.676  0.5564  0.3260  0.0389
 1774SOL     OW16954   2.876   3.631   0.805  0.2014 -0.0099 -0.0758
 1774SOL    HW116955   2.937   3.589   0.744 -0.6363 -0.9446 -0.2811
 1774SOL    HW216956   2.942   3.676   0.857  1.1170 -1.6706  0.2018
 1775SOL     OW16957   2.690   1.587  16.910 -0.1334  0.4764 -0.1271
 1775SOL    HW116958   2.647   1.640  16.977 -2.8576 -1.4304 -0.3261
 1775SOL    HW216959   2.655   1.619  16.827 -0.4711  0.4843  0.0169
 1776SOL     OW16960   2.026   2.684   7.865 -0.1130  0.5054  0.1925
 1776SOL    HW116961   2.097   2.713   7.922 -0.6885 -1.0055  1.6457
 1776SOL    HW216962   1.997   2.770   7.832 -0.1822  0.2560 -0.3986
 1777SOL     OW16963   2.471   1.840   5.108 -0.0680  0.0655 -0.6726
 1777SOL    HW116964   2.440   1.875   5.025 -1.1801  1.1676  0.2210
 1777SOL    HW216965   2.555   1.884   5.116 -0.5262  0.7833  0.1407
 1778SOL     OW16966   3.287   2.195   1.670 -0.1502 -0.1964 -0.6899
 1778SOL    HW116967   3.271   2.147   1.751  0.2657 -2.0820 -1.7383
 1778SOL    HW216968   3.217   2.260   1.676  1.4440  1.2227  2.6692
 1779SOL     OW16969   2.173   0.781   6.165  0.2087 -0.0173 -0.2191
 1779SOL    HW116970   2.120   0.852   6.202 -0.6364 -0.3771 -0.7186
 1779SOL    HW216971   2.230   0.828   6.104 -1.2156 -0.6524 -2.0566
 1780SOL     OW16972   2.541   4.652   4.819  0.8484 -0.4177 -0.0803
 1780SOL    HW116973   2.622   4.634   4.867 -0.4715 -1.5645  1.7288
 1780SOL    HW216974   2.484   4.687   4.888  1.7200  2.6599 -0.9120
 1781SOL     OW16975   3.566   1.190   5.410 -0.4392 -0.1347  0.4814
 1781SOL    HW116976   3.654   1.188   5.373 -0.4383  1.5160  0.3997
 1781SOL    HW216977   3.580   1.120   5.475 -0.9393  1.5552  2.3978
 1782SOL     OW16978   1.978   1.480  10.044 -0.2716  0.0374 -0.6597
 1782SOL    HW116979   1.883   1.475  10.051 -0.3286  2.1495  0.0263
 1782SOL    HW216980   1.982   1.575  10.035  2.1986 -0.0569 -0.7077
 1783SOL     OW16981   0.797   3.610   7.905 -0.0505 -0.1312 -0.3084
 1783SOL    HW116982   0.827   3.530   7.949 -0.5616  0.6271  1.4455
 1783SOL    HW216983   0.869   3.631   7.846  0.8598  1.0712  1.2362
 1784SOL     OW16984   0.960   1.106   9.767  0.2515  0.4290  0.5466
 1784SOL    HW116985   0.924   1.189   9.799 -0.8661 -0.0505  0.5476
 1784SOL    HW216986   0.889   1.047   9.794 -1.1916  2.3110  0.8168
 1785SOL     OW16987   1.347   4.104   0.699  0.1897  0.1535 -0.1145
 1785SOL    HW116988   1.276   4.050   0.663  0.4200 -1.9281  2.5312
 1785SOL    HW216989   1.314   4.135   0.783  1.4938  0.6538  0.2085
 1786SOL     OW16990   2.659   3.999  13.814  0.6291  0.2510 -0.1213
 1786SOL    HW116991   2.627   4.005  13.724  0.4851  3.5107  0.1391
 1786SOL    HW216992   2.601   3.927  13.838 -0.3002  0.6672 -1.1278
 1787SOL     OW16993   4.425   3.616   2.436 -0.7679  0.1662  0.1857
 1787SOL    HW116994   4.381   3.531   2.444  0.6385 -0.7683 -2.1241
 1787SOL    HW216995   4.474   3.604   2.517 -0.4064  0.1871 -0.0303
 1788SOL     OW16996   0.417   2.297   7.012  0.4330 -0.5561  0.4709
 1788SOL    HW116997   0.392   2.278   6.922  0.8637  0.6706  0.0954
 1788SOL    HW216998   0.460   2.382   6.996 -1.8826  0.6597  0.7378
 1789SOL     OW16999   2.730   3.722   3.110  0.6209 -0.7011 -0.6689
 1789SOL    HW117000   2.803   3.679   3.066 -0.2350 -1.9118 -0.9198
 1789SOL    HW217001   2.754   3.814   3.118  3.3597 -1.5225  0.3343
 1790SOL     OW17002   3.405   3.905   9.435  0.3058  0.3623  0.3311
 1790SOL    HW117003   3.318   3.889   9.398 -0.8384  1.2991  2.6228
 1790SOL    HW217004   3.387   3.881   9.525 -0.0464  0.3969  0.2679
 1791SOL     OW17005   1.984   0.764   4.605 -0.0063  0.3208  0.4884
 1791SOL    HW117006   1.934   0.683   4.600  1.5034 -0.5770 -0.0538
 1791SOL    HW217007   1.991   0.786   4.698  1.4593 -0.7016  0.6205
 1792SOL     OW17008   4.497   3.614  11.478  0.8388  0.0595 -0.0801
 1792SOL    HW117009   4.532   3.576  11.560  0.4987  1.1037  0.5454
 1792SOL    HW217010   4.411   3.627  11.517  0.7456 -0.7047 -0.0183
 1793SOL     OW17011   3.268   3.546  13.103 -0.4079  0.4919 -0.2683
 1793SOL    HW117012   3.251   3.631  13.063 -1.7190 -0.2904 -1.3701
 1793SOL    HW217013   3.229   3.545  13.191 -0.8259 -2.0006 -0.4739
 1794SOL     OW17014   3.650   4.485   1.874 -0.2027 -0.1579 -0.0892
 1794SOL    HW117015   3.579   4.438   1.830 -0.5469 -0.2397  0.5526
 1794SOL    HW217016   3.722   4.425   1.853 -0.5954 -0.7207  0.1495
 1795SOL     OW17017   0.570   2.390   1.128  0.9594 -0.2673 -0.0924
 1795SOL    HW117018   0.601   2.410   1.216 -0.1841  0.2534  0.1970
 1795SOL    HW217019   0.597   2.468   1.081 -2.4100  1.0359  0.1255
 1796SOL     OW17020   3.786   1.655   4.392  0.1837  0.1218 -0.6040
 1796SOL    HW117021   3.816   1.629   4.479  0.2320 -2.3587 -1.3591
 1796SOL    HW217022   3.769   1.569   4.353 -2.3400  0.1137  0.4696
 1797SOL     OW17023   4.243   1.779   7.410 -0.1824 -0.0435  0.2608
 1797SOL    HW117024   4.337   1.766   7.398 -0.0275 -0.2631  1.7214
 1797SOL    HW217025   4.224   1.709   7.474  0.1214  0.7188  1.1824
 1798SOL     OW17026   3.082   1.810   8.649 -0.2456 -0.4669 -0.3963
 1798SOL    HW117027   3.062   1.765   8.567  1.4680  0.1312 -1.1473
 1798SOL    HW217028   3.129   1.889   8.621  0.9610  0.0756  3.1576
 1799SOL     OW17029   2.027   0.017  11.175  0.3694 -0.5177  0.4283
 1799SOL    HW117030   2.073   0.053  11.251  0.1995 -0.0929  0.3280
 1799SOL    HW217031   2.093   0.037  11.109  0.7155 -0.5130  0.7738
 1800SOL     OW17032   0.572   2.101   9.723  0.2868  0.4196  0.1445
 1800SOL    HW117033   0.576   2.042   9.798  0.6523 -2.7972 -2.4231
 1800SOL    HW217034   0.628   2.065   9.654 -0.6549 -0.4245 -0.1737
 1801SOL     OW17035   0.720   4.424   3.626 -0.0033  0.4114 -0.3521
 1801SOL    HW117036   0.796   4.370   3.603  1.5569  1.6108  1.9586
 1801SOL    HW217037   0.673   4.433   3.543  1.0425  2.4729 -0.7057
 1802SOL     OW17038   0.285   0.683   2.475  0.2082 -0.2049  0.1075
 1802SOL    HW117039   0.200   0.659   2.439 -0.1641  0.8826  0.2530
 1802SOL    HW217040   0.330   0.599   2.478  1.8105  0.7675  2.8358
 1803SOL     OW17041   2.200   2.629   4.232 -0.7451  0.3806 -0.4918
 1803SOL    HW117042   2.172   2.543   4.202 -0.8289  0.7761 -1.5417
 1803SOL    HW217043   2.174   2.688   4.161 -3.0568 -0.4492 -0.3233
 1804SOL     OW17044   3.360   4.386   7.617  0.0310 -0.2953 -0.3273
 1804SOL    HW117045   3.416   4.435   7.677  2.0733 -2.0238 -0.8145
 1804SOL    HW217046   3.416   4.362   7.543  2.5397  3.0989  0.4734
 1805SOL     OW17047   1.533   0.918  17.595 -0.0430 -0.4139  0.4999
 1805SOL    HW117048   1.625   0.941  17.580  0.0970 -1.4012 -0.1605
 1805SOL    HW217049   1.504   0.908  17.505  0.2988 -2.2110  0.5896
 1806SOL     OW17050   0.930   4.015   8.329  0.0630  0.3676 -0.0471
 1806SOL    HW117051   0.926   4.033   8.235 -2.1210 -0.6600 -0.1619
 1806SOL    HW217052   1.023   3.995   8.334  0.3036  1.5004  0.0238
 1807SOL     OW17053   0.056   4.567   2.748 -0.0338 -0.4933 -0.3046
 1807SOL    HW117054   0.031   4.475   2.746  0.2587 -0.5579 -1.0571
 1807SOL    HW217055   4.718   4.621   2.774 -0.0426  0.2558 -1.8316
 1808SOL     OW17056   1.299   0.581   3.407  0.4085  0.1743  0.5311
 1808SOL    HW117057   1.316   0.675   3.408 -1.7564  0.5650  0.4044
 1808SOL    HW217058   1.231   0.569   3.340  0.8426  0.1247  0.0916
 1809SOL     OW17059   3.420   2.960   4.791 -0.2947  0.5553 -0.6220
 1809SOL    HW117060   3.383   3.027   4.733  1.0488  0.5535 -1.4948
 1809SOL    HW217061   3.477   3.017   4.843 -0.5478  0.3293 -0.1021
 1810SOL     OW17062   1.922   1.588   5.860  0.8361 -0.2863  0.0019
 1810SOL    HW117063   1.952   1.676   5.837  1.5741 -0.2457  1.1428
 1810SOL    HW217064   1.936   1.597   5.954  0.2948 -2.3615  0.2802
 1811SOL     OW17065   2.072   2.467   1.804 -0.2155 -0.4684 -0.3967
 1811SOL    HW117066   2.142   2.422   1.757  1.4892  1.3773  0.3819
 1811SOL    HW217067   2.124   2.508   1.873 -0.8515  0.5199 -0.4977
 1812SOL     OW17068   0.617   1.549   0.738  0.2338  0.1065  0.2594
 1812SOL    HW117069   0.648   1.639   0.723 -2.0739  0.9964  0.8992
 1812SOL    HW217070   0.694   1.500   0.707 -1.3465 -1.9060 -0.4469
 1813SOL     OW17071   1.516   1.628   1.125 -0.6135 -0.2069 -0.7267
 1813SOL    HW117072   1.493   1.569   1.197 -0.3468 -0.5428 -0.9193
 1813SOL    HW217073   1.490   1.707   1.173 -0.9656 -0.2113 -0.9077
 1814SOL     OW17074   0.507   1.652   2.389 -0.4896  0.4386 -0.2765
 1814SOL    HW117075   0.569   1.616   2.325  1.6730 -0.1653  2.1725
 1814SOL    HW217076   0.425   1.650   2.339 -0.3516  3.3119 -0.6349
 1815SOL     OW17077   0.960   3.431   3.386 -0.3668  0.1390  0.3838
 1815SOL    HW117078   0.917   3.353   3.419 -1.8442 -0.4589 -2.9603
 1815SOL    HW217079   0.965   3.410   3.293  0.5290  0.6764  0.3131
 1816SOL     OW17080   2.496   0.026   7.825  0.0221 -0.2990 -0.2329
 1816SOL    HW117081   2.498   0.112   7.782  2.7041  0.4185  1.3881
 1816SOL    HW217082   2.406   4.734   7.808 -0.0667 -0.6558  0.8827
 1817SOL     OW17083   1.103   3.087  16.201  0.3998  0.7410  0.6534
 1817SOL    HW117084   1.048   3.077  16.123  0.8319 -0.8533  0.5650
 1817SOL    HW217085   1.066   3.164  16.245  0.4823  2.5443 -2.4796
 1818SOL     OW17086   3.366   2.854   1.514 -0.0957  0.4265  0.2344
 1818SOL    HW117087   3.346   2.922   1.450  0.8136  0.4153 -0.0583
 1818SOL    HW217088   3.286   2.806   1.535 -0.6827  0.8313 -1.0556
 1819SOL     OW17089   1.464   4.121   1.337 -0.2027  0.0117 -0.3121
 1819SOL    HW117090   1.446   4.052   1.274 -0.1176  2.1277 -2.6481
 1819SOL    HW217091   1.384   4.172   1.331  0.6966  1.3514 -0.8631
 1820SOL     OW17092   4.340   2.580   6.411  0.7581  0.1966  0.1731
 1820SOL    HW117093   4.292   2.502   6.385  0.0802  0.1235  1.6185
 1820SOL    HW217094   4.396   2.591   6.334 -1.9786 -0.2929 -1.8930
 1821SOL     OW17095   3.572   1.824   8.435  0.2680  0.1018 -0.4699
 1821SOL    HW117096   3.611   1.780   8.359 -2.9701 -2.3588 -0.7191
 1821SOL    HW217097   3.481   1.795   8.439  0.0196  0.6389 -2.2372
 1822SOL     OW17098   4.003   1.208   9.556  0.7157  0.1352 -0.3328
 1822SOL    HW117099   4.015   1.158   9.475  1.3794  1.3436 -0.9973
 1822SOL    HW217100   4.075   1.178   9.611 -0.3735  1.6526  1.8964
 1823SOL     OW17101   4.181   3.737  15.685 -0.0934  0.2037  0.0260
 1823SOL    HW117102   4.236   3.813  15.663  1.6732 -1.5704 -1.6923
 1823SOL    HW217103   4.161   3.706  15.596  1.2264 -0.7381  0.0580
 1824SOL     OW17104   0.826   4.139  16.809 -0.0446 -0.3646  0.0936
 1824SOL    HW117105   0.882   4.215  16.793 -1.2259  0.5619  0.3955
 1824SOL    HW217106   0.752   4.199  16.818 -0.2996 -0.4725 -1.3773
 1825SOL     OW17107   3.407   0.284   5.200 -0.0641 -0.8399  0.1902
 1825SOL    HW117108   3.414   0.370   5.242 -0.5256 -0.7131  0.0148
 1825SOL    HW217109   3.381   0.225   5.270 -1.9977  0.1336  0.2892
 1826SOL     OW17110   1.835   3.912   3.651  0.0881  0.5173  0.2034
 1826SOL    HW117111   1.879   3.996   3.638 -0.6533  0.4693 -2.5027
 1826SOL    HW217112   1.890   3.875   3.721  1.5445  1.4288 -0.4540
 1827SOL     OW17113   3.830   0.267  14.405 -0.2996 -0.4690  0.4348
 1827SOL    HW117114   3.763   0.266  14.337 -0.1565 -0.2299  0.2919
 1827SOL    HW217115   3.776   0.267  14.484 -0.2642  0.1417  0.4545
 1828SOL     OW17116   1.857   3.525   6.208  1.0289 -0.2727 -0.1821
 1828SOL    HW117117   1.838   3.518   6.115 -0.3589 -1.5284  0.2044
 1828SOL    HW217118   1.914   3.602   6.208 -0.1598  0.5979  1.5449
 1829SOL     OW17119   0.650   1.366   3.266 -0.0002  0.6791 -0.2450
 1829SOL    HW117120   0.599   1.435   3.224 -0.3283  0.3794 -0.3435
 1829SOL    HW217121   0.578   1.332   3.319  1.1583 -0.2256  0.7549
 1830SOL     OW17122   3.961   1.885   3.613 -0.0460  0.0500 -0.3373
 1830SOL    HW117123   3.997   1.973   3.603  0.2492 -0.0697 -0.3254
 1830SOL    HW217124   3.869   1.903   3.633 -0.2037 -1.2460  0.0751
 1831SOL     OW17125   0.438   2.498   4.085 -0.2364  0.3702  0.8102
 1831SOL    HW117126   0.530   2.516   4.103 -0.1047 -0.6572  1.1747
 1831SOL    HW217127   0.438   2.404   4.064  0.7207  0.1950  1.5757
 1832SOL     OW17128   0.144   0.148   0.161 -0.5862 -0.4555 -0.0192
 1832SOL    HW117129   0.086   0.091   0.212 -1.1837  0.3697  0.2221
 1832SOL    HW217130   0.202   0.175   0.233  0.9574 -1.8043 -0.7632
 1833SOL     OW17131   2.067   0.390   9.065  0.9068 -0.0127  0.3378
 1833SOL    HW117132   2.084   0.382   8.971 -0.1658 -0.9506  0.2363
 1833SOL    HW217133   1.973   0.376   9.073  0.9133  0.8426  2.0154
 1834SOL     OW17134   3.409   4.246   7.010 -0.5592 -0.2663 -0.0210
 1834SOL    HW117135   3.384   4.333   6.979  1.0753  0.2796  0.1726
 1834SOL    HW217136   3.482   4.224   6.951  0.2656  3.1014 -0.2245
 1835SOL     OW17137   3.108   1.004   2.384 -0.0341 -0.9590  0.1746
 1835SOL    HW117138   3.024   1.041   2.356 -0.5759 -1.7034  0.8323
 1835SOL    HW217139   3.080   1.002   2.476  1.1961 -2.2855  0.5109
 1836SOL     OW17140   1.757   1.062   1.047 -0.3560  0.0025  0.0352
 1836SOL    HW117141   1.760   0.976   1.005 -1.3405 -0.8439  1.6746
 1836SOL    HW217142   1.845   1.097   1.062  0.5243 -1.3313 -2.0404
 1837SOL     OW17143   1.365   4.691  11.212 -0.3404 -0.0933  0.3694
 1837SOL    HW117144   1.303   4.664  11.144  1.1149 -0.8898 -0.6351
 1837SOL    HW217145   1.428   0.005  11.162 -0.2868 -0.9115 -0.3882
 1838SOL     OW17146   1.634   2.187   2.258 -0.3872  0.3150 -0.3186
 1838SOL    HW117147   1.667   2.276   2.245 -0.8106  0.6719  1.0019
 1838SOL    HW217148   1.687   2.143   2.192 -1.4468  0.4643 -1.2645
 1839SOL     OW17149   1.326   4.240  15.668 -0.0957 -0.6209  0.2382
 1839SOL    HW117150   1.419   4.263  15.670 -0.4276  0.9306 -1.3778
 1839SOL    HW217151   1.295   4.254  15.578  2.3841  0.7156 -0.4067
 1840SOL     OW17152   3.517   0.288  14.903 -0.0119 -0.1030  0.3132
 1840SOL    HW117153   3.560   0.213  14.945 -0.0459 -0.3096 -0.0210
 1840SOL    HW217154   3.574   0.352  14.945  2.0778 -2.6673  1.4347
 1841SOL     OW17155   4.636   1.652  13.076  0.4021  0.2116  0.1864
 1841SOL    HW117156   4.546   1.677  13.051  0.2854 -0.7296 -0.3254
 1841SOL    HW217157   4.621   1.619  13.165 -3.6847 -0.2595 -0.6511
 1842SOL     OW17158   3.230   4.224   8.002 -0.6628  0.4676  0.0878
 1842SOL    HW117159   3.173   4.269   7.940 -0.3180  1.6401  0.6127
 1842SOL    HW217160   3.188   4.139   8.005  2.2206 -0.9876 -0.6719
 1843SOL     OW17161   2.896   4.522   4.363 -0.8748  0.1702  0.4466
 1843SOL    HW117162   2.845   4.599   4.389  0.8588  1.3871  0.2712
 1843SOL    HW217163   2.985   4.553   4.384 -0.2947 -1.3715  0.2280
 1844SOL     OW17164   1.199   1.815   4.730 -0.3746  0.0143  0.3842
 1844SOL    HW117165   1.179   1.750   4.662 -1.7997  0.8660 -0.0152
 1844SOL    HW217166   1.251   1.757   4.784 -3.1355 -2.6006  0.2516
 1845SOL     OW17167   0.418   3.547   3.566  0.1800 -0.1405  0.3959
 1845SOL    HW117168   0.396   3.631   3.606 -2.4710 -0.9282  0.5785
 1845SOL    HW217169   0.424   3.491   3.643 -3.7570  0.9096  1.4820
 1846SOL     OW17170   3.924   1.937   7.371  0.0450  0.2768 -0.1668
 1846SOL    HW117171   3.900   1.851   7.405 -0.0272  0.0198 -0.8683
 1846SOL    HW217172   3.855   1.971   7.315  1.3301  1.5012 -1.0198
 1847SOL     OW17173   4.172   0.618   7.867  0.7201  0.1636  0.4939
 1847SOL    HW117174   4.129   0.549   7.816 -0.3100  0.5639  0.8221
 1847SOL    HW217175   4.223   0.569   7.932 -2.7449 -3.3682  0.5509
 1848SOL     OW17176   3.354   0.822   2.774 -0.1093 -0.5588  0.0030
 1848SOL    HW117177   3.393   0.814   2.687  0.6287 -1.6794  0.4405
 1848SOL    HW217178   3.363   0.915   2.794 -1.1503 -0.5101  0.2520
 1849SOL     OW17179   3.520   3.305   6.113  0.1453  0.2568 -0.3504
 1849SOL    HW117180   3.526   3.364   6.188 -2.6558 -0.3437  0.3389
 1849SOL    HW217181   3.604   3.317   6.068  1.3321  3.5992  2.6773
 1850SOL     OW17182   2.300   3.632   6.071  0.1538  0.4344 -0.6688
 1850SOL    HW117183   2.317   3.577   6.148  0.3741  0.1842 -0.8990
 1850SOL    HW217184   2.391   3.650   6.049  0.5288  0.0078  0.5441
 1851SOL     OW17185   3.284   4.392   8.226 -0.3449 -0.1647  0.0164
 1851SOL    HW117186   3.275   4.368   8.134 -0.0937 -0.8703  0.1760
 1851SOL    HW217187   3.192   4.415   8.243 -0.0357  1.6575 -0.8031
 1852SOL     OW17188   2.941   0.372   5.241 -0.5373  0.2319  0.1280
 1852SOL    HW117189   2.900   0.441   5.294 -0.6207  0.3461 -0.0875
 1852SOL    HW217190   2.937   0.415   5.156  0.7348  0.2178  0.0610
 1853SOL     OW17191   1.419   2.337  17.222 -0.6590 -0.4139  0.9407
 1853SOL    HW117192   1.343   2.381  17.183 -0.1114  0.3327  0.7115
 1853SOL    HW217193   1.491   2.340  17.159 -0.4319 -0.7082  1.1895
 1854SOL     OW17194   1.570   2.680  12.525  0.2037 -0.7761 -0.5432
 1854SOL    HW117195   1.617   2.598  12.514  0.2467 -1.2626  3.0689
 1854SOL    HW217196   1.479   2.651  12.530 -0.5981  1.6198 -1.3362
 1855SOL     OW17197   0.705   1.955   5.052  0.4930 -0.0575  0.4309
 1855SOL    HW117198   0.682   1.988   4.966 -1.9989 -0.8497  0.7802
 1855SOL    HW217199   0.684   1.863   5.038 -1.4661  0.3508  0.6432
 1856SOL     OW17200   1.137   2.860   4.316  0.2580  0.3392 -0.4959
 1856SOL    HW117201   1.166   2.821   4.399  0.2624  0.4766 -0.4329
 1856SOL    HW217202   1.130   2.954   4.335 -0.3741  0.0459  0.7008
 1857SOL     OW17203   0.657   0.006   3.490 -0.0255 -0.0594  0.1476
 1857SOL    HW117204   0.661   4.649   3.475 -1.7034 -0.2751  1.0972
 1857SOL    HW217205   0.721   0.031   3.557 -0.5614  0.5504  0.4340
 1858SOL     OW17206   0.857   1.395   3.477  0.3584  0.1566 -0.4650
 1858SOL    HW117207   0.897   1.456   3.414 -1.3927 -1.4590 -3.1383
 1858SOL    HW217208   0.790   1.372   3.413  2.1602 -0.0221 -2.2823
 1859SOL     OW17209   4.630   0.264  12.263  0.2695 -0.4053  0.0307
 1859SOL    HW117210   4.571   0.200  12.303  0.5855  0.1130  1.3122
 1859SOL    HW217211   4.576   0.341  12.244  0.1802 -1.0375 -2.3556
 1860SOL     OW17212   2.565   0.898  10.364 -0.5537  0.1988  0.2745
 1860SOL    HW117213   2.499   0.854  10.310  0.7908 -0.3597 -0.9605
 1860SOL    HW217214   2.621   0.927  10.292 -2.0758 -1.7279 -1.7152
 1861SOL     OW17215   3.880   0.328   6.353  0.1747 -0.1610  0.3888
 1861SOL    HW117216   3.851   0.419   6.345  1.0685  0.2674  2.2083
 1861SOL    HW217217   3.967   0.344   6.388  1.3989  1.5160 -3.4701
 1862SOL     OW17218   3.071   0.777   1.816  0.0497  0.5112  0.0561
 1862SOL    HW117219   3.093   0.709   1.752  0.8403  0.5375  0.3031
 1862SOL    HW217220   3.152   0.827   1.814  0.4885 -0.0572  3.5096
 1863SOL     OW17221   1.613   3.471   7.477  0.2169 -0.0199 -0.4201
 1863SOL    HW117222   1.545   3.420   7.432  1.7437 -0.9549 -1.6740
 1863SOL    HW217223   1.554   3.532   7.521 -0.8383 -1.6949  0.5060
 1864SOL     OW17224   2.713   0.148   5.939  0.2108  0.7361  0.0679
 1864SOL    HW117225   2.756   0.170   5.856  2.1657 -4.5189 -0.3065
 1864SOL    HW217226   2.783   0.167   6.002  0.6478  1.9512 -0.7709
 1865SOL     OW17227   0.459   0.479  10.768 -0.2806  0.4573 -0.3575
 1865SOL    HW117228   0.466   0.544  10.698  0.2207 -0.5103 -1.2025
 1865SOL    HW217229   0.493   0.398  10.729 -2.0856  0.3127 -1.6419
 1866SOL     OW17230   4.014   2.163   7.121 -0.0594  0.7209  0.0073
 1866SOL    HW117231   4.061   2.143   7.040 -1.3762 -1.5254 -0.2131
 1866SOL    HW217232   4.077   2.110   7.169  0.7587  0.7375 -1.0523
 1867SOL     OW17233   4.390   1.728   6.750 -0.4679  0.3448 -0.1820
 1867SOL    HW117234   4.412   1.788   6.679  0.7576  0.5812  0.4044
 1867SOL    HW217235   4.388   1.790   6.822 -0.3276 -0.4092  0.4733
 1868SOL     OW17236   2.129   3.941   8.320  0.3313 -0.4271  0.1727
 1868SOL    HW117237   2.192   3.887   8.367  1.7051  0.3650 -0.7524
 1868SOL    HW217238   2.073   3.963   8.394 -0.5674 -1.4134 -0.2124
 1869SOL     OW17239   0.916   3.598  15.009  0.5947 -0.1726  0.1111
 1869SOL    HW117240   0.885   3.688  15.000 -0.5961 -0.7064 -1.1582
 1869SOL    HW217241   1.009   3.606  14.987  0.4552 -0.0032 -0.4132
 1870SOL     OW17242   2.164   2.370   4.116 -0.0247  0.3286  0.1006
 1870SOL    HW117243   2.240   2.337   4.164  1.5195  0.7935 -1.9792
 1870SOL    HW217244   2.107   2.293   4.117 -4.1432  3.3683 -2.3090
 1871SOL     OW17245   2.972   0.286  12.583 -0.5323 -0.4252  0.1732
 1871SOL    HW117246   2.909   0.282  12.511 -0.2298 -0.1889 -0.1032
 1871SOL    HW217247   3.046   0.318  12.531 -0.1872  0.7201  1.4055
 1872SOL     OW17248   1.776   4.212   3.829  0.0881 -0.6327 -0.2685
 1872SOL    HW117249   1.833   4.196   3.754 -0.6491  0.4702 -1.0519
 1872SOL    HW217250   1.691   4.180   3.799  0.3561  0.1032 -1.7823
 1873SOL     OW17251   1.448   3.897   6.247 -0.1259 -0.1783 -0.4560
 1873SOL    HW117252   1.354   3.881   6.244 -0.3642  0.7327  2.2509
 1873SOL    HW217253   1.466   3.913   6.339  0.0498  2.5480 -0.9830
 1874SOL     OW17254   3.970   0.737   2.458  0.4227  0.2058  0.3646
 1874SOL    HW117255   3.999   0.745   2.549 -2.2482 -2.8699  1.4667
 1874SOL    HW217256   3.899   0.799   2.473  1.4560  1.8356 -1.5492
 1875SOL     OW17257   1.030   3.430   5.799  0.1585  0.4120 -0.1128
 1875SOL    HW117258   0.957   3.418   5.859  0.8117 -1.0498  0.3915
 1875SOL    HW217259   1.064   3.340   5.797  0.9277  0.7807 -3.2547
 1876SOL     OW17260   4.098   0.645  15.144  0.5050  0.0922 -0.3224
 1876SOL    HW117261   4.055   0.692  15.072 -0.6875  1.5311  1.3196
 1876SOL    HW217262   4.041   0.569  15.155  0.9513 -0.4188 -1.6003
 1877SOL     OW17263   3.412   3.470   5.560 -0.3571  0.4812  0.0712
 1877SOL    HW117264   3.465   3.548   5.548  0.3376  0.2273  1.4474
 1877SOL    HW217265   3.377   3.446   5.474  2.4004  0.1929 -1.0001
 1878SOL     OW17266   4.066   0.288   9.017  0.3157 -0.3202  0.8047
 1878SOL    HW117267   4.120   0.223   9.061  1.4438  0.4631  0.5541
 1878SOL    HW217268   4.113   0.370   9.032 -1.5967  0.5210  2.3947
 1879SOL     OW17269   4.396   4.175   7.826 -0.4501  0.0904 -0.0656
 1879SOL    HW117270   4.480   4.213   7.801 -0.6713 -0.2319 -1.2962
 1879SOL    HW217271   4.358   4.256   7.862 -0.6647  0.0820 -0.2703
 1880SOL     OW17272   4.050   0.044  12.388 -0.3905  0.3428 -0.6065
 1880SOL    HW117273   4.038   0.102  12.312 -0.7671  0.9476 -0.0815
 1880SOL    HW217274   3.998   0.082  12.458  0.8949  0.8168  0.0853
 1881SOL     OW17275   1.228   3.701  16.277  0.4317  0.8652  0.6137
 1881SOL    HW117276   1.177   3.726  16.354 -1.2441  1.6180 -0.7514
 1881SOL    HW217277   1.246   3.784  16.233  1.6793  0.0648 -0.3684
 1882SOL     OW17278   0.712   0.000  13.829 -0.0024  0.6849 -0.0821
 1882SOL    HW117279   0.721   0.088  13.791 -3.4541  1.5268  1.0435
 1882SOL    HW217280   0.637   0.003  13.888 -0.0340 -0.9420 -0.0499
 1883SOL     OW17281   0.508   2.657  12.246  0.1644  0.2651  0.5291
 1883SOL    HW117282   0.436   2.651  12.184  0.4167 -0.5148  0.3158
 1883SOL    HW217283   0.468   2.624  12.326  1.1040  1.0669  1.3354
 1884SOL     OW17284   3.467   4.398   8.880 -0.0248 -0.3842  0.0261
 1884SOL    HW117285   3.559   4.384   8.903 -0.5737 -1.1141  1.7404
 1884SOL    HW217286   3.472   4.442   8.795  1.6772 -1.4161 -0.4159
 1885SOL     OW17287   0.821   2.940   7.738 -0.1584 -0.7530  0.1170
 1885SOL    HW117288   0.880   2.893   7.797 -0.2398 -2.0842 -0.8509
 1885SOL    HW217289   0.742   2.945   7.790 -0.1841 -1.7882  0.1692
 1886SOL     OW17290   4.222   3.361   3.487  0.0613 -0.4563 -0.1099
 1886SOL    HW117291   4.251   3.450   3.508 -1.5584  0.8355 -3.4347
 1886SOL    HW217292   4.135   3.380   3.522 -0.1828  1.7649 -1.8533
 1887SOL     OW17293   2.037   1.511   7.395  0.1134  0.5869 -0.5936
 1887SOL    HW117294   2.098   1.566   7.345  0.7436  1.5136  1.2081
 1887SOL    HW217295   1.979   1.577   7.432  2.6971  2.1857  0.6463
 1888SOL     OW17296   3.563   0.521   4.193 -0.6292  0.3181  0.0975
 1888SOL    HW117297   3.604   0.502   4.278  0.7097  0.1650 -0.5822
 1888SOL    HW217298   3.644   0.529   4.142 -1.8266 -0.2438 -1.8880
 1889SOL     OW17299   3.937   3.022   7.779  0.2367  0.2053  0.1635
 1889SOL    HW117300   3.960   3.002   7.870  0.0022 -3.9422 -0.7003
 1889SOL    HW217301   4.023   3.047   7.746 -0.8021  1.8567 -1.3669
 1890SOL     OW17302   0.085   2.878   5.844 -0.2477 -0.0522  0.2988
 1890SOL    HW117303   0.138   2.800   5.856  0.0218  0.0568 -0.1529
 1890SOL    HW217304   0.152   2.939   5.812 -0.6346  0.2285  0.0166
 1891SOL     OW17305   0.969   2.860   7.484  0.5683  0.2720 -0.0542
 1891SOL    HW117306   0.887   2.854   7.534  1.1402 -1.3514  0.6765
 1891SOL    HW217307   0.994   2.769   7.470  1.1177  0.4719 -0.3678
 1892SOL     OW17308   2.380   4.415   4.529  0.8003  0.5192 -0.8913
 1892SOL    HW117309   2.433   4.378   4.458  3.8235  1.1595  1.0291
 1892SOL    HW217310   2.377   4.504   4.495  3.0370  0.8841 -0.1069
 1893SOL     OW17311   3.184   0.790  10.958 -0.2547 -0.5123  0.1614
 1893SOL    HW117312   3.247   0.803  10.888 -0.5508  1.7086  0.3219
 1893SOL    HW217313   3.160   0.882  10.971 -0.3792 -0.5064 -0.1283
 1894SOL     OW17314   2.713   3.035   6.140 -0.3431  0.0079 -0.3353
 1894SOL    HW117315   2.663   3.073   6.068  0.3299  0.3887 -0.6118
 1894SOL    HW217316   2.747   2.958   6.095 -0.0123 -0.2840  0.3950
 1895SOL     OW17317   3.365   1.133   7.694 -0.1226  0.2967  0.3251
 1895SOL    HW117318   3.453   1.104   7.672  0.3557  2.7498 -0.8670
 1895SOL    HW217319   3.318   1.099   7.618  0.1418  2.6197 -0.8690
 1896SOL     OW17320   1.501   3.997   8.523 -0.3472  0.4584  0.4454
 1896SOL    HW117321   1.503   4.090   8.547 -0.3145 -0.1983  3.0529
 1896SOL    HW217322   1.442   3.959   8.589  0.3056  0.1909  0.8771
 1897SOL     OW17323   0.282   2.884   8.511  0.5168 -0.2544 -0.5150
 1897SOL    HW117324   0.254   2.803   8.554 -0.8759  1.5874  2.0807
 1897SOL    HW217325   0.371   2.864   8.481  1.1372  1.2043  0.3326
 1898SOL     OW17326   2.797   0.762   3.360 -0.2183  0.1165 -0.4864
 1898SOL    HW117327   2.714   0.741   3.403  0.4880 -2.9769 -0.6001
 1898SOL    HW217328   2.804   0.691   3.296 -2.0542 -0.9214  0.4747
 1899SOL     OW17329   3.457   3.506   8.867 -0.0262 -0.6069 -1.0241
 1899SOL    HW117330   3.383   3.449   8.886  0.5321 -0.6421  1.1372
 1899SOL    HW217331   3.488   3.498   8.777 -1.0177 -0.6777 -1.3573
 1900SOL     OW17332   4.226   1.336   6.502  0.2879 -0.2685 -0.7977
 1900SOL    HW117333   4.261   1.374   6.582 -0.0597 -1.3481 -0.1340
 1900SOL    HW217334   4.222   1.245   6.530  1.1358 -1.1821 -3.6325
 1901SOL     OW17335   1.062   3.961   6.717  0.7860  0.3085  0.1758
 1901SOL    HW117336   1.141   3.921   6.755  0.0524  0.8282  2.2083
 1901SOL    HW217337   0.998   3.908   6.764  0.0582  0.1478 -0.9934
 1902SOL     OW17338   3.783   4.047   4.172  0.2934  0.0235 -0.1393
 1902SOL    HW117339   3.870   4.050   4.211 -0.6108 -2.0385  2.0191
 1902SOL    HW217340   3.740   4.119   4.219 -0.3789  1.8636 -3.5973
 1903SOL     OW17341   2.827   1.393   2.054  0.1564  0.0561 -0.2760
 1903SOL    HW117342   2.874   1.430   2.129 -2.3592 -0.9267  1.7667
 1903SOL    HW217343   2.861   1.440   1.977  1.7022 -1.9908 -0.8319
 1904SOL     OW17344   1.907   2.041   4.770 -0.3216 -0.7023 -0.1836
 1904SOL    HW117345   1.862   1.957   4.778  0.4119 -1.3129 -2.3802
 1904SOL    HW217346   1.957   2.029   4.689  1.2642 -1.4528  0.8954
 1905SOL     OW17347   4.706   1.808   6.923  0.6543  0.4149 -0.5129
 1905SOL    HW117348   4.686   1.901   6.915  0.1518  0.2817 -0.7827
 1905SOL    HW217349   4.736   1.793   6.833 -0.0684 -0.4663 -0.6038
 1906SOL     OW17350   1.245   0.822  12.684  0.1845 -0.4927  0.0162
 1906SOL    HW117351   1.170   0.877  12.663  0.5925 -0.1012 -0.4228
 1906SOL    HW217352   1.290   0.813  12.599 -1.3230 -0.0995 -0.8224
 1907SOL     OW17353   3.113   4.545   0.194  0.1031 -0.0752  0.3376
 1907SOL    HW117354   3.058   4.621   0.176 -0.4353 -0.1284  1.7491
 1907SOL    HW217355   3.111   4.498   0.111 -2.1961  0.5888  0.0276
 1908SOL     OW17356   1.878   1.426   3.310 -0.0606 -0.0159 -0.3714
 1908SOL    HW117357   1.841   1.477   3.238 -0.2511 -0.7842 -0.8201
 1908SOL    HW217358   1.971   1.434   3.289 -0.3145 -1.6228 -2.1138
 1909SOL     OW17359   3.759   3.363   2.149 -0.3310 -0.2544  0.5200
 1909SOL    HW117360   3.752   3.281   2.197 -0.2712 -0.6189 -0.0993
 1909SOL    HW217361   3.680   3.351   2.096  0.0509 -0.1051 -0.0774
 1910SOL     OW17362   2.489   1.101   0.721  0.1192 -0.8251  0.2024
 1910SOL    HW117363   2.575   1.063   0.741 -0.5070 -0.9979  2.5425
 1910SOL    HW217364   2.447   1.033   0.668  1.2549 -1.6622  0.3742
 1911SOL     OW17365   1.069   4.438   0.695  0.4387 -0.3143 -0.7458
 1911SOL    HW117366   1.038   4.444   0.786 -1.1057 -2.0761 -1.1436
 1911SOL    HW217367   1.047   4.346   0.681  1.5776 -0.9324  1.5792
 1912SOL     OW17368   3.907   0.681  15.909 -0.1683 -0.0819 -0.1886
 1912SOL    HW117369   3.812   0.691  15.911 -0.1004  0.3593  1.0473
 1912SOL    HW217370   3.937   0.760  15.863 -0.8217 -1.4186 -2.8931
 1913SOL     OW17371   4.151   0.420   8.698 -0.1653 -0.5792  0.1730
 1913SOL    HW117372   4.222   0.452   8.643 -0.4360  0.1916  0.2791
 1913SOL    HW217373   4.195   0.394   8.779  2.1013 -0.3446 -0.9947
 1914SOL     OW17374   4.566   4.633   5.448 -0.1818 -0.4169 -0.4488
 1914SOL    HW117375   4.504   4.701   5.421 -0.4141 -0.3234  0.3211
 1914SOL    HW217376   4.499   4.591   5.503 -0.5407  1.6806  0.7350
 1915SOL     OW17377   3.393   4.527   3.410  0.1145  0.0781  0.0549
 1915SOL    HW117378   3.393   4.512   3.504  1.6036  0.8962  0.1813
 1915SOL    HW217379   3.464   4.470   3.381  0.2703 -0.0119  0.6243
 1916SOL     OW17380   3.997   0.188   1.279 -0.1261 -0.4742  0.4052
 1916SOL    HW117381   3.965   0.209   1.367 -0.9585  0.6034 -0.1550
 1916SOL    HW217382   4.037   0.270   1.248 -1.4235  0.3693  0.9638
 1917SOL     OW17383   4.159   0.355   6.428  0.3988  0.1014 -0.3367
 1917SOL    HW117384   4.176   0.448   6.440 -3.0507  0.6151  0.5473
 1917SOL    HW217385   4.238   0.316   6.466  1.4831  1.9875 -0.6480
 1918SOL     OW17386   1.755   3.071   0.760  0.5481 -0.3802  0.2512
 1918SOL    HW117387   1.749   2.982   0.725  0.8634 -0.7725  1.2058
 1918SOL    HW217388   1.839   3.071   0.806  1.1671  0.4203 -0.8452
 1919SOL     OW17389   4.119   2.812   4.913  0.2737  0.3869 -0.1987
 1919SOL    HW117390   4.179   2.860   4.855 -0.2222 -0.6295 -1.5560
 1919SOL    HW217391   4.082   2.877   4.972 -1.4123 -0.5390 -0.2413
 1920SOL     OW17392   1.780   1.074   4.483  0.3519  0.3385  0.5636
 1920SOL    HW117393   1.805   1.138   4.550  2.1663 -1.0803  1.2526
 1920SOL    HW217394   1.863   1.027   4.471  0.6129  1.4802 -2.0424
 1921SOL     OW17395   4.121   4.116   2.385  0.4148 -0.6377  0.0387
 1921SOL    HW117396   4.138   4.031   2.343  0.8936 -0.3893 -0.2711
 1921SOL    HW217397   4.123   4.180   2.314 -0.8472  1.0447  1.5195
 1922SOL     OW17398   3.647   4.591   3.961  0.2007  0.2288 -0.7153
 1922SOL    HW117399   3.619   4.589   4.052 -1.4586  1.3734 -1.2051
 1922SOL    HW217400   3.626   4.682   3.940 -1.9325 -0.2220 -0.4438
 1923SOL     OW17401   2.792   4.158   7.581 -0.4273 -0.0236 -0.1530
 1923SOL    HW117402   2.732   4.230   7.598  0.0152  0.5542 -1.0451
 1923SOL    HW217403   2.746   4.114   7.509 -1.1368  0.9459 -0.2926
 1924SOL     OW17404   4.436   3.879   3.283 -0.1441 -0.6378  0.8672
 1924SOL    HW117405   4.449   3.974   3.278  1.3257 -0.8787  0.1859
 1924SOL    HW217406   4.378   3.867   3.208 -0.7611 -1.3888  1.4701
 1925SOL     OW17407   3.684   2.765   6.664 -0.0801  0.7055 -0.8296
 1925SOL    HW117408   3.645   2.790   6.579 -1.5314 -0.2587 -0.4511
 1925SOL    HW217409   3.696   2.671   6.650  2.1307  1.1500 -1.8686
 1926SOL     OW17410   2.956   3.923   6.869 -0.3912 -0.2256  0.2775
 1926SOL    HW117411   2.881   3.872   6.838 -0.5314 -0.2872  0.7184
 1926SOL    HW217412   2.996   3.952   6.787  1.7409 -1.9342  0.7079
 1927SOL     OW17413   3.192   1.825   5.000 -0.7570 -0.3833 -0.0578
 1927SOL    HW117414   3.274   1.776   5.004  0.6567  2.1177  1.2317
 1927SOL    HW217415   3.158   1.800   4.914  1.5704 -1.1102 -0.7784
 1928SOL     OW17416   0.074   2.985   7.920 -0.1254 -0.4507 -0.5398
 1928SOL    HW117417   0.156   3.033   7.909  0.5396 -1.3931  0.2886
 1928SOL    HW217418   0.007   3.031   7.869  1.3013 -1.4304 -3.2470
 1929SOL     OW17419   0.851   0.639   3.146 -0.1573 -0.4987  0.4570
 1929SOL    HW117420   0.764   0.628   3.107 -0.8593 -0.8794  2.1131
 1929SOL    HW217421   0.840   0.715   3.203  0.0573 -1.2738  1.5369
 1930SOL     OW17422   2.794   2.336   7.014  0.6640 -0.3261  0.3422
 1930SOL    HW117423   2.884   2.311   6.994  0.3415 -0.4731 -0.9119
 1930SOL    HW217424   2.798   2.431   7.016 -1.9307 -0.2047 -1.0542
 1931SOL     OW17425   1.281   2.219   8.641  0.3585 -0.2322 -0.3225
 1931SOL    HW117426   1.309   2.267   8.563  1.0120  3.1621  1.9961
 1931SOL    HW217427   1.291   2.129   8.609 -1.7368 -0.8856  0.8710
 1932SOL     OW17428   3.902   3.925  14.420 -0.2570 -0.5310  0.5507
 1932SOL    HW117429   3.811   3.942  14.396 -0.7058 -2.6641  0.7270
 1932SOL    HW217430   3.956   3.968  14.353 -0.1594 -0.3488  0.7486
 1933SOL     OW17431   2.691   2.810   7.764 -0.0335 -0.2738  0.1447
 1933SOL    HW117432   2.693   2.720   7.733  0.9934 -0.0356 -0.4747
 1933SOL    HW217433   2.757   2.816   7.833  1.2841  1.5961 -1.2739
 1934SOL     OW17434   0.017   3.339   9.182 -0.0083  0.1177 -0.1257
 1934SOL    HW117435   0.052   3.259   9.220  0.3367  0.4594  0.2793
 1934SOL    HW217436   0.085   3.361   9.119  0.2447 -1.3463 -0.3470
 1935SOL     OW17437   2.686   1.577   4.946  0.1918  0.6885  0.3634
 1935SOL    HW117438   2.669   1.595   5.038  1.3827  2.0625  0.3074
 1935SOL    HW217439   2.654   1.655   4.901 -0.0087 -0.0445 -0.7628
 1936SOL     OW17440   3.325   1.743   9.917 -0.6214 -0.0315 -0.2770
 1936SOL    HW117441   3.341   1.836   9.933 -3.1806  0.3026  0.3309
 1936SOL    HW217442   3.343   1.740   9.823  0.4673  0.6367 -0.0820
 1937SOL     OW17443   2.047   2.301  10.573 -0.4519  0.3781  0.0416
 1937SOL    HW117444   2.104   2.231  10.540  0.8824  2.0827 -1.2507
 1937SOL    HW217445   1.971   2.246  10.589  0.3285 -1.0208 -1.1171
 1938SOL     OW17446   3.348   3.757   9.015  0.3320 -0.3841 -0.2093
 1938SOL    HW117447   3.330   3.720   8.929 -1.8111  0.8125 -0.2930
 1938SOL    HW217448   3.267   3.725   9.054  0.3119  0.3835  0.3770
 1939SOL     OW17449   2.305   3.398   6.275  0.4109 -0.1784  0.5320
 1939SOL    HW117450   2.238   3.410   6.342  0.8760 -1.3104  1.2046
 1939SOL    HW217451   2.258   3.340   6.215 -0.0340  0.6416  0.0893
 1940SOL     OW17452   4.442   3.099   2.882 -0.3801 -0.4256 -0.1063
 1940SOL    HW117453   4.422   3.129   2.970 -1.1366  1.8304 -1.0466
 1940SOL    HW217454   4.538   3.109   2.882 -0.3646 -0.5625  0.1186
 1941SOL     OW17455   0.057   0.216   5.598  0.1700  0.2828  0.4233
 1941SOL    HW117456   0.027   0.306   5.587 -1.3127 -0.1341  1.0677
 1941SOL    HW217457   0.069   0.178   5.511  1.0661  1.3865  0.0705
 1942SOL     OW17458   3.561   1.873  10.221  0.7252  0.5186  0.4810
 1942SOL    HW117459   3.489   1.934  10.232 -1.9306 -2.4718 -0.1544
 1942SOL    HW217460   3.637   1.931  10.212  0.1248  1.2583  0.2483
 1943SOL     OW17461   0.388   1.818  16.973  0.3255 -0.0405 -0.1748
 1943SOL    HW117462   0.466   1.812  17.029  0.6503  1.9739 -0.3977
 1943SOL    HW217463   0.397   1.747  16.910  4.7043  0.7900 -0.5099
 1944SOL     OW17464   2.184   0.004   6.116  0.6976  0.8247 -0.3951
 1944SOL    HW117465   2.269   0.040   6.139  2.0234 -1.6004 -1.5397
 1944SOL    HW217466   2.127   0.071   6.154  0.1317  2.3273 -3.9183
 1945SOL     OW17467   1.042   4.455   9.244 -0.1166  0.1383  0.0401
 1945SOL    HW117468   1.010   4.526   9.301 -0.5745 -0.5538  0.6363
 1945SOL    HW217469   1.045   4.383   9.306 -0.7437  0.4877  0.4787
 1946SOL     OW17470   0.324   2.248   6.744 -0.7873 -0.1111 -0.1447
 1946SOL    HW117471   0.240   2.236   6.700 -1.4553  0.2516  1.0324
 1946SOL    HW217472   0.358   2.330   6.708  0.3863  0.2006  1.6785
 1947SOL     OW17473   3.671   0.453   4.706 -0.3318 -0.1185 -0.3935
 1947SOL    HW117474   3.688   0.499   4.789  2.3728 -0.9067 -0.4942
 1947SOL    HW217475   3.676   0.359   4.728  0.3323 -0.1910 -0.8674
 1948SOL     OW17476   0.856   3.803  13.981 -0.1766 -0.5811 -0.5397
 1948SOL    HW117477   0.798   3.749  13.928  1.4248 -0.5694 -2.3067
 1948SOL    HW217478   0.861   3.748  14.059 -0.3970 -0.5454 -0.5000
 1949SOL     OW17479   1.550   2.373  16.994  0.2389  0.0832  0.4342
 1949SOL    HW117480   1.570   2.466  17.005  2.2447 -0.5271  1.7085
 1949SOL    HW217481   1.467   2.370  16.945 -0.1769  0.4977  1.0992
 1950SOL     OW17482   4.734   4.174  11.776  0.0467  0.3300 -0.3142
 1950SOL    HW117483   4.671   4.106  11.798 -0.6406  0.3617 -2.2299
 1950SOL    HW217484   4.714   4.199  11.686 -0.2487  3.2705  0.5703
 1951SOL     OW17485   2.625   1.925   1.090  0.1857 -0.2460  0.0237
 1951SOL    HW117486   2.700   1.882   1.050  1.6359  1.0615  1.2876
 1951SOL    HW217487   2.608   2.003   1.037  1.4059  0.4104  0.5790
 1952SOL     OW17488   0.720   3.736   4.966 -0.3442 -0.4542 -0.2224
 1952SOL    HW117489   0.662   3.668   4.934 -1.0578 -0.5853  1.3506
 1952SOL    HW217490   0.791   3.686   5.007  1.1881  1.8908  0.0348
 1953SOL     OW17491   4.707   2.568   6.489  0.5127  0.4237 -0.2052
 1953SOL    HW117492   0.028   2.633   6.450 -0.3137  1.4818  0.3127
 1953SOL    HW217493   4.708   2.502   6.420 -1.7199  1.0729 -0.8756
 1954SOL     OW17494   2.458   2.603   1.630  0.0548 -0.0894 -0.4114
 1954SOL    HW117495   2.461   2.590   1.724  0.5191 -2.9417 -0.8246
 1954SOL    HW217496   2.546   2.637   1.616  0.4298 -0.3893  1.2477
 1955SOL     OW17497   3.724   3.473   2.466 -0.1678  0.3629  0.1512
 1955SOL    HW117498   3.677   3.512   2.540  0.4447 -2.0373  1.7752
 1955SOL    HW217499   3.653   3.421   2.429  0.3843  0.2022 -0.6939
 1956SOL     OW17500   2.448   3.737  10.691  0.3561  0.1446 -0.5492
 1956SOL    HW117501   2.449   3.789  10.771 -0.0498 -1.0266  0.2222
 1956SOL    HW217502   2.503   3.783  10.627 -1.8883  5.2589  1.2135
 1957SOL     OW17503   1.739   2.814   9.662 -0.0750  0.3389  0.1603
 1957SOL    HW117504   1.744   2.890   9.605 -1.5581  0.0223 -0.3691
 1957SOL    HW217505   1.647   2.812   9.688 -0.3832 -0.1466 -0.9636
 1958SOL     OW17506   1.638   1.014   6.983  0.1609  0.1028  0.5705
 1958SOL    HW117507   1.564   0.975   7.031  0.0029 -0.6598 -0.2740
 1958SOL    HW217508   1.708   0.989   7.043 -1.1783 -2.1249  1.2271
 1959SOL     OW17509   0.887   3.473  15.847  0.3530  0.1067  0.4211
 1959SOL    HW117510   0.936   3.468  15.928 -0.8034  1.1510  1.1875
 1959SOL    HW217511   0.898   3.565  15.822 -2.7388  0.6582  1.0828
 1960SOL     OW17512   0.939   3.448   2.543 -0.3763  0.0263 -0.6423
 1960SOL    HW117513   0.900   3.516   2.487  1.5160  2.4626  0.9817
 1960SOL    HW217514   0.875   3.379   2.527  1.2931 -1.8486  0.7075
 1961SOL     OW17515   3.543   4.387   0.096 -0.0264 -0.3861 -0.2429
 1961SOL    HW117516   3.494   4.467   0.075  1.4782  0.1875 -1.5773
 1961SOL    HW217517   3.472   4.324   0.084  0.9232 -1.8567  1.9608
 1962SOL     OW17518   2.291   3.868   9.166 -0.5433  0.2989 -0.3012
 1962SOL    HW117519   2.290   3.774   9.183 -1.4295  0.3630 -0.0168
 1962SOL    HW217520   2.359   3.913   9.216  0.2311 -3.2785  1.8362
 1963SOL     OW17521   3.731   2.034   1.793  0.1798 -0.0145 -0.6328
 1963SOL    HW117522   3.658   2.096   1.797 -0.1623 -0.3436 -1.9591
 1963SOL    HW217523   3.709   1.996   1.708 -0.0134 -0.4181 -0.4077
 1964SOL     OW17524   1.307   3.275   5.321 -0.4920  0.3021  0.1623
 1964SOL    HW117525   1.245   3.291   5.392 -0.5507  1.8580 -0.2484
 1964SOL    HW217526   1.375   3.332   5.356 -0.1525  1.0011 -1.6544
 1965SOL     OW17527   2.422   4.661   3.311  0.3463 -0.4145 -0.3790
 1965SOL    HW117528   2.353   4.708   3.358  2.0374 -1.3362  3.0276
 1965SOL    HW217529   2.427   4.579   3.360  0.2838  0.5296  1.2242
 1966SOL     OW17530   2.019   2.537   7.265 -0.1205  0.7246 -0.4907
 1966SOL    HW117531   2.084   2.487   7.314  0.6749 -0.0479 -2.3600
 1966SOL    HW217532   1.940   2.486   7.282  0.0248  0.5501 -0.3479
 1967SOL     OW17533   4.123   3.331   7.073 -0.1539 -0.1579 -0.3711
 1967SOL    HW117534   4.180   3.290   7.008 -2.8601 -2.7684 -1.1100
 1967SOL    HW217535   4.068   3.255   7.092 -1.5524  1.2119  1.1505
 1968SOL     OW17536   4.186   1.219   5.711  0.5588 -0.9482 -0.4328
 1968SOL    HW117537   4.113   1.255   5.661  0.4534 -0.9690 -0.2951
 1968SOL    HW217538   4.142   1.197   5.793  2.2059  2.1158  1.3137
 1969SOL     OW17539   0.119   3.637   7.612  0.0670  0.3482  0.2577
 1969SOL    HW117540   0.145   3.628   7.520  1.3790  4.7316  0.2335
 1969SOL    HW217541   0.045   3.694   7.591 -0.0383 -0.1150 -0.6262
 1970SOL     OW17542   3.768   2.760  11.096  0.3933 -0.3260 -0.1122
 1970SOL    HW117543   3.806   2.772  11.183 -0.4857 -2.4240  0.5644
 1970SOL    HW217544   3.675   2.773  11.115  0.6527  1.7389 -0.2535
 1971SOL     OW17545   1.379   3.100   6.115 -0.0931  0.1282 -0.8581
 1971SOL    HW117546   1.423   3.185   6.119 -1.4985  0.7333  1.9676
 1971SOL    HW217547   1.299   3.113   6.167  0.5951  0.5467  0.0839
 1972SOL     OW17548   2.118   4.294   8.628  0.8556 -0.2915  0.4685
 1972SOL    HW117549   2.056   4.242   8.576  1.6940 -1.2610  0.4506
 1972SOL    HW217550   2.179   4.226   8.656  1.0243  0.0907  1.0244
 1973SOL     OW17551   4.063   4.554  12.247  0.4846 -0.1717 -0.0935
 1973SOL    HW117552   4.066   4.615  12.321 -1.5078  0.9983 -0.9759
 1973SOL    HW217553   4.155   4.531  12.254  0.4895 -0.6681 -1.7842
 1974SOL     OW17554   4.267   0.268   9.308 -0.5430  0.2410 -0.3385
 1974SOL    HW117555   4.297   0.253   9.397  0.5947  0.5796 -0.6592
 1974SOL    HW217556   4.180   0.228   9.309 -1.2140  1.7130  0.2916
 1975SOL     OW17557   1.631   3.978  10.183 -0.1794  0.4610 -0.2061
 1975SOL    HW117558   1.689   4.034  10.132  0.0758 -0.1197 -0.5584
 1975SOL    HW217559   1.563   4.044  10.196  0.0203  1.0762 -2.2679
 1976SOL     OW17560   1.503   2.048   6.152 -0.1807  0.0792 -0.3768
 1976SOL    HW117561   1.492   2.109   6.224 -0.4814 -0.1497 -0.2272
 1976SOL    HW217562   1.522   1.971   6.204  1.4745  1.2883  0.7966
 1977SOL     OW17563   2.586   3.752   7.315 -0.2947 -0.0137 -0.2966
 1977SOL    HW117564   2.622   3.668   7.344 -0.6330  0.8983  2.8409
 1977SOL    HW217565   2.499   3.744   7.353  0.4493 -0.9928  1.2230
 1978SOL     OW17566   3.564   4.202   2.995  0.3088  0.3274 -0.2372
 1978SOL    HW117567   3.486   4.252   3.018  1.9646  2.1431  1.3986
 1978SOL    HW217568   3.523   4.131   2.946  0.3212 -1.0823  1.8122
 1979SOL     OW17569   2.965   1.082   8.022  0.1773  0.0775  0.3713
 1979SOL    HW117570   3.015   1.102   7.943  0.4312 -0.7396  0.3248
 1979SOL    HW217571   3.013   1.117   8.098 -1.5334  0.3442  1.3330
 1980SOL     OW17572   3.818   1.200   2.851  0.3733 -0.0852  0.5090
 1980SOL    HW117573   3.765   1.237   2.780  1.6550  0.5839 -0.1198
 1980SOL    HW217574   3.777   1.115   2.861  1.0614 -0.4147  0.4992
 1981SOL     OW17575   2.589   1.947   2.569  0.0640 -0.7609  0.1152
 1981SOL    HW117576   2.634   1.863   2.566  1.8623  0.1989  0.2164
 1981SOL    HW217577   2.499   1.917   2.585  0.0703 -0.0820  1.3917
 1982SOL     OW17578   1.063   2.518   5.566  0.4104 -0.0445  0.4260
 1982SOL    HW117579   1.080   2.424   5.554 -1.2592 -0.0415 -1.9894
 1982SOL    HW217580   1.021   2.523   5.652  0.0177 -0.2172  0.2421
 1983SOL     OW17581   0.230   2.499   4.287 -0.1667  0.0534  0.1395
 1983SOL    HW117582   0.269   2.509   4.200  0.9692  1.0817  0.7709
 1983SOL    HW217583   0.314   2.499   4.332 -0.3225 -1.5475  0.4426
 1984SOL     OW17584   3.402   3.916  11.957 -0.4127  0.0112 -0.1777
 1984SOL    HW117585   3.423   3.977  12.028 -1.6200 -1.3523  1.3514
 1984SOL    HW217586   3.346   3.978  11.910  2.0083 -1.1670 -4.6455
 1985SOL     OW17587   2.623   4.469   2.233  0.5153 -0.7660 -0.2817
 1985SOL    HW117588   2.569   4.393   2.210  1.6970 -2.4970  2.5773
 1985SOL    HW217589   2.607   4.522   2.156  0.9838  0.5597  0.5388
 1986SOL     OW17590   0.306   4.135   6.035 -0.2234  0.3779 -0.4208
 1986SOL    HW117591   0.367   4.072   6.074  0.6875  1.3326 -0.3320
 1986SOL    HW217592   0.369   4.183   5.982 -1.3276 -1.0970 -3.0709
 1987SOL     OW17593   1.156   2.736   2.582 -0.3073  0.1455  0.1879
 1987SOL    HW117594   1.151   2.826   2.613  3.5986  0.6895 -0.7434
 1987SOL    HW217595   1.163   2.692   2.667 -1.3674 -0.2024  0.1072
 1988SOL     OW17596   0.146   0.002  12.210 -0.3481 -0.7195 -0.5817
 1988SOL    HW117597   0.110   4.694  12.134 -0.8658 -1.0566 -0.1436
 1988SOL    HW217598   0.081   4.728  12.280 -2.3205 -1.1111 -2.4821
 1989SOL     OW17599   1.571   2.410   5.227 -0.4275  0.2956 -0.5334
 1989SOL    HW117600   1.563   2.363   5.310  1.4410 -0.4005 -0.7594
 1989SOL    HW217601   1.630   2.484   5.245  0.1638  0.1396 -1.8655
 1990SOL     OW17602   4.010   3.323   7.789 -0.0587 -0.2086  0.3379
 1990SOL    HW117603   4.051   3.290   7.868  0.5553 -1.5677 -0.5544
 1990SOL    HW217604   3.932   3.371   7.817 -0.8736 -1.0264 -0.5029
 1991SOL     OW17605   1.951   3.970   4.151 -0.4832  0.0021  0.0075
 1991SOL    HW117606   1.883   4.037   4.151 -0.3305  0.1558 -0.1706
 1991SOL    HW217607   1.942   3.938   4.241 -0.8142 -2.6890 -0.9973
 1992SOL     OW17608   4.147   2.563  11.322  0.1338  0.7548 -0.0584
 1992SOL    HW117609   4.155   2.586  11.230 -2.0498  0.7209 -0.2622
 1992SOL    HW217610   4.116   2.473  11.310 -1.0312  1.0964  0.3835
 1993SOL     OW17611   3.334   3.310  15.421 -0.6196  0.0177 -0.1615
 1993SOL    HW117612   3.309   3.396  15.389  0.1413  0.9227  1.6728
 1993SOL    HW217613   3.267   3.262  15.372  1.0117  1.9292 -4.2862
 1994SOL     OW17614   3.318   1.253   8.812 -0.2527 -0.0363  0.2159
 1994SOL    HW117615   3.385   1.309   8.852 -0.3227  0.6658 -0.6540
 1994SOL    HW217616   3.350   1.164   8.827 -0.7941 -0.4488 -1.1087
 1995SOL     OW17617   0.191   0.776   8.168  0.3242  0.2470  0.0505
 1995SOL    HW117618   0.101   0.771   8.135  0.0284 -2.7426  1.2483
 1995SOL    HW217619   0.202   0.699   8.224  3.7632  1.6808  1.2935
 1996SOL     OW17620   0.613   2.785   5.120 -0.0472  0.3083 -0.0389
 1996SOL    HW117621   0.535   2.792   5.065  0.4065  0.7406 -0.6305
 1996SOL    HW217622   0.611   2.697   5.157 -0.1001  0.5954  0.6363
 1997SOL     OW17623   2.336   0.279   3.415 -0.0745 -0.4468 -0.0077
 1997SOL    HW117624   2.299   0.215   3.476 -0.3742  1.7115  2.0826
 1997SOL    HW217625   2.289   0.360   3.436 -0.2934 -1.3522  2.9599
 1998SOL     OW17626   3.324   1.020   2.211  0.0496  0.1585  0.0723
 1998SOL    HW117627   3.322   0.940   2.160  0.6548  0.6355 -0.6919
 1998SOL    HW217628   3.261   0.999   2.280 -0.6475 -0.8878 -0.8901
 1999SOL     OW17629   2.169   3.194   4.341  0.1147 -0.4091  0.4128
 1999SOL    HW117630   2.245   3.243   4.374 -0.0425  0.9820 -1.2917
 1999SOL    HW217631   2.105   3.209   4.410  1.0131 -1.6103  1.5298
 2000SOL     OW17632   2.966   2.890   9.035  0.1934 -0.6570 -0.8030
 2000SOL    HW117633   3.008   2.804   9.040  2.4890  0.3617 -2.6410
 2000SOL    HW217634   2.917   2.914   9.114 -1.4645 -0.2786 -1.9475
 2001SOL     OW17635   1.302   4.201  16.606 -0.0754 -0.1062 -0.1417
 2001SOL    HW117636   1.226   4.217  16.550  0.1885 -0.8786 -0.7100
 2001SOL    HW217637   1.356   4.273  16.574  3.2006 -1.3399  2.6089
 2002SOL     OW17638   2.754   1.531   5.262  0.0136 -0.3710 -0.4278
 2002SOL    HW117639   2.833   1.585   5.266 -0.3840  0.1566  0.2558
 2002SOL    HW217640   2.730   1.550   5.353 -0.3215 -3.6323  0.1711
 2003SOL     OW17641   0.404   3.523   6.421 -0.1166  0.7106  0.3723
 2003SOL    HW117642   0.317   3.560   6.438  0.2213  0.5511  2.4440
 2003SOL    HW217643   0.378   3.454   6.361 -2.1245  1.0981  0.7854
 2004SOL     OW17644   1.466   4.525  10.289 -0.9322 -0.6906  0.1287
 2004SOL    HW117645   1.490   4.614  10.264 -1.6066 -1.1459 -2.1755
 2004SOL    HW217646   1.380   4.549  10.325 -0.0804 -0.3178  1.9248
 2005SOL     OW17647   3.133   1.694   2.382 -0.3646 -0.5897 -0.1570
 2005SOL    HW117648   3.096   1.610   2.355  0.5316 -0.7717 -0.8175
 2005SOL    HW217649   3.218   1.665   2.416 -0.5031 -1.2839 -0.4143
 2006SOL     OW17650   1.911   1.555   1.197 -0.2129  0.3111  0.2287
 2006SOL    HW117651   1.988   1.611   1.199 -0.1834  0.3398 -1.9636
 2006SOL    HW217652   1.859   1.603   1.261  3.1230 -0.0144  3.1828
 2007SOL     OW17653   1.972   2.995   4.451  0.7280 -0.1591  0.1603
 2007SOL    HW117654   2.066   2.976   4.460  0.9338  1.2853  1.0243
 2007SOL    HW217655   1.935   2.958   4.531  0.7201  2.6603  1.4535
 2008SOL     OW17656   2.152   0.316   4.279 -0.1614 -0.0698 -0.2326
 2008SOL    HW117657   2.083   0.382   4.268 -0.8179 -0.0977  3.7407
 2008SOL    HW217658   2.099   0.242   4.310  0.1533 -0.6106 -1.0009
 2009SOL     OW17659   3.819   3.937   8.058 -0.1081  0.1419  0.1876
 2009SOL    HW117660   3.788   3.987   7.983  0.8490 -0.4631 -0.6063
 2009SOL    HW217661   3.737   3.889   8.075 -0.4173 -0.0375 -1.8120
 2010SOL     OW17662   1.280   2.224   5.140  0.7018 -0.1367 -0.4872
 2010SOL    HW117663   1.320   2.181   5.216  0.6704 -1.9679 -1.5128
 2010SOL    HW217664   1.322   2.310   5.132  1.3713 -0.4814 -0.6269
 2011SOL     OW17665   4.649   3.089  17.272  0.2471 -0.1066 -0.2638
 2011SOL    HW117666   4.554   3.096  17.284  0.2908 -1.6396  1.0635
 2011SOL    HW217667   4.679   3.172  17.309  1.4952 -0.0494 -1.3970
 2012SOL     OW17668   1.116   1.859  11.916  0.4091 -0.2694  0.1415
 2012SOL    HW117669   1.156   1.801  11.981  0.4042 -1.9438 -1.3652
 2012SOL    HW217670   1.033   1.878  11.961 -1.0164 -1.4155 -1.9687
 2013SOL     OW17671   0.006   0.040  16.631  0.1791  0.3754 -0.4260
 2013SOL    HW117672   4.715   0.118  16.583 -0.5491 -0.4698 -1.3626
 2013SOL    HW217673   4.729   4.701  16.574  2.7149 -1.1521  0.9637
 2014SOL     OW17674   4.513   4.592   6.217 -0.2198 -0.1976 -0.0074
 2014SOL    HW117675   4.462   4.635   6.148  0.9826 -0.4678 -1.0714
 2014SOL    HW217676   4.481   4.641   6.292  0.6901  1.5995 -0.7900
 2015SOL     OW17677   2.050   2.191  12.120 -0.7334  0.7377  0.0173
 2015SOL    HW117678   2.124   2.240  12.158 -1.3669  1.6465  0.0734
 2015SOL    HW217679   1.975   2.228  12.167 -0.3439  2.0722 -0.3930
 2016SOL     OW17680   4.306   1.407   3.739  0.3083  0.2153 -0.0917
 2016SOL    HW117681   4.266   1.491   3.718  0.9390 -0.1515 -2.7222
 2016SOL    HW217682   4.287   1.357   3.659 -1.4361 -0.0528  0.5026
 2017SOL     OW17683   1.378   1.692   3.688  0.9068  0.2868  0.4645
 2017SOL    HW117684   1.293   1.681   3.731  0.2251  0.7330 -0.7799
 2017SOL    HW217685   1.390   1.607   3.646 -1.6320  0.6918 -1.0220
 2018SOL     OW17686   2.128   2.078   7.266 -0.0670  0.4047  0.2006
 2018SOL    HW117687   2.122   2.117   7.354  1.0843 -1.7963  1.2456
 2018SOL    HW217688   2.220   2.054   7.263  0.0629  0.8494  0.6274
 2019SOL     OW17689   2.164   1.831   7.470  0.1570 -0.0330 -0.3229
 2019SOL    HW117690   2.202   1.802   7.553  0.3182 -0.1787 -0.4472
 2019SOL    HW217691   2.233   1.798   7.413 -1.9167 -0.5283 -2.4982
 2020SOL     OW17692   4.168   0.255   5.338 -0.8099  0.0719 -0.2915
 2020SOL    HW117693   4.139   0.332   5.387  0.3580  0.8673 -0.8429
 2020SOL    HW217694   4.081   0.217   5.324 -0.5017 -0.1072 -1.7236
 2021SOL     OW17695   1.140   1.100   1.912 -0.4154  0.7843  0.5942
 2021SOL    HW117696   1.111   1.049   1.987  0.2082  1.4973  1.3178
 2021SOL    HW217697   1.232   1.072   1.911 -0.0651  1.9692 -0.2135
 2022SOL     OW17698   2.079   4.646   8.248  0.2789 -0.2119  0.1784
 2022SOL    HW117699   2.027   4.589   8.190 -1.2485 -0.4399  1.7750
 2022SOL    HW217700   2.147   4.583   8.271 -0.8437 -0.9814  1.4074
 2023SOL     OW17701   0.469   0.144  11.358  0.0719 -0.2272 -0.4158
 2023SOL    HW117702   0.458   0.214  11.421  1.9797  0.0255 -0.3530
 2023SOL    HW217703   0.383   0.128  11.320 -0.4456  2.1655 -0.2552
 2024SOL     OW17704   3.120   4.695   5.593  0.6836 -0.4475  0.0538
 2024SOL    HW117705   3.103   4.603   5.612  2.3425 -0.7049  0.3594
 2024SOL    HW217706   3.045   0.005   5.628 -1.7616 -3.2671 -1.3994
 2025SOL     OW17707   1.948   0.819  14.312  0.4936  0.0300  0.1611
 2025SOL    HW117708   2.014   0.815  14.381  0.7741  1.5033 -0.0087
 2025SOL    HW217709   1.918   0.908  14.329 -0.8277 -0.3069 -0.4577
 2026SOL     OW17710   2.032   4.676   6.968 -0.4474 -0.2518  0.2435
 2026SOL    HW117711   2.005   4.714   7.052 -0.5430 -1.1155  0.5997
 2026SOL    HW217712   1.976   4.599   6.963 -0.8892  0.1002 -0.2855
 2027SOL     OW17713   4.655   4.479   9.352  0.5141 -0.1721  0.1655
 2027SOL    HW117714   4.658   4.541   9.279  1.9826  2.3200  2.3400
 2027SOL    HW217715   4.605   4.518   9.424  2.5247  1.5204  0.6199
 2028SOL     OW17716   3.415   1.136   5.739 -0.3084  0.5254 -0.0207
 2028SOL    HW117717   3.414   1.058   5.794  1.9158  1.3877  1.2687
 2028SOL    HW217718   3.487   1.115   5.680  0.4068  1.1607  0.6143
 2029SOL     OW17719   4.682   1.461   2.359 -0.0664 -0.2447 -0.6659
 2029SOL    HW117720   4.724   1.397   2.417  1.0065  0.4642 -0.6506
 2029SOL    HW217721   4.627   1.504   2.424  0.1316 -0.4751 -0.3405
 2030SOL     OW17722   0.710   2.550   6.513  0.2042 -0.1527  0.1494
 2030SOL    HW117723   0.712   2.456   6.532 -1.3367 -0.3805 -0.8707
 2030SOL    HW217724   0.678   2.551   6.423 -0.2401 -2.8110  0.2903
 2031SOL     OW17725   4.159   4.199   9.847 -0.6353 -0.4305 -0.2165
 2031SOL    HW117726   4.142   4.227   9.937  1.5264  1.1974 -0.3123
 2031SOL    HW217727   4.194   4.111   9.861  1.9557  0.6625  0.1662
 2032SOL     OW17728   2.348   1.645   7.360  0.9417  0.3845 -0.0374
 2032SOL    HW117729   2.439   1.645   7.331  0.0751 -1.8815 -2.7728
 2032SOL    HW217730   2.341   1.604   7.446 -1.8136  0.7089 -0.1066
 2033SOL     OW17731   1.276   1.114  14.967 -0.2674 -0.3801 -0.2116
 2033SOL    HW117732   1.261   1.021  14.982 -0.6767 -0.2917 -0.0650
 2033SOL    HW217733   1.278   1.116  14.871  1.3404 -2.5758 -0.2263
 2034SOL     OW17734   2.579   2.684   0.278  0.6870 -0.1773  0.2827
 2034SOL    HW117735   2.521   2.609   0.290  1.1754 -0.2449  2.2051
 2034SOL    HW217736   2.631   2.686   0.358  0.0736 -0.5018  0.6874
 2035SOL     OW17737   1.975   0.539   4.335 -0.2511  0.5039  0.1109
 2035SOL    HW117738   1.927   0.501   4.409  1.9617  1.6470  2.1244
 2035SOL    HW217739   1.918   0.600   4.287  0.9366 -1.2018 -3.4647
 2036SOL     OW17740   3.431   0.029   7.030  0.3888 -0.1733  0.3366
 2036SOL    HW117741   3.466   0.046   7.118  1.7996 -0.0093 -0.2627
 2036SOL    HW217742   3.406   0.118   7.005  0.2431 -0.4227 -0.3855
 2037SOL     OW17743   1.960   3.291   1.481  0.0706  0.1526  0.2374
 2037SOL    HW117744   2.010   3.323   1.406 -0.3758 -3.0748 -1.4242
 2037SOL    HW217745   1.931   3.207   1.446 -1.6963  0.2845  1.3690
 2038SOL     OW17746   3.172   1.436  16.853 -0.6597 -0.3141  0.1888
 2038SOL    HW117747   3.254   1.454  16.807  0.8855 -1.0127  2.6301
 2038SOL    HW217748   3.116   1.475  16.786 -3.2199  0.6481  2.9227
 2039SOL     OW17749   2.115   3.546   9.087  0.0349  0.2038  0.1071
 2039SOL    HW117750   2.187   3.523   9.144  0.2688 -1.5187 -0.8833
 2039SOL    HW217751   2.136   3.497   9.007  5.4701 -0.2754  1.8848
 2040SOL     OW17752   1.041   3.330   7.735  0.0673  0.3971 -0.0138
 2040SOL    HW117753   1.082   3.411   7.768 -0.6522  0.9707 -0.5152
 2040SOL    HW217754   0.987   3.311   7.812  0.0157  2.8244  0.5742
 2041SOL     OW17755   1.133   3.778  16.539 -0.4745 -0.0497 -0.6058
 2041SOL    HW117756   1.134   3.720  16.615 -2.1089  0.3836 -0.2494
 2041SOL    HW217757   1.105   3.860  16.579 -1.7988  0.3654 -2.3774
 2042SOL     OW17758   2.204   4.472   7.492 -0.2338 -0.7299  0.4803
 2042SOL    HW117759   2.128   4.498   7.441 -0.1219 -2.0453 -0.3450
 2042SOL    HW217760   2.193   4.400   7.554 -1.4107  0.3692  1.5527
 2043SOL     OW17761   1.117   2.076   9.002  0.6501 -0.0009  0.0435
 2043SOL    HW117762   1.120   1.980   9.004  0.7682 -0.0205 -1.0893
 2043SOL    HW217763   1.135   2.092   9.094  2.1032 -1.0009 -0.0566
 2044SOL     OW17764   3.679   0.829   4.113  0.1387 -0.3341 -0.1995
 2044SOL    HW117765   3.651   0.920   4.113  1.5698  0.0951  0.0413
 2044SOL    HW217766   3.610   0.794   4.170 -0.1455 -0.6548 -0.7394
 2045SOL     OW17767   4.729   2.297   9.197 -0.1111 -0.2803 -0.0637
 2045SOL    HW117768   0.017   2.389   9.199  0.8289 -0.4843 -2.7626
 2045SOL    HW217769   4.649   2.292   9.144 -0.8076 -1.7140  1.1177
 2046SOL     OW17770   3.861   2.542   2.472 -0.4802 -0.4622  0.5748
 2046SOL    HW117771   3.881   2.586   2.389 -1.4680 -1.7985 -0.3758
 2046SOL    HW217772   3.773   2.514   2.449  0.0080 -1.6725  0.1859
 2047SOL     OW17773   2.233   4.335   3.032  0.1951  0.6518  0.8698
 2047SOL    HW117774   2.160   4.288   3.072 -0.6378  1.2342  0.0329
 2047SOL    HW217775   2.214   4.340   2.938 -1.1422  0.7252  1.1479
 2048SOL     OW17776   0.278   0.656   4.783 -0.0887 -0.0823  0.8880
 2048SOL    HW117777   0.249   0.673   4.694  1.4502  1.5784  0.6968
 2048SOL    HW217778   0.366   0.692   4.769 -0.9763  1.0794 -1.6846
 2049SOL     OW17779   1.133   3.742   3.794  0.0751  0.2913  0.2851
 2049SOL    HW117780   1.056   3.740   3.851  1.1483 -0.6330  1.6950
 2049SOL    HW217781   1.121   3.660   3.747  0.3907 -1.1981  2.8015
 2050SOL     OW17782   2.410   0.603   6.512  0.5930 -0.2263 -0.3193
 2050SOL    HW117783   2.496   0.636   6.488  0.8621  0.0541  1.0827
 2050SOL    HW217784   2.431   0.555   6.592  2.3048 -0.2973 -0.8155
 2051SOL     OW17785   2.321   0.108  12.700  0.4033 -0.8790 -0.1207
 2051SOL    HW117786   2.300   0.174  12.634 -1.5920 -2.3198 -0.9164
 2051SOL    HW217787   2.401   0.067  12.665 -0.4549 -2.0827 -0.6937
 2052SOL     OW17788   0.518   2.079  16.693  0.2382  0.0261  0.0468
 2052SOL    HW117789   0.468   2.160  16.689  2.0341  1.0419 -2.0791
 2052SOL    HW217790   0.566   2.095  16.774 -1.9419 -0.0272  1.3517
 2053SOL     OW17791   0.156   3.601   6.457 -0.3835  0.5485  0.2677
 2053SOL    HW117792   0.095   3.565   6.392  0.3755 -2.0639  1.0309
 2053SOL    HW217793   0.096   3.664   6.497 -1.1290  1.1518 -1.7510
 2054SOL     OW17794   1.906   0.613  14.601  0.1156 -0.1147  0.2863
 2054SOL    HW117795   1.976   0.676  14.581  0.3922 -1.0439 -1.7322
 2054SOL    HW217796   1.872   0.592  14.514 -0.3412  0.3565  0.3543
 2055SOL     OW17797   1.152   2.443  13.091 -0.1680  0.1036 -0.4957
 2055SOL    HW117798   1.083   2.494  13.134 -0.7117 -2.4435  1.6246
 2055SOL    HW217799   1.170   2.508  13.023 -2.7597 -1.4578 -2.6303
 2056SOL     OW17800   3.292   4.658   3.842 -0.2695  0.0414 -0.1393
 2056SOL    HW117801   3.352   4.730   3.861 -0.2265 -0.0510  0.0767
 2056SOL    HW217802   3.227   4.695   3.783 -0.3594  0.0261 -0.0502
 2057SOL     OW17803   3.045   3.690  10.297  0.0893  0.1949 -0.0431
 2057SOL    HW117804   3.086   3.648  10.221 -0.7260 -0.3553 -0.1682
 2057SOL    HW217805   2.954   3.700  10.269 -0.1375 -0.7323  0.3742
 2058SOL     OW17806   1.332   2.169   6.815  0.1159 -0.7191 -0.2330
 2058SOL    HW117807   1.363   2.117   6.889 -0.4289 -1.7234 -0.7083
 2058SOL    HW217808   1.375   2.254   6.828  1.9624 -1.4117 -1.7112
 2059SOL     OW17809   3.824   1.775  10.106 -0.0196 -0.2443  0.7279
 2059SOL    HW117810   3.800   1.868  10.115 -0.2254 -0.2680  0.4494
 2059SOL    HW217811   3.740   1.745  10.070  0.7599 -3.0591  1.2893
 2060SOL     OW17812   3.312   1.607  10.998 -0.1092  0.1143  0.2259
 2060SOL    HW117813   3.249   1.611  11.070  0.5275 -1.9716  0.9118
 2060SOL    HW217814   3.356   1.692  11.004 -3.1814  1.6862  0.6025
 2061SOL     OW17815   1.469   4.538   2.827  0.5758 -0.7234  0.3672
 2061SOL    HW117816   1.446   4.568   2.915  1.1734  1.8042 -0.3318
 2061SOL    HW217817   1.502   4.452   2.853  0.2739 -0.5821  1.2149
 2062SOL     OW17818   4.648   2.869   9.665  0.3319  0.2949 -0.3177
 2062SOL    HW117819   4.670   2.785   9.706 -0.8666  1.4269  2.6204
 2062SOL    HW217820   4.645   2.923   9.744  2.4075 -1.9051  1.2682
 2063SOL     OW17821   0.052   4.349   8.894  0.2191  0.0217  0.0614
 2063SOL    HW117822   0.077   4.435   8.929 -1.9375  0.6197  0.1621
 2063SOL    HW217823   0.102   4.292   8.952 -0.2592 -1.8413 -1.3685
 2064SOL     OW17824   0.853   1.140   7.216  0.0228 -0.1257  0.4990
 2064SOL    HW117825   0.790   1.164   7.284  0.5695 -1.3170  1.4179
 2064SOL    HW217826   0.925   1.160   7.276 -0.5089  0.1075  1.0670
 2065SOL     OW17827   3.640   4.031   5.209 -0.3551 -0.0627 -0.2709
 2065SOL    HW117828   3.719   3.977   5.206 -2.4626 -3.1522 -0.7664
 2065SOL    HW217829   3.583   3.955   5.200 -3.1047  1.9771 -0.0085
 2066SOL     OW17830   0.340   0.063   4.313 -0.3141  0.0053  0.1407
 2066SOL    HW117831   0.436   0.064   4.312 -0.2938 -0.7690  1.9294
 2066SOL    HW217832   0.313   0.084   4.223  0.4579 -0.5224 -0.2194
 2067SOL     OW17833   1.774   1.966   2.113 -0.6301  0.1870  0.5441
 2067SOL    HW117834   1.786   1.963   2.018  1.6844  0.4737  0.8268
 2067SOL    HW217835   1.758   1.875   2.138  1.2894 -0.0374  0.9876
 2068SOL     OW17836   2.831   3.544  11.467 -0.0822 -0.5064  0.2261
 2068SOL    HW117837   2.741   3.567  11.488  0.1612  2.2026 -1.7314
 2068SOL    HW217838   2.857   3.607  11.400 -2.4306 -1.1535 -1.2781
 2069SOL     OW17839   3.314   3.684   2.078  0.5243  0.0894 -0.0139
 2069SOL    HW117840   3.331   3.766   2.032 -1.7856  0.3957 -0.2929
 2069SOL    HW217841   3.347   3.708   2.165 -0.3875 -0.6141  0.5220
 2070SOL     OW17842   4.484   1.914   4.475 -0.1128 -0.4274  0.2516
 2070SOL    HW117843   4.545   1.854   4.518  0.2151 -2.0098 -2.4668
 2070SOL    HW217844   4.436   1.856   4.416  1.4327 -2.2305  0.7722
 2071SOL     OW17845   4.057   2.027   8.348 -0.3847  0.6119 -0.1009
 2071SOL    HW117846   4.116   1.951   8.348 -0.6877  0.3775 -1.6374
 2071SOL    HW217847   4.022   2.031   8.437 -0.2930 -1.6662  0.0399
 2072SOL     OW17848   3.739   1.223  14.978  0.4440  0.1806 -0.0470
 2072SOL    HW117849   3.765   1.145  14.931 -0.0522  0.9223 -1.5364
 2072SOL    HW217850   3.695   1.174  15.048 -1.2394  0.7281 -0.7342
 2073SOL     OW17851   1.465   0.536   5.809 -0.1559  0.0958 -0.5134
 2073SOL    HW117852   1.498   0.546   5.898  0.8242 -0.9139 -0.7655
 2073SOL    HW217853   1.491   0.448   5.782  2.3370  0.1559  1.6652
 2074SOL     OW17854   4.223   0.305   7.847 -0.0212 -0.2866 -0.8432
 2074SOL    HW117855   4.262   0.251   7.916  0.5271  0.6707 -0.3987
 2074SOL    HW217856   4.288   0.310   7.777  0.4983 -1.1042 -0.4231
 2075SOL     OW17857   0.493   2.785   8.317  0.0321 -0.1435  0.2788
 2075SOL    HW117858   0.465   2.785   8.226  1.8569 -1.5624 -0.2722
 2075SOL    HW217859   0.438   2.714   8.352  0.3369 -0.6645 -0.3082
 2076SOL     OW17860   0.783   3.243  16.746  0.1358 -0.4519  0.5821
 2076SOL    HW117861   0.814   3.157  16.718  1.7472 -0.2297  1.7438
 2076SOL    HW217862   0.695   3.224  16.779  0.1688 -0.7276  0.5107
 2077SOL     OW17863   3.656   2.000  16.398  0.2087  0.3961 -0.1360
 2077SOL    HW117864   3.722   2.024  16.463  0.2072  1.9773 -0.7229
 2077SOL    HW217865   3.707   1.964  16.326 -0.9636 -0.3740 -0.5936
 2078SOL     OW17866   0.195   1.545   7.396  0.4844  0.1602  0.6444
 2078SOL    HW117867   0.179   1.451   7.392 -0.1066  0.2890 -0.0730
 2078SOL    HW217868   0.262   1.557   7.329 -1.1794  0.2709 -0.9998
 2079SOL     OW17869   1.917   4.406   8.759 -0.0820 -0.2068 -0.0591
 2079SOL    HW117870   1.848   4.340   8.761  0.4867 -0.7820  0.5085
 2079SOL    HW217871   1.998   4.361   8.737  0.1814 -0.4954  1.5087
 2080SOL     OW17872   1.461   0.807   1.025 -0.5980  0.4318 -0.1823
 2080SOL    HW117873   1.497   0.856   0.952  0.1081  1.0961  0.6194
 2080SOL    HW217874   1.497   0.721   1.003  1.5364  1.5811 -1.1308
 2081SOL     OW17875   0.748   1.211  16.800  0.2017 -0.1264 -0.2182
 2081SOL    HW117876   0.709   1.125  16.784 -1.3132  0.7352 -1.2300
 2081SOL    HW217877   0.723   1.257  16.719  1.9800  0.5811 -0.3652
 2082SOL     OW17878   2.863   0.543   3.218  0.4781 -0.2977 -0.1154
 2082SOL    HW117879   2.949   0.548   3.177  1.1016 -1.2070  1.0579
 2082SOL    HW217880   2.881   0.453   3.246 -0.2664  0.3473  2.4476
 2083SOL     OW17881   1.891   3.512  15.825  0.1448  0.1354 -0.3006
 2083SOL    HW117882   1.891   3.602  15.857  1.7781 -0.3155  0.9415
 2083SOL    HW217883   1.797   3.500  15.811 -0.1352 -0.4181  2.0609
 2084SOL     OW17884   2.744   1.990   6.200 -0.4878 -0.2250  0.5777
 2084SOL    HW117885   2.788   1.964   6.119 -0.5866 -0.0950  0.4837
 2084SOL    HW217886   2.735   2.084   6.187  0.5116 -0.1656  0.2961
 2085SOL     OW17887   2.521   2.503   9.779 -0.8770  0.3475  0.0353
 2085SOL    HW117888   2.576   2.578   9.801  2.1345 -1.4572 -1.4042
 2085SOL    HW217889   2.461   2.492   9.853 -1.2252 -0.3477 -0.3458
 2086SOL     OW17890   2.392   3.298   4.462 -0.0008 -0.7083  0.1692
 2086SOL    HW117891   2.452   3.334   4.527  0.4338 -1.6530  0.2858
 2086SOL    HW217892   2.375   3.376   4.410  0.2924 -0.4029  0.5365
 2087SOL     OW17893   2.221   2.393   2.968 -0.7894  0.3980  0.2495
 2087SOL    HW117894   2.220   2.325   2.900  0.9139  0.8646 -0.2510
 2087SOL    HW217895   2.313   2.402   2.993 -0.4612 -3.4598  0.4600
 2088SOL     OW17896   0.719   0.207   3.942 -0.6672 -0.5955 -0.6191
 2088SOL    HW117897   0.792   0.153   3.971  0.5309  1.7614  0.7715
 2088SOL    HW217898   0.645   0.153   3.968  0.0268 -0.4578  1.6111
 2089SOL     OW17899   3.427   0.260  15.678 -0.0343  0.5676  0.0600
 2089SOL    HW117900   3.517   0.244  15.708 -0.0683  2.7298  1.3147
 2089SOL    HW217901   3.428   0.356  15.677 -1.2074  0.5476 -2.0023
 2090SOL     OW17902   2.175   0.880   5.581 -0.2450  0.6305  0.2916
 2090SOL    HW117903   2.154   0.830   5.502 -0.7306 -2.5960  2.4480
 2090SOL    HW217904   2.252   0.829   5.606 -0.2903  0.7677  0.7152
 2091SOL     OW17905   1.221   4.673   7.684 -0.1787 -0.3217 -0.5036
 2091SOL    HW117906   1.157   4.688   7.754  0.7800  1.1602  0.0380
 2091SOL    HW217907   1.176   4.704   7.605 -0.0186 -0.6688 -0.7318
 2092SOL     OW17908   4.423   3.458   1.672  0.5254 -0.1079 -0.1935
 2092SOL    HW117909   4.477   3.435   1.597 -1.2115 -0.7068 -1.2590
 2092SOL    HW217910   4.439   3.386   1.733  0.0429  0.2671  0.3729
 2093SOL     OW17911   4.393   2.491  11.565  0.1597 -1.1643 -0.1304
 2093SOL    HW117912   4.387   2.480  11.470  2.7302  0.5707 -0.4902
 2093SOL    HW217913   4.429   2.410  11.601 -0.6725 -1.6606 -0.4107
 2094SOL     OW17914   2.596   3.580   3.309 -0.3114  0.4724  0.2593
 2094SOL    HW117915   2.667   3.624   3.262 -0.6054 -0.4522 -1.0686
 2094SOL    HW217916   2.613   3.487   3.292 -1.2676 -0.0483  2.1733
 2095SOL     OW17917   4.555   2.373  12.338  0.4637  0.5085 -0.5016
 2095SOL    HW117918   4.534   2.282  12.315  1.3887  0.4396 -1.0682
 2095SOL    HW217919   4.475   2.404  12.380 -0.8329 -1.2362 -1.6586
 2096SOL     OW17920   4.629   3.272   2.652  0.3629 -0.5078 -0.2852
 2096SOL    HW117921   4.545   3.314   2.667  0.6954 -0.4119  1.2630
 2096SOL    HW217922   4.640   3.251   2.559  1.2868 -3.1551  0.4119
 2097SOL     OW17923   3.536   4.730  11.273 -0.0218  0.4306  0.3117
 2097SOL    HW117924   3.469   4.720  11.206  2.2681 -1.6272 -1.6689
 2097SOL    HW217925   3.479   4.707  11.347 -0.8091  3.3479  0.6185
 2098SOL     OW17926   1.971   3.301   3.737 -0.4127  0.2066 -0.3499
 2098SOL    HW117927   1.925   3.335   3.814  0.0257 -0.4201  0.1909
 2098SOL    HW217928   1.923   3.218   3.734  1.6171 -0.9943  0.2622
 2099SOL     OW17929   1.353   1.137  10.937 -0.0610  0.2839 -0.4598
 2099SOL    HW117930   1.366   1.182  11.021  0.2777  0.4544 -0.6020
 2099SOL    HW217931   1.441   1.124  10.902  1.4363  2.8145  2.2771
 2100SOL     OW17932   4.699   2.177  11.429  0.2365  0.0635  0.2439
 2100SOL    HW117933   4.605   2.191  11.438 -0.1443 -1.5309 -1.4701
 2100SOL    HW217934   4.722   2.263  11.395  0.6747 -0.9134 -1.8882
 2101SOL     OW17935   0.661   4.135  15.371  0.5658 -0.2216  0.1712
 2101SOL    HW117936   0.666   4.046  15.406  1.8003 -1.0058 -2.0302
 2101SOL    HW217937   0.629   4.178  15.451 -2.1906  0.1502 -1.1469
 2102SOL     OW17938   0.811   3.690  16.204 -0.2723 -0.0961 -0.5150
 2102SOL    HW117939   0.859   3.733  16.275  0.0709  0.6851 -1.2381
 2102SOL    HW217940   0.845   3.600  16.208  0.1407  0.1723  2.2043
 2103SOL     OW17941   2.930   2.220  14.816 -0.3700 -0.4505 -0.5681
 2103SOL    HW117942   3.013   2.267  14.824 -1.0704  0.6011  0.6155
 2103SOL    HW217943   2.868   2.293  14.812 -0.7366 -0.6634  0.8919
 2104SOL     OW17944   3.382   1.079   3.340 -0.5058 -0.0551 -0.0537
 2104SOL    HW117945   3.339   1.075   3.426 -5.1290  2.5318 -2.3100
 2104SOL    HW217946   3.466   1.035   3.354  0.0426  0.2203 -2.6121
 2105SOL     OW17947   0.453   3.511   1.989 -0.5132  0.0889  0.0695
 2105SOL    HW117948   0.445   3.539   2.080  1.3043  1.8560 -0.3201
 2105SOL    HW217949   0.416   3.423   2.000 -1.0443  0.2337 -0.5409
 2106SOL     OW17950   1.370   1.548   7.296 -0.5421 -0.3309 -0.0849
 2106SOL    HW117951   1.290   1.563   7.247 -0.4587  1.9749  0.4971
 2106SOL    HW217952   1.349   1.459   7.325 -0.7039  0.0131  0.8512
 2107SOL     OW17953   1.067   3.452  16.097 -0.3531 -0.2357  0.0775
 2107SOL    HW117954   1.107   3.515  16.158  1.3839 -1.6199  0.3928
 2107SOL    HW217955   1.143   3.393  16.095 -0.2400 -0.0948  0.2061
 2108SOL     OW17956   4.534   3.971   1.646  0.1615  0.4370  0.1024
 2108SOL    HW117957   4.542   3.982   1.551  1.8036  2.3138  0.4530
 2108SOL    HW217958   4.525   3.876   1.654  0.9168  0.2803 -0.8733
 2109SOL     OW17959   1.730   2.987   5.066  0.9701  0.1858  0.5030
 2109SOL    HW117960   1.719   3.073   5.106  0.9001  0.9853 -1.2402
 2109SOL    HW217961   1.821   2.971   5.090  0.9556  0.9636  1.0942
 2110SOL     OW17962   1.058   3.128   6.562  0.1215 -0.5012  0.4877
 2110SOL    HW117963   1.043   3.038   6.589  0.7459 -0.4533  0.9920
 2110SOL    HW217964   1.112   3.163   6.633  1.8626  0.0468 -1.1080
 2111SOL     OW17965   2.793   2.230   7.809  0.1155 -0.2577 -0.3845
 2111SOL    HW117966   2.787   2.314   7.764  1.5655  0.8636  1.5359
 2111SOL    HW217967   2.708   2.239   7.851 -0.2155 -1.4081 -0.7903
 2112SOL     OW17968   4.056   2.057   9.487 -0.4818 -0.4648 -0.2219
 2112SOL    HW117969   4.120   2.121   9.519 -1.2489  0.5401 -0.6676
 2112SOL    HW217970   4.080   1.971   9.519 -0.6395 -1.2277 -2.1619
 2113SOL     OW17971   1.481   0.639   2.559  0.3844  0.1979 -0.6319
 2113SOL    HW117972   1.548   0.683   2.611  1.4782 -1.2259 -0.8290
 2113SOL    HW217973   1.420   0.638   2.633 -1.1461  0.5245 -1.8625
 2114SOL     OW17974   0.295   1.413   5.833  0.0301  0.0819  0.1601
 2114SOL    HW117975   0.237   1.336   5.831  1.0147 -0.6273 -1.2124
 2114SOL    HW217976   0.304   1.421   5.928 -1.2887 -0.9815  0.3892
 2115SOL     OW17977   3.600   0.853   1.757  0.0589  0.4084  0.0010
 2115SOL    HW117978   3.560   0.790   1.817  1.1537 -0.1475  0.1416
 2115SOL    HW217979   3.651   0.904   1.820 -2.2604  0.9256  1.4613
 2116SOL     OW17980   4.387   0.786   4.107  0.8597  0.6745  0.1367
 2116SOL    HW117981   4.306   0.826   4.139  1.6416  3.3436 -1.2047
 2116SOL    HW217982   4.374   0.698   4.141 -1.2496  1.5228  1.5283
 2117SOL     OW17983   2.169   2.918   5.335  0.5329  0.2405 -0.5062
 2117SOL    HW117984   2.175   2.863   5.413 -0.6501  0.5170 -0.2304
 2117SOL    HW217985   2.199   2.851   5.273  0.5793 -0.9553  0.8212
 2118SOL     OW17986   2.114   4.330   9.372  0.0685  0.0857 -0.3955
 2118SOL    HW117987   2.160   4.414   9.381 -0.5249  0.4972 -1.2127
 2118SOL    HW217988   2.181   4.288   9.318  0.1402 -0.2490 -0.0484
 2119SOL     OW17989   0.274   1.568   6.630  0.1469 -0.1609 -0.9477
 2119SOL    HW117990   0.244   1.476   6.626  0.6660 -0.3342 -0.7993
 2119SOL    HW217991   0.356   1.564   6.680  0.5151 -1.1744 -1.6349
 2120SOL     OW17992   3.269   2.664   3.679 -0.0932 -0.7452 -0.4807
 2120SOL    HW117993   3.232   2.673   3.767  0.5182 -1.5182 -0.1432
 2120SOL    HW217994   3.303   2.575   3.679 -1.2704 -1.1854  0.5899
 2121SOL     OW17995   4.453   3.805   9.341 -0.4795  0.7168  0.3771
 2121SOL    HW117996   4.537   3.823   9.383 -0.9146  0.9404  1.1658
 2121SOL    HW217997   4.397   3.811   9.419 -0.1908 -0.3963  0.6576
 2122SOL     OW17998   0.664   1.299  13.202 -0.0830 -0.2707 -0.0507
 2122SOL    HW117999   0.636   1.224  13.149 -0.7595 -1.0006  1.3528
 2122SOL    HW218000   0.759   1.303  13.203 -0.0850  0.1922 -2.1763
 2123SOL     OW18001   4.130   2.126  14.286 -0.1038  0.1288  0.1872
 2123SOL    HW118002   4.111   2.090  14.200 -0.9601  0.6289  0.1657
 2123SOL    HW218003   4.191   2.062  14.321  0.3022 -0.1813 -1.0947
 2124SOL     OW18004   4.327   3.954  11.454 -0.2023 -0.4301  0.0557
 2124SOL    HW118005   4.247   3.930  11.408 -1.8896  1.7409  1.8618
 2124SOL    HW218006   4.355   4.016  11.386  3.1300 -2.3869 -0.3946
 2125SOL     OW18007   4.688   0.295   3.907  0.6180 -0.1803  0.1822
 2125SOL    HW118008   0.006   0.370   3.884  2.1491 -1.1216  0.7871
 2125SOL    HW218009   4.731   0.218   3.869  1.9544  0.3407  0.6652
 2126SOL     OW18010   0.751   0.619   0.470 -0.6501 -0.4758  0.3817
 2126SOL    HW118011   0.736   0.634   0.377  1.0147 -0.3784  0.1271
 2126SOL    HW218012   0.664   0.639   0.503  0.5098  1.2434  2.4466
 2127SOL     OW18013   1.669   3.225  13.793  0.0509  0.0257 -0.4815
 2127SOL    HW118014   1.672   3.167  13.717 -0.2405 -0.0001 -0.4734
 2127SOL    HW218015   1.760   3.246  13.813  0.3078 -2.0818  0.5107
 2128SOL     OW18016   1.825   0.463  15.899 -0.2013 -0.2358  0.0317
 2128SOL    HW118017   1.786   0.470  15.812 -1.4317 -0.0756  0.5974
 2128SOL    HW218018   1.848   0.554  15.918 -0.1357  0.1243 -1.8074
 2129SOL     OW18019   0.185   3.844   8.038  0.5289  0.6364 -0.0502
 2129SOL    HW118020   0.161   3.860   7.947 -1.5495 -0.0798  0.3677
 2129SOL    HW218021   0.104   3.859   8.086 -0.4503 -1.6271 -0.9968
 2130SOL     OW18022   3.137   2.817  11.548 -0.6598 -0.4932 -0.0753
 2130SOL    HW118023   3.109   2.824  11.639  0.0730 -0.4484  0.1506
 2130SOL    HW218024   3.216   2.870  11.540  0.4437 -2.3347 -1.2585
 2131SOL     OW18025   1.593   0.131  15.322  0.3902 -0.4127  0.3671
 2131SOL    HW118026   1.618   0.140  15.415  2.3102  0.6411 -0.2353
 2131SOL    HW218027   1.573   0.221  15.298  1.4769  0.5262  2.9067
 2132SOL     OW18028   0.509   4.604   5.027 -0.4767  0.5161  0.8536
 2132SOL    HW118029   0.431   4.658   5.040 -0.0671  1.3702 -0.1912
 2132SOL    HW218030   0.495   4.537   5.094  1.5135 -0.1542  0.5741
 2133SOL     OW18031   3.659   3.888   6.751  0.3899  0.4700  0.2685
 2133SOL    HW118032   3.567   3.911   6.766  0.0172 -0.3237 -0.7784
 2133SOL    HW218033   3.695   3.974   6.729 -0.5446 -0.0180 -3.1377
 2134SOL     OW18034   2.875   1.374   2.381 -0.1714 -0.0261  0.3286
 2134SOL    HW118035   2.957   1.355   2.336 -1.1913  2.0404 -2.3677
 2134SOL    HW218036   2.897   1.331   2.464 -1.9655  1.1208  1.3947
 2135SOL     OW18037   0.040   0.137   8.762  0.4926  0.4654 -0.7479
 2135SOL    HW118038   0.120   0.117   8.811 -0.5774 -3.0818 -0.5154
 2135SOL    HW218039   4.713   0.113   8.828  0.8770 -0.1694 -0.6156
 2136SOL     OW18040   4.621   0.933   6.111 -0.0134 -0.0422 -0.5850
 2136SOL    HW118041   4.591   0.851   6.073 -1.5929 -0.4051  1.4399
 2136SOL    HW218042   4.680   0.972   6.046 -0.9188  2.3657  0.0196
 2137SOL     OW18043   4.210   3.761  10.143 -0.4380 -0.0459 -0.0514
 2137SOL    HW118044   4.213   3.699  10.217  0.6627 -0.9567 -0.8555
 2137SOL    HW218045   4.237   3.697  10.078  0.7256  0.0685  0.3038
 2138SOL     OW18046   2.580   4.634   6.397 -0.4370  0.2817 -0.0755
 2138SOL    HW118047   2.664   4.593   6.421  0.6493  2.5115 -0.0712
 2138SOL    HW218048   2.527   4.563   6.433 -2.5023  1.0850 -1.5340
 2139SOL     OW18049   2.040   2.003   3.668  0.0487  0.1360 -0.0954
 2139SOL    HW118050   2.013   2.012   3.759  2.4363  1.6274  0.4626
 2139SOL    HW218051   1.959   1.990   3.619 -0.5093  0.8167  0.6442
 2140SOL     OW18052   2.194   3.880   1.302  0.3976 -0.7362  0.2432
 2140SOL    HW118053   2.162   3.800   1.261 -0.5806  0.4627 -1.3527
 2140SOL    HW218054   2.287   3.875   1.282  0.6265  0.0144  1.1035
 2141SOL     OW18055   3.104   3.028  10.786  0.3236  0.0502  0.0871
 2141SOL    HW118056   3.093   3.045  10.879 -0.5388 -3.0174  0.5501
 2141SOL    HW218057   3.016   3.041  10.750  1.0146  1.5841 -1.0474
 2142SOL     OW18058   1.096   3.729  13.883 -0.1259  0.3325 -0.2666
 2142SOL    HW118059   1.009   3.763  13.901 -0.2110  0.4031 -0.8076
 2142SOL    HW218060   1.084   3.677  13.803 -2.9894  0.6004  0.0090
 2143SOL     OW18061   2.723   2.103   4.888  0.2100 -0.1932 -0.7170
 2143SOL    HW118062   2.730   2.076   4.980  0.5462 -0.9898 -0.9777
 2143SOL    HW218063   2.723   2.198   4.892  0.4459 -0.2656  0.9853
 2144SOL     OW18064   2.593   4.167   1.952  0.0512  0.0815 -0.1791
 2144SOL    HW118065   2.688   4.181   1.951  0.1689 -0.9247 -2.0218
 2144SOL    HW218066   2.585   4.072   1.958 -1.2628  0.2422  0.7033
 2145SOL     OW18067   1.806   2.297   9.138 -0.4443  0.3014  0.1973
 2145SOL    HW118068   1.836   2.252   9.217 -0.5772 -3.6012 -1.9939
 2145SOL    HW218069   1.801   2.386   9.173  2.1213  0.2804  0.6882
 2146SOL     OW18070   2.560   3.788   3.851  0.2021 -0.1553 -0.0168
 2146SOL    HW118071   2.626   3.813   3.916  0.2810  4.1261 -1.6987
 2146SOL    HW218072   2.615   3.769   3.775  0.3044 -0.4922  0.1419
 2147SOL     OW18073   0.731   4.356  14.829  0.3632  0.0787 -0.0041
 2147SOL    HW118074   0.827   4.352  14.819  0.3188  1.2694 -0.9074
 2147SOL    HW218075   0.708   4.333  14.919 -0.2789 -0.5425 -0.3295
 2148SOL     OW18076   1.949   4.215   6.779  0.4950  0.1476 -0.1083
 2148SOL    HW118077   1.875   4.207   6.720  1.4824  2.7532 -1.6883
 2148SOL    HW218078   2.024   4.221   6.721 -0.0801 -0.4692 -0.9109
 2149SOL     OW18079   0.242   0.858   7.540  0.0160  0.1751 -0.5497
 2149SOL    HW118080   0.298   0.792   7.583 -0.7927 -0.8651 -1.0851
 2149SOL    HW218081   0.201   0.889   7.621 -1.2909 -0.2991 -1.0209
 2150SOL     OW18082   3.159   1.280  10.600  0.0336 -0.2665  0.9465
 2150SOL    HW118083   3.187   1.372  10.598  1.1708 -0.6120  1.0744
 2150SOL    HW218084   3.106   1.273  10.679  0.8587  0.6153  1.5727
 2151SOL     OW18085   1.181   3.863   0.624  0.3480  0.0833  0.2733
 2151SOL    HW118086   1.100   3.891   0.580  2.5258  0.8667 -3.2087
 2151SOL    HW218087   1.216   3.794   0.568  0.7516  2.3212 -2.2770
 2152SOL     OW18088   1.209   0.357  15.112 -0.4828 -0.1887  0.0398
 2152SOL    HW118089   1.133   0.373  15.057  1.0897  2.7241 -1.2902
 2152SOL    HW218090   1.170   0.371  15.198  1.2016  3.3153  0.2557
 2153SOL     OW18091   2.106   3.894  10.987  0.2590 -0.2331 -0.7575
 2153SOL    HW118092   2.155   3.959  10.936 -0.6383  1.7826  0.9553
 2153SOL    HW218093   2.030   3.942  11.021  0.3451 -0.9473  0.4256
 2154SOL     OW18094   2.261   4.197   7.215  0.1791 -0.0947  0.5843
 2154SOL    HW118095   2.215   4.265   7.167  1.9577  0.4664 -0.3285
 2154SOL    HW218096   2.189   4.152   7.260 -1.4744  1.5042 -0.4982
 2155SOL     OW18097   3.748   3.611  10.706 -0.4013  0.0192 -0.2575
 2155SOL    HW118098   3.702   3.562  10.638  0.3886 -1.5052  0.3228
 2155SOL    HW218099   3.755   3.546  10.775 -0.2927  0.3289  0.0249
 2156SOL     OW18100   0.383   3.817   6.365 -0.5543  0.1991 -0.7740
 2156SOL    HW118101   0.380   3.883   6.434 -0.4555  1.0642 -1.6018
 2156SOL    HW218102   0.415   3.743   6.417 -1.4270  0.1193 -0.3578
 2157SOL     OW18103   3.638   4.297   5.210 -0.3224 -0.1804 -0.4299
 2157SOL    HW118104   3.580   4.231   5.250 -0.3168 -0.2353 -0.5134
 2157SOL    HW218105   3.691   4.230   5.167 -3.7555 -2.7256 -0.7750
 2158SOL     OW18106   0.575   0.155   4.897  0.1293  0.3092  0.1896
 2158SOL    HW118107   0.523   0.090   4.943 -0.3983  0.1624 -0.6133
 2158SOL    HW218108   0.514   0.187   4.831  1.5532 -1.0831 -1.8078
 2159SOL     OW18109   2.400   1.291   3.772 -0.7111  0.3415  0.1973
 2159SOL    HW118110   2.386   1.351   3.845 -1.6552 -0.1825  0.4533
 2159SOL    HW218111   2.308   1.273   3.753 -0.1896 -0.7946 -1.2484
 2160SOL     OW18112   3.029   1.241   8.967 -0.7366  0.0416 -0.3072
 2160SOL    HW118113   3.110   1.242   8.916  0.6191  2.3515  1.8981
 2160SOL    HW218114   3.041   1.174   9.034  1.0363  0.4277 -0.2461
 2161SOL     OW18115   3.511   4.633   5.389  0.1379  0.2881 -0.2832
 2161SOL    HW118116   3.459   4.595   5.460 -1.2496  1.4738 -0.6521
 2161SOL    HW218117   3.439   4.617   5.327  0.5780 -0.9793 -0.4757
 2162SOL     OW18118   3.942   3.082  16.179  0.7323  0.0823  0.3542
 2162SOL    HW118119   3.918   3.008  16.236  3.7622 -0.0682  1.4734
 2162SOL    HW218120   3.959   3.143  16.251 -2.6970  1.0559  0.3382
 2163SOL     OW18121   1.236   0.792  14.367 -0.1682  0.2329 -0.2020
 2163SOL    HW118122   1.210   0.868  14.421 -2.0745 -1.2835  1.0151
 2163SOL    HW218123   1.256   0.833  14.283 -1.7896 -1.2989 -1.3409
 2164SOL     OW18124   4.578   2.409   7.412 -0.2508  0.0750  0.7436
 2164SOL    HW118125   4.501   2.397   7.468 -0.6645  0.9707  0.3770
 2164SOL    HW218126   4.560   2.491   7.366 -0.9423  0.0380  0.9415
 2165SOL     OW18127   1.412   1.120   3.453 -0.3045 -0.3363  0.2426
 2165SOL    HW118128   1.498   1.119   3.495 -0.8563  1.5821  1.3930
 2165SOL    HW218129   1.431   1.145   3.363  1.2841 -1.2251  0.3297
 2166SOL     OW18130   0.815   0.627   8.537  0.0003  0.0380  0.2293
 2166SOL    HW118131   0.842   0.717   8.518 -2.8215  0.9112  0.2648
 2166SOL    HW218132   0.764   0.647   8.616  1.1323  2.4285  0.3631
 2167SOL     OW18133   3.786   0.301  17.058 -0.4326  0.1707 -0.3374
 2167SOL    HW118134   3.830   0.385  17.043 -0.4802  0.5501  1.5489
 2167SOL    HW218135   3.697   0.322  17.084 -1.9808 -3.9968 -2.2435
 2168SOL     OW18136   2.683   3.233   3.974 -0.1726  0.0658  0.3682
 2168SOL    HW118137   2.631   3.210   3.898 -1.3308  2.8685  0.3187
 2168SOL    HW218138   2.740   3.156   3.972  1.8219  1.5883 -1.2991
 2169SOL     OW18139   0.705   2.958   3.711 -0.1895  0.0579  0.3519
 2169SOL    HW118140   0.763   2.916   3.775 -1.8951 -0.1579  1.7684
 2169SOL    HW218141   0.687   3.036   3.764  3.9746  0.8193  0.6658
 2170SOL     OW18142   1.296   4.640   5.349  0.0333  0.1924 -0.1147
 2170SOL    HW118143   1.302   4.608   5.439 -0.1286 -1.1856 -0.6021
 2170SOL    HW218144   1.252   4.571   5.299  0.8744 -0.0409 -0.5288
 2171SOL     OW18145   1.444   3.301   4.718 -0.1068 -0.3151 -0.5070
 2171SOL    HW118146   1.428   3.388   4.753  1.7989 -0.0509 -0.2629
 2171SOL    HW218147   1.512   3.317   4.652 -2.1141  1.4289 -2.1567
 2172SOL     OW18148   4.691   1.708   8.650 -0.3167 -0.1064  0.0132
 2172SOL    HW118149   4.661   1.621   8.623  0.1862  0.3916 -2.2239
 2172SOL    HW218150   0.039   1.723   8.607 -1.2451 -0.1140 -1.8337
 2173SOL     OW18151   0.842   1.103   6.035 -0.3188  0.0067  0.0004
 2173SOL    HW118152   0.815   1.183   5.989 -0.3348 -0.2534 -0.4398
 2173SOL    HW218153   0.839   1.045   5.960 -0.8313  0.3135 -0.2116
 2174SOL     OW18154   4.100   0.180   3.659  0.7249 -0.1484  0.8868
 2174SOL    HW118155   4.093   0.139   3.746 -0.5634  2.1335  1.8577
 2174SOL    HW218156   4.007   0.193   3.642  0.4707 -1.2124  1.4649
 2175SOL     OW18157   3.960   1.965   8.586 -0.5216 -0.1667  0.4390
 2175SOL    HW118158   3.900   1.897   8.618  1.5805 -1.8206  0.8872
 2175SOL    HW218159   4.008   1.989   8.665 -1.0626 -2.7893  1.5700
 2176SOL     OW18160   4.465   2.084   8.235 -0.4333 -0.2754 -0.3818
 2176SOL    HW118161   4.539   2.100   8.293  0.4360 -3.1278 -0.6545
 2176SOL    HW218162   4.466   1.988   8.224  2.6289 -0.3801  0.7681
 2177SOL     OW18163   1.453   0.576   4.730 -0.6196 -0.4876  0.1803
 2177SOL    HW118164   1.537   0.533   4.748 -0.7129 -0.3298  0.9946
 2177SOL    HW218165   1.395   0.557   4.803 -0.1375  0.0106  0.6916
 2178SOL     OW18166   0.852   4.252   7.416  0.8108  0.5341 -0.8043
 2178SOL    HW118167   0.916   4.183   7.396  0.2098 -0.2472 -0.0233
 2178SOL    HW218168   0.911   4.326   7.425  0.4656  0.9286 -1.7645
 2179SOL     OW18169   0.699   2.082   1.963 -0.1717  0.0306  0.0668
 2179SOL    HW118170   0.618   2.123   1.994 -0.8497 -2.0002  0.9784
 2179SOL    HW218171   0.703   2.095   1.868 -1.2443  0.3665  0.0669
 2180SOL     OW18172   0.339   4.415   2.556 -0.1987 -0.4779 -0.6356
 2180SOL    HW118173   0.360   4.336   2.507  1.7804 -1.3194  1.5430
 2180SOL    HW218174   0.292   4.460   2.485  2.8861  1.0270 -1.7693
 2181SOL     OW18175   0.341   2.570  12.455  0.5238  0.2557 -0.1567
 2181SOL    HW118176   0.332   2.497  12.393  0.8022  0.8599 -0.9068
 2181SOL    HW218177   0.257   2.555  12.498 -0.1293  4.6993  0.0777
 2182SOL     OW18178   4.183   3.349   8.276 -0.0493  0.1446  0.3375
 2182SOL    HW118179   4.089   3.361   8.264 -0.3113 -3.2717 -1.0264
 2182SOL    HW218180   4.198   3.435   8.316 -1.6993  0.4520  0.2757
 2183SOL     OW18181   3.630   3.091  12.598 -0.4453  0.0164  0.3500
 2183SOL    HW118182   3.635   3.034  12.675 -1.7809 -0.9695 -0.2825
 2183SOL    HW218183   3.705   3.149  12.608  0.5737 -1.0584 -1.0864
 2184SOL     OW18184   1.365   3.154   3.281  0.3215 -0.4491  0.0794
 2184SOL    HW118185   1.425   3.098   3.331 -1.4752 -0.9123  1.6953
 2184SOL    HW218186   1.324   3.093   3.221  0.9682  0.3601 -1.1929
 2185SOL     OW18187   1.365   2.301   3.153  0.8388  0.4882  0.0414
 2185SOL    HW118188   1.351   2.267   3.064 -0.6767  4.2292 -1.1434
 2185SOL    HW218189   1.403   2.219   3.183  1.6107 -0.5992 -3.8817
 2186SOL     OW18190   2.087   0.595  17.267 -0.1482 -0.2090 -0.3503
 2186SOL    HW118191   2.053   0.659  17.205  0.9923  2.1204  1.4378
 2186SOL    HW218192   2.050   0.515  17.228  0.2827 -0.3288 -0.5166
 2187SOL     OW18193   0.553   0.778   6.774  0.7579 -0.0372 -0.4837
 2187SOL    HW118194   0.584   0.728   6.699 -0.9115  0.3999 -1.4704
 2187SOL    HW218195   0.631   0.829   6.797  0.1163  0.8108 -0.2049
 2188SOL     OW18196   3.490   1.328   3.028 -0.0824  0.0937 -0.2449
 2188SOL    HW118197   3.577   1.328   3.068 -0.3689 -1.3754  0.3813
 2188SOL    HW218198   3.436   1.311   3.105 -0.1937  0.3576 -0.2653
 2189SOL     OW18199   4.151   4.197   0.577  0.2823 -0.3045  0.6894
 2189SOL    HW118200   4.181   4.288   0.576  0.1310 -0.2428  2.1488
 2189SOL    HW218201   4.168   4.182   0.670  0.1283 -1.0631  0.5939
 2190SOL     OW18202   4.716   0.336   8.590 -0.5714 -0.3579  0.9519
 2190SOL    HW118203   4.734   0.384   8.671 -3.2499 -0.8208  1.8227
 2190SOL    HW218204   4.700   0.249   8.627  0.4524 -1.0899 -0.3222
 2191SOL     OW18205   2.923   2.961   7.539  0.1439 -0.2880 -0.3236
 2191SOL    HW118206   3.015   2.937   7.549 -0.2323 -0.9184  1.6504
 2191SOL    HW218207   2.903   2.991   7.628  0.3283 -0.8647 -0.0870
 2192SOL     OW18208   3.227   4.188   2.304 -0.7043  0.4523 -0.3719
 2192SOL    HW118209   3.207   4.251   2.374  1.4499  1.5900 -0.7752
 2192SOL    HW218210   3.312   4.156   2.334 -0.4157  1.3453 -0.2212
 2193SOL     OW18211   0.182   0.662   4.055  0.1039  0.5981 -0.3397
 2193SOL    HW118212   0.241   0.731   4.087  0.0407  1.2949 -1.7147
 2193SOL    HW218213   0.123   0.660   4.130  0.9562 -0.3645  0.3050
 2194SOL     OW18214   3.859   2.064   6.047 -0.3058  0.3014 -0.4287
 2194SOL    HW118215   3.784   2.020   6.086  0.2909 -1.1180 -0.9091
 2194SOL    HW218216   3.892   2.006   5.979  0.2169  1.3512 -1.0736
 2195SOL     OW18217   2.530   1.208   6.836 -0.4312  0.4163 -0.9578
 2195SOL    HW118218   2.472   1.275   6.872 -0.5560  0.2537 -0.8544
 2195SOL    HW218219   2.476   1.130   6.825 -1.1837  1.1200 -2.2341
 2196SOL     OW18220   0.446   0.368  12.273  0.2698 -0.3535 -0.2658
 2196SOL    HW118221   0.361   0.331  12.298  1.7520 -2.8001  1.1312
 2196SOL    HW218222   0.512   0.306  12.304  0.7401 -0.3538 -1.2720
 2197SOL     OW18223   2.873   0.932  10.787 -1.0240 -0.7283 -0.1080
 2197SOL    HW118224   2.828   0.957  10.706  0.0373 -2.7353 -1.2882
 2197SOL    HW218225   2.959   0.970  10.771 -2.2649  2.1403 -0.1046
 2198SOL     OW18226   0.649   3.948   8.790 -0.1237  0.6732  0.4269
 2198SOL    HW118227   0.681   3.938   8.880 -0.1198 -1.0714  0.2128
 2198SOL    HW218228   0.729   3.922   8.744 -0.5419 -0.8860  0.6042
 2199SOL     OW18229   1.629   2.630  14.105  0.0308  0.4238 -0.2145
 2199SOL    HW118230   1.609   2.601  14.194  1.5294 -0.1165 -0.0472
 2199SOL    HW218231   1.724   2.639  14.107 -0.2651  2.8034  1.9320
 2200SOL     OW18232   2.201   4.442  17.431  0.6171  0.1478 -0.1784
 2200SOL    HW118233   2.231   4.369  17.376 -1.0689 -0.9803  0.3758
 2200SOL    HW218234   2.284   4.468  17.470  1.4814 -1.0173 -1.2123
 2201SOL     OW18235   2.872   2.208   0.870  0.5777  0.2933  0.2903
 2201SOL    HW118236   2.779   2.223   0.884  0.8445  1.0116  1.2807
 2201SOL    HW218237   2.866   2.204   0.775 -0.0710  3.1461  0.2182
 2202SOL     OW18238   0.030   3.000  12.032  0.4769 -0.2945  0.4439
 2202SOL    HW118239   4.716   2.920  12.024  0.0751  0.2812 -2.5341
 2202SOL    HW218240   0.079   3.002  11.951 -0.8909 -0.3898 -0.3901
 2203SOL     OW18241   2.468   0.684   4.546 -0.2545 -0.2775  0.1114
 2203SOL    HW118242   2.530   0.719   4.482 -0.5082  0.4830  0.2737
 2203SOL    HW218243   2.384   0.687   4.499 -0.1524  2.4056  0.1133
 2204SOL     OW18244   2.236   0.164  10.621 -0.0012 -0.0482 -0.0328
 2204SOL    HW118245   2.220   0.210  10.538 -0.3246  0.0607  0.0942
 2204SOL    HW218246   2.312   0.205  10.663 -1.3871  0.2797  2.1392
 2205SOL     OW18247   3.060   3.979  10.284  0.4314  0.7625  0.8078
 2205SOL    HW118248   3.083   3.896  10.241  1.7220  1.6209 -0.1508
 2205SOL    HW218249   3.044   3.947  10.373  2.1403  0.5872  1.0554
 2206SOL     OW18250   0.307   1.680   4.030  0.3973 -0.1030 -0.3945
 2206SOL    HW118251   0.332   1.625   4.104  2.3887  2.0425  0.5376
 2206SOL    HW218252   0.236   1.734   4.066  0.3145  0.2148 -1.0348
 2207SOL     OW18253   2.722   2.253   5.699  0.3047  0.2244 -0.2392
 2207SOL    HW118254   2.640   2.235   5.653  0.8997  1.0671 -1.6246
 2207SOL    HW218255   2.778   2.292   5.631  1.0725 -0.8604 -0.2383
 2208SOL     OW18256   2.243   2.461  14.829 -0.6974  0.0828  0.4817
 2208SOL    HW118257   2.319   2.404  14.844 -0.1358  1.4144  2.5380
 2208SOL    HW218258   2.272   2.536  14.881  1.7622  0.2557 -1.0995
 2209SOL     OW18259   2.355   2.950   8.511  0.0415 -0.0775 -0.3017
 2209SOL    HW118260   2.407   2.880   8.549  0.2393  0.8091  1.0712
 2209SOL    HW218261   2.398   3.021   8.559 -1.8116  0.8869 -0.0280
 2210SOL     OW18262   4.293   0.432   3.193  0.0689  0.1006 -0.4419
 2210SOL    HW118263   4.279   0.497   3.262 -2.6876  1.2473 -2.1052
 2210SOL    HW218264   4.252   0.356   3.235  0.7797  1.6490  3.1174
 2211SOL     OW18265   4.217   2.972   2.086 -0.1348 -0.3189  0.1961
 2211SOL    HW118266   4.250   2.969   1.996  0.5198  1.3098  0.3855
 2211SOL    HW218267   4.224   3.065   2.105 -1.3229 -0.0714 -0.6222
 2212SOL     OW18268   2.514   3.673   8.128  0.0416  0.0656  0.1897
 2212SOL    HW118269   2.450   3.744   8.128  0.3507  0.3263 -1.7528
 2212SOL    HW218270   2.595   3.721   8.143  0.6266 -0.3285 -1.6447
 2213SOL     OW18271   3.297   0.308   1.469 -0.3694  0.3129 -0.1792
 2213SOL    HW118272   3.346   0.253   1.530 -0.1388  3.0629  2.1725
 2213SOL    HW218273   3.267   0.241   1.408 -0.4178  0.3055 -0.1472
 2214SOL     OW18274   0.337   0.090   3.132 -0.2527  0.2998  0.2541
 2214SOL    HW118275   0.254   0.136   3.123 -0.0382  0.3943 -1.2491
 2214SOL    HW218276   0.319   0.002   3.097  1.2816 -0.8645  2.3625
 2215SOL     OW18277   4.188   4.075   0.335 -0.5097 -0.3544 -0.0231
 2215SOL    HW118278   4.170   4.114   0.420  2.1320  0.5274  0.1289
 2215SOL    HW218279   4.179   4.137   0.263  0.7709  0.4559  0.5093
 2216SOL     OW18280   2.438   2.291   1.921 -0.2084  0.5321  0.0829
 2216SOL    HW118281   2.515   2.334   1.884  1.0773 -1.9524 -0.1264
 2216SOL    HW218282   2.439   2.204   1.883  1.6122  0.4538  0.3271
 2217SOL     OW18283   1.119   3.469   8.913  0.2354 -0.2923 -0.2111
 2217SOL    HW118284   1.041   3.472   8.857 -1.0260  2.4126  1.7006
 2217SOL    HW218285   1.175   3.532   8.868 -0.7258  1.0206  0.4304
 2218SOL     OW18286   1.751   1.569   7.253 -0.3840 -0.1422 -0.2702
 2218SOL    HW118287   1.780   1.566   7.344 -0.6573 -0.8470 -0.1983
 2218SOL    HW218288   1.753   1.661   7.229 -1.0711  0.1228  0.6635
 2219SOL     OW18289   3.531   2.322  15.515  0.1836 -0.4907  0.6182
 2219SOL    HW118290   3.581   2.244  15.491  1.2027  0.4392 -0.2727
 2219SOL    HW218291   3.578   2.387  15.463  1.5222 -1.4945  0.5627
 2220SOL     OW18292   3.051   2.627   9.034 -0.2489 -0.4782  0.2046
 2220SOL    HW118293   3.123   2.604   9.093 -0.1058 -0.1842  0.1446
 2220SOL    HW218294   3.047   2.562   8.964  0.9536  0.4379 -0.7071
 2221SOL     OW18295   3.723   4.181   6.363  0.0260 -0.0304  0.0849
 2221SOL    HW118296   3.741   4.113   6.428  0.5534  0.8850  0.8823
 2221SOL    HW218297   3.809   4.183   6.320 -0.0522 -0.6511 -0.1118
 2222SOL     OW18298   0.525   1.708   6.697  0.5665 -0.4658  0.1280
 2222SOL    HW118299   0.574   1.791   6.694  1.2557 -0.9034 -0.5713
 2222SOL    HW218300   0.598   1.655   6.666  0.2729  0.8927 -2.9286
 2223SOL     OW18301   1.941   0.063   7.706 -0.7267 -0.9513 -0.5149
 2223SOL    HW118302   1.869   0.125   7.691 -1.8357 -2.1974 -0.2802
 2223SOL    HW218303   2.019   0.114   7.683 -3.5924  3.0110 -1.6074
 2224SOL     OW18304   4.175   1.559   7.567  0.2390 -0.0151  0.4286
 2224SOL    HW118305   4.095   1.581   7.616  0.0108  0.1485 -0.0188
 2224SOL    HW218306   4.211   1.493   7.626  1.4296  0.6588  0.4432
 2225SOL     OW18307   1.206   2.618  11.216  0.4719  0.1844  0.3990
 2225SOL    HW118308   1.139   2.639  11.152 -1.6392 -2.6041  1.6698
 2225SOL    HW218309   1.259   2.562  11.160  1.7508  2.7655 -0.9449
 2226SOL     OW18310   3.864   3.212  12.008  0.2600  0.0911  0.0480
 2226SOL    HW118311   3.911   3.220  12.091 -0.6183 -0.4015  0.5942
 2226SOL    HW218312   3.929   3.177  11.948  0.3470  0.5037 -0.1038
 2227SOL     OW18313   2.046   3.137   2.219  0.0715  0.1262 -0.1158
 2227SOL    HW118314   1.967   3.112   2.267 -1.2425  1.2227 -1.7039
 2227SOL    HW218315   2.062   3.049   2.184  2.3368  1.1305 -1.5846
 2228SOL     OW18316   3.358   3.584   7.859 -0.2108  0.1780  0.3252
 2228SOL    HW118317   3.342   3.553   7.948  1.3648 -0.9063  0.2513
 2228SOL    HW218318   3.365   3.678   7.877 -1.5655  0.4313 -0.4803
 2229SOL     OW18319   2.925   0.050  11.081 -0.2932  0.0358  0.2598
 2229SOL    HW118320   2.996   4.734  11.118 -0.2346  0.7329  1.1562
 2229SOL    HW218321   2.949   0.136  11.114 -1.9575  1.1887 -1.5965
 2230SOL     OW18322   3.689   0.659  15.740 -0.0022  0.3296  0.5787
 2230SOL    HW118323   3.646   0.733  15.782  0.0574  0.9707 -0.4885
 2230SOL    HW218324   3.611   0.615  15.704 -0.2511 -0.0404  1.5827
 2231SOL     OW18325   2.252   3.684   7.679  0.3813 -0.6584 -0.0573
 2231SOL    HW118326   2.302   3.760   7.710  0.0756 -1.0332  1.3830
 2231SOL    HW218327   2.250   3.623   7.753 -1.0517  0.4001  0.7779
 2232SOL     OW18328   4.359   0.910   2.125  0.2703 -0.0942 -0.2669
 2232SOL    HW118329   4.341   0.883   2.215  0.4419  1.1215  0.1326
 2232SOL    HW218330   4.453   0.926   2.124  0.3948 -0.8152  0.0597
 2233SOL     OW18331   3.799   1.878   2.730  0.8443 -0.6828 -0.2198
 2233SOL    HW118332   3.718   1.839   2.697  0.3055  0.1696  0.1011
 2233SOL    HW218333   3.824   1.926   2.651 -2.0416  0.5297 -0.4007
 2234SOL     OW18334   0.526   1.789  12.813 -0.3181  0.6880 -0.0279
 2234SOL    HW118335   0.528   1.841  12.733 -2.4784 -0.3997 -0.8028
 2234SOL    HW218336   0.439   1.754  12.795 -0.2926  0.4973  0.2056
 2235SOL     OW18337   2.900   4.615  11.677 -0.2711 -0.4228 -0.1532
 2235SOL    HW118338   2.813   4.601  11.640  0.4422 -0.0254 -1.9665
 2235SOL    HW218339   2.955   4.643  11.605  0.8144 -0.4371  0.6776
 2236SOL     OW18340   1.067   3.258  13.759 -0.6701 -0.1559 -0.3340
 2236SOL    HW118341   1.140   3.210  13.720  0.9851  0.5515  1.8705
 2236SOL    HW218342   1.112   3.333  13.799 -0.8163 -0.3661  0.2355
 2237SOL     OW18343   3.054   3.662   9.516 -0.4177  0.0815 -0.4470
 2237SOL    HW118344   2.958   3.652   9.514 -0.3981 -0.1850 -0.0984
 2237SOL    HW218345   3.084   3.571   9.510 -1.6615 -0.0914 -4.2635
 2238SOL     OW18346   4.649   2.507   2.278  0.2602  0.2204  0.1751
 2238SOL    HW118347   4.636   2.515   2.183 -0.3438 -0.9892  0.1553
 2238SOL    HW218348   4.654   2.412   2.282 -0.9356  0.1037 -1.0013
 2239SOL     OW18349   0.072   2.186   4.447 -0.0280  0.7118  0.2201
 2239SOL    HW118350   0.166   2.204   4.445  0.6562 -2.8747 -0.4294
 2239SOL    HW218351   0.066   2.147   4.534  1.6881  0.6663  0.3148
 2240SOL     OW18352   4.518   4.269   5.405 -0.1172  0.4202 -0.5537
 2240SOL    HW118353   4.475   4.199   5.357  1.8158 -0.8169 -0.4633
 2240SOL    HW218354   4.492   4.344   5.352 -0.3810  1.5396  1.1294
 2241SOL     OW18355   1.110   0.595   3.222  0.0706 -0.0082  0.1209
 2241SOL    HW118356   1.019   0.570   3.207  0.1027  0.2159 -0.4264
 2241SOL    HW218357   1.127   0.659   3.153  1.5970 -0.0971  0.4115
 2242SOL     OW18358   1.630   4.587   7.893  0.8867 -0.2574  0.5492
 2242SOL    HW118359   1.586   4.550   7.970  0.1042 -1.2202 -0.3533
 2242SOL    HW218360   1.646   4.504   7.847 -0.5131  0.0859 -0.5367
 2243SOL     OW18361   1.785   4.712   5.277  0.2140  0.1726  0.4620
 2243SOL    HW118362   1.703   0.011   5.310  0.2773 -0.5779  1.4367
 2243SOL    HW218363   1.845   0.049   5.271  1.3556 -0.7071  1.1709
 2244SOL     OW18364   1.293   1.442   7.982 -0.5827 -0.6771  0.6619
 2244SOL    HW118365   1.208   1.485   7.987 -1.2237 -1.8547  0.0047
 2244SOL    HW218366   1.294   1.374   8.050  0.1431  0.2285  1.5647
 2245SOL     OW18367   1.242   4.277   1.173  0.3617  0.3103 -0.4120
 2245SOL    HW118368   1.176   4.315   1.115 -0.6629  1.3312  1.4333
 2245SOL    HW218369   1.278   4.355   1.215  3.9793  0.3542 -3.5539
 2246SOL     OW18370   2.034   3.660  10.470 -0.3017  0.0249  0.1536
 2246SOL    HW118371   2.122   3.620  10.472 -0.7384 -0.9542 -0.0413
 2246SOL    HW218372   2.023   3.674  10.564  0.1386  2.2524 -0.1480
 2247SOL     OW18373   2.861   3.022   3.905  0.0860  0.3999 -0.0253
 2247SOL    HW118374   2.843   3.028   3.811  0.2774  2.1461  0.0529
 2247SOL    HW218375   2.955   3.041   3.900 -0.0028  1.0683  0.8639
 2248SOL     OW18376   2.884   0.131   5.644  0.5774 -0.0855  0.2657
 2248SOL    HW118377   2.843   0.194   5.585 -4.1170 -0.8909  2.6322
 2248SOL    HW218378   2.949   0.182   5.693 -0.2814  0.2529  1.0510
 2249SOL     OW18379   0.007   3.973  11.452  0.9249 -0.1014 -0.1384
 2249SOL    HW118380   4.672   3.917  11.425 -0.5911  0.7901  2.0786
 2249SOL    HW218381   4.703   4.059  11.460 -0.3229 -0.8543  1.5310
 2250SOL     OW18382   4.219   2.147   6.433 -0.1843  0.4340  0.4959
 2250SOL    HW118383   4.305   2.114   6.457  0.5160  0.7635 -1.5093
 2250SOL    HW218384   4.232   2.235   6.398  1.0978 -0.1948 -0.6358
 2251SOL     OW18385   0.283   1.636  10.153 -0.1588 -0.4348 -0.9150
 2251SOL    HW118386   0.237   1.661  10.073 -0.0914  0.8236 -0.5615
 2251SOL    HW218387   0.322   1.554  10.124  0.5689  0.4097 -2.3251
 2252SOL     OW18388   1.020   1.131   9.314 -0.1245  0.4971  0.3933
 2252SOL    HW118389   1.090   1.103   9.254  0.5287  0.6738  1.0750
 2252SOL    HW218390   0.979   1.193   9.254  0.4809  1.9446  1.4952
 2253SOL     OW18391   3.326   4.274   6.483 -0.3163  0.3254 -0.0086
 2253SOL    HW118392   3.280   4.343   6.435 -1.6164 -1.1787 -0.9035
 2253SOL    HW218393   3.303   4.196   6.432  0.1148  0.6256 -0.6649
 2254SOL     OW18394   1.686   2.986   1.629  0.0798  0.3336 -0.0431
 2254SOL    HW118395   1.721   3.072   1.653  0.0420 -0.1493  1.7456
 2254SOL    HW218396   1.764   2.931   1.639 -0.0139 -0.0279 -1.2752
 2255SOL     OW18397   1.836   2.385   8.187 -0.3899 -0.7082  0.1726
 2255SOL    HW118398   1.823   2.453   8.121  2.0390 -0.2055  0.2352
 2255SOL    HW218399   1.890   2.434   8.248 -0.3901 -1.5917  0.8835
 2256SOL     OW18400   2.431   3.319   7.206  0.3188  0.3476  0.1710
 2256SOL    HW118401   2.379   3.288   7.280  1.7871 -1.1492  0.5840
 2256SOL    HW218402   2.480   3.240   7.185 -0.4654 -0.6464  2.0819
 2257SOL     OW18403   3.992   3.938   5.901 -0.5487 -0.4056 -0.7574
 2257SOL    HW118404   4.038   3.890   5.970 -1.4610 -0.5047 -0.2154
 2257SOL    HW218405   4.058   3.962   5.836  0.4057 -0.4081  0.2008
 2258SOL     OW18406   1.072   0.836   4.820 -0.0334  0.1389  0.4814
 2258SOL    HW118407   1.048   0.915   4.869 -0.0726 -0.4720  1.4655
 2258SOL    HW218408   1.160   0.851   4.787 -0.6452 -0.8012 -1.5603
 2259SOL     OW18409   3.682   2.129   7.694  0.2402  0.7143  0.1814
 2259SOL    HW118410   3.665   2.035   7.696  1.1596  0.5320 -0.6172
 2259SOL    HW218411   3.674   2.145   7.600 -1.8997  2.2881  0.6504
 2260SOL     OW18412   2.717   4.244   6.666 -0.2576 -0.2865 -0.1094
 2260SOL    HW118413   2.748   4.257   6.756 -1.7590 -3.1641  0.8099
 2260SOL    HW218414   2.635   4.197   6.683 -1.8005  2.2082 -0.7387
 2261SOL     OW18415   1.839   4.423   1.783  0.1355  0.2505  0.0695
 2261SOL    HW118416   1.780   4.496   1.765  0.1562 -0.1284 -1.5811
 2261SOL    HW218417   1.869   4.447   1.871  0.1783 -1.5100  0.5276
 2262SOL     OW18418   4.435   0.275   5.803  0.3491  0.3496  0.4360
 2262SOL    HW118419   4.444   0.298   5.710 -0.0546 -0.8661  0.0996
 2262SOL    HW218420   4.362   0.214   5.799  1.8009 -1.4511  1.4306
 2263SOL     OW18421   3.747   3.152   3.849  0.5035 -0.6629 -0.1634
 2263SOL    HW118422   3.693   3.224   3.817  0.9935  0.5674  1.7701
 2263SOL    HW218423   3.791   3.125   3.768  0.7693 -0.4957 -0.0736
 2264SOL     OW18424   1.928   0.722   1.760  0.4072  0.1641  0.5622
 2264SOL    HW118425   1.950   0.794   1.700 -2.1228 -0.1661 -0.7716
 2264SOL    HW218426   2.013   0.687   1.785  0.3097  0.5908  1.5126
 2265SOL     OW18427   1.707   1.749   3.660  0.4660 -0.3003  0.6358
 2265SOL    HW118428   1.696   1.740   3.755 -1.8053 -0.4866  0.3696
 2265SOL    HW218429   1.728   1.659   3.632  2.0094 -0.5448  2.5670
 2266SOL     OW18430   0.961   1.484   3.234 -0.9959  0.1461  0.2291
 2266SOL    HW118431   1.052   1.505   3.212 -1.2643  1.3963  0.2593
 2266SOL    HW218432   0.953   1.398   3.195 -0.7113 -0.0604  0.6257
 2267SOL     OW18433   0.680   2.806   1.963 -0.0131  0.0569  0.3103
 2267SOL    HW118434   0.687   2.731   2.021  0.0962 -0.3719 -0.2603
 2267SOL    HW218435   0.665   2.763   1.879 -0.3089 -2.0623  1.4667
 2268SOL     OW18436   0.107   3.289  11.379 -0.6780 -0.3785  0.1386
 2268SOL    HW118437   0.188   3.323  11.340 -0.6333 -2.6277 -1.6874
 2268SOL    HW218438   0.056   3.370  11.368  2.1584  1.2748 -0.7077
 2269SOL     OW18439   3.454   2.081  13.396 -0.1587 -0.0111 -0.3451
 2269SOL    HW118440   3.480   2.120  13.479 -1.3019  0.6007 -0.2672
 2269SOL    HW218441   3.389   2.017  13.424  0.3509 -0.1387  0.5456
 2270SOL     OW18442   3.281   0.364   5.591  0.5957  0.0911  0.4782
 2270SOL    HW118443   3.239   0.442   5.554  0.6754 -0.3085 -0.4428
 2270SOL    HW218444   3.228   0.358   5.670 -0.0041 -0.4433  0.0321
 2271SOL     OW18445   2.182   0.500   3.489  0.0095  0.0881  0.4854
 2271SOL    HW118446   2.092   0.477   3.514 -0.4251 -0.1540 -1.3052
 2271SOL    HW218447   2.201   0.562   3.560 -3.8444  0.6253  1.0723
 2272SOL     OW18448   3.907   1.775   2.241 -0.0482  0.5908 -0.3396
 2272SOL    HW118449   3.839   1.714   2.269 -0.8578  1.5186 -0.2864
 2272SOL    HW218450   3.870   1.809   2.160  0.5136 -1.4970 -1.4867
 2273SOL     OW18451   2.279   3.883  14.675 -0.3302 -0.3346  0.1960
 2273SOL    HW118452   2.304   3.791  14.666  0.5870  0.2139 -2.8841
 2273SOL    HW218453   2.270   3.901  14.581 -1.5358 -0.7509  0.2331
 2274SOL     OW18454   4.653   0.091   5.835 -0.4045 -0.0817 -0.4155
 2274SOL    HW118455   4.575   0.147   5.830 -1.0435 -0.8000  1.6334
 2274SOL    HW218456   4.719   0.150   5.799  0.4805  0.4908  2.1556
 2275SOL     OW18457   4.615   0.242   3.265  0.7539  0.2492  0.5168
 2275SOL    HW118458   4.563   0.162   3.274 -1.0242  1.4562  0.8191
 2275SOL    HW218459   4.684   0.232   3.330  0.2771  0.7010  1.0850
 2276SOL     OW18460   0.324   1.871  10.370 -0.3514 -0.4681 -0.0650
 2276SOL    HW118461   0.308   1.817  10.293  0.3805  0.5474 -0.9283
 2276SOL    HW218462   0.380   1.944  10.343  0.6930 -1.5725 -0.8890
 2277SOL     OW18463   4.020   3.223   3.703  0.0502  0.0251  0.5548
 2277SOL    HW118464   3.974   3.258   3.626  0.0897  0.2625  0.6395
 2277SOL    HW218465   3.984   3.278   3.771  0.6755 -0.4633  1.2805
 2278SOL     OW18466   1.609   1.201   2.465  0.7023  0.4788 -0.0775
 2278SOL    HW118467   1.658   1.283   2.465  0.2407  0.7429  4.8722
 2278SOL    HW218468   1.624   1.173   2.555  0.5699  1.6003  0.2892
 2279SOL     OW18469   1.384   2.029   9.594  0.5958  0.0532 -0.1966
 2279SOL    HW118470   1.363   2.087   9.522 -2.4910  1.2182  1.6403
 2279SOL    HW218471   1.477   2.012   9.584  0.8248  1.9413 -1.1352
 2280SOL     OW18472   0.076   1.122   9.473  0.3063  0.2697 -0.4605
 2280SOL    HW118473   4.718   1.133   9.482  0.1947 -2.0331  1.0998
 2280SOL    HW218474   0.084   1.052   9.408  2.6304  1.2128 -1.2017
 2281SOL     OW18475   1.491   0.923   7.534 -0.0614  0.4207  0.0037
 2281SOL    HW118476   1.518   0.837   7.564 -1.3295 -0.1668 -0.5448
 2281SOL    HW218477   1.577   0.965   7.528  0.2182 -0.6399 -3.0364
 2282SOL     OW18478   1.036   1.353   5.989 -0.2926 -0.4343  0.3780
 2282SOL    HW118479   0.988   1.305   5.922 -0.8138 -2.3981  2.1954
 2282SOL    HW218480   1.126   1.324   5.978 -0.6897 -1.4336 -0.2117
 2283SOL     OW18481   3.574   3.027   3.492  0.1399  0.0713  0.3306
 2283SOL    HW118482   3.651   3.056   3.541  0.3853 -1.1173  0.6630
 2283SOL    HW218483   3.597   2.938   3.465 -1.4812 -0.0635 -0.5879
 2284SOL     OW18484   0.473   2.416   7.449  0.2481 -0.2312  0.1641
 2284SOL    HW118485   0.438   2.357   7.382  0.4978  0.4937 -0.6020
 2284SOL    HW218486   0.409   2.410   7.520 -1.8235 -3.0862 -1.9441
 2285SOL     OW18487   0.398   2.921  10.790 -0.4168  0.2493 -0.4096
 2285SOL    HW118488   0.391   2.827  10.778  1.0834  0.0509  0.3298
 2285SOL    HW218489   0.438   2.928  10.876  0.1405 -3.1518 -0.4102
 2286SOL     OW18490   1.284   2.284   4.446  0.1190 -0.3700  0.6989
 2286SOL    HW118491   1.211   2.332   4.485  2.4263  1.8252  2.3076
 2286SOL    HW218492   1.274   2.197   4.484  1.2868 -0.7680  0.0915
 2287SOL     OW18493   3.931   2.156  12.241  0.2903  0.2093  0.0867
 2287SOL    HW118494   3.948   2.250  12.250 -0.4087  0.3869 -0.5422
 2287SOL    HW218495   3.969   2.135  12.327 -2.2863 -1.0730  0.8906
 2288SOL     OW18496   1.977   0.156   5.260  0.3619 -0.2215 -0.0625
 2288SOL    HW118497   2.003   0.145   5.352 -1.8316  0.1890  0.5995
 2288SOL    HW218498   2.063   0.192   5.237  0.1587  0.1319 -0.2594
 2289SOL     OW18499   0.311   1.603   8.397  0.1693  0.0317  0.0135
 2289SOL    HW118500   0.339   1.531   8.454  0.7641  0.0915 -0.1962
 2289SOL    HW218501   0.268   1.665   8.455 -2.2697 -2.4662  0.8612
 2290SOL     OW18502   2.222   2.159   6.680  0.0429  0.4992 -0.1452
 2290SOL    HW118503   2.218   2.201   6.766 -0.6370  1.1857 -0.5042
 2290SOL    HW218504   2.234   2.071   6.716  2.2186  0.8742  0.0363
 2291SOL     OW18505   3.041   3.009  11.063 -0.0956  0.5487 -0.5721
 2291SOL    HW118506   3.017   2.999  11.155  0.7201  0.5097 -0.3610
 2291SOL    HW218507   3.068   2.917  11.055 -0.6789  0.3198  0.0670
 2292SOL     OW18508   1.040   3.064   3.022 -0.2610 -0.3647  0.0154
 2292SOL    HW118509   1.129   3.038   3.046  0.7642 -0.0178 -3.3458
 2292SOL    HW218510   1.003   2.976   3.024 -2.1615  0.4801  1.1263
 2293SOL     OW18511   3.134   2.762  17.402  0.4069 -0.2141 -0.1062
 2293SOL    HW118512   3.199   2.718  17.348 -1.2071 -3.0314  0.2633
 2293SOL    HW218513   3.057   2.706  17.396  0.2185  0.1959 -1.4172
 2294SOL     OW18514   3.302   0.811  12.597  0.1621  0.2520  0.1100
 2294SOL    HW118515   3.362   0.767  12.658  1.3646  3.3080  1.1359
 2294SOL    HW218516   3.268   0.753  12.529 -0.9659 -2.3465  2.8800
 2295SOL     OW18517   3.207   0.252   4.617 -0.5308  0.1188 -0.4692
 2295SOL    HW118518   3.119   0.290   4.622  0.4589  2.3649 -0.3433
 2295SOL    HW218519   3.246   0.295   4.693 -0.6057 -1.9215  0.7399
 2296SOL     OW18520   2.604   1.273   5.854 -0.1180  0.4319  0.0942
 2296SOL    HW118521   2.682   1.219   5.863  0.2510  1.1375  1.0803
 2296SOL    HW218522   2.560   1.226   5.782 -0.7368 -0.9661  1.3915
 2297SOL     OW18523   4.587   2.300   4.115 -0.1542 -0.0439 -0.2975
 2297SOL    HW118524   4.663   2.258   4.077 -0.0070  1.2259 -1.4059
 2297SOL    HW218525   4.630   2.355   4.181 -1.7005 -0.2906  0.9238
 2298SOL     OW18526   2.082   3.077   6.570 -0.2924  0.3152 -0.3002
 2298SOL    HW118527   2.133   2.998   6.551 -1.1598 -0.4773  0.6590
 2298SOL    HW218528   2.093   3.086   6.665  3.5099 -1.0756 -0.6085
 2299SOL     OW18529   3.158   1.222  15.710 -0.0298 -0.2210  0.4193
 2299SOL    HW118530   3.169   1.318  15.710 -0.8499 -0.1329  0.2166
 2299SOL    HW218531   3.078   1.221  15.659  0.1708  0.4957  0.0849
 2300SOL     OW18532   3.438   2.625   6.208  0.1029 -0.5093 -0.0578
 2300SOL    HW118533   3.406   2.536   6.199 -0.9902  0.1004 -2.2089
 2300SOL    HW218534   3.532   2.607   6.210  0.2077  0.0364  0.1438
 2301SOL     OW18535   2.164   1.958   8.669 -0.1779  0.3804  0.5892
 2301SOL    HW118536   2.092   1.954   8.607 -2.0732 -1.1901  2.9136
 2301SOL    HW218537   2.181   1.864   8.668 -2.0823  0.0463 -0.4417
 2302SOL     OW18538   0.202   2.437   8.658  0.2612 -0.4500 -0.0068
 2302SOL    HW118539   0.191   2.368   8.724 -0.6547 -0.2991 -0.0088
 2302SOL    HW218540   0.230   2.510   8.713 -1.8792 -0.2923  0.8486
 2303SOL     OW18541   3.497   1.128   6.437 -0.7909 -0.2595  0.1893
 2303SOL    HW118542   3.552   1.201   6.464 -0.7410  0.0033 -0.6134
 2303SOL    HW218543   3.436   1.137   6.510 -0.5041  3.6853 -0.0539
 2304SOL     OW18544   3.015   4.228   6.514  0.3338  0.1843  0.3120
 2304SOL    HW118545   2.981   4.303   6.563 -3.2735 -1.2743  0.0688
 2304SOL    HW218546   3.110   4.241   6.520  0.2482  0.0538  2.0988
 2305SOL     OW18547   4.590   1.153   5.758 -0.0041  0.2882 -0.3373
 2305SOL    HW118548   4.678   1.187   5.741  0.5505 -0.6910  0.5434
 2305SOL    HW218549   4.567   1.226   5.816  1.7731  2.3122 -2.2071
 2306SOL     OW18550   3.212   3.925   1.644 -0.3916 -0.1393 -0.3168
 2306SOL    HW118551   3.159   4.004   1.631  1.2047  1.6124  4.0194
 2306SOL    HW218552   3.258   3.939   1.727  0.9438 -0.5584 -0.9894
 2307SOL     OW18553   0.846   4.453   8.578 -0.8360 -0.0368  0.2867
 2307SOL    HW118554   0.753   4.451   8.600 -0.4074 -1.3171  1.9447
 2307SOL    HW218555   0.872   4.374   8.627  1.9728  1.0085  0.4912
 2308SOL     OW18556   4.444   4.417   5.161 -0.0873 -0.1674  0.4772
 2308SOL    HW118557   4.436   4.509   5.133 -1.9526 -1.2187 -2.4791
 2308SOL    HW218558   4.462   4.378   5.075 -0.9386 -1.6344  0.9623
 2309SOL     OW18559   4.714   3.032   3.212  0.9276  0.0815  0.2990
 2309SOL    HW118560   4.697   3.023   3.118 -2.8574 -1.0495  1.1072
 2309SOL    HW218561   4.628   3.051   3.250  1.2740  0.9622  0.6304
 2310SOL     OW18562   4.695   1.475   9.572 -0.0532 -0.2017 -0.2281
 2310SOL    HW118563   4.693   1.560   9.616 -0.6090 -0.5696  0.4394
 2310SOL    HW218564   0.052   1.456   9.571 -0.0383 -0.1344  0.0606
 2311SOL     OW18565   0.922   3.552   1.746 -0.0334  0.5595  0.2244
 2311SOL    HW118566   0.910   3.461   1.776  2.5448 -1.2343 -4.2592
 2311SOL    HW218567   0.858   3.605   1.794 -0.2499  0.0713  0.4734
 2312SOL     OW18568   1.168   4.345   6.779 -0.0938 -0.2021  0.4529
 2312SOL    HW118569   1.119   4.421   6.749 -0.2389 -0.6426 -0.4449
 2312SOL    HW218570   1.176   4.290   6.700  0.2224 -1.0026  1.0359
 2313SOL     OW18571   2.704   0.782   5.110 -0.0797 -0.0203  0.4212
 2313SOL    HW118572   2.685   0.872   5.083  0.5990  0.1412  0.4747
 2313SOL    HW218573   2.774   0.746   5.056  0.0859  1.0660 -0.0823
 2314SOL     OW18574   2.166   1.401   6.237  0.8411  0.2308 -0.2479
 2314SOL    HW118575   2.126   1.354   6.163 -1.4965 -1.7207  2.2567
 2314SOL    HW218576   2.187   1.331   6.298  0.7040  0.7265  0.3651
 2315SOL     OW18577   3.103   0.964   6.278 -0.1422  0.2038 -0.4220
 2315SOL    HW118578   3.170   1.008   6.226  0.8282 -1.0628 -0.2381
 2315SOL    HW218579   3.117   0.870   6.270  1.1405  0.3586 -0.0077
 2316SOL     OW18580   2.871   4.545   2.989 -0.5618 -0.8106  0.3594
 2316SOL    HW118581   2.906   4.457   3.003  0.9291 -0.2917 -0.0449
 2316SOL    HW218582   2.835   4.568   3.074 -2.0103 -2.8498  0.2881
 2317SOL     OW18583   3.576   1.070   1.535  0.1690 -0.4463  0.3916
 2317SOL    HW118584   3.550   1.066   1.443  0.7147 -0.6461  0.2502
 2317SOL    HW218585   3.559   1.163   1.552 -1.1263 -0.4823 -0.7244
 2318SOL     OW18586   3.545   3.732  16.588 -0.3780  0.2822  0.4566
 2318SOL    HW118587   3.591   3.776  16.516 -4.1069  2.6140 -0.5385
 2318SOL    HW218588   3.526   3.649  16.545 -2.6547  0.6945  0.6627
 2319SOL     OW18589   0.702   3.576   6.542 -0.2656 -0.6700  0.3282
 2319SOL    HW118590   0.619   3.611   6.574 -1.3749 -0.8096 -2.3626
 2319SOL    HW218591   0.675   3.508   6.480  0.8613  1.0905 -2.0845
 2320SOL     OW18592   0.079   4.529   1.867  0.1805 -0.2253  0.1694
 2320SOL    HW118593   0.170   4.556   1.867  0.0334  0.2820  0.2633
 2320SOL    HW218594   0.081   4.473   1.944  1.7739 -2.1475 -1.2863
 2321SOL     OW18595   1.925   3.270  15.944 -0.4175  0.1096 -0.5240
 2321SOL    HW118596   1.923   3.303  16.034  1.3684  0.5045 -0.6359
 2321SOL    HW218597   1.893   3.337  15.883  2.1380  1.6030 -0.2115
 2322SOL     OW18598   1.162   4.504   2.709 -0.0728 -0.1139 -0.4221
 2322SOL    HW118599   1.150   4.416   2.745  1.7771 -0.4224 -0.5428
 2322SOL    HW218600   1.074   4.538   2.722  0.4324  0.6641  1.0222
 2323SOL     OW18601   3.125   3.429   1.458 -0.3185  0.3074 -0.0468
 2323SOL    HW118602   3.118   3.492   1.529 -1.4632  0.2658 -0.1152
 2323SOL    HW218603   3.079   3.477   1.389  1.2496  2.8381  0.6771
 2324SOL     OW18604   0.082   0.257  15.555 -0.5224  0.3873  0.0612
 2324SOL    HW118605   0.111   0.210  15.476 -1.0368 -1.9276  1.2412
 2324SOL    HW218606   4.729   0.228  15.568 -0.5845  0.7685  0.4607
 2325SOL     OW18607   2.751   4.535   4.949 -0.6593 -0.3260 -0.1030
 2325SOL    HW118608   2.708   4.478   5.012 -1.3959 -0.7621 -1.0070
 2325SOL    HW218609   2.842   4.537   4.978 -0.3097 -0.2052 -1.2403
 2326SOL     OW18610   1.749   3.377   9.678  0.3602 -0.3414 -0.0713
 2326SOL    HW118611   1.661   3.373   9.716 -0.2828  0.1308 -1.5065
 2326SOL    HW218612   1.776   3.468   9.694 -1.1218  0.1360 -0.2809
 2327SOL     OW18613   2.336   3.645   7.415  0.0166 -0.1221  0.2986
 2327SOL    HW118614   2.255   3.676   7.374  1.6202  0.8610 -2.0708
 2327SOL    HW218615   2.308   3.651   7.507 -0.4018 -0.0599  0.1646
 2328SOL     OW18616   2.046   1.855   7.773 -0.0713 -0.0875  0.2423
 2328SOL    HW118617   2.130   1.897   7.792  0.1756 -1.9408  3.2160
 2328SOL    HW218618   1.993   1.896   7.841 -1.0495  0.0688 -0.6104
 2329SOL     OW18619   0.218   4.270   1.994  0.0908  0.7220  0.1076
 2329SOL    HW118620   0.287   4.335   2.005 -0.3667  0.8326  2.3216
 2329SOL    HW218621   0.251   4.249   1.907 -1.5987  1.0121 -0.6071
 2330SOL     OW18622   3.489   0.826   4.416  0.3806  0.0099 -0.4161
 2330SOL    HW118623   3.436   0.826   4.495  0.6031  0.0648 -0.2670
 2330SOL    HW218624   3.424   0.848   4.349 -0.9055 -2.2125  0.0782
 2331SOL     OW18625   2.992   4.630   9.242 -0.2074  0.4298 -0.0656
 2331SOL    HW118626   2.960   4.718   9.225  0.4234  0.6715  0.0187
 2331SOL    HW218627   3.039   4.609   9.161  4.6476  1.1967  2.5169
 2332SOL     OW18628   4.324   0.649   5.735 -0.1288 -0.1201 -0.2550
 2332SOL    HW118629   4.409   0.675   5.772  1.0837 -0.2780 -2.8784
 2332SOL    HW218630   4.271   0.646   5.814 -0.8718 -1.3053 -0.8038
 2333SOL     OW18631   0.271   2.734   6.755  0.6381 -0.5310 -0.3859
 2333SOL    HW118632   0.315   2.815   6.731  1.7455 -0.8932  0.4590
 2333SOL    HW218633   0.199   2.757   6.814  0.6653  0.9332 -0.9059
 2334SOL     OW18634   1.506   2.674   1.612  0.3432 -0.2042  0.1643
 2334SOL    HW118635   1.521   2.767   1.631 -2.5876 -0.1740  2.3789
 2334SOL    HW218636   1.433   2.685   1.551  0.6672  1.5558  0.0912
 2335SOL     OW18637   3.013   2.454   3.733 -0.1028  0.1734 -0.1244
 2335SOL    HW118638   2.921   2.429   3.721 -0.2602  0.0871  1.2317
 2335SOL    HW218639   2.998   2.539   3.775  1.4280  0.7613 -0.7858
 2336SOL     OW18640   3.125   4.585   9.706  0.5975  0.1949  0.6979
 2336SOL    HW118641   3.149   4.675   9.685 -0.5617  0.6270  1.2222
 2336SOL    HW218642   3.200   4.560   9.759 -0.2910 -1.0901  1.3501
 2337SOL     OW18643   3.924   4.223   9.117  0.1104 -0.2227 -0.1056
 2337SOL    HW118644   4.018   4.224   9.137  0.3259  0.7919 -1.1584
 2337SOL    HW218645   3.921   4.128   9.099  2.1050 -0.0068 -1.5926
 2338SOL     OW18646   1.739   2.976  15.312 -0.2314  0.0629 -0.3867
 2338SOL    HW118647   1.789   2.930  15.379 -0.1276  0.6161 -0.0857
 2338SOL    HW218648   1.696   3.053  15.350  0.7048 -0.5702  1.9899
 2339SOL     OW18649   4.661   3.812   9.550 -0.5025 -0.2211 -0.7942
 2339SOL    HW118650   4.694   3.767   9.628 -2.3692  0.8885  0.6220
 2339SOL    HW218651   4.697   3.751   9.486  0.2938 -1.2015  0.5781
 2340SOL     OW18652   2.818   0.901   1.825 -0.1900  0.5298  0.0004
 2340SOL    HW118653   2.874   0.961   1.778  0.5247  1.0483  1.5166
 2340SOL    HW218654   2.864   0.817   1.816  0.7124  1.1605 -1.1871
 2341SOL     OW18655   0.992   1.959   5.095 -0.0701 -0.6331 -0.0196
 2341SOL    HW118656   0.900   1.958   5.120  0.2015  3.7537  1.2474
 2341SOL    HW218657   0.990   1.884   5.036  0.1225 -1.7104  1.3341
 2342SOL     OW18658   3.869   0.848   7.421  0.7055 -0.0182 -0.4020
 2342SOL    HW118659   3.810   0.867   7.348  2.3581  1.2733 -1.3883
 2342SOL    HW218660   3.928   0.784   7.383  1.2911 -0.1697  0.7523
 2343SOL     OW18661   0.410   0.633   2.747 -0.3742 -0.2223 -0.6680
 2343SOL    HW118662   0.322   0.655   2.714  0.7095 -0.0281 -3.3910
 2343SOL    HW218663   0.387   0.551   2.792 -0.8418 -0.3965 -1.2265
 2344SOL     OW18664   0.553   1.416   5.048 -0.3209 -0.5672  0.3392
 2344SOL    HW118665   0.527   1.391   5.137  1.3112  0.9268  1.2310
 2344SOL    HW218666   0.580   1.326   5.030 -1.8473 -0.7253 -1.2056
 2345SOL     OW18667   2.542   0.959   4.895  0.5199  0.1680  0.0178
 2345SOL    HW118668   2.630   0.994   4.883  1.3244 -1.6860  0.6273
 2345SOL    HW218669   2.479   1.031   4.905 -2.8332 -3.1523  2.7023
 2346SOL     OW18670   0.301   1.907   6.837  0.0243  0.3796  0.6533
 2346SOL    HW118671   0.255   1.955   6.768 -1.0200 -2.2045 -0.4520
 2346SOL    HW218672   0.367   1.863   6.784 -0.4951 -1.0365  1.1798
 2347SOL     OW18673   4.086   3.480  15.068 -0.0051 -0.3464 -0.7658
 2347SOL    HW118674   4.023   3.492  14.997 -0.2277 -0.6001 -0.6128
 2347SOL    HW218675   4.108   3.570  15.091 -1.6657  0.4294 -2.1596
 2348SOL     OW18676   0.267   1.257  15.096 -0.4035  0.6057  0.2863
 2348SOL    HW118677   0.317   1.311  15.156  0.0196  0.6262 -0.0887
 2348SOL    HW218678   0.279   1.318  15.024  0.9255  0.0187  0.0189
 2349SOL     OW18679   3.183   4.448   1.163  0.1236  0.5402  0.5975
 2349SOL    HW118680   3.246   4.520   1.166 -1.5167  1.9429  1.1975
 2349SOL    HW218681   3.209   4.405   1.081  1.9011  1.0292  0.8993
 2350SOL     OW18682   2.190   1.650   2.977 -0.5893  0.5233  0.3004
 2350SOL    HW118683   2.266   1.658   3.035  0.7339 -1.3000 -1.1884
 2350SOL    HW218684   2.121   1.690   3.031 -0.7798  0.4568  0.1035
 2351SOL     OW18685   0.703   3.298   8.764  0.0954 -0.8846 -0.2711
 2351SOL    HW118686   0.736   3.217   8.725 -0.9393 -0.1018 -2.8244
 2351SOL    HW218687   0.701   3.270   8.855  0.7345 -0.4545 -0.1212
 2352SOL     OW18688   1.221   2.919   7.609 -0.6986 -0.1961 -0.4881
 2352SOL    HW118689   1.224   3.008   7.572  0.3262 -0.3948 -0.8994
 2352SOL    HW218690   1.127   2.902   7.599 -0.4408 -1.7869 -0.2419
 2353SOL     OW18691   3.549   4.594   8.294 -0.1284 -0.3473  0.1146
 2353SOL    HW118692   3.566   4.619   8.385 -0.3946 -2.5325  0.7642
 2353SOL    HW218693   3.487   4.522   8.305 -1.0510  0.3303 -0.7570
 2354SOL     OW18694   3.398   3.712   4.347 -0.1870 -0.5365  0.3029
 2354SOL    HW118695   3.375   3.678   4.433  0.6196 -1.2422  0.2335
 2354SOL    HW218696   3.369   3.639   4.292  2.4065 -0.7763 -0.7369
 2355SOL     OW18697   1.085   0.678   4.343  0.1926 -0.1962  0.9839
 2355SOL    HW118698   0.994   0.652   4.336  0.5433 -0.7464 -1.8754
 2355SOL    HW218699   1.135   0.623   4.282 -1.2361  0.5014 -0.8345
 2356SOL     OW18700   0.998   4.173   0.654  0.0954  0.0028  0.1948
 2356SOL    HW118701   0.980   4.094   0.604 -0.9260 -0.0107  0.5796
 2356SOL    HW218702   0.927   4.165   0.718 -1.2022 -1.1710 -1.3743
 2357SOL     OW18703   2.598   1.032   3.235 -0.3631 -0.1586 -0.8485
 2357SOL    HW118704   2.689   1.011   3.253 -0.7268 -2.8907 -2.2612
 2357SOL    HW218705   2.593   1.128   3.233  3.5972  0.0223 -4.1476
 2358SOL     OW18706   1.496   0.453   6.683 -0.1312  0.1514  0.3019
 2358SOL    HW118707   1.500   0.463   6.588  0.4419  0.1979  0.3260
 2358SOL    HW218708   1.533   0.536   6.715  1.2634 -1.2181  2.2724
 2359SOL     OW18709   1.491   0.748  11.582 -0.0980 -0.4318 -0.1498
 2359SOL    HW118710   1.406   0.718  11.550 -1.0414 -0.7210  2.5897
 2359SOL    HW218711   1.545   0.756  11.503 -1.6583  0.8730 -1.0867
 2360SOL     OW18712   0.687   0.559  10.209  0.1654  0.1174  0.7653
 2360SOL    HW118713   0.719   0.568  10.299  1.6406  0.3307  0.2274
 2360SOL    HW218714   0.767   0.522  10.170 -1.5101 -1.9988 -0.6526
 2361SOL     OW18715   3.578   3.918   1.280  0.2346  0.6294 -0.7571
 2361SOL    HW118716   3.485   3.907   1.297  0.8725 -1.9340  1.0873
 2361SOL    HW218717   3.592   3.997   1.333 -1.6351 -1.1041  2.3665
 2362SOL     OW18718   2.846   0.563   4.530 -0.6022  0.4969 -0.0987
 2362SOL    HW118719   2.768   0.527   4.572 -1.6753  0.0069 -2.5808
 2362SOL    HW218720   2.837   0.655   4.555 -1.0141  0.1876  0.8855
 2363SOL     OW18721   0.950   3.059  13.042 -0.2035 -0.1251  0.4684
 2363SOL    HW118722   0.988   3.040  12.956  0.1044 -0.8452  0.7556
 2363SOL    HW218723   0.873   3.107  13.012 -0.1730 -0.9752 -1.0139
 2364SOL     OW18724   2.401   2.498   2.614  0.5221  0.3381 -0.2440
 2364SOL    HW118725   2.413   2.593   2.624 -1.5696  0.7273 -1.2783
 2364SOL    HW218726   2.306   2.485   2.620  0.5470  0.0279 -0.5535
 2365SOL     OW18727   1.530   3.501   4.499  0.4830  0.1506 -0.0179
 2365SOL    HW118728   1.607   3.501   4.442 -0.3240  4.0643 -1.0977
 2365SOL    HW218729   1.495   3.414   4.477  0.0463  0.0497  1.0946
 2366SOL     OW18730   2.660   3.761   9.311  0.2721 -0.5439 -0.2677
 2366SOL    HW118731   2.657   3.707   9.390  2.2933 -0.4435 -0.1224
 2366SOL    HW218732   2.680   3.848   9.345 -0.7584  0.1911 -1.5490
 2367SOL     OW18733   3.005   2.600   0.927 -0.6159 -0.0883  0.6205
 2367SOL    HW118734   2.971   2.576   1.013 -2.0997  2.0794  0.6332
 2367SOL    HW218735   3.064   2.530   0.899 -0.3950  0.3921 -0.1302
 2368SOL     OW18736   1.028   4.236   5.592 -0.8040 -0.8404  0.2171
 2368SOL    HW118737   0.989   4.149   5.583  0.6003 -1.5321  0.8428
 2368SOL    HW218738   1.117   4.217   5.563 -0.6453 -1.6385  1.2248
 2369SOL     OW18739   3.992   2.271   5.457  1.4204 -0.3574 -0.3261
 2369SOL    HW118740   3.976   2.326   5.381 -0.3860  1.6480  1.4791
 2369SOL    HW218741   3.906   2.274   5.501  0.9636 -0.0208 -1.2519
 2370SOL     OW18742   0.779   0.657   3.685 -0.5153 -0.2685  0.6172
 2370SOL    HW118743   0.768   0.565   3.709  1.9080 -0.8031 -0.3404
 2370SOL    HW218744   0.840   0.683   3.753 -0.7257  0.1354  0.6555
 2371SOL     OW18745   1.589   0.077   2.251  1.1692 -0.0640 -0.1855
 2371SOL    HW118746   1.592   0.058   2.158 -0.4194  0.3018 -0.3035
 2371SOL    HW218747   1.560   4.729   2.284 -0.3672  0.5173 -0.0792
 2372SOL     OW18748   1.855   0.346  11.395 -0.1382  0.0954 -0.2796
 2372SOL    HW118749   1.901   0.266  11.419 -0.3271  0.2172  0.5057
 2372SOL    HW218750   1.768   0.332  11.431  0.0893 -0.0488  0.2115
 2373SOL     OW18751   0.781   2.991   5.227 -0.0747 -0.8270  0.9078
 2373SOL    HW118752   0.719   2.941   5.175 -0.6297 -0.0801  0.8544
 2373SOL    HW218753   0.722   3.034   5.289 -2.4042 -1.2088 -1.0323
 2374SOL     OW18754   2.824   0.979   4.106 -0.4370 -0.2880  0.5388
 2374SOL    HW118755   2.741   0.950   4.069  0.4986 -2.8905  0.4926
 2374SOL    HW218756   2.873   0.995   4.026 -1.2151  2.3756  0.5862
 2375SOL     OW18757   0.254   2.649   2.762 -0.2088  0.1394  0.0793
 2375SOL    HW118758   0.266   2.722   2.700  2.9475  0.0333  0.5558
 2375SOL    HW218759   0.202   2.587   2.711 -0.2554 -0.2985  0.6655
 2376SOL     OW18760   2.275   2.547   3.733 -0.5486  0.2086 -0.3691
 2376SOL    HW118761   2.367   2.552   3.760 -0.6626  3.4382 -0.5830
 2376SOL    HW218762   2.265   2.602   3.656 -0.1619  0.2760 -0.3735
 2377SOL     OW18763   2.925   2.073   3.099 -0.3326 -0.4683  0.6860
 2377SOL    HW118764   2.937   2.059   3.005  2.0845  1.2315  0.7453
 2377SOL    HW218765   2.995   2.136   3.117 -0.7033 -0.9453  3.7453
 2378SOL     OW18766   1.725   0.168  15.067  0.0540  0.0297 -0.0776
 2378SOL    HW118767   1.655   0.197  15.009 -0.3274 -0.4624  0.1346
 2378SOL    HW218768   1.668   0.144  15.139  0.2785 -0.4057 -0.0451
 2379SOL     OW18769   4.042   0.183   7.681 -0.8422  0.0653 -0.3622
 2379SOL    HW118770   4.100   0.235   7.737  0.0165 -0.1781 -1.0275
 2379SOL    HW218771   4.044   0.238   7.603  2.0237 -1.3459 -1.2871
 2380SOL     OW18772   4.429   0.108   4.810 -0.0516  0.1369  0.3202
 2380SOL    HW118773   4.460   0.019   4.828  0.8520 -0.1715 -2.8562
 2380SOL    HW218774   4.504   0.165   4.824 -1.1478  1.6482 -0.0447
 2381SOL     OW18775   1.614   2.672   5.362 -0.0832 -0.3120  0.0960
 2381SOL    HW118776   1.588   2.705   5.276 -0.3778 -0.5073  0.1074
 2381SOL    HW218777   1.701   2.711   5.369 -1.8219  3.2703  1.5287
 2382SOL     OW18778   3.171   0.557   7.969  0.0865  0.1917  0.4449
 2382SOL    HW118779   3.203   0.645   7.987 -3.0882  1.5550 -0.4620
 2382SOL    HW218780   3.097   0.546   8.029  0.2427 -1.3225  0.3623
 2383SOL     OW18781   0.845   2.002   2.282  0.2395 -0.0295  0.2561
 2383SOL    HW118782   0.796   2.083   2.279 -0.0890 -0.3468 -2.4553
 2383SOL    HW218783   0.936   2.030   2.278  0.3906 -0.6159 -0.4148
 2384SOL     OW18784   1.879   0.653   0.661 -0.1091 -0.1102  0.0375
 2384SOL    HW118785   1.849   0.727   0.607 -0.8301 -0.3985  0.0383
 2384SOL    HW218786   1.885   0.705   0.741 -0.2281  1.4486 -0.9626
 2385SOL     OW18787   3.011   0.513  16.727  0.4583  0.1878  0.3648
 2385SOL    HW118788   3.029   0.443  16.789 -0.7276 -0.3312  0.1342
 2385SOL    HW218789   3.045   0.481  16.643 -3.2360 -3.1593  0.1461
 2386SOL     OW18790   3.769   2.096   6.796  0.5431  0.6802 -0.0832
 2386SOL    HW118791   3.863   2.104   6.778  0.4339 -0.3383 -1.0983
 2386SOL    HW218792   3.757   2.181   6.839 -0.6994  0.4260  0.0666
 2387SOL     OW18793   4.424   0.845   3.852 -0.0876  0.3663 -0.1589
 2387SOL    HW118794   4.448   0.818   3.941  1.0206  1.8805 -0.0023
 2387SOL    HW218795   4.374   0.924   3.872  1.5110  0.4006  3.7717
 2388SOL     OW18796   2.745   3.189   3.374  0.1729  0.4934  0.1273
 2388SOL    HW118797   2.757   3.283   3.367  2.0647  0.3048  0.7570
 2388SOL    HW218798   2.834   3.165   3.349  0.3786  0.2636  1.0849
 2389SOL     OW18799   0.516   4.317  16.454 -0.6447  0.1706  0.3089
 2389SOL    HW118800   0.611   4.320  16.446 -0.6856  0.9844  0.0729
 2389SOL    HW218801   0.509   4.273  16.539 -0.3410  0.6664  0.5955
 2390SOL     OW18802   0.892   2.852   3.029 -0.4568 -0.2181 -0.0420
 2390SOL    HW118803   0.959   2.783   3.037 -0.8248 -0.7348 -1.5535
 2390SOL    HW218804   0.818   2.795   3.049 -0.4215  0.9374  3.4426
 2391SOL     OW18805   4.634   1.599   5.463 -0.1311 -0.1227 -0.6987
 2391SOL    HW118806   4.565   1.569   5.404 -0.0423  0.8602 -1.3021
 2391SOL    HW218807   4.712   1.563   5.419 -1.5120 -1.8894 -1.6782
 2392SOL     OW18808   3.020   0.140  10.258  0.0401  0.1295  0.0164
 2392SOL    HW118809   3.028   0.118  10.351 -0.2057  1.7943  0.4322
 2392SOL    HW218810   3.006   0.235  10.260  2.1158  0.4394 -0.8065
 2393SOL     OW18811   3.652   3.983   5.994  0.0892 -0.2776 -0.0361
 2393SOL    HW118812   3.641   3.943   5.907  3.1117  0.7845 -0.9072
 2393SOL    HW218813   3.744   3.967   6.014 -0.2380 -0.5366  1.3073
 2394SOL     OW18814   2.288   3.370   8.491  0.0058 -0.1639 -0.2754
 2394SOL    HW118815   2.250   3.453   8.522 -0.6749 -0.1474 -1.1379
 2394SOL    HW218816   2.346   3.410   8.427 -2.2861  1.5318 -1.3156
 2395SOL     OW18817   3.046   1.339  13.545 -0.0202 -0.4466  0.8300
 2395SOL    HW118818   3.091   1.421  13.523 -0.2266 -0.8703 -1.1354
 2395SOL    HW218819   2.967   1.360  13.496  1.6405 -1.4684 -2.2663
 2396SOL     OW18820   1.641   1.607   1.828  0.5327  0.1561 -0.8120
 2396SOL    HW118821   1.720   1.588   1.877  0.3612  2.5963  0.3991
 2396SOL    HW218822   1.642   1.538   1.761  0.1622  1.0834 -1.7846
 2397SOL     OW18823   4.343   3.222   4.091  0.2956 -0.4240 -0.0649
 2397SOL    HW118824   4.418   3.199   4.145  0.2196  1.5213  0.8633
 2397SOL    HW218825   4.275   3.220   4.159 -0.5355  2.2859 -0.8344
 2398SOL     OW18826   2.577   4.044  12.177  0.5935 -0.2279  0.0294
 2398SOL    HW118827   2.611   3.955  12.168  1.5341  0.4511 -2.9176
 2398SOL    HW218828   2.483   4.025  12.176  0.5013  0.3570 -2.0087
 2399SOL     OW18829   1.836   1.342   7.072 -0.1231 -0.1029  0.4685
 2399SOL    HW118830   1.812   1.404   7.141 -2.7695  0.8983 -1.3338
 2399SOL    HW218831   1.783   1.267   7.099 -0.5348  0.9230  2.4883
 2400SOL     OW18832   0.547   4.131   5.890 -0.3017 -0.4029  0.0683
 2400SOL    HW118833   0.600   4.133   5.811  1.0097  1.5557  0.9953
 2400SOL    HW218834   0.549   4.037   5.905 -0.0981 -0.4553 -0.2838
 2401SOL     OW18835   0.103   2.740   3.106  0.0683 -0.1007 -0.3272
 2401SOL    HW118836   0.187   2.772   3.072 -0.7794  1.6238 -0.7722
 2401SOL    HW218837   0.043   2.775   3.041 -3.1115 -1.3037  1.9616
 2402SOL     OW18838   1.157   0.916   2.790 -0.3855  0.0615  0.0013
 2402SOL    HW118839   1.169   0.950   2.701 -2.9031  0.1483 -0.3030
 2402SOL    HW218840   1.179   0.823   2.779  0.1128  0.3435 -1.3271
 2403SOL     OW18841   0.814   3.940   7.505  0.3693  0.7397 -0.0693
 2403SOL    HW118842   0.748   4.008   7.491  0.2103  0.8526  1.1968
 2403SOL    HW218843   0.790   3.871   7.443 -1.0082  2.1828 -1.1777
 2404SOL     OW18844   0.535   2.891  11.017 -0.4946 -0.5191  0.8088
 2404SOL    HW118845   0.594   2.952  11.060  0.6534 -0.7271 -0.4402
 2404SOL    HW218846   0.563   2.808  11.056 -0.0053 -1.5420 -1.7030
 2405SOL     OW18847   3.494   2.100   8.703  0.3136  0.1379  0.2446
 2405SOL    HW118848   3.538   2.130   8.623  1.0490 -0.9244  0.2641
 2405SOL    HW218849   3.474   2.185   8.743  1.1507  0.6726 -0.4687
 2406SOL     OW18850   1.944   1.638   2.407 -0.7299  0.0176  0.3022
 2406SOL    HW118851   1.942   1.669   2.317 -0.5884 -1.0258 -0.0585
 2406SOL    HW218852   2.037   1.656   2.419 -1.0931  1.5160  0.9162
 2407SOL     OW18853   1.085   4.394  16.839 -0.3141  0.2575  0.0327
 2407SOL    HW118854   1.102   4.468  16.898  1.1592  1.8706 -2.4209
 2407SOL    HW218855   1.088   4.431  16.751 -0.4291 -0.1087 -0.1263
 2408SOL     OW18856   2.965   3.776   2.070  0.1780 -0.6051 -0.5575
 2408SOL    HW118857   3.006   3.859   2.095 -0.4731 -0.7322  0.8931
 2408SOL    HW218858   2.968   3.777   1.974  1.2100  0.5874 -0.5163
 2409SOL     OW18859   2.563   3.686  11.590 -0.3943 -0.1891  0.0522
 2409SOL    HW118860   2.522   3.604  11.616  0.5386 -0.8269 -0.4746
 2409SOL    HW218861   2.644   3.676  11.640  0.5105  1.1209 -1.1706
 2410SOL     OW18862   3.385   3.656   2.981 -0.7542 -0.6383 -0.1290
 2410SOL    HW118863   3.359   3.737   2.937  0.2682  1.2607  2.8164
 2410SOL    HW218864   3.404   3.666   3.074  0.6793  1.9805 -0.7071
 2411SOL     OW18865   3.661   3.645   1.911 -0.3859  0.4325  0.5370
 2411SOL    HW118866   3.612   3.585   1.967 -1.8955  1.4911  0.3215
 2411SOL    HW218867   3.653   3.728   1.958 -0.7942  0.2017  0.8737
 2412SOL     OW18868   2.866   1.359   0.738 -0.0152  0.0628 -0.2974
 2412SOL    HW118869   2.796   1.415   0.772 -1.4728 -1.3068 -1.0435
 2412SOL    HW218870   2.909   1.323   0.815  0.5827  0.9095 -0.2301
 2413SOL     OW18871   1.228   0.456   4.186 -0.1626 -0.1683  0.2309
 2413SOL    HW118872   1.287   0.478   4.114 -0.6822 -0.8103 -0.3948
 2413SOL    HW218873   1.270   0.378   4.224  0.1436  0.9480  2.1841
 2414SOL     OW18874   1.518   0.909  15.007 -0.1447  0.3787  0.0546
 2414SOL    HW118875   1.519   0.847  15.081 -0.3017  0.7695  0.3869
 2414SOL    HW218876   1.517   0.845  14.936  1.9214  1.6006 -1.0757
 2415SOL     OW18877   2.319   2.554   3.318  0.2263 -0.1652 -0.1050
 2415SOL    HW118878   2.266   2.591   3.248  1.5198  1.0154 -0.4644
 2415SOL    HW218879   2.289   2.602   3.395 -1.4174  0.9891 -1.4647
 2416SOL     OW18880   4.530   1.218  15.908  0.3948  0.1386 -0.2140
 2416SOL    HW118881   4.551   1.240  15.818 -0.1878  1.2702 -0.0756
 2416SOL    HW218882   4.605   1.256  15.953  0.8627 -2.3309  1.0948
 2417SOL     OW18883   4.713   0.177  10.540  0.6370  0.6417 -0.0033
 2417SOL    HW118884   0.001   0.192  10.632  2.8960  0.7421 -0.6350
 2417SOL    HW218885   0.050   0.123  10.514  0.7971 -0.1222  2.0411
 2418SOL     OW18886   0.187   3.820   2.853 -0.5397  0.2443 -0.2731
 2418SOL    HW118887   0.156   3.752   2.793 -1.4354  0.6110 -0.2419
 2418SOL    HW218888   0.158   3.778   2.934 -0.7910  2.8773  1.0245
 2419SOL     OW18889   3.288   3.468  17.677  0.1622  0.4483 -0.3645
 2419SOL    HW118890   3.302   3.511  17.592  0.5166 -2.1521 -1.6289
 2419SOL    HW218891   3.194   3.470  17.690  0.7922  1.3964  4.1508
 2420SOL     OW18892   4.112   0.023   1.865 -0.1310 -0.5914 -0.3872
 2420SOL    HW118893   4.144   4.715   1.943  1.0817 -1.3956 -1.3440
 2420SOL    HW218894   4.082   0.106   1.902 -2.0889 -0.4606 -2.1967
 2421SOL     OW18895   1.109   0.206   1.379 -0.0780  0.3560 -0.6693
 2421SOL    HW118896   1.125   0.288   1.425  2.7591 -0.1159 -0.8432
 2421SOL    HW218897   1.082   0.234   1.292 -2.0196 -1.4878 -0.6712
 2422SOL     OW18898   1.774   2.114   7.394  0.7049 -0.9107 -0.1496
 2422SOL    HW118899   1.863   2.080   7.379  1.5253  0.7517  0.9717
 2422SOL    HW218900   1.725   2.031   7.396  0.6113 -0.8535 -0.0928
 2423SOL     OW18901   0.766   0.979   6.796 -0.1310 -0.4994  0.3863
 2423SOL    HW118902   0.843   0.949   6.844 -1.6291 -0.7413  2.6500
 2423SOL    HW218903   0.793   1.063   6.759 -0.9646 -1.5625 -2.6454
 2424SOL     OW18904   0.470   1.981   8.395 -0.2777  0.1413 -0.2013
 2424SOL    HW118905   0.488   1.981   8.301 -0.6806  1.8906 -0.2848
 2424SOL    HW218906   0.497   2.071   8.416  0.6483 -0.4507  1.2080
 2425SOL     OW18907   3.876   4.663   8.077  0.2926  0.0792  0.0946
 2425SOL    HW118908   3.860   4.616   8.158  2.5145  0.5858  0.8296
 2425SOL    HW218909   3.820   4.614   8.017  0.9988  1.3544 -1.6170
 2426SOL     OW18910   0.966   4.634  13.842 -0.2333  0.2809 -0.1534
 2426SOL    HW118911   1.008   4.687  13.910 -1.5927  1.0013  0.1137
 2426SOL    HW218912   0.874   4.652  13.858  0.3247  2.3214  0.7477
 2427SOL     OW18913   1.079   4.494  12.365  0.1380 -0.2773  0.1518
 2427SOL    HW118914   0.988   4.524  12.354  0.8974  2.0604  0.3231
 2427SOL    HW218915   1.078   4.475  12.459  0.6447  0.2670  0.2667
 2428SOL     OW18916   1.691   3.809   4.093 -0.1848  0.2135  0.2656
 2428SOL    HW118917   1.730   3.786   4.177 -1.1373 -0.3644  0.5414
 2428SOL    HW218918   1.766   3.855   4.056 -0.1270 -0.0953  0.0070
 2429SOL     OW18919   3.548   0.468  17.615 -0.0525 -0.0677  0.2688
 2429SOL    HW118920   3.604   0.404  17.659 -0.1497 -0.8028 -0.6791
 2429SOL    HW218921   3.604   0.484  17.540 -2.1867 -3.5698 -2.0910
 2430SOL     OW18922   2.917   1.858  16.854  0.4071 -0.4289  0.0657
 2430SOL    HW118923   2.834   1.904  16.866  1.4166  1.8346 -1.8189
 2430SOL    HW218924   2.973   1.920  16.900  0.1650 -0.3036  0.1919
 2431SOL     OW18925   4.207   1.493   7.278  0.4030 -0.6420 -0.1712
 2431SOL    HW118926   4.281   1.553   7.275  1.5484 -2.0095  0.9094
 2431SOL    HW218927   4.226   1.466   7.367  0.0834 -0.2226  0.0271
 2432SOL     OW18928   3.899   0.636   9.197  0.4348  0.5091  0.2231
 2432SOL    HW118929   3.830   0.573   9.177 -0.2941  0.7883  1.8458
 2432SOL    HW218930   3.963   0.592   9.141 -1.3781  0.8354 -2.1096
 2433SOL     OW18931   0.544   3.382  12.049 -0.0525 -0.7112  0.0051
 2433SOL    HW118932   0.477   3.418  12.108  0.9917 -0.1560  0.8618
 2433SOL    HW218933   0.572   3.301  12.090 -0.6394 -1.0856 -0.3321
 2434SOL     OW18934   4.034   3.737   7.947  0.8513  0.5049 -0.3214
 2434SOL    HW118935   3.968   3.788   7.994 -1.0633 -1.3142 -1.0322
 2434SOL    HW218936   4.100   3.731   8.017  0.1440  2.2022  0.4901
 2435SOL     OW18937   3.917   2.277   3.336  0.1981 -0.4001 -0.3514
 2435SOL    HW118938   3.873   2.347   3.288 -0.8746 -1.0616 -0.3269
 2435SOL    HW218939   4.001   2.273   3.291  0.9463  1.0550  0.8805
 2436SOL     OW18940   3.602   1.764   3.852 -0.1170 -0.5254 -0.4357
 2436SOL    HW118941   3.637   1.834   3.906 -2.0130 -0.0051  0.1244
 2436SOL    HW218942   3.509   1.761   3.874  0.3794 -0.1563  1.7046
 2437SOL     OW18943   0.724   3.429   3.084  0.0177  0.1550  0.1247
 2437SOL    HW118944   0.808   3.386   3.102  2.1599  2.6804 -3.7125
 2437SOL    HW218945   0.761   3.517   3.071  1.3712 -0.1451  1.8677
 2438SOL     OW18946   2.088   4.156   4.923  1.0782 -0.2459 -0.0891
 2438SOL    HW118947   2.180   4.130   4.931  0.3646 -2.0317  2.3683
 2438SOL    HW218948   2.060   4.139   5.013  0.2456 -0.0227 -0.2992
 2439SOL     OW18949   2.158   2.781   7.309 -0.4924  0.6297 -0.0931
 2439SOL    HW118950   2.124   2.806   7.394 -2.3854 -1.6255 -0.1787
 2439SOL    HW218951   2.088   2.725   7.274 -1.7684  0.8105  2.2021
 2440SOL     OW18952   2.167   2.864   1.539 -0.4735  0.4196  0.0562
 2440SOL    HW118953   2.148   2.825   1.454 -1.0266 -1.0257  0.8369
 2440SOL    HW218954   2.112   2.809   1.595 -0.0920  0.3258  0.3432
 2441SOL     OW18955   2.922   0.146   8.342  0.5339 -0.4489  0.2109
 2441SOL    HW118956   2.985   0.095   8.292 -0.3958 -1.7029  0.3236
 2441SOL    HW218957   2.870   0.080   8.387  1.6712 -0.9278  0.8191
 2442SOL     OW18958   0.315   3.070   4.496 -0.5038 -0.2698  0.3187
 2442SOL    HW118959   0.361   3.091   4.577 -0.4307  1.8590 -0.2792
 2442SOL    HW218960   0.356   2.991   4.461 -0.5777 -1.4527  2.9455
 2443SOL     OW18961   4.394   0.635   8.824  0.6472  0.3483  0.1115
 2443SOL    HW118962   4.420   0.716   8.780  0.3549  0.2262 -0.2883
 2443SOL    HW218963   4.389   0.572   8.752  0.3450  0.2545  0.2150
 2444SOL     OW18964   2.515   4.332   6.142 -0.2180  0.8222  0.8206
 2444SOL    HW118965   2.456   4.278   6.195 -1.0601  0.8484 -0.0809
 2444SOL    HW218966   2.532   4.274   6.069  0.4618 -1.5417  2.8564
 2445SOL     OW18967   4.249   2.636   9.095 -0.0668  0.7050 -0.5007
 2445SOL    HW118968   4.172   2.682   9.063 -2.0776 -0.5972  2.4561
 2445SOL    HW218969   4.295   2.708   9.139  1.1794  0.4585 -1.4026
 2446SOL     OW18970   2.756   0.351   7.561  0.1641  0.0652 -0.0681
 2446SOL    HW118971   2.803   0.432   7.580  2.2108 -1.1687  0.2265
 2446SOL    HW218972   2.800   0.318   7.483  3.7862  1.0458  1.5275
 2447SOL     OW18973   0.593   1.560  15.810 -0.2667  0.0791  0.3740
 2447SOL    HW118974   0.683   1.575  15.840 -0.2682  0.9289 -0.0351
 2447SOL    HW218975   0.593   1.647  15.769  1.3347 -0.0637  0.1015
 2448SOL     OW18976   1.796   3.137   2.739  0.2446 -0.9992 -0.1088
 2448SOL    HW118977   1.813   3.043   2.736 -0.9855 -1.3027  2.7149
 2448SOL    HW218978   1.827   3.147   2.829  0.8701 -1.4784 -0.2692
 2449SOL     OW18979   0.255   2.337   4.816  0.0637 -0.4310 -0.7918
 2449SOL    HW118980   0.206   2.257   4.839  2.2334 -0.8387  2.2740
 2449SOL    HW218981   0.196   2.373   4.749 -0.3862  0.2533 -0.0179
 2450SOL     OW18982   2.501   1.497   6.844  0.1136  0.2520  0.2420
 2450SOL    HW118983   2.573   1.530   6.790  0.5549 -1.5784 -0.2711
 2450SOL    HW218984   2.493   1.563   6.914 -1.3006 -0.8007  1.0661
 2451SOL     OW18985   4.497   1.183   4.761 -0.1571 -0.3886  0.1542
 2451SOL    HW118986   4.480   1.240   4.686 -1.4114 -0.6667  0.2268
 2451SOL    HW218987   4.585   1.148   4.746  0.0010 -0.2848  0.8654
 2452SOL     OW18988   0.744   1.979   9.563 -0.3646  0.2951  0.2041
 2452SOL    HW118989   0.720   1.888   9.544 -0.6649  0.9226 -2.4063
 2452SOL    HW218990   0.839   1.979   9.557 -0.4406 -0.1260 -0.8907
 2453SOL     OW18991   0.151   2.135  16.588  0.0234 -0.0925  0.2584
 2453SOL    HW118992   0.187   2.207  16.640 -0.7206  1.2950 -1.1416
 2453SOL    HW218993   0.185   2.062  16.640 -0.2827 -0.0778  0.4804
 2454SOL     OW18994   3.749   4.431   8.940 -0.0945 -0.4127 -0.1953
 2454SOL    HW118995   3.745   4.503   9.003  0.8603 -1.1164  0.6755
 2454SOL    HW218996   3.842   4.434   8.917 -0.4075 -1.6071 -1.5841
 2455SOL     OW18997   0.809   1.876  16.647  0.7107 -0.1722 -0.4112
 2455SOL    HW118998   0.762   1.959  16.637  1.8494  0.1662 -2.9771
 2455SOL    HW218999   0.801   1.857  16.740  3.0430 -2.1539 -0.6051
 2456SOL     OW19000   1.254   0.597   1.712 -0.8508 -0.1677 -0.2670
 2456SOL    HW119001   1.199   0.641   1.776 -0.6567 -0.5513  0.1634
 2456SOL    HW219002   1.307   0.665   1.671 -0.0827 -0.3129  0.4805
 2457SOL     OW19003   0.523   1.733   5.865  0.2523 -0.1653  0.0706
 2457SOL    HW119004   0.455   1.709   5.928  0.2545 -1.8474 -0.5859
 2457SOL    HW219005   0.564   1.805   5.913 -0.0742 -0.4997  0.8444
 2458SOL     OW19006   1.766   3.061  13.104 -0.8745 -0.1280  0.3259
 2458SOL    HW119007   1.777   2.983  13.050 -2.7350 -1.7755  2.3208
 2458SOL    HW219008   1.671   3.072  13.114 -0.9452 -1.2530  0.9324
 2459SOL     OW19009   4.302   0.001   7.155  0.4937 -0.5717  0.1355
 2459SOL    HW119010   4.218   4.697   7.174  0.6109 -0.3530  1.1456
 2459SOL    HW219011   4.320   4.699   7.069 -0.1060 -2.6950  0.9865
 2460SOL     OW19012   3.508   3.444   2.028  0.5076 -0.0420 -0.1709
 2460SOL    HW119013   3.491   3.376   2.093  1.3755  0.6528  0.7767
 2460SOL    HW219014   3.446   3.515   2.047 -0.1135 -0.7128  0.3125
 2461SOL     OW19015   2.870   0.643   3.857  0.3434 -0.2164  0.5878
 2461SOL    HW119016   2.933   0.607   3.919 -0.4913  0.8614  2.0277
 2461SOL    HW219017   2.930   0.651   3.782  1.5440  0.9716  1.6850
 2462SOL     OW19018   2.990   2.045   7.797 -0.1129  0.2381  0.1096
 2462SOL    HW119019   2.942   2.128   7.798 -0.8261 -0.1774 -0.2001
 2462SOL    HW219020   2.957   2.009   7.715 -0.5949  2.0927 -0.4991
 2463SOL     OW19021   3.356   4.558   5.593 -0.5633 -0.4351  0.2931
 2463SOL    HW119022   3.434   4.564   5.649 -1.5758  1.1791  1.5223
 2463SOL    HW219023   3.293   4.616   5.635  0.2060  0.7154 -0.1319
 2464SOL     OW19024   0.575   1.916   7.419 -0.4419 -0.2925  0.0466
 2464SOL    HW119025   0.583   1.890   7.327 -0.5302  0.3778 -0.1488
 2464SOL    HW219026   0.635   1.991   7.419  0.2470 -0.8447 -1.5507
 2465SOL     OW19027   0.209   4.435  15.023  0.1616 -0.0661 -0.2017
 2465SOL    HW119028   0.303   4.442  15.004  0.2761  0.8689  0.7142
 2465SOL    HW219029   0.170   4.393  14.946  0.0753 -1.5968  0.6830
 2466SOL     OW19030   0.657   3.932   3.005  0.1119 -0.2189 -0.4016
 2466SOL    HW119031   0.701   3.973   2.931  0.3209 -0.2437 -0.2916
 2466SOL    HW219032   0.662   4.004   3.068 -0.4423  0.5281 -1.1999
 2467SOL     OW19033   3.519   1.717   2.990  0.3053  0.1834  0.4636
 2467SOL    HW119034   3.452   1.651   3.005  0.1385  0.2465 -0.0054
 2467SOL    HW219035   3.517   1.739   2.897  0.2604  0.4720  0.5344
 2468SOL     OW19036   3.325   3.906  16.622 -0.3312 -0.7607  0.3450
 2468SOL    HW119037   3.396   3.844  16.636 -1.1745 -1.1321  2.8296
 2468SOL    HW219038   3.323   3.954  16.705 -0.8779  0.3035 -0.2814
 2469SOL     OW19039   4.708   3.787   6.571 -0.3809  0.2626 -0.0767
 2469SOL    HW119040   4.704   3.818   6.480 -0.7362  0.9344  0.1696
 2469SOL    HW219041   4.616   3.794   6.598 -0.4277 -0.3840 -0.0554
 2470SOL     OW19042   0.604   4.046   0.072  0.0281 -0.3191  0.0925
 2470SOL    HW119043   0.555   4.128   0.083  1.6078  0.6235  0.1559
 2470SOL    HW219044   0.686   4.075   0.033 -0.3823 -0.5119 -0.8974
 2471SOL     OW19045   2.477   2.539  12.672 -0.1638  0.3225 -0.4543
 2471SOL    HW119046   2.497   2.520  12.580 -1.6616  0.9750 -0.9172
 2471SOL    HW219047   2.555   2.499  12.710  0.2261  1.7804  0.2711
 2472SOL     OW19048   2.345   1.469   4.833  0.3525 -0.1176  0.4129
 2472SOL    HW119049   2.257   1.458   4.870  0.7839 -1.5962  1.0086
 2472SOL    HW219050   2.379   1.524   4.904 -1.6345  3.5497 -1.5082
 2473SOL     OW19051   1.979   4.073   5.167 -0.4037  0.3511  0.3540
 2473SOL    HW119052   1.928   4.130   5.224  0.0742 -0.4251  1.5624
 2473SOL    HW219053   1.960   3.987   5.205  1.9049 -0.6407 -0.7304
 2474SOL     OW19054   1.581   3.687   0.359  0.2890  0.1135 -0.1460
 2474SOL    HW119055   1.600   3.781   0.355  0.2421  0.1041 -0.7222
 2474SOL    HW219056   1.663   3.644   0.382  0.3665  0.1296 -0.3886
 2475SOL     OW19057   1.268   0.947   5.650 -0.1108  0.0042  0.1351
 2475SOL    HW119058   1.273   0.858   5.687  3.0179 -0.7908 -2.2543
 2475SOL    HW219059   1.355   0.981   5.671 -0.4058 -1.3684  3.7048
 2476SOL     OW19060   3.924   2.007   8.109  0.3686 -0.5572  0.8615
 2476SOL    HW119061   3.990   1.970   8.051 -0.1934 -1.6976  0.9543
 2476SOL    HW219062   3.976   2.017   8.189  2.6553 -2.7108 -0.3774
 2477SOL     OW19063   2.906   3.300   8.877  0.0651 -0.0805  0.6966
 2477SOL    HW119064   2.884   3.393   8.878 -2.0702 -0.5693 -0.6386
 2477SOL    HW219065   2.832   3.251   8.914 -0.8129 -0.4649 -1.6136
 2478SOL     OW19066   3.019   1.486   0.562 -0.0398 -0.6997 -0.0584
 2478SOL    HW119067   3.074   1.480   0.640 -1.5668 -1.3433  0.9669
 2478SOL    HW219068   2.932   1.475   0.602 -0.2575  0.1710 -0.2926
 2479SOL     OW19069   2.061   3.812   9.624  0.2161 -0.7131 -0.3866
 2479SOL    HW119070   2.120   3.845   9.691  0.4717 -2.2870  0.1804
 2479SOL    HW219071   2.027   3.885   9.572 -2.3040 -0.0777  2.1759
 2480SOL     OW19072   0.694   0.010  11.415  0.0122 -0.5248 -0.3575
 2480SOL    HW119073   0.649   0.094  11.411 -2.7057 -1.9102  1.3123
 2480SOL    HW219074   0.617   4.693  11.397 -0.4037  0.0138 -0.1859
 2481SOL     OW19075   3.644   2.154   4.315  0.6768  0.0232  0.0157
 2481SOL    HW119076   3.553   2.140   4.287  0.2395 -1.9113  2.3384
 2481SOL    HW219077   3.641   2.168   4.410  1.6013 -2.3292  0.4141
 2482SOL     OW19078   4.087   4.033   7.552  0.2157 -0.2883 -0.4832
 2482SOL    HW119079   4.000   4.072   7.558 -0.2056 -1.1135 -1.2790
 2482SOL    HW219080   4.133   4.118   7.549  0.1725 -0.3170 -2.1838
 2483SOL     OW19081   0.304   4.256   5.369  0.5138  0.0008  0.1601
 2483SOL    HW119082   0.227   4.275   5.422  1.0989  1.7066  0.4201
 2483SOL    HW219083   0.361   4.217   5.435  0.8815  0.7663  0.3031
 2484SOL     OW19084   2.632   3.802   8.764  0.0994 -0.4331 -0.5163
 2484SOL    HW119085   2.558   3.746   8.790  0.1671  0.3456  1.3278
 2484SOL    HW219086   2.662   3.834   8.849  0.9200 -3.2326  0.2467
 2485SOL     OW19087   2.064   3.277   8.184 -0.3699  0.4587 -0.4142
 2485SOL    HW119088   2.099   3.198   8.143  0.4850  0.2792  0.6559
 2485SOL    HW219089   2.098   3.250   8.270 -0.2333  2.5100  0.1637
 2486SOL     OW19090   2.290   3.905   7.840 -0.1304 -0.0715  0.2810
 2486SOL    HW119091   2.198   3.917   7.865  0.3899  1.0381  1.6566
 2486SOL    HW219092   2.331   3.901   7.927 -0.0718  3.9643  0.4149
 2487SOL     OW19093   1.055   3.332   0.457  0.4638 -0.1975  0.0438
 2487SOL    HW119094   1.087   3.242   0.454  1.7415  0.2118  1.5258
 2487SOL    HW219095   1.055   3.368   0.368 -1.6242  3.2936  1.4981
 2488SOL     OW19096   2.782   2.257   7.273  0.5296  0.4055  0.2753
 2488SOL    HW119097   2.757   2.339   7.316 -1.3858 -0.7916  1.3995
 2488SOL    HW219098   2.783   2.286   7.182 -0.7847 -0.0469  0.1269
 2489SOL     OW19099   4.640   1.227   5.313 -0.3310 -0.1881 -0.2510
 2489SOL    HW119100   4.611   1.158   5.254 -0.1262 -2.4843  2.3327
 2489SOL    HW219101   4.725   1.188   5.334  0.1757  0.8299 -0.4219
 2490SOL     OW19102   2.996   0.228   0.730 -0.8106  0.1836  0.2422
 2490SOL    HW119103   3.066   0.162   0.737 -0.6899  0.2147 -0.6736
 2490SOL    HW219104   3.037   0.310   0.757  0.1972 -0.7548  1.5225
 2491SOL     OW19105   4.633   0.114  16.334 -0.6625  0.0978 -0.0610
 2491SOL    HW119106   4.568   0.184  16.340 -1.5971 -1.1119  3.4171
 2491SOL    HW219107   4.578   0.047  16.375 -1.6458 -0.1108 -1.7033
 2492SOL     OW19108   1.364   0.152   8.793  1.0093  0.3636  0.0162
 2492SOL    HW119109   1.441   0.124   8.743 -1.4012 -0.4343 -3.2031
 2492SOL    HW219110   1.401   0.198   8.869  1.3989  2.4563 -1.4718
 2493SOL     OW19111   3.813   0.262   4.508 -0.1737  0.3789  0.2236
 2493SOL    HW119112   3.794   0.254   4.601 -2.1918 -1.4983 -0.3524
 2493SOL    HW219113   3.768   0.343   4.482 -0.4647  0.0344 -0.3450
 2494SOL     OW19114   1.693   3.187   4.085  0.1390 -0.2836  0.7593
 2494SOL    HW119115   1.754   3.169   4.156  0.9740  0.9599  0.3578
 2494SOL    HW219116   1.622   3.125   4.100 -0.4308  0.3265  0.5936
 2495SOL     OW19117   4.730   2.045   5.605 -0.7007  0.4834 -0.2813
 2495SOL    HW119118   4.707   1.959   5.570 -1.2823  0.7689 -0.6062
 2495SOL    HW219119   4.677   2.103   5.550 -1.9933 -1.6823 -1.3226
 2496SOL     OW19120   3.310   1.038  15.560 -0.4359  0.6696 -0.2143
 2496SOL    HW119121   3.259   1.097  15.614  0.5584  2.2974 -1.0560
 2496SOL    HW219122   3.291   1.075  15.474  0.7081  1.3379 -0.1708
 2497SOL     OW19123   0.563   3.295   9.000  0.1058  0.3895 -0.4868
 2497SOL    HW119124   0.474   3.326   9.018 -0.0361 -1.4998  1.9797
 2497SOL    HW219125   0.600   3.377   8.969 -1.3556  0.9870 -0.6808
 2498SOL     OW19126   1.167   3.809   9.090 -0.7804 -0.1935  0.3497
 2498SOL    HW119127   1.083   3.782   9.053 -0.1789  0.6115 -1.6191
 2498SOL    HW219128   1.161   3.757   9.170 -0.8468 -0.3839  0.2230
 2499SOL     OW19129   4.010   0.104  10.571 -0.4261 -0.4806  0.1064
 2499SOL    HW119130   4.065   0.141  10.502  0.4765 -1.0157  0.5275
 2499SOL    HW219131   4.064   0.039  10.617 -0.5049 -0.7524 -0.1816
 2500SOL     OW19132   3.288   3.667   1.248  0.2603 -0.4121 -1.0695
 2500SOL    HW119133   3.302   3.740   1.308 -2.3984  0.4746 -1.5021
 2500SOL    HW219134   3.318   3.595   1.304 -0.8605 -0.6173 -0.7258
 2501SOL     OW19135   3.870   2.017   1.252  0.6019 -0.1324 -0.4606
 2501SOL    HW119136   3.805   2.003   1.320  2.5580 -1.7344  1.0903
 2501SOL    HW219137   3.896   1.931   1.218  1.1588  0.1380 -0.7258
 2502SOL     OW19138   4.455   1.062   6.496  0.1216  0.0870 -0.1680
 2502SOL    HW119139   4.453   1.126   6.425  2.4556  0.7245  0.3628
 2502SOL    HW219140   4.544   1.028   6.487 -1.0281 -2.8650 -0.4941
 2503SOL     OW19141   1.286   1.973   7.868 -0.0255  0.2485  0.3169
 2503SOL    HW119142   1.335   2.029   7.929  1.4042 -1.5853  0.8404
 2503SOL    HW219143   1.316   1.888   7.899 -1.1055 -1.1068 -2.3717
 2504SOL     OW19144   4.164   1.450   2.943  0.3402  0.3363  0.1275
 2504SOL    HW119145   4.236   1.411   2.993  0.1607  1.1151  0.9955
 2504SOL    HW219146   4.225   1.506   2.895  0.3649  0.5001  0.3513
 2505SOL     OW19147   1.343   2.187   2.922 -0.6540 -0.7508 -0.1320
 2505SOL    HW119148   1.377   2.107   2.961 -1.3742 -0.0392  1.9570
 2505SOL    HW219149   1.322   2.155   2.834 -1.5962 -0.0986 -0.1460
 2506SOL     OW19150   2.008   0.048   8.474 -0.4275  0.4972  0.0097
 2506SOL    HW119151   1.951   4.713   8.503  1.7773 -0.4871  1.8576
 2506SOL    HW219152   2.029   0.014   8.387 -1.9580  1.5221 -0.7529
 2507SOL     OW19153   1.439   4.081   5.962 -0.2051  0.2165 -0.7171
 2507SOL    HW119154   1.414   4.139   5.891 -1.2805 -1.1038 -1.4191
 2507SOL    HW219155   1.357   4.041   5.989  0.7471 -0.3268  1.4118
 2508SOL     OW19156   3.098   2.579   9.523 -0.0560  0.1287 -0.0083
 2508SOL    HW119157   3.096   2.507   9.460  0.4766 -1.3914  1.7042
 2508SOL    HW219158   3.186   2.613   9.506  0.1490  0.1932  1.1940
 2509SOL     OW19159   2.445   1.559  16.361 -0.2670  0.5414  0.3292
 2509SOL    HW119160   2.373   1.607  16.402 -0.6450 -0.1381  0.4642
 2509SOL    HW219161   2.504   1.540  16.433 -0.6706  2.5384  1.1953
 2510SOL     OW19162   2.158   0.006  11.439 -0.3725  0.9744 -0.1058
 2510SOL    HW119163   2.075   4.696  11.448  2.6060 -4.2532  0.0884
 2510SOL    HW219164   2.218   4.668  11.437 -1.1608  0.3462 -0.2307
 2511SOL     OW19165   4.438   2.145   7.582 -0.4251 -0.0674  0.6955
 2511SOL    HW119166   4.363   2.125   7.638 -0.6744  0.8768  0.6967
 2511SOL    HW219167   4.397   2.213   7.528  0.8044  0.0324 -0.1213
 2512SOL     OW19168   4.175   2.732   1.177  0.5991 -0.1186 -0.2616
 2512SOL    HW119169   4.247   2.669   1.185 -0.0289 -0.3658  3.8591
 2512SOL    HW219170   4.151   2.730   1.270  0.9930  0.8556 -0.1335
 2513SOL     OW19171   1.374   0.269   4.554 -0.2108 -0.3624 -0.0892
 2513SOL    HW119172   1.439   0.335   4.531  0.7332 -1.5666 -0.9371
 2513SOL    HW219173   1.421   0.233   4.629 -0.7547 -1.8234 -0.4452
 2514SOL     OW19174   4.074   4.526   4.423 -0.2638 -0.1951  0.5282
 2514SOL    HW119175   4.011   4.542   4.353  0.6710  0.2756 -0.2165
 2514SOL    HW219176   4.153   4.550   4.373 -1.6212  0.1489 -1.4645
 2515SOL     OW19177   2.867   1.847   5.999 -0.2467  0.1782  0.0640
 2515SOL    HW119178   2.947   1.826   6.046 -1.3628 -0.2200  1.8119
 2515SOL    HW219179   2.890   1.840   5.906 -0.9617 -1.6124  0.0190
 2516SOL     OW19180   0.677   4.415   1.119 -0.6834  0.0801 -0.2403
 2516SOL    HW119181   0.757   4.408   1.170 -0.5619  0.3052 -0.3995
 2516SOL    HW219182   0.656   4.322   1.131 -2.2198  0.3798 -0.6194
 2517SOL     OW19183   3.313   2.880   6.200 -0.0723 -0.2606 -0.0918
 2517SOL    HW119184   3.388   2.939   6.199 -0.2164 -0.0559  1.1263
 2517SOL    HW219185   3.357   2.802   6.234 -1.5662 -0.2831  1.8312
 2518SOL     OW19186   3.928   0.774   3.959  0.6355 -0.3032  0.0428
 2518SOL    HW119187   3.954   0.682   3.955 -1.5951 -0.8043 -2.9703
 2518SOL    HW219188   3.879   0.766   4.040  1.4799  1.0443  0.7017
 2519SOL     OW19189   3.380   2.699   7.573 -0.2822 -0.4097 -0.1815
 2519SOL    HW119190   3.375   2.604   7.561  0.0128 -0.1889 -2.0443
 2519SOL    HW219191   3.415   2.725   7.488  2.2568  1.8092  1.5460
 2520SOL     OW19192   3.758   4.039   1.882  0.7887  0.5704  0.5681
 2520SOL    HW119193   3.697   3.986   1.831 -0.2553  1.0902  1.2702
 2520SOL    HW219194   3.805   3.975   1.935 -2.3349 -2.1120  0.1284
 2521SOL     OW19195   3.135   4.308  14.352  0.3441  0.8468 -0.1056
 2521SOL    HW119196   3.044   4.297  14.379  0.5853 -1.3679 -0.2399
 2521SOL    HW219197   3.134   4.328  14.258  2.7789 -3.4244 -1.0306
 2522SOL     OW19198   1.675   0.761   4.889  0.2733 -0.2497 -0.3000
 2522SOL    HW119199   1.634   0.679   4.916 -1.6128  0.3925 -1.2474
 2522SOL    HW219200   1.763   0.752   4.926  0.1601 -2.4195 -0.5452
 2523SOL     OW19201   1.922   2.267  15.450  0.1673  0.4223  0.2625
 2523SOL    HW119202   1.843   2.304  15.410  0.8252  1.3697 -0.1501
 2523SOL    HW219203   1.956   2.346  15.491  4.3836 -2.1338  1.7316
 2524SOL     OW19204   2.899   1.551   1.068 -0.0782  0.6813 -0.4455
 2524SOL    HW119205   2.818   1.568   1.019 -0.0193 -0.2180 -0.8464
 2524SOL    HW219206   2.894   1.621   1.133 -0.8092 -1.0451  1.3430
 2525SOL     OW19207   3.378   4.493   0.584  0.1708  0.3771 -0.5022
 2525SOL    HW119208   3.305   4.512   0.643  0.2309  1.2252 -0.7006
 2525SOL    HW219209   3.451   4.475   0.643  0.1345  0.9210 -0.2916
 2526SOL     OW19210   1.647   0.549   8.153  0.1019  0.0168  0.1044
 2526SOL    HW119211   1.630   0.514   8.240  0.9386  1.5240  0.8698
 2526SOL    HW219212   1.651   0.470   8.100 -2.6059  0.3626 -0.6312
 2527SOL     OW19213   3.946   0.313   9.583  0.0930  1.1524  0.1743
 2527SOL    HW119214   3.884   0.369   9.630 -1.6576 -0.6813  0.0377
 2527SOL    HW219215   4.031   0.350   9.606  0.3644  0.5559  0.1474
 2528SOL     OW19216   0.754   0.611   9.549 -0.3883 -0.0667  0.5686
 2528SOL    HW119217   0.659   0.624   9.548 -0.0389  2.4519 -0.3717
 2528SOL    HW219218   0.774   0.701   9.523  1.1275  0.0703  2.1428
 2529SOL     OW19219   2.653   0.143   4.020 -0.5624  0.3069 -0.0521
 2529SOL    HW119220   2.638   0.234   3.995  0.6003  0.2156 -1.0699
 2529SOL    HW219221   2.644   0.111   3.930  1.5490 -1.7894  0.4935
 2530SOL     OW19222   1.751   1.527   8.228  0.4652  0.3622  0.1424
 2530SOL    HW119223   1.836   1.567   8.244  1.2110 -1.9429  1.8724
 2530SOL    HW219224   1.720   1.502   8.315 -2.7707 -0.2246 -1.1593
 2531SOL     OW19225   1.396   1.852  12.029 -0.4483  0.4323  0.1950
 2531SOL    HW119226   1.466   1.816  11.974 -1.6563 -1.8227  0.1641
 2531SOL    HW219227   1.404   1.804  12.111  1.4456  1.0163  0.3673
 2532SOL     OW19228   3.016   0.393  10.326 -0.0495 -0.4072  0.4278
 2532SOL    HW119229   3.019   0.375  10.419 -0.1219 -0.3836  0.4343
 2532SOL    HW219230   3.092   0.451  10.333 -1.4034  1.2842  1.1050
 2533SOL     OW19231   1.435   0.478   6.427 -0.2172 -0.2432 -0.2713
 2533SOL    HW119232   1.510   0.537   6.421 -0.6362  0.3362  0.0748
 2533SOL    HW219233   1.361   0.535   6.404 -0.8000 -0.9154 -0.0778
 2534SOL     OW19234   3.114   2.731   6.699  0.7829  0.3353 -0.7793
 2534SOL    HW119235   3.075   2.797   6.757  2.4677  1.3740 -0.8053
 2534SOL    HW219236   3.149   2.669   6.764  2.1929 -0.4683 -2.3132
 2535SOL     OW19237   0.466   4.261   3.222  0.6592  0.1785 -0.3174
 2535SOL    HW119238   0.469   4.189   3.285 -0.2432  2.2731  2.1599
 2535SOL    HW219239   0.386   4.253   3.171  0.0265  1.1581  0.5148
 2536SOL     OW19240   0.314   1.833   7.382 -0.1213  0.1276  0.4887
 2536SOL    HW119241   0.330   1.876   7.297  1.4963 -3.5014 -1.0075
 2536SOL    HW219242   0.403   1.837   7.416  0.1888 -0.5449 -0.2341
 2537SOL     OW19243   0.296   2.847  12.471 -0.4431 -0.1580  0.1513
 2537SOL    HW119244   0.347   2.770  12.493 -0.2447  0.2961  1.2890
 2537SOL    HW219245   0.322   2.858  12.380 -3.5728 -1.6468 -0.9437
 2538SOL     OW19246   3.043   0.543   7.389  0.1099 -0.1262  0.7867
 2538SOL    HW119247   3.026   0.450   7.380 -1.5822  0.5790 -3.4624
 2538SOL    HW219248   2.955   0.581   7.379 -0.6983 -1.8083  1.5463
 2539SOL     OW19249   2.426   1.914   6.419  0.1729 -0.4802 -0.7979
 2539SOL    HW119250   2.412   1.996   6.372 -1.2542  0.3031  0.9612
 2539SOL    HW219251   2.475   1.945   6.495  0.8003 -0.4358 -1.2227
 2540SOL     OW19252   1.568   0.580   0.693 -0.0111  0.0986 -0.0561
 2540SOL    HW119253   1.577   0.652   0.630  1.2228  0.8968  1.0575
 2540SOL    HW219254   1.474   0.562   0.680  0.1977 -1.1297  0.1109
 2541SOL     OW19255   0.515   1.555   2.845 -0.7693 -0.0907  0.5043
 2541SOL    HW119256   0.430   1.531   2.810  0.4698  0.6173 -2.9953
 2541SOL    HW219257   0.559   1.581   2.764 -2.6851  0.5667 -0.3119
 2542SOL     OW19258   1.844   3.178  10.566 -0.1707 -0.8932 -0.0217
 2542SOL    HW119259   1.774   3.221  10.517  1.6128  0.4013 -1.3995
 2542SOL    HW219260   1.921   3.214  10.523 -1.1063 -1.0163 -1.7738
 2543SOL     OW19261   3.870   2.375  14.570 -0.0459  0.0843 -0.2911
 2543SOL    HW119262   3.776   2.358  14.569  0.0879 -0.7334  0.7863
 2543SOL    HW219263   3.892   2.380  14.477  1.8015  2.6595  0.2784
 2544SOL     OW19264   1.485   1.393  11.027  0.1515  0.6429  0.1458
 2544SOL    HW119265   1.548   1.330  10.991  1.0384  1.0935  0.9231
 2544SOL    HW219266   1.475   1.461  10.961 -0.0382  0.3214 -0.1584
 2545SOL     OW19267   1.207   4.673   8.688 -0.2493  0.0360 -0.1728
 2545SOL    HW119268   1.230   0.013   8.740  0.8374  0.2062 -0.8992
 2545SOL    HW219269   1.294   4.633   8.697  0.1560  1.0677  0.4611
 2546SOL     OW19270   2.826   0.371   9.274  0.0006  0.3511  0.4321
 2546SOL    HW119271   2.786   0.426   9.342  0.2638 -0.0051  0.8825
 2546SOL    HW219272   2.816   0.285   9.316 -0.6688 -0.4015 -1.2802
 2547SOL     OW19273   2.496   3.500   5.784 -0.3047 -0.3065 -0.0278
 2547SOL    HW119274   2.550   3.579   5.782  0.0712 -0.6133 -2.4539
 2547SOL    HW219275   2.543   3.447   5.719 -0.0046  0.8888 -0.7892
 2548SOL     OW19276   2.793   2.619  11.199 -0.4981  0.1052  0.4248
 2548SOL    HW119277   2.705   2.652  11.219  0.2983  1.4461  1.7039
 2548SOL    HW219278   2.842   2.640  11.279  0.3969  0.6589 -0.2735
 2549SOL     OW19279   3.532   0.448   7.511 -0.3544 -0.2156  0.8980
 2549SOL    HW119280   3.542   0.539   7.485  1.1458 -0.8647 -0.8098
 2549SOL    HW219281   3.518   0.466   7.604  0.5341  1.2693  0.7468
 2550SOL     OW19282   1.745   1.836   2.888  0.1184  0.0816  1.0713
 2550SOL    HW119283   1.741   1.784   2.807  1.2207  0.0554  1.0351
 2550SOL    HW219284   1.837   1.841   2.916  0.6801 -0.0471 -0.7518
 2551SOL     OW19285   3.319   0.716   5.691 -0.3701 -0.4566  0.2764
 2551SOL    HW119286   3.248   0.758   5.644 -0.3920 -0.2392  0.5023
 2551SOL    HW219287   3.293   0.740   5.780 -0.8191 -0.1787  0.0702
 2552SOL     OW19288   4.106   2.379  15.776 -0.5152  0.2426  0.0412
 2552SOL    HW119289   4.097   2.471  15.750 -2.9557  0.5588  1.9823
 2552SOL    HW219290   4.017   2.372  15.811 -0.9433  0.4713 -0.9919
 2553SOL     OW19291   4.508   2.780   2.051  0.7353  0.2335 -0.4002
 2553SOL    HW119292   4.438   2.772   1.986  0.7406 -0.2478 -0.3465
 2553SOL    HW219293   4.541   2.869   2.036 -1.5985  1.0731 -0.5788
 2554SOL     OW19294   3.498   3.307   4.159  0.0171 -0.1741  0.3615
 2554SOL    HW119295   3.471   3.293   4.068  1.3945  1.4326 -0.3021
 2554SOL    HW219296   3.418   3.336   4.204 -0.1992 -0.7006  0.3133
 2555SOL     OW19297   4.488   3.886   5.003  0.4318 -0.4877 -0.1924
 2555SOL    HW119298   4.495   3.810   5.061 -1.6550  0.0384  0.7510
 2555SOL    HW219299   4.403   3.924   5.025  0.9774 -0.0996  1.3037
 2556SOL     OW19300   0.669   3.083  11.135  0.0735 -0.6245  0.4095
 2556SOL    HW119301   0.595   3.124  11.180 -0.4200 -0.0508 -0.9151
 2556SOL    HW219302   0.737   3.150  11.125 -0.6742  0.0808  0.0126
 2557SOL     OW19303   3.767   2.037  10.208  0.3625 -0.2284  0.3704
 2557SOL    HW119304   3.729   2.123  10.189  2.0885  0.7646  1.4853
 2557SOL    HW219305   3.861   2.054  10.215  0.4015  0.0325 -0.7590
 2558SOL     OW19306   4.187   1.648   6.219 -0.1229 -0.1166  0.1455
 2558SOL    HW119307   4.243   1.715   6.257  0.7260  0.9282 -2.9764
 2558SOL    HW219308   4.135   1.705   6.162 -1.1903 -2.1931 -0.9536
 2559SOL     OW19309   3.892   1.473   2.085  0.8571 -0.4574  0.3247
 2559SOL    HW119310   3.853   1.388   2.102 -0.6576 -0.0819 -1.3011
 2559SOL    HW219311   3.904   1.482   1.990 -1.7551 -0.4615  0.0065
 2560SOL     OW19312   3.421   3.176  13.441  0.0796  0.0352 -0.3731
 2560SOL    HW119313   3.426   3.246  13.506 -0.1834  0.7430 -1.1205
 2560SOL    HW219314   3.401   3.224  13.361 -0.9871 -2.7543 -1.7721
 2561SOL     OW19315   4.729   4.013   3.898 -0.5657  0.4320 -0.0960
 2561SOL    HW119316   4.667   4.085   3.907  0.3021  1.1446  0.1576
 2561SOL    HW219317   0.069   4.066   3.877  0.0937  0.6068  2.8961
 2562SOL     OW19318   4.419   4.245   2.716  0.0794 -0.0880  0.1788
 2562SOL    HW119319   4.414   4.176   2.650 -2.0053 -1.0595  1.3577
 2562SOL    HW219320   4.412   4.197   2.798 -1.8912  0.2237  0.1969
 2563SOL     OW19321   3.749   3.571   5.010  0.6805 -0.4119 -0.1574
 2563SOL    HW119322   3.792   3.532   4.933  1.6947  0.8915 -0.2574
 2563SOL    HW219323   3.816   3.545   5.074 -0.6929 -2.0027  0.6361
 2564SOL     OW19324   4.274   0.103   8.634 -0.4187 -0.1808  0.0337
 2564SOL    HW119325   4.297   0.149   8.715 -0.2137 -0.6419  0.2386
 2564SOL    HW219326   4.362   0.097   8.597 -1.1719 -0.3410 -1.7164
 2565SOL     OW19327   2.593   2.317  16.199  0.1801  0.5063  0.2397
 2565SOL    HW119328   2.608   2.386  16.135 -0.6955 -0.6637 -1.2462
 2565SOL    HW219329   2.668   2.258  16.190 -1.1972 -0.8309 -2.6341
 2566SOL     OW19330   2.478   2.357   6.700 -0.7621  0.2557  0.2251
 2566SOL    HW119331   2.413   2.333   6.765  1.2670 -1.5867  1.5872
 2566SOL    HW219332   2.539   2.284   6.704  0.7946  1.6703  2.2496
 2567SOL     OW19333   3.790   3.087  10.329  0.2185 -0.3789  0.3715
 2567SOL    HW119334   3.768   3.006  10.375 -1.5988  0.9334  1.7977
 2567SOL    HW219335   3.704   3.126  10.320  0.9968  1.0529 -0.8948
 2568SOL     OW19336   4.004   4.110   4.284 -0.1447 -0.1679 -0.4909
 2568SOL    HW119337   4.062   4.089   4.210 -0.5427 -2.0608 -0.2549
 2568SOL    HW219338   4.065   4.139   4.352 -0.8949 -0.7193  0.4209
 2569SOL     OW19339   4.363   3.128   0.481  0.1000  0.2234 -0.2529
 2569SOL    HW119340   4.323   3.068   0.544  1.3976 -0.6452 -0.2596
 2569SOL    HW219341   4.298   3.198   0.484  0.0314  0.1226  0.6237
 2570SOL     OW19342   4.398   0.201   6.500  0.1691  0.1793  0.4952
 2570SOL    HW119343   4.330   0.147   6.461 -1.4247  1.6302  1.2838
 2570SOL    HW219344   4.468   0.141   6.473  0.8496  0.5597  1.3979
 2571SOL     OW19345   4.575   0.979   8.847  0.1406  0.6319 -0.0149
 2571SOL    HW119346   4.629   1.002   8.922 -0.0586 -1.8658  0.8974
 2571SOL    HW219347   4.612   1.024   8.772 -0.2864  1.2390  0.1387
 2572SOL     OW19348   2.153   4.143  13.922 -0.7043 -0.2089 -0.3160
 2572SOL    HW119349   2.117   4.055  13.911 -0.8381 -0.4984  2.4319
 2572SOL    HW219350   2.190   4.125  14.009 -0.9075  0.7104 -0.0404
 2573SOL     OW19351   1.163   4.432   8.838  0.0174  0.1335 -0.1899
 2573SOL    HW119352   1.152   4.520   8.801  3.2550  0.5454 -0.1232
 2573SOL    HW219353   1.244   4.409   8.792 -0.7323 -0.5958 -1.1501
 2574SOL     OW19354   4.219   1.815   3.187 -0.0594 -0.2707  0.0661
 2574SOL    HW119355   4.214   1.719   3.194  2.3730 -0.5543 -1.8874
 2574SOL    HW219356   4.144   1.831   3.130  0.3464  0.4791 -0.2555
 2575SOL     OW19357   1.543   3.764   7.261  0.0838 -0.1728 -0.1969
 2575SOL    HW119358   1.460   3.796   7.225 -0.2545 -0.4675  0.3225
 2575SOL    HW219359   1.508   3.697   7.319 -0.9959 -0.2194 -0.8960
 2576SOL     OW19360   2.117   2.917   2.076 -0.2328 -0.5915  0.1309
 2576SOL    HW119361   2.186   2.879   2.130 -1.0235 -3.0427 -0.6116
 2576SOL    HW219362   2.067   2.838   2.058 -1.1756  0.0817 -0.2102
 2577SOL     OW19363   3.416   4.372   4.291  0.3957 -0.1992  0.3719
 2577SOL    HW119364   3.340   4.419   4.325  1.9648  2.1739  0.5958
 2577SOL    HW219365   3.393   4.389   4.199 -0.0233  1.2512  0.7422
 2578SOL     OW19366   4.622   1.963   7.836 -0.3351  0.2254 -0.1610
 2578SOL    HW119367   4.649   1.954   7.745 -0.3930  1.9379 -0.3451
 2578SOL    HW219368   4.607   2.058   7.839 -2.8571 -0.2770  3.2336
 2579SOL     OW19369   1.206   4.518   0.486 -0.2689  0.0371 -0.3805
 2579SOL    HW119370   1.279   4.478   0.533 -0.2863 -0.4303 -0.7487
 2579SOL    HW219371   1.135   4.502   0.548  2.1138 -1.2022  2.0209
 2580SOL     OW19372   0.009   0.246   2.119  0.5025 -0.2718  0.6857
 2580SOL    HW119373   4.703   0.161   2.128 -1.1273  0.2559 -2.0917
 2580SOL    HW219374   4.725   0.260   2.026  2.4348  0.8525  0.4209
 2581SOL     OW19375   4.098   2.082  17.320 -0.5200 -0.6023  0.0637
 2581SOL    HW119376   4.157   2.013  17.350  1.7188  0.9643 -0.6934
 2581SOL    HW219377   4.088   2.124  17.405 -0.8209 -0.4911 -0.0274
 2582SOL     OW19378   3.923   0.915   9.099  0.6206  0.3191  0.3873
 2582SOL    HW119379   3.830   0.894   9.097  0.3297  1.5161  1.5242
 2582SOL    HW219380   3.965   0.838   9.138 -1.6493 -0.7886  0.6478
 2583SOL     OW19381   3.809   1.066  12.072 -0.0906 -0.0762  0.9225
 2583SOL    HW119382   3.730   1.075  12.018 -0.3173 -0.1243  1.2418
 2583SOL    HW219383   3.843   1.154  12.084  0.0549 -0.2019  1.4149
 2584SOL     OW19384   0.621   3.616   9.229  0.2966  0.1056 -0.5327
 2584SOL    HW119385   0.620   3.570   9.145  0.2901  1.3627 -1.2366
 2584SOL    HW219386   0.538   3.663   9.216  0.0780 -0.7523 -2.3602
 2585SOL     OW19387   0.389   1.053   6.911  0.5287 -0.1025 -0.1784
 2585SOL    HW119388   0.376   0.958   6.902  1.1618 -0.1633 -0.4398
 2585SOL    HW219389   0.355   1.078   6.997 -0.5433 -1.1254 -0.3027
 2586SOL     OW19390   0.060   2.368  17.197 -0.0787  0.0831 -0.7177
 2586SOL    HW119391   0.095   2.437  17.254 -3.7092  0.2111  1.3906
 2586SOL    HW219392   0.015   2.425  17.135  0.8604  0.8606 -0.6969
 2587SOL     OW19393   1.729   3.942  12.495 -0.0709 -0.3867 -0.4873
 2587SOL    HW119394   1.723   3.979  12.407  0.1049 -0.2630 -0.4458
 2587SOL    HW219395   1.785   4.004  12.541  0.8356 -0.3928 -1.5825
 2588SOL     OW19396   3.024   4.646   5.334 -0.1814 -0.0823 -0.0397
 2588SOL    HW119397   2.973   4.720   5.301  1.2387 -0.2876 -2.7175
 2588SOL    HW219398   3.063   4.667   5.419  1.0451 -1.0134 -0.3611
 2589SOL     OW19399   4.101   2.028   5.065 -0.0328  0.6591  0.0992
 2589SOL    HW119400   4.184   1.985   5.046 -0.2541 -0.4765  1.6920
 2589SOL    HW219401   4.100   2.110   5.015 -0.9799  1.0572  0.7735
 2590SOL     OW19402   3.837   3.029   3.624  0.1317  0.0414  0.0251
 2590SOL    HW119403   3.921   3.045   3.580  0.2659  1.9986  0.9973
 2590SOL    HW219404   3.862   2.958   3.683 -0.6450 -0.6537 -0.4895
 2591SOL     OW19405   1.176   3.546   2.259  0.2354  0.3484 -0.1544
 2591SOL    HW119406   1.173   3.552   2.164  0.6450  0.8930 -0.1308
 2591SOL    HW219407   1.177   3.639   2.282  1.0361  0.4870 -0.7635
 2592SOL     OW19408   3.381   4.034   5.609 -0.1783 -0.4181 -0.7826
 2592SOL    HW119409   3.302   4.075   5.643  1.0945  1.2289  0.1777
 2592SOL    HW219410   3.390   3.964   5.674  0.5821 -1.0609 -1.5687
 2593SOL     OW19411   1.721   0.768   8.787 -0.5300 -0.3092 -0.5721
 2593SOL    HW119412   1.679   0.694   8.830 -0.3417  0.9761  1.7840
 2593SOL    HW219413   1.815   0.749   8.798 -0.6306 -1.7171 -2.0429
 2594SOL     OW19414   2.332   1.008  16.660 -0.3742  0.3167 -0.0874
 2594SOL    HW119415   2.426   0.999  16.646 -0.4411 -1.4442  0.6857
 2594SOL    HW219416   2.339   1.056  16.743  2.6427  0.0536 -0.1877
 2595SOL     OW19417   3.668   4.391   6.860  0.0444  0.0174 -0.1647
 2595SOL    HW119418   3.612   4.364   6.786 -1.0013  0.4353  0.4749
 2595SOL    HW219419   3.688   4.481   6.834 -0.9940 -0.0587 -1.2529
 2596SOL     OW19420   4.393   1.915   3.602 -0.5139  0.2897  0.3782
 2596SOL    HW119421   4.323   1.863   3.641  0.1398 -2.7857 -2.4791
 2596SOL    HW219422   4.422   1.846   3.542  0.0204  0.9477 -0.1320
 2597SOL     OW19423   1.356   2.645   6.201 -0.3287 -0.1581 -0.1087
 2597SOL    HW119424   1.424   2.577   6.200 -0.5099 -0.3398 -0.1062
 2597SOL    HW219425   1.408   2.724   6.185 -0.9950  0.5398  1.2235
 2598SOL     OW19426   0.696   3.340   0.212  0.2086 -0.4496  0.0881
 2598SOL    HW119427   0.616   3.379   0.177  0.9868  1.5327  0.5424
 2598SOL    HW219428   0.692   3.347   0.308  2.4737  0.4643  0.0969
 2599SOL     OW19429   4.262   0.221   5.087 -0.9122  0.1448 -0.4578
 2599SOL    HW119430   4.251   0.242   5.180 -1.2999  0.8693 -0.6665
 2599SOL    HW219431   4.300   0.134   5.091 -3.2703 -0.8860 -0.3242
 2600SOL     OW19432   0.974   0.943   3.045 -0.1135  0.0149  0.0085
 2600SOL    HW119433   0.915   0.936   2.970  0.8278 -2.5556 -0.4663
 2600SOL    HW219434   1.048   0.889   3.019 -0.6666 -0.5705 -0.3285
 2601SOL     OW19435   1.763   0.954  14.878 -0.0323 -0.0521 -0.3370
 2601SOL    HW119436   1.817   1.034  14.879 -2.2667  1.4610 -1.9217
 2601SOL    HW219437   1.707   0.951  14.956 -0.0602  0.3035 -0.3421
 2602SOL     OW19438   1.405   2.271   8.408 -0.0710  0.2981 -0.1719
 2602SOL    HW119439   1.491   2.258   8.367  0.3529  1.0876  0.4554
 2602SOL    HW219440   1.347   2.305   8.340  0.2247 -0.5206 -0.8427
 2603SOL     OW19441   4.446   3.220   3.135 -0.2665 -0.1488 -0.2190
 2603SOL    HW119442   4.505   3.265   3.196 -1.9843  1.6090  0.1334
 2603SOL    HW219443   4.379   3.177   3.188 -0.4137 -1.5247 -1.5221
 2604SOL     OW19444   1.908   4.559   8.062 -0.3054  0.0536  0.3547
 2604SOL    HW119445   1.865   4.480   8.094  2.1620 -1.0534  0.9469
 2604SOL    HW219446   1.935   4.549   7.970  0.5581 -2.8425  0.9242
 2605SOL     OW19447   2.760   4.667   1.964 -0.3665  0.2436 -0.3308
 2605SOL    HW119448   2.831   4.613   1.930 -2.1844 -0.9768 -2.2076
 2605SOL    HW219449   2.789   0.021   1.954 -1.0288  0.3136 -1.7442
 2606SOL     OW19450   4.400   0.539   8.567  0.7494 -0.2323 -0.0538
 2606SOL    HW119451   4.488   0.571   8.552 -0.2679  1.8972 -1.4747
 2606SOL    HW219452   4.359   0.572   8.487  2.7597  1.9595 -0.1785
 2607SOL     OW19453   1.755   3.400   4.937  0.1849  0.1997 -0.2404
 2607SOL    HW119454   1.844   3.424   4.961  0.2231  2.2050 -2.3909
 2607SOL    HW219455   1.719   3.366   5.019 -0.0023 -1.8770 -1.1749
 2608SOL     OW19456   4.571   1.235   0.058 -0.4491  0.0628 -0.4635
 2608SOL    HW119457   4.633   1.291   0.011  1.7314 -2.7422 -0.9167
 2608SOL    HW219458   4.636   1.205   0.121 -2.9091 -0.6087  1.7602
 2609SOL     OW19459   3.997   4.137   7.033 -0.0995 -0.0625 -0.5156
 2609SOL    HW119460   3.923   4.157   7.091  0.2981 -0.4592  0.1341
 2609SOL    HW219461   4.045   4.065   7.075 -1.1585 -1.6934 -2.1232
 2610SOL     OW19462   3.584   2.469   5.601  0.0459  0.2502 -0.7665
 2610SOL    HW119463   3.579   2.557   5.563  0.4504  0.5382 -0.1389
 2610SOL    HW219464   3.496   2.447   5.571 -0.9128 -0.1255  2.3288
 2611SOL     OW19465   1.811   0.463   5.718 -0.3027 -0.4381  0.0644
 2611SOL    HW119466   1.883   0.407   5.688 -1.3914 -1.7427 -0.1041
 2611SOL    HW219467   1.764   0.397   5.768 -1.1926 -1.4162 -2.0900
 2612SOL     OW19468   1.683   0.218   0.365  0.3157 -0.6551  0.0142
 2612SOL    HW119469   1.723   0.296   0.406  1.8433 -1.7315  0.5868
 2612SOL    HW219470   1.700   0.150   0.430  3.4601 -1.8576 -2.0428
 2613SOL     OW19471   1.032   4.635   6.049  0.7301  0.0204 -0.5382
 2613SOL    HW119472   1.040   4.664   5.958 -0.5080  2.3480  0.1043
 2613SOL    HW219473   0.995   4.709   6.097  2.3888  0.5292 -0.0405
 2614SOL     OW19474   2.423   4.126   1.707  0.1523  0.3426  0.0683
 2614SOL    HW119475   2.430   4.174   1.624 -3.2315 -2.0264 -1.5961
 2614SOL    HW219476   2.434   4.199   1.767 -2.7522 -0.0733  1.0998
 2615SOL     OW19477   1.432   0.193   3.454  0.1024 -0.1248 -0.7606
 2615SOL    HW119478   1.359   0.144   3.415  0.3025 -1.8982  1.1175
 2615SOL    HW219479   1.503   0.164   3.396  2.5541 -0.0402  2.2333
 2616SOL     OW19480   0.835   3.786  16.473  0.2838 -0.0294 -0.1229
 2616SOL    HW119481   0.871   3.844  16.540 -2.9101  1.0233  0.6730
 2616SOL    HW219482   0.742   3.807  16.480 -0.0895 -0.7824 -2.7382
 2617SOL     OW19483   2.510   1.488   1.913  0.2956  0.5697  0.2722
 2617SOL    HW119484   2.484   1.445   1.832  3.1636  1.1683 -0.9663
 2617SOL    HW219485   2.494   1.426   1.983 -0.7066 -1.7183 -1.9855
 2618SOL     OW19486   3.667   2.913   4.166  0.1242  0.2429  0.4145
 2618SOL    HW119487   3.685   2.827   4.203 -3.4365 -1.3598 -1.5213
 2618SOL    HW219488   3.686   2.973   4.239 -0.5036 -0.4421  1.1404
 2619SOL     OW19489   1.844   0.036   2.042 -0.1559  0.2370 -0.5722
 2619SOL    HW119490   1.895   4.695   2.021 -0.0334 -0.3566  1.9900
 2619SOL    HW219491   1.869   0.048   2.133  0.8097  0.1598 -0.8324
 2620SOL     OW19492   2.832   2.056   4.607 -0.1258  0.1119 -0.1033
 2620SOL    HW119493   2.807   2.066   4.698  0.1348 -3.3619  0.3543
 2620SOL    HW219494   2.820   2.140   4.563  0.5844 -0.2642 -1.0410
 2621SOL     OW19495   3.703   2.659   6.251 -0.8966 -0.3309 -0.0771
 2621SOL    HW119496   3.717   2.745   6.212 -2.4349 -0.5873 -1.1418
 2621SOL    HW219497   3.683   2.678   6.343 -1.0062 -0.9899  0.0333
 2622SOL     OW19498   4.356   2.373  15.670  0.2107  0.0145  0.1507
 2622SOL    HW119499   4.276   2.382  15.721  0.2442 -2.2641  0.5999
 2622SOL    HW219500   4.379   2.462  15.643 -0.4316  0.0452 -0.2806
 2623SOL     OW19501   1.422   2.646  14.707  0.7683  0.0817 -0.5001
 2623SOL    HW119502   1.361   2.683  14.643 -0.9287 -1.0470  0.4794
 2623SOL    HW219503   1.506   2.671  14.669 -0.1387  1.1843 -1.7909
 2624SOL     OW19504   1.662   0.467   4.926 -0.8871 -0.4072  0.5908
 2624SOL    HW119505   1.624   0.411   4.993  2.6495 -2.6918  0.6706
 2624SOL    HW219506   1.733   0.512   4.972  0.9746 -1.4345 -1.2808
 2625SOL     OW19507   4.566   3.803   7.550 -0.0332  0.2315 -0.7709
 2625SOL    HW119508   4.530   3.727   7.504  0.3511 -0.6329  0.3705
 2625SOL    HW219509   4.494   3.848   7.593 -0.3652 -0.7863 -0.2675
 2626SOL     OW19510   1.475   0.364   2.323 -0.2401  0.2866  0.0460
 2626SOL    HW119511   1.494   0.275   2.294 -2.3900 -0.8158  1.9314
 2626SOL    HW219512   1.410   0.353   2.393  1.7067  0.4737  1.8542
 2627SOL     OW19513   1.162   3.331  10.121 -0.3346  0.3973 -0.1211
 2627SOL    HW119514   1.116   3.282  10.052 -1.4068 -0.3004  1.0816
 2627SOL    HW219515   1.239   3.276  10.131 -1.1087 -1.1119 -2.2685
 2628SOL     OW19516   2.141   1.531  13.946  0.4252  0.3692 -0.1308
 2628SOL    HW119517   2.158   1.470  13.873  1.2502  0.1257  0.2584
 2628SOL    HW219518   2.168   1.619  13.921  1.6162  0.1673  0.4666
 2629SOL     OW19519   0.083   2.873   9.091  0.0148  0.1892 -0.1889
 2629SOL    HW119520   0.044   2.944   9.142  0.4629 -0.6045  1.2628
 2629SOL    HW219521   0.175   2.896   9.104 -0.2499  0.4463  1.1976
 2630SOL     OW19522   3.690   4.705   1.446 -0.1454 -0.3254 -0.4716
 2630SOL    HW119523   3.757   4.647   1.411 -3.0298 -2.6648 -2.1350
 2630SOL    HW219524   3.618   4.679   1.387 -0.3982 -0.5196 -0.0775
 2631SOL     OW19525   1.721   4.385   7.156 -0.5247  0.2334 -0.6635
 2631SOL    HW119526   1.728   4.435   7.237  0.2160  0.6651 -0.9955
 2631SOL    HW219527   1.687   4.303   7.190 -1.4979  0.4435 -1.1181
 2632SOL     OW19528   0.540   2.053   4.075 -0.1118 -0.2544 -0.3031
 2632SOL    HW119529   0.613   2.111   4.053  1.3979 -2.2687 -0.5554
 2632SOL    HW219530   0.465   2.108   4.094  0.9541  0.3868  2.1339
 2633SOL     OW19531   2.031   2.129   9.605 -0.1876  0.7176  0.3089
 2633SOL    HW119532   2.106   2.071   9.591 -0.4563  0.0814  1.4670
 2633SOL    HW219533   2.068   2.216   9.590  1.3313 -0.3362 -2.0691
 2634SOL     OW19534   0.886   3.548   4.228  0.4724 -0.0726 -0.6678
 2634SOL    HW119535   0.939   3.627   4.244  0.5750  0.3121 -2.8184
 2634SOL    HW219536   0.938   3.497   4.166 -0.2275  1.1989 -2.3080
 2635SOL     OW19537   2.332   4.264   9.210  0.7417 -0.5170  0.1884
 2635SOL    HW119538   2.405   4.324   9.224  1.1729 -1.2387  1.0520
 2635SOL    HW219539   2.370   4.180   9.238  2.0279 -0.1562 -0.4354
 2636SOL     OW19540   2.245   3.044   3.871  0.2481  0.4111 -0.3203
 2636SOL    HW119541   2.210   3.040   3.960  0.3273 -0.0023 -0.3063
 2636SOL    HW219542   2.302   2.967   3.879  1.8249  1.3941 -2.0768
 2637SOL     OW19543   2.562   0.390  13.045  0.1899  0.1895 -0.9691
 2637SOL    HW119544   2.573   0.443  12.966  1.1182  0.5008 -0.6343
 2637SOL    HW219545   2.476   0.352  13.031  0.7791 -1.4453 -0.1780
 2638SOL     OW19546   1.841   0.692   7.990 -0.5567  0.8738  0.4588
 2638SOL    HW119547   1.815   0.783   7.979  0.6201  1.1221 -0.2713
 2638SOL    HW219548   1.764   0.650   8.029 -0.8556  1.0777  0.0872
 2639SOL     OW19549   2.932   1.612  17.045 -0.0529 -0.0357  0.4357
 2639SOL    HW119550   2.851   1.596  16.996 -0.1492  2.5536 -0.2602
 2639SOL    HW219551   2.972   1.678  16.988  0.2289 -0.5584  0.0272
 2640SOL     OW19552   2.025   1.639  12.853  0.1909 -0.0898 -0.4521
 2640SOL    HW119553   2.069   1.701  12.795  0.7989  0.6198  0.7685
 2640SOL    HW219554   1.935   1.672  12.853  0.5595  0.9267 -0.6144
 2641SOL     OW19555   2.152   1.689   8.981  0.1759 -0.8355  0.2105
 2641SOL    HW119556   2.230   1.635   8.986  1.0680  0.4191 -0.2259
 2641SOL    HW219557   2.175   1.769   9.027 -3.3711  0.0856  0.4486
 2642SOL     OW19558   4.576   3.049   5.808 -0.3647  1.0285 -0.3016
 2642SOL    HW119559   4.638   2.976   5.807 -1.1454  0.3598 -0.4746
 2642SOL    HW219560   4.513   3.012   5.746  0.4107 -0.4332 -0.2120
 2643SOL     OW19561   2.607   1.437   8.381 -0.3950 -0.2188  0.0799
 2643SOL    HW119562   2.679   1.374   8.372  0.0874  0.5274 -1.3800
 2643SOL    HW219563   2.609   1.467   8.472  0.3616  1.6131 -0.5373
 2644SOL     OW19564   1.298   1.845   8.674 -0.2722  0.3383 -0.4651
 2644SOL    HW119565   1.348   1.903   8.731 -2.8738  1.1332  0.9667
 2644SOL    HW219566   1.223   1.904   8.672  1.7854  2.9859 -0.4314
 2645SOL     OW19567   0.944   0.586  12.817  0.0862  0.5699 -0.0682
 2645SOL    HW119568   0.999   0.654  12.855 -0.4866  0.3776  1.0996
 2645SOL    HW219569   1.000   0.509  12.809  0.1333  0.7303 -1.2141
 2646SOL     OW19570   3.403   1.663   8.846 -0.1163 -0.2949  0.0414
 2646SOL    HW119571   3.421   1.736   8.787  0.0239 -1.1786 -1.0078
 2646SOL    HW219572   3.458   1.692   8.919  1.4667  0.0499 -1.2627
 2647SOL     OW19573   2.095   2.184   4.896 -0.4012  0.3144 -0.0623
 2647SOL    HW119574   2.017   2.146   4.857 -1.2368  0.8820  1.0639
 2647SOL    HW219575   2.075   2.276   4.881 -0.3759  0.1620 -1.0313
 2648SOL     OW19576   3.532   2.336   3.909 -0.4742 -0.1544 -0.7406
 2648SOL    HW119577   3.459   2.385   3.946  1.9026  1.4491  1.8331
 2648SOL    HW219578   3.602   2.401   3.902  0.4208 -0.8411  1.8944
 2649SOL     OW19579   2.583   2.258   8.796  0.0088  0.0640  0.6706
 2649SOL    HW119580   2.527   2.256   8.873 -0.7402 -1.7448  0.0655
 2649SOL    HW219581   2.545   2.194   8.736 -3.4314  0.4555  2.4633
 2650SOL     OW19582   0.798   1.175   4.395 -0.3896 -0.0642 -0.3213
 2650SOL    HW119583   0.746   1.146   4.320  1.5486  1.2660 -2.2096
 2650SOL    HW219584   0.877   1.122   4.388  0.9769  1.4705  3.6377
 2651SOL     OW19585   2.647   4.113  12.931 -0.8794 -0.1047 -0.1672
 2651SOL    HW119586   2.663   4.096  12.839  1.2460  0.7083  0.0475
 2651SOL    HW219587   2.603   4.033  12.958  0.5977 -0.5052  1.0754
 2652SOL     OW19588   3.060   4.217   3.921  0.4187  0.2878  0.4034
 2652SOL    HW119589   3.040   4.274   3.995  1.6179  0.8480  0.2805
 2652SOL    HW219590   3.080   4.137   3.969 -0.9236  0.4989  1.2955
 2653SOL     OW19591   2.675   2.222  12.578 -0.3348 -0.2131  0.0299
 2653SOL    HW119592   2.625   2.154  12.533 -0.4382  0.9794 -1.6416
 2653SOL    HW219593   2.687   2.181  12.664  1.7592 -1.6415 -0.9253
 2654SOL     OW19594   2.666   2.175   5.369 -0.0347  0.1450  0.1841
 2654SOL    HW119595   2.589   2.230   5.384  0.9697  1.5944 -0.0561
 2654SOL    HW219596   2.644   2.082   5.382  0.3917  0.0738  0.4176
 2655SOL     OW19597   1.497   1.933   4.620  0.2333 -0.3642 -0.4228
 2655SOL    HW119598   1.536   1.950   4.705 -0.5902  1.9002 -0.4864
 2655SOL    HW219599   1.410   1.912   4.653  0.1210  1.1395  0.2614
 2656SOL     OW19600   1.520   2.943   3.932  0.2436 -0.1832 -0.5949
 2656SOL    HW119601   1.462   2.912   4.001  0.1364 -4.9751 -2.8656
 2656SOL    HW219602   1.521   2.868   3.872  2.7907 -1.0662  0.5837
 2657SOL     OW19603   4.017   2.334   8.729 -0.5158 -0.3526 -0.2443
 2657SOL    HW119604   3.963   2.332   8.808  0.7497 -0.3405  0.6203
 2657SOL    HW219605   4.029   2.240   8.718  0.2588 -0.1077 -1.5044
 2658SOL     OW19606   0.018   4.503  13.112  0.2702  0.1426  0.1019
 2658SOL    HW119607   4.726   4.462  13.031  0.0034  0.1362  0.1981
 2658SOL    HW219608   4.687   4.567  13.135  1.1934  2.0292 -2.4811
 2659SOL     OW19609   3.378   0.920   3.688  0.5951  0.2629 -0.0536
 2659SOL    HW119610   3.471   0.907   3.704  0.5851 -2.3587 -2.0920
 2659SOL    HW219611   3.337   0.867   3.756  0.4719  3.6279  2.4829
 2660SOL     OW19612   0.883   3.234   1.307 -0.1745  0.7473 -0.4667
 2660SOL    HW119613   0.935   3.154   1.315 -1.2755 -0.1161 -1.8118
 2660SOL    HW219614   0.800   3.188   1.316 -0.4751  1.2364 -0.7383
 2661SOL     OW19615   4.384   4.330   6.108  0.5047  0.0041 -0.2552
 2661SOL    HW119616   4.354   4.362   6.023 -0.2094 -0.2892 -0.1156
 2661SOL    HW219617   4.470   4.315   6.070  1.3715 -0.1958  1.7638
 2662SOL     OW19618   2.534   0.226   7.647 -0.1165 -0.0154  0.2158
 2662SOL    HW119619   2.471   0.288   7.611  0.4686 -0.3678 -1.4090
 2662SOL    HW219620   2.611   0.279   7.626  0.9289 -1.2590  0.9220
 2663SOL     OW19621   3.134   3.765   5.648 -0.0768 -0.3177  0.0594
 2663SOL    HW119622   3.043   3.743   5.670  0.2833 -1.3311  0.5552
 2663SOL    HW219623   3.149   3.846   5.696  0.5149 -0.4935  0.1734
 2664SOL     OW19624   1.479   2.267   7.172 -0.4683  0.2531  0.1005
 2664SOL    HW119625   1.492   2.213   7.250 -2.4959 -0.6508 -0.1788
 2664SOL    HW219626   1.398   2.308   7.202 -0.4383  0.8406 -0.6325
 2665SOL     OW19627   4.441   4.211   8.507 -0.4208 -0.1896 -0.0443
 2665SOL    HW119628   4.508   4.243   8.566 -0.3529  1.4809 -1.0388
 2665SOL    HW219629   4.378   4.157   8.555 -2.1113  1.9949  0.2122
 2666SOL     OW19630   1.135   4.290  11.498  0.0507 -0.1224 -0.0322
 2666SOL    HW119631   1.166   4.355  11.560  0.1832 -0.8811  0.7021
 2666SOL    HW219632   1.107   4.350  11.429 -1.8331  0.4940  1.2720
 2667SOL     OW19633   2.834   3.363  13.788  0.2448  0.0690  0.2381
 2667SOL    HW119634   2.778   3.393  13.859 -0.2064 -0.3527  0.0554
 2667SOL    HW219635   2.799   3.279  13.759  3.2930 -0.9010 -0.6569
 2668SOL     OW19636   3.444   3.274   2.240  0.4913  0.0344 -0.2456
 2668SOL    HW119637   3.351   3.256   2.236  0.6518 -0.6407 -1.0500
 2668SOL    HW219638   3.451   3.274   2.335  1.9976  0.2512 -0.3520
 2669SOL     OW19639   0.005   3.907  12.182 -0.0446  0.1157 -0.0124
 2669SOL    HW119640   4.729   3.998  12.210 -2.1102  0.0372 -0.6944
 2669SOL    HW219641   4.717   3.849  12.255 -0.7084  1.5537  0.8952
 2670SOL     OW19642   1.650   4.225   4.777 -0.3101  0.1740 -0.3052
 2670SOL    HW119643   1.574   4.203   4.723  0.2039 -0.0037 -0.9625
 2670SOL    HW219644   1.675   4.311   4.742 -1.9269  1.7570  2.4602
 2671SOL     OW19645   0.040   0.774  16.514  0.2694 -0.2193  0.2185
 2671SOL    HW119646   4.719   0.809  16.446  0.7423  0.4512  0.1603
 2671SOL    HW219647   0.099   0.849  16.521 -0.8957  0.5562  1.8767
 2672SOL     OW19648   0.848   4.198   6.764  0.4126  0.1877  0.2749
 2672SOL    HW119649   0.871   4.203   6.671  0.7144 -1.4586  0.2698
 2672SOL    HW219650   0.822   4.290   6.776 -0.5868  0.1575 -1.6326
 2673SOL     OW19651   3.664   1.133  17.358  0.1760 -0.3399 -0.0422
 2673SOL    HW119652   3.576   1.169  17.352  0.3672  0.0601 -0.3960
 2673SOL    HW219653   3.724   1.206  17.373 -1.3672  1.0133 -0.5651
 2674SOL     OW19654   1.067   1.859  12.282  0.2823  0.2445  0.0574
 2674SOL    HW119655   1.141   1.822  12.331 -0.7685 -0.9101  0.7882
 2674SOL    HW219656   1.093   1.951  12.275 -2.8432  1.1949  0.7453
 2675SOL     OW19657   4.258   4.342  10.066 -0.5536 -0.3460 -0.1758
 2675SOL    HW119658   4.197   4.396  10.117 -0.4885 -1.7425  1.3692
 2675SOL    HW219659   4.306   4.412  10.023 -1.8844  0.2067 -0.7660
 2676SOL     OW19660   3.645   0.247   1.348  0.3542  0.1311  0.0655
 2676SOL    HW119661   3.723   0.266   1.400  1.0062 -1.3019 -0.3853
 2676SOL    HW219662   3.599   0.188   1.408 -0.2750  1.0081  0.4479
 2677SOL     OW19663   3.055   4.319   7.148 -0.2015  0.0724  0.6992
 2677SOL    HW119664   3.099   4.391   7.194  1.3181 -1.0937  1.0641
 2677SOL    HW219665   2.964   4.339   7.171 -0.5755  0.3933 -1.0692
 2678SOL     OW19666   1.840   2.747   2.852 -0.3806 -0.1258 -0.5854
 2678SOL    HW119667   1.835   2.657   2.820 -0.9845 -0.0834 -0.6192
 2678SOL    HW219668   1.904   2.777   2.788  0.4276  2.0143  1.2319
 2679SOL     OW19669   3.551   0.042  13.707 -0.1113  0.0516 -0.4711
 2679SOL    HW119670   3.484   0.025  13.640 -0.3622  1.4392 -0.5776
 2679SOL    HW219671   3.605   4.702  13.725 -2.0901 -1.3784 -0.6078
 2680SOL     OW19672   1.482   1.607   8.244 -0.1247 -0.8259  0.1150
 2680SOL    HW119673   1.495   1.657   8.325  1.7699 -0.8615 -0.1707
 2680SOL    HW219674   1.573   1.583   8.224  0.4301 -0.3435  2.0481
 2681SOL     OW19675   4.388   0.977   9.872  0.2062  0.1647 -0.5208
 2681SOL    HW119676   4.353   0.889   9.865 -1.8915  1.0446 -1.1079
 2681SOL    HW219677   4.364   1.011   9.958  0.5690  1.2211 -0.8259
 2682SOL     OW19678   0.675   4.143   5.645 -0.3506 -0.3374 -0.3731
 2682SOL    HW119679   0.760   4.099   5.653 -0.4640 -0.5617 -0.3874
 2682SOL    HW219680   0.701   4.226   5.606 -0.5742 -1.0011 -1.9401
 2683SOL     OW19681   0.371   3.587   1.743 -0.1558 -0.3175 -0.4631
 2683SOL    HW119682   0.411   3.547   1.820  0.7886  0.9966 -0.2694
 2683SOL    HW219683   0.315   3.643   1.796  0.3200 -2.0143  1.8084
 2684SOL     OW19684   2.792   2.425   7.602 -0.2414  0.1840  0.5357
 2684SOL    HW119685   2.765   2.455   7.516 -0.5582  1.6067  1.1353
 2684SOL    HW219686   2.810   2.512   7.636  1.5571 -0.6600  1.7885
 2685SOL     OW19687   0.845   3.389  14.036 -0.0795  0.2697  0.1771
 2685SOL    HW119688   0.929   3.343  14.041  0.9216  2.2408  1.7261
 2685SOL    HW219689   0.856   3.452  13.965  0.5793 -0.0203  0.0268
 2686SOL     OW19690   0.157   4.250   8.251  0.3399  0.4963  0.1797
 2686SOL    HW119691   0.229   4.187   8.258 -2.5668 -2.7120  1.1713
 2686SOL    HW219692   0.094   4.201   8.198  1.5092 -0.7293 -0.0923
 2687SOL     OW19693   2.013   2.031  15.560 -0.3290 -0.7794  0.0396
 2687SOL    HW119694   1.979   2.116  15.531 -0.4089 -1.1083 -0.8185
 2687SOL    HW219695   1.963   2.020  15.641  0.3493 -3.2129  0.1160
 2688SOL     OW19696   1.157   2.058   2.384  0.6323 -0.3247 -0.3627
 2688SOL    HW119697   1.240   2.039   2.340  0.8951 -1.4902  0.6226
 2688SOL    HW219698   1.139   2.144   2.347  0.0516 -0.6353 -0.8076
 2689SOL     OW19699   3.343   2.962   3.637  0.0874  0.2037  0.2188
 2689SOL    HW119700   3.351   2.868   3.656 -0.1375  0.1228 -0.0888
 2689SOL    HW219701   3.427   2.989   3.601 -1.4442  2.5002 -1.6414
 2690SOL     OW19702   3.085   0.143   1.118 -0.2482 -0.1312  0.6946
 2690SOL    HW119703   3.041   0.205   1.060 -0.0225 -1.7161 -1.1430
 2690SOL    HW219704   3.143   0.093   1.060 -0.6719  0.7466 -0.4831
 2691SOL     OW19705   4.478   0.712   9.210  0.3618 -0.4354  0.1248
 2691SOL    HW119706   4.537   0.714   9.286 -3.5369 -0.7284  3.1756
 2691SOL    HW219707   4.407   0.655   9.241 -0.8927  0.7198 -0.6392
 2692SOL     OW19708   1.940   3.348  16.853 -0.1745 -0.1353 -0.2321
 2692SOL    HW119709   1.878   3.418  16.834  0.6364  1.2310  2.1118
 2692SOL    HW219710   2.000   3.365  16.781  0.2672 -2.4230 -0.4010
 2693SOL     OW19711   4.298   2.470  17.371 -0.5965 -0.5225  0.4747
 2693SOL    HW119712   4.238   2.507  17.306 -0.3481 -0.0688  0.5024
 2693SOL    HW219713   4.279   2.527  17.445  0.8460 -2.5276  2.3820
 2694SOL     OW19714   1.680   2.421  12.520  0.4976 -0.3571 -0.4962
 2694SOL    HW119715   1.703   2.364  12.594 -1.6504 -0.0104  0.4354
 2694SOL    HW219716   1.628   2.376  12.454 -0.4083 -1.6757  1.1122
 2695SOL     OW19717   1.947   2.223   7.115 -0.3760 -0.1462  0.7791
 2695SOL    HW119718   1.901   2.273   7.182 -0.2265  0.7082  0.2473
 2695SOL    HW219719   2.032   2.203   7.155  0.2663 -0.9742 -1.0149
 2696SOL     OW19720   2.660   3.730   4.887  0.3076  0.1304  0.4817
 2696SOL    HW119721   2.740   3.679   4.889 -1.7533 -3.2485 -3.4109
 2696SOL    HW219722   2.664   3.766   4.976 -1.2113 -1.6687  1.2796
 2697SOL     OW19723   2.590   0.534   1.743  0.2832 -0.2080  0.4807
 2697SOL    HW119724   2.611   0.530   1.836  1.6531 -1.2379  0.1394
 2697SOL    HW219725   2.660   0.490   1.695  0.7619  1.1633 -0.0798
 2698SOL     OW19726   2.174   0.657   8.571 -0.3324 -0.3669 -0.0337
 2698SOL    HW119727   2.113   0.730   8.561 -1.9385 -1.6143  0.7213
 2698SOL    HW219728   2.153   0.605   8.492 -1.6657  1.1352 -0.6762
 2699SOL     OW19729   0.162   3.064  13.232 -0.2840  0.4708  0.0467
 2699SOL    HW119730   0.206   3.149  13.225 -0.0343  0.1764 -1.8612
 2699SOL    HW219731   0.234   3.009  13.201 -0.5948 -0.4132  0.8809
 2700SOL     OW19732   1.101   2.925   3.634 -0.3799 -0.3221  0.3656
 2700SOL    HW119733   1.180   2.876   3.659  0.0756 -0.1878 -0.8132
 2700SOL    HW219734   1.057   2.920   3.719  0.4968 -1.0447  0.7859
 2701SOL     OW19735   0.915   2.259  16.782  0.3957 -0.2355  0.5874
 2701SOL    HW119736   0.872   2.341  16.757  1.1118  0.0221  0.1864
 2701SOL    HW219737   0.964   2.243  16.701 -0.5984 -2.9058  0.5289
 2702SOL     OW19738   4.262   3.145   8.502  0.1916 -0.3529 -0.4937
 2702SOL    HW119739   4.189   3.178   8.449  0.8876  2.5729  0.3633
 2702SOL    HW219740   4.292   3.073   8.447  0.2500 -0.6035 -0.1313
 2703SOL     OW19741   3.576   1.605   7.989 -0.3299 -0.0018  0.3144
 2703SOL    HW119742   3.633   1.543   8.033  0.0202  1.0878  1.3986
 2703SOL    HW219743   3.572   1.565   7.903 -1.8370  2.3161 -0.7083
 2704SOL     OW19744   0.249   0.130   2.195 -0.2118  0.0756  0.4934
 2704SOL    HW119745   0.171   0.161   2.149 -0.0808 -1.7920 -0.9683
 2704SOL    HW219746   0.219   0.039   2.196 -0.4440  0.1715  1.6275
 2705SOL     OW19747   1.213   3.513   3.432  0.3367  0.1428  0.0944
 2705SOL    HW119748   1.133   3.461   3.435 -0.8119  1.9182  0.2949
 2705SOL    HW219749   1.258   3.459   3.497 -1.5589  1.1081  2.2352
 2706SOL     OW19750   3.136   3.874   9.373  0.3195 -0.9569 -0.0614
 2706SOL    HW119751   3.108   3.793   9.415  1.2550  0.1544  2.6939
 2706SOL    HW219752   3.053   3.918   9.352  0.3107 -0.6462  0.6312
 2707SOL     OW19753   0.465   3.929   5.012 -0.6883 -0.6038 -0.5702
 2707SOL    HW119754   0.498   3.887   4.933  0.1120  0.9951 -1.0916
 2707SOL    HW219755   0.370   3.929   5.005 -0.8216  3.4137  1.1510
 2708SOL     OW19756   3.955   0.075  17.012 -0.4303 -0.0946  0.0592
 2708SOL    HW119757   3.886   0.140  17.012  0.3696  0.7514  1.4386
 2708SOL    HW219758   3.945   0.026  17.094  4.5000 -1.2306 -0.0091
 2709SOL     OW19759   4.465   3.837   5.554 -0.2043 -0.1325  0.1737
 2709SOL    HW119760   4.409   3.761   5.568 -0.7422  0.6437  2.2605
 2709SOL    HW219761   4.495   3.832   5.463 -1.8774 -1.3703 -0.3079
 2710SOL     OW19762   0.991   0.643   2.643  0.1738  0.5627 -0.1703
 2710SOL    HW119763   0.906   0.652   2.685  0.0138  1.0536 -0.5901
 2710SOL    HW219764   0.992   0.721   2.586 -2.2216  0.7954  0.1068
 2711SOL     OW19765   1.298   0.265  11.473 -0.2339 -0.0395  0.0568
 2711SOL    HW119766   1.309   0.353  11.438 -2.1089  0.1293 -0.1431
 2711SOL    HW219767   1.299   0.272  11.568 -0.0198  0.4356  0.0146
 2712SOL     OW19768   4.640   1.797   2.338 -0.0294 -0.0454 -0.3212
 2712SOL    HW119769   4.612   1.820   2.427  0.4873  0.9462 -0.4141
 2712SOL    HW219770   4.639   1.701   2.338  0.8923 -0.0598  0.8081
 2713SOL     OW19771   4.159   2.382   3.796 -0.2661  0.0205 -0.4579
 2713SOL    HW119772   4.075   2.386   3.749 -1.6832 -1.3769  1.9897
 2713SOL    HW219773   4.143   2.362   3.888  1.5377  2.7979  0.4615
 2714SOL     OW19774   4.011   0.196   8.677 -0.5268  0.3577 -0.3196
 2714SOL    HW119775   4.049   0.284   8.673  1.1557 -0.3682 -0.3870
 2714SOL    HW219776   4.092   0.146   8.665  0.7450  2.0781  1.0908
 2715SOL     OW19777   0.508   0.016   4.015 -0.6546  0.6943 -0.0344
 2715SOL    HW119778   0.499   0.001   3.921  1.0690  0.5660 -0.1790
 2715SOL    HW219779   0.460   4.678   4.049 -1.2959  0.8057 -0.6879
 2716SOL     OW19780   4.065   2.651   6.480  0.0055 -0.2733 -0.0800
 2716SOL    HW119781   4.047   2.714   6.550  0.5557  1.0313 -1.1174
 2716SOL    HW219782   4.155   2.620   6.486 -0.0157 -0.5799 -1.3726
 2717SOL     OW19783   3.891   0.342  15.132 -0.1212 -0.7412 -0.2855
 2717SOL    HW119784   3.876   0.254  15.165  0.3795 -0.6014  0.3181
 2717SOL    HW219785   3.959   0.320  15.068  1.1248  1.5053  0.2584
 2718SOL     OW19786   0.365   0.356   2.850 -0.0761  0.4994 -0.4560
 2718SOL    HW119787   0.283   0.309   2.838  0.0427 -0.0675  1.0075
 2718SOL    HW219788   0.348   0.395   2.935  1.6983  2.1278 -0.8404
 2719SOL     OW19789   1.198   4.046   2.181  0.5544  0.2115  0.3968
 2719SOL    HW119790   1.253   4.082   2.111 -0.6801  0.6016 -0.3612
 2719SOL    HW219791   1.145   4.125   2.194 -0.2670  0.4240 -4.4478
 2720SOL     OW19792   2.492   4.668  16.435  0.0560  0.8288 -0.7851
 2720SOL    HW119793   2.573   4.692  16.481  0.6346  0.3361 -1.5541
 2720SOL    HW219794   2.510   4.581  16.401 -0.1018  0.0022  1.2073
 2721SOL     OW19795   2.805   2.417   9.779  0.4468  0.3260 -0.0803
 2721SOL    HW119796   2.794   2.352   9.849 -0.0351 -0.4862 -0.9152
 2721SOL    HW219797   2.717   2.445   9.757  1.1170  1.9423 -0.7214
 2722SOL     OW19798   0.264   4.245   4.199  0.2200 -0.1888 -0.3546
 2722SOL    HW119799   0.342   4.286   4.235  0.1781 -0.6256  0.2345
 2722SOL    HW219800   0.263   4.286   4.113  1.0196  1.6664  0.5272
 2723SOL     OW19801   3.471   4.567   6.555 -0.3299  0.1431  0.2175
 2723SOL    HW119802   3.447   4.475   6.542 -1.0895  0.0850  2.1068
 2723SOL    HW219803   3.506   4.586   6.468 -0.4320 -3.0164 -0.5307
 2724SOL     OW19804   4.712   4.091   5.533 -0.1184  0.1197 -0.6693
 2724SOL    HW119805   4.635   4.095   5.589  1.0551  0.4206  0.9313
 2724SOL    HW219806   0.045   4.099   5.597 -0.2266  1.1440 -0.6704
 2725SOL     OW19807   4.166   3.152   7.386  0.8453  0.2869 -0.2448
 2725SOL    HW119808   4.160   3.211   7.312 -3.0485  0.2095  0.0266
 2725SOL    HW219809   4.261   3.136   7.391  0.5798 -1.8848 -2.4133
 2726SOL     OW19810   1.515   3.378   5.457 -0.1022 -0.0592 -0.3621
 2726SOL    HW119811   1.508   3.385   5.552 -0.3243 -1.1348 -0.2977
 2726SOL    HW219812   1.552   3.466   5.444 -0.0840  0.0724  0.5885
 2727SOL     OW19813   3.492   1.435   6.468 -0.0081  0.0156  0.3795
 2727SOL    HW119814   3.584   1.418   6.448 -0.3261 -2.5849  1.1018
 2727SOL    HW219815   3.498   1.480   6.552  1.7835 -0.8401  0.7014
 2728SOL     OW19816   3.799   3.273  12.714 -0.6372  1.0405  0.5296
 2728SOL    HW119817   3.893   3.286  12.729 -1.0243  0.8508  3.1043
 2728SOL    HW219818   3.765   3.302  12.799 -0.4664  0.5729  0.7566
 2729SOL     OW19819   4.162   0.639  10.804 -0.4818  0.1445 -0.1591
 2729SOL    HW119820   4.242   0.664  10.850  0.0908 -1.4471 -0.3062
 2729SOL    HW219821   4.130   0.589  10.879 -0.6340  0.7278  0.1687
 2730SOL     OW19822   3.057   1.979   1.971 -0.5526  0.4170  0.2715
 2730SOL    HW119823   3.078   2.072   1.964 -0.2632  0.4439  1.4277
 2730SOL    HW219824   3.144   1.944   1.951 -0.1541  0.5106  1.8086
 2731SOL     OW19825   4.630   2.083   6.840 -0.1182 -0.0831  0.5997
 2731SOL    HW119826   4.684   2.107   6.764 -0.0334  0.0355  0.6974
 2731SOL    HW219827   4.609   2.170   6.874 -1.2350 -0.3828  0.6901
 2732SOL     OW19828   1.916   0.317   7.451  0.4322 -0.0854 -0.4847
 2732SOL    HW119829   1.856   0.335   7.379  1.7848 -1.5977 -2.0184
 2732SOL    HW219830   1.846   0.321   7.516  0.2579  3.4411 -0.9067
 2733SOL     OW19831   1.773   0.298   7.673 -0.2860 -0.0741  0.2787
 2733SOL    HW119832   1.677   0.303   7.680 -0.3805  2.0619 -2.7297
 2733SOL    HW219833   1.810   0.367   7.728  0.2354 -2.0626  2.3994
 2734SOL     OW19834   1.177   2.787   4.601  0.0775  0.3763 -0.0081
 2734SOL    HW119835   1.260   2.802   4.647 -0.6989  0.1551  1.4377
 2734SOL    HW219836   1.152   2.697   4.622  0.4265  0.4531  0.7328
 2735SOL     OW19837   2.630   2.377   2.779 -0.1653 -0.6074 -0.1159
 2735SOL    HW119838   2.662   2.409   2.864 -0.6138  1.2164 -0.6403
 2735SOL    HW219839   2.586   2.449   2.735  1.0582  1.4797  2.0772
 2736SOL     OW19840   0.677   2.004   2.531 -0.8299 -0.4100 -0.0929
 2736SOL    HW119841   0.725   1.927   2.500 -1.3705 -0.2031 -1.4270
 2736SOL    HW219842   0.740   2.075   2.541 -1.7901  0.2913  0.9297
 2737SOL     OW19843   3.930   0.599   3.604 -0.1400  0.3849 -0.0594
 2737SOL    HW119844   3.975   0.600   3.689 -0.1837 -0.6610 -0.0174
 2737SOL    HW219845   3.911   0.692   3.599  1.9904  0.8785  1.0092
 2738SOL     OW19846   4.123   1.760   5.509 -0.5570 -0.3183 -0.6942
 2738SOL    HW119847   4.199   1.785   5.456 -0.7546  0.1322 -0.7692
 2738SOL    HW219848   4.086   1.848   5.521 -1.1552 -0.4360 -1.6482
 2739SOL     OW19849   0.764   2.969   6.958 -0.5973 -0.2076 -0.4624
 2739SOL    HW119850   0.729   2.931   6.877 -0.3512  1.2001 -1.2237
 2739SOL    HW219851   0.855   2.943   6.946 -0.6052 -0.2324 -0.4688
 2740SOL     OW19852   0.239   3.196   7.392 -0.1512  0.9424 -0.4625
 2740SOL    HW119853   0.151   3.211   7.425 -0.8365 -1.9948 -0.9445
 2740SOL    HW219854   0.224   3.166   7.302  0.8276  2.2101 -1.0423
 2741SOL     OW19855   4.339   2.294  17.612  0.3300 -0.5095  0.2881
 2741SOL    HW119856   4.259   2.272  17.658 -0.4776 -0.5610 -1.1379
 2741SOL    HW219857   4.312   2.283  17.521  0.8400 -0.8726  0.1781
 2742SOL     OW19858   2.306   0.256  12.955  0.6783 -0.7138 -0.1129
 2742SOL    HW119859   2.310   0.184  12.891  1.9690 -1.2005  0.5174
 2742SOL    HW219860   2.259   0.215  13.027  1.6473 -1.1698  0.2577
 2743SOL     OW19861   4.315   3.323  16.725 -0.3444 -0.0576 -0.3083
 2743SOL    HW119862   4.357   3.408  16.713 -1.4082  0.4513 -0.3851
 2743SOL    HW219863   4.369   3.303  16.801 -2.0818  0.1784  0.9646
 2744SOL     OW19864   2.531   1.225  14.840 -0.1563 -0.7699  0.1430
 2744SOL    HW119865   2.474   1.208  14.765  0.8004 -1.2356 -0.4809
 2744SOL    HW219866   2.488   1.174  14.908  1.6379  0.9419  2.5576
 2745SOL     OW19867   2.861   0.976   7.240  0.2083 -0.2344  0.3931
 2745SOL    HW119868   2.787   0.934   7.284  0.3615  0.5047  1.3529
 2745SOL    HW219869   2.849   1.065   7.273  0.5534 -0.1928  0.4018
 2746SOL     OW19870   3.626   1.886   0.164 -0.4601 -0.1586  0.0633
 2746SOL    HW119871   3.558   1.859   0.102  1.7679  2.1116 -3.2931
 2746SOL    HW219872   3.697   1.823   0.153  1.0167  1.5311 -0.0656
 2747SOL     OW19873   2.461   1.664  10.384  0.5380 -0.2702  0.6143
 2747SOL    HW119874   2.448   1.714  10.465 -1.0490  0.1746  0.0806
 2747SOL    HW219875   2.484   1.580  10.425  3.3360  0.7467  1.1328
 2748SOL     OW19876   3.727   3.837  14.806  0.1648  0.1831  1.0254
 2748SOL    HW119877   3.758   3.822  14.896 -0.8681 -0.1036  1.3341
 2748SOL    HW219878   3.635   3.828  14.832  0.4666 -0.1665  1.9798
 2749SOL     OW19879   2.205   0.885   8.758  0.8151 -0.5262 -0.7353
 2749SOL    HW119880   2.274   0.886   8.691 -0.0530 -2.7868 -1.6652
 2749SOL    HW219881   2.163   0.802   8.736  1.8447 -1.2222 -0.0803
 2750SOL     OW19882   0.833   2.196   3.724  0.8402 -0.0090  0.3551
 2750SOL    HW119883   0.795   2.225   3.641  0.2137 -1.5744  0.1010
 2750SOL    HW219884   0.905   2.149   3.683  0.9274 -1.0578  1.7047
 2751SOL     OW19885   0.546   3.649   2.882  0.5873 -0.0109  0.5396
 2751SOL    HW119886   0.624   3.606   2.846  0.2360  0.7628 -1.1454
 2751SOL    HW219887   0.503   3.682   2.803 -3.5002 -2.5069  1.7011
 2752SOL     OW19888   3.675   1.994   1.472  0.0135  0.6102 -0.0450
 2752SOL    HW119889   3.628   2.077   1.480  0.5688  1.2560 -3.6432
 2752SOL    HW219890   3.613   1.940   1.422  1.2345 -0.5308 -0.3069
 2753SOL     OW19891   0.706   0.819  16.972  0.1930 -0.1414  0.5361
 2753SOL    HW119892   0.657   0.873  16.910  1.6473 -0.5145 -0.9358
 2753SOL    HW219893   0.764   0.885  17.012  0.7030 -0.1423 -0.2063
 2754SOL     OW19894   0.454   2.577   4.446 -0.5591  0.0154 -0.0827
 2754SOL    HW119895   0.520   2.589   4.514  1.2857 -1.4105 -1.6423
 2754SOL    HW219896   0.486   2.635   4.378  0.1627 -1.4128 -0.9452
 2755SOL     OW19897   2.606   3.966   5.543 -0.3531  0.5409  0.2601
 2755SOL    HW119898   2.670   4.011   5.487 -0.0281  0.1316  0.3063
 2755SOL    HW219899   2.642   3.878   5.550 -0.8001  0.1295 -2.4969
 2756SOL     OW19900   1.448   3.778   9.024  0.1298 -0.0506  0.3254
 2756SOL    HW119901   1.443   3.827   9.106  4.5925 -0.4852  0.8414
 2756SOL    HW219902   1.355   3.758   9.011  0.2816  0.8939 -2.2764
 2757SOL     OW19903   4.245   3.190   9.055  0.3177  0.0674 -0.0044
 2757SOL    HW119904   4.164   3.183   9.005 -0.2353 -1.9283  1.1573
 2757SOL    HW219905   4.225   3.161   9.144  1.2208 -1.0871 -0.1750
 2758SOL     OW19906   3.627   3.846   2.104  0.0579 -0.7825  0.1415
 2758SOL    HW119907   3.680   3.885   2.174  2.8140  1.1021 -2.9813
 2758SOL    HW219908   3.558   3.808   2.159  0.5968 -1.6055  0.2448
 2759SOL     OW19909   1.257   3.440  16.341 -0.0075  0.0710  0.1280
 2759SOL    HW119910   1.234   3.528  16.313 -0.1760 -0.8352 -2.5862
 2759SOL    HW219911   1.329   3.452  16.403 -1.1483  0.4057  1.3872
 2760SOL     OW19912   2.375   3.583   1.259 -0.0480  0.5033  0.2552
 2760SOL    HW119913   2.401   3.654   1.199 -1.8106  2.7094  2.0935
 2760SOL    HW219914   2.455   3.547   1.299 -1.5427 -1.0997  1.7829
 2761SOL     OW19915   1.629   1.607   8.753 -0.8767 -0.4841 -0.0025
 2761SOL    HW119916   1.703   1.666   8.770  0.0469 -2.0836  1.5734
 2761SOL    HW219917   1.632   1.559   8.836 -1.4303 -1.1721 -0.3878
 2762SOL     OW19918   4.063   2.367   2.507 -0.5914  0.3075  0.5203
 2762SOL    HW119919   4.017   2.284   2.503 -0.1568  0.0989 -0.1493
 2762SOL    HW219920   3.989   2.422   2.481  0.7465 -0.2023 -4.3701
 2763SOL     OW19921   2.158   0.337   8.523 -0.2909 -0.1016 -0.6191
 2763SOL    HW119922   2.156   0.302   8.434 -0.3145 -1.2971 -0.1453
 2763SOL    HW219923   2.247   0.318   8.555 -0.9921 -0.8470  0.9069
 2764SOL     OW19924   4.354   0.277   3.564 -0.1755 -0.4354  0.3154
 2764SOL    HW119925   4.299   0.238   3.631  1.5479 -4.2773 -0.5170
 2764SOL    HW219926   4.297   0.292   3.489 -0.5395 -0.3222  0.6203
 2765SOL     OW19927   0.800   0.526  10.441 -0.5543  0.1765 -0.2746
 2765SOL    HW119928   0.775   0.609  10.480 -0.2825  0.2093 -0.1736
 2765SOL    HW219929   0.798   0.464  10.514 -1.0677 -0.3021 -0.6917
 2766SOL     OW19930   0.811   4.164  12.691 -0.2562 -0.2532 -0.8570
 2766SOL    HW119931   0.778   4.226  12.756 -2.5871 -0.4903 -1.8445
 2766SOL    HW219932   0.838   4.230  12.627  2.6610 -1.7072 -1.1365
 2767SOL     OW19933   1.489   1.944   2.078  0.6121  0.2771  0.1062
 2767SOL    HW119934   1.544   1.930   2.001 -1.7687 -1.1118 -1.3474
 2767SOL    HW219935   1.457   2.033   2.066  0.2574  0.4911  2.7364
 2768SOL     OW19936   0.524   3.046  11.921  0.0856 -0.5272 -0.1590
 2768SOL    HW119937   0.615   3.020  11.936  1.2786  2.8579 -1.5908
 2768SOL    HW219938   0.493   3.080  12.005 -0.0611 -2.6855  0.6677
 2769SOL     OW19939   3.274   2.828   2.211 -0.4083 -0.1118  0.0422
 2769SOL    HW119940   3.326   2.751   2.232 -1.6715 -0.9429  0.1326
 2769SOL    HW219941   3.277   2.884   2.288 -0.3523 -2.4811  1.7527
 2770SOL     OW19942   0.229   0.258   7.089 -0.0981  0.1350 -0.2538
 2770SOL    HW119943   0.199   0.347   7.104 -1.7345 -0.4982  0.2121
 2770SOL    HW219944   0.181   0.237   7.009  0.5753 -0.9303 -0.3775
 2771SOL     OW19945   1.697   0.064  11.388 -0.0225 -0.2578 -0.0739
 2771SOL    HW119946   1.620   0.015  11.416  1.0773 -1.3185  1.1189
 2771SOL    HW219947   1.771   0.009  11.416 -0.6770 -0.8902  0.4227
 2772SOL     OW19948   4.533   4.733   0.846 -0.2444 -0.5057  0.9732
 2772SOL    HW119949   4.549   4.641   0.869 -2.9029 -1.2219 -0.1396
 2772SOL    HW219950   4.529   4.729   0.750  0.7276 -1.4499  0.9705
 2773SOL     OW19951   2.052   0.002   0.821  0.2919 -0.0430  0.2638
 2773SOL    HW119952   2.008   0.083   0.846 -1.2911  0.0036 -2.6756
 2773SOL    HW219953   1.977   4.681   0.835  1.9759 -1.5305  2.9757
 2774SOL     OW19954   4.564   1.943  10.947  0.2520  0.0713  0.4771
 2774SOL    HW119955   4.478   1.986  10.946  0.6670  0.8513 -1.0034
 2774SOL    HW219956   4.559   1.900  11.032  0.6126 -1.1227 -0.0959
 2775SOL     OW19957   0.059   2.370   3.553  0.3911 -0.2360  0.8848
 2775SOL    HW119958   0.126   2.378   3.486  1.0176 -1.7937  1.3324
 2775SOL    HW219959   0.050   2.274   3.555 -2.6432  0.0655  1.4842
 2776SOL     OW19960   0.616   0.739   0.242  0.0229 -0.0661  0.5317
 2776SOL    HW119961   0.596   0.799   0.314 -0.3975 -0.4338  0.7235
 2776SOL    HW219962   0.669   0.798   0.189 -0.3693  0.5951  0.8750
 2777SOL     OW19963   1.172   1.543  12.330  0.1777 -0.3297  0.8767
 2777SOL    HW119964   1.109   1.476  12.353  0.7650 -0.5682  1.7827
 2777SOL    HW219965   1.191   1.522  12.238  0.1519 -1.2212  1.0770
 2778SOL     OW19966   3.558   0.551   9.150 -0.0063 -0.1471  0.0465
 2778SOL    HW119967   3.543   0.528   9.242 -0.1705 -0.4925 -0.0687
 2778SOL    HW219968   3.498   0.625   9.138  0.3776  0.2019  0.2516
 2779SOL     OW19969   1.353   2.922   5.516 -0.4436  0.5772 -0.1136
 2779SOL    HW119970   1.342   2.827   5.521 -0.4743  0.5591 -0.5522
 2779SOL    HW219971   1.371   2.940   5.424  0.2301 -1.0659 -0.2970
 2780SOL     OW19972   2.331   0.322   3.836  0.3459  0.5098 -0.1683
 2780SOL    HW119973   2.288   0.371   3.906  2.0300 -0.3917  1.5022
 2780SOL    HW219974   2.264   0.268   3.793 -0.7231  2.7205 -1.2898
 2781SOL     OW19975   4.131   1.533   9.098  0.3662  0.1766  0.1381
 2781SOL    HW119976   4.037   1.532   9.081  0.3220  0.0939  0.3939
 2781SOL    HW219977   4.159   1.605   9.041  0.4868 -0.8507 -1.1009
 2782SOL     OW19978   4.280   4.215  12.101  0.2967 -0.7187 -0.3196
 2782SOL    HW119979   4.322   4.165  12.171  2.0429  2.3130  0.7670
 2782SOL    HW219980   4.197   4.169  12.089  1.1782 -1.9704 -1.6814
 2783SOL     OW19981   4.137   2.323   8.278 -0.7545  0.1867 -0.1079
 2783SOL    HW119982   4.139   2.331   8.374 -2.8886 -0.8654  0.0248
 2783SOL    HW219983   4.133   2.228   8.271  0.7548  0.1684 -0.6804
 2784SOL     OW19984   1.530   3.061   1.937  0.8036 -0.3124 -0.0963
 2784SOL    HW119985   1.445   3.024   1.959  0.7988  1.4762  2.9482
 2784SOL    HW219986   1.581   2.982   1.955  0.0787 -1.6205 -3.8996
 2785SOL     OW19987   0.898   1.816   7.346  0.6602  0.0066 -0.2041
 2785SOL    HW119988   0.816   1.786   7.306  1.3889  1.0778 -2.5159
 2785SOL    HW219989   0.876   1.903   7.381 -0.4206  0.2479 -1.4505
 2786SOL     OW19990   1.274   1.436  15.812  0.0435  0.0735  0.2188
 2786SOL    HW119991   1.208   1.409  15.748 -0.3759  1.4642  0.0534
 2786SOL    HW219992   1.344   1.462  15.752  0.1579 -0.5438  0.0921
 2787SOL     OW19993   4.558   3.505   8.914 -0.0875  0.0615 -0.5885
 2787SOL    HW119994   4.514   3.572   8.861 -0.9093 -0.8060 -0.9931
 2787SOL    HW219995   4.521   3.428   8.871 -2.0912 -0.2978  1.8399
 2788SOL     OW19996   2.612   0.067   6.643  0.0709 -0.0908  0.1254
 2788SOL    HW119997   2.535   0.097   6.595  0.1978 -0.6318 -0.4156
 2788SOL    HW219998   2.658   0.017   6.575  0.9424 -0.8287  1.2605
 2789SOL     OW19999   1.877   1.242   4.673  0.0352 -0.0633 -0.5787
 2789SOL    HW120000   1.935   1.195   4.733 -2.2871  0.1289  1.8175
 2789SOL    HW220001   1.942   1.301   4.634 -0.5792  0.8898 -0.1701
 2790SOL     OW20002   3.659   4.715   0.940 -0.8082  0.6063  0.0620
 2790SOL    HW120003   3.704   0.022   1.012  0.5223  2.2578 -1.8008
 2790SOL    HW220004   3.688   0.040   0.874  0.6710  1.0808  1.1721
 2791SOL     OW20005   1.935   3.499   8.724  0.0317 -0.1479 -0.5246
 2791SOL    HW120006   1.848   3.502   8.764 -0.0542 -1.2933 -0.6224
 2791SOL    HW220007   1.955   3.407   8.740 -2.0613 -0.8626 -1.9374
 2792SOL     OW20008   4.116   0.916   8.345 -0.5369  0.2370 -0.2816
 2792SOL    HW120009   4.160   0.992   8.383  2.0273 -0.1983 -2.4125
 2792SOL    HW220010   4.031   0.961   8.344 -0.1954  0.8916 -0.2712
 2793SOL     OW20011   2.358   3.828  15.848 -0.2195 -0.2195 -0.0890
 2793SOL    HW120012   2.433   3.887  15.851  1.8116 -2.7425 -0.6016
 2793SOL    HW220013   2.294   3.889  15.810  0.1465 -0.4609 -1.0920
 2794SOL     OW20014   3.254   4.734  13.811 -0.0849  0.3583  0.3075
 2794SOL    HW120015   3.314   4.719  13.884 -0.9923 -2.9119  0.3969
 2794SOL    HW220016   3.300   4.699  13.735 -0.1189 -0.4574  0.6667
 2795SOL     OW20017   0.874   0.978   3.757 -0.0828 -0.5454 -0.0490
 2795SOL    HW120018   0.798   0.944   3.805  0.1361 -0.0843  0.6317
 2795SOL    HW220019   0.861   1.073   3.763  1.3580 -0.3251 -0.4876
 2796SOL     OW20020   1.048   1.154  17.198  0.5894 -0.6827  0.5568
 2796SOL    HW120021   0.978   1.159  17.133 -0.0108 -1.1288  1.1745
 2796SOL    HW220022   1.104   1.098  17.143 -0.2605 -0.1618 -0.8558
 2797SOL     OW20023   4.527   4.140   6.588 -0.0995 -0.1731  0.4403
 2797SOL    HW120024   4.460   4.074   6.570  0.7264 -1.8081  3.2723
 2797SOL    HW220025   4.605   4.097   6.554  0.2824  0.2671  0.7582
 2798SOL     OW20026   2.543   0.405   1.420  0.7705 -0.4475  0.3044
 2798SOL    HW120027   2.528   0.496   1.394  0.9437 -0.7016 -0.6866
 2798SOL    HW220028   2.626   0.391   1.374  0.8076 -0.9711  0.5367
 2799SOL     OW20029   0.421   3.618   5.824  0.0173 -0.0927  0.2035
 2799SOL    HW120030   0.343   3.602   5.878  0.1976  1.2992  0.8633
 2799SOL    HW220031   0.381   3.621   5.737  1.9897  0.9818 -0.6612
 2800SOL     OW20032   0.693   0.622   2.503  0.6222  0.6089 -0.1015
 2800SOL    HW120033   0.769   0.572   2.477  0.0658 -0.4616  0.3331
 2800SOL    HW220034   0.619   0.578   2.462  0.2004 -0.1436  1.4754
 2801SOL     OW20035   3.797   0.736   4.920  0.0586 -0.2319  0.2923
 2801SOL    HW120036   3.827   0.787   4.845 -1.2736  0.3627  0.1740
 2801SOL    HW220037   3.818   0.786   4.998  0.2097  1.4605 -0.8288
 2802SOL     OW20038   3.431   0.287   9.461  0.0998  0.3734 -0.5220
 2802SOL    HW120039   3.475   0.222   9.406 -0.4080 -0.1179 -0.3475
 2802SOL    HW220040   3.400   0.229   9.530 -0.5629 -0.4739 -1.5378
 2803SOL     OW20041   1.405   1.155   7.653  0.2062  0.3968  0.1831
 2803SOL    HW120042   1.475   1.147   7.719 -0.2353 -0.8469  0.4868
 2803SOL    HW220043   1.430   1.072   7.613  3.4211  1.5169 -0.1595
 2804SOL     OW20044   3.702   4.371   4.849  0.1237  0.6720 -0.6250
 2804SOL    HW120045   3.617   4.413   4.862 -0.5660 -1.4327  1.8074
 2804SOL    HW220046   3.738   4.413   4.927 -2.4721 -0.7391  1.3373
 2805SOL     OW20047   2.975   1.219   1.407  0.0968  0.0328 -0.5198
 2805SOL    HW120048   2.929   1.140   1.378 -0.5947  0.0872  0.4304
 2805SOL    HW220049   3.048   1.225   1.345 -0.5616 -0.6883 -1.3647
 2806SOL     OW20050   2.534   2.931   5.119 -0.3112  0.2930  0.5429
 2806SOL    HW120051   2.527   2.966   5.207  1.2327  1.9966 -0.0040
 2806SOL    HW220052   2.458   2.963   5.071 -0.6720  0.6388  1.3615
 2807SOL     OW20053   3.662   4.344  13.655  0.1570 -0.2405  0.4114
 2807SOL    HW120054   3.698   4.408  13.716 -1.5046  0.7512  0.3353
 2807SOL    HW220055   3.595   4.308  13.713 -0.4759 -0.0174 -0.1795
 2808SOL     OW20056   2.928   1.499  12.562  0.1082 -0.1412  0.1064
 2808SOL    HW120057   2.832   1.498  12.560  0.0897  1.3834  0.3216
 2808SOL    HW220058   2.960   1.497  12.472 -0.9026 -0.4598 -0.2413
 2809SOL     OW20059   1.695   3.927   0.328  0.4995  0.2577 -0.4971
 2809SOL    HW120060   1.626   3.948   0.265 -1.1966  0.1119  1.3108
 2809SOL    HW220061   1.666   3.971   0.407 -0.5929 -0.8560 -0.2760
 2810SOL     OW20062   4.410   3.162  16.380  0.1804  0.0730  0.0534
 2810SOL    HW120063   4.449   3.143  16.466  1.9697  1.6149 -0.4009
 2810SOL    HW220064   4.437   3.080  16.340  0.3022  0.2108 -0.1519
 2811SOL     OW20065   4.196   2.991   1.534 -0.0646 -0.2780 -0.4681
 2811SOL    HW120066   4.251   2.917   1.509  0.9552  0.2468  0.2003
 2811SOL    HW220067   4.128   2.950   1.588  0.2965 -1.9788 -1.3059
 2812SOL     OW20068   1.523   1.199   3.229 -0.5468 -0.9384  0.0278
 2812SOL    HW120069   1.614   1.220   3.208 -0.1073 -2.7511  0.1239
 2812SOL    HW220070   1.472   1.278   3.211  0.9706  0.1561  0.5194
 2813SOL     OW20071   2.827   0.926   9.167 -0.3765 -0.0272  0.0916
 2813SOL    HW120072   2.762   0.864   9.200 -0.7348  0.8197  0.9741
 2813SOL    HW220073   2.913   0.884   9.171 -1.3479 -2.0362  0.1391
 2814SOL     OW20074   0.324   2.335   3.426 -0.0736  0.2968 -0.6984
 2814SOL    HW120075   0.391   2.358   3.491  0.6353 -1.7010 -0.7302
 2814SOL    HW220076   0.334   2.412   3.370 -0.1663  0.4921 -0.4527
 2815SOL     OW20077   4.489   1.936   7.269  0.0038 -0.3885  0.1375
 2815SOL    HW120078   4.521   2.023   7.290  0.2031 -0.7357  1.2811
 2815SOL    HW220079   4.558   1.886   7.313 -0.7102  0.3077  2.0111
 2816SOL     OW20080   2.861   2.614   2.910 -0.0071  0.6247 -0.1385
 2816SOL    HW120081   2.882   2.678   2.978 -1.3753  0.9922 -0.0762
 2816SOL    HW220082   2.912   2.651   2.837  1.0854 -0.2725  0.1801
 2817SOL     OW20083   3.018   0.256   6.335 -0.3620 -0.0802 -0.0205
 2817SOL    HW120084   3.113   0.254   6.346 -0.4495  0.9838  0.8495
 2817SOL    HW220085   2.991   0.331   6.387 -0.7480 -0.3717  0.1993
 2818SOL     OW20086   0.172   4.622   5.228 -0.0219 -0.2284 -0.8206
 2818SOL    HW120087   0.252   4.630   5.280 -0.3496  2.2292 -0.7141
 2818SOL    HW220088   0.170   4.532   5.196  2.8443 -0.2370 -0.9661
 2819SOL     OW20089   0.504   0.572  15.474 -0.2665 -0.3864 -0.1769
 2819SOL    HW120090   0.567   0.623  15.525 -0.1331 -0.8489  0.1234
 2819SOL    HW220091   0.423   0.621  15.491  0.2671 -0.4503  2.6264
 2820SOL     OW20092   0.121   1.763   2.013 -0.4431 -0.3759  0.2745
 2820SOL    HW120093   0.089   1.775   1.924  0.4660  2.3806  0.3149
 2820SOL    HW220094   0.047   1.720   2.057 -1.4485  0.8175 -0.2708
 2821SOL     OW20095   0.492   2.883   4.586 -0.1789 -0.2523 -0.8810
 2821SOL    HW120096   0.563   2.890   4.522 -0.2485  2.3585 -0.6877
 2821SOL    HW220097   0.516   2.797   4.621 -1.4397 -0.2292  0.0422
 2822SOL     OW20098   2.636   2.028   7.368 -0.1184 -0.6361 -0.3534
 2822SOL    HW120099   2.695   1.972   7.418 -1.3312  0.3960  2.2028
 2822SOL    HW220100   2.702   2.097   7.356 -1.9712  1.3754  1.1119
 2823SOL     OW20101   1.992   1.837   3.349  0.2124  0.1277 -0.1018
 2823SOL    HW120102   1.940   1.794   3.281 -1.3683  0.9407  0.5811
 2823SOL    HW220103   1.934   1.911   3.369 -1.0649 -1.0921  0.7381
 2824SOL     OW20104   3.278   1.330   3.958 -0.2483 -0.6223 -0.1058
 2824SOL    HW120105   3.298   1.369   3.873 -2.6639  4.5407  1.6529
 2824SOL    HW220106   3.299   1.398   4.022 -0.2860  1.5195 -2.3881
 2825SOL     OW20107   0.003   0.800   2.465 -0.4222 -0.3237 -0.2475
 2825SOL    HW120108   4.666   0.758   2.420 -1.1538  0.4826  0.1944
 2825SOL    HW220109   4.697   0.877   2.503  1.3526  0.2313  0.5945
 2826SOL     OW20110   3.400   1.943   2.140  0.3034 -0.5258 -0.4299
 2826SOL    HW120111   3.442   1.880   2.198 -0.5869  0.0639  0.8551
 2826SOL    HW220112   3.347   1.991   2.204  0.9800  0.1177 -0.3587
 2827SOL     OW20113   0.757   2.905   8.717  0.0294  0.3360  0.6161
 2827SOL    HW120114   0.670   2.924   8.750 -1.1558  0.1452 -2.3906
 2827SOL    HW220115   0.806   2.883   8.796  0.3541 -2.1810 -0.2951
 2828SOL     OW20116   0.047   1.009  10.105 -0.2910  0.1165  0.0024
 2828SOL    HW120117   4.732   0.967  10.175  1.3008 -1.8573  0.0067
 2828SOL    HW220118   0.050   1.102  10.128  1.8829 -0.1152  0.6471
 2829SOL     OW20119   1.384   0.266  13.250  0.2549 -0.3822 -0.6877
 2829SOL    HW120120   1.394   0.266  13.155  0.4761  0.2602 -0.6655
 2829SOL    HW220121   1.421   0.179  13.265 -0.7579 -0.3078  2.2727
 2830SOL     OW20122   0.678   1.690  11.720 -0.0484  0.1756 -0.2522
 2830SOL    HW120123   0.761   1.643  11.727 -0.1816 -0.1468 -0.7900
 2830SOL    HW220124   0.638   1.673  11.806  0.3150  1.0211  0.0795
 2831SOL     OW20125   2.964   0.267   7.360 -0.2410 -0.5273 -0.0511
 2831SOL    HW120126   3.043   0.213   7.357 -0.8802 -1.4096 -1.4131
 2831SOL    HW220127   2.952   0.270   7.265 -1.6882  2.5126  0.2275
 2832SOL     OW20128   2.851   4.489   3.938 -0.4776 -0.2581  0.4537
 2832SOL    HW120129   2.772   4.455   3.895  0.3213 -0.8230 -0.5792
 2832SOL    HW220130   2.877   4.552   3.870  1.4757  0.1670  1.6176
 2833SOL     OW20131   2.176   1.613  16.469 -0.0796 -0.1477 -0.2778
 2833SOL    HW120132   2.206   1.595  16.558 -1.1898 -0.6528 -0.0036
 2833SOL    HW220133   2.104   1.551  16.459 -0.1976 -0.1623  0.6838
 2834SOL     OW20134   1.173   2.551   4.813  0.0053 -0.3146  0.2321
 2834SOL    HW120135   1.229   2.591   4.879 -1.1849  0.2455  0.9130
 2834SOL    HW220136   1.089   2.548   4.860  0.3480 -0.0325  0.8504
 2835SOL     OW20137   3.031   3.439  17.394 -0.0264  0.1754 -0.5104
 2835SOL    HW120138   3.111   3.416  17.347  0.3423 -0.0693  0.2385
 2835SOL    HW220139   2.971   3.369  17.367 -0.7238  0.1708  1.0085
 2836SOL     OW20140   0.609   4.528   9.589 -0.0717  0.6574  0.0191
 2836SOL    HW120141   0.578   4.608   9.630 -0.2145  1.4674 -1.6534
 2836SOL    HW220142   0.596   4.547   9.496  0.7973  1.7978  0.1280
 2837SOL     OW20143   1.585   0.567   6.048  0.1581  0.1091 -0.0673
 2837SOL    HW120144   1.650   0.620   6.001  0.5531 -1.8492 -1.7247
 2837SOL    HW220145   1.646   0.508   6.093 -1.6197 -1.6629 -0.0037
 2838SOL     OW20146   3.692   1.878  11.061  0.4830 -0.0750 -0.0862
 2838SOL    HW120147   3.696   1.888  11.156 -0.5406 -1.0257  0.0594
 2838SOL    HW220148   3.783   1.848  11.049 -0.4073 -3.4765  1.6511
 2839SOL     OW20149   4.734   4.537  12.745  0.2222  0.6361 -0.3935
 2839SOL    HW120150   0.003   4.511  12.653 -0.3794 -0.2729 -0.1787
 2839SOL    HW220151   4.669   4.476  12.779  0.2014  0.2036 -1.1973
 2840SOL     OW20152   0.082   1.246   5.028 -0.3668 -0.3292 -0.4941
 2840SOL    HW120153   0.126   1.220   5.109 -2.1966 -0.4628  0.4449
 2840SOL    HW220154   4.734   1.205   5.041 -1.3605  1.4849 -1.3244
 2841SOL     OW20155   2.782   3.647   4.035 -0.2512 -0.3982  0.6869
 2841SOL    HW120156   2.696   3.624   4.070 -1.2663  1.0085 -0.8796
 2841SOL    HW220157   2.840   3.578   4.068  1.5536  1.3845  1.2639
 2842SOL     OW20158   4.632   0.044   6.420 -0.0545  0.2100  0.1455
 2842SOL    HW120159   4.597   4.733   6.495  0.7081 -1.4489 -0.5456
 2842SOL    HW220160   4.724   0.028   6.437 -0.2624 -1.5254 -0.2756
 2843SOL     OW20161   0.181   0.500  12.874  0.3969  0.3768 -0.1325
 2843SOL    HW120162   0.248   0.433  12.862 -0.2148  0.0752 -1.9920
 2843SOL    HW220163   0.223   0.585  12.866 -0.7006  0.9067 -0.3474
 2844SOL     OW20164   1.904   0.882   8.522  0.2589 -0.2674 -0.1618
 2844SOL    HW120165   1.937   0.938   8.592  1.4190 -0.1346 -0.8041
 2844SOL    HW220166   1.930   0.939   8.450  0.4040  0.4399  0.4510
 2845SOL     OW20167   1.378   2.860  12.993  0.0600 -0.1171 -0.5807
 2845SOL    HW120168   1.442   2.930  12.993 -0.2097  0.1399  1.2686
 2845SOL    HW220169   1.311   2.885  13.057  0.1730  0.0948 -0.5465
 2846SOL     OW20170   2.958   0.453   1.903  1.0397  0.5920 -0.0269
 2846SOL    HW120171   2.927   0.501   1.979  0.8243  0.1272  0.1723
 2846SOL    HW220172   3.007   0.524   1.861 -0.0536  0.4398 -1.5697
 2847SOL     OW20173   4.171   0.337  16.448  0.2988 -0.0300 -0.0773
 2847SOL    HW120174   4.198   0.270  16.512 -0.7519 -0.1814  0.2188
 2847SOL    HW220175   4.235   0.322  16.379 -1.5822 -1.7965 -1.4804
 2848SOL     OW20176   4.048   2.931   4.171  0.2471 -0.6019  0.4623
 2848SOL    HW120177   4.056   2.836   4.164  0.1103 -0.4227 -2.2268
 2848SOL    HW220178   3.994   2.960   4.097  1.2060  1.4853  0.5728
 2849SOL     OW20179   3.766   0.972  12.328  0.2773 -0.0750 -0.0877
 2849SOL    HW120180   3.740   1.055  12.368  0.1303 -1.5519  2.8571
 2849SOL    HW220181   3.796   1.017  12.249  1.2751 -2.3046 -0.9968
 2850SOL     OW20182   1.550   1.450  12.242  0.4282  0.1036  0.2880
 2850SOL    HW120183   1.461   1.418  12.256  0.3494  0.4363  0.5601
 2850SOL    HW220184   1.596   1.369  12.223  0.0537  0.7139 -3.3192
 2851SOL     OW20185   4.038   2.017   1.672 -0.4382 -0.3011  0.1692
 2851SOL    HW120186   3.959   2.049   1.716  0.9447 -1.1874  3.3332
 2851SOL    HW220187   4.108   2.052   1.728  0.4012  0.6644 -1.4994
 2852SOL     OW20188   3.850   4.097  16.442 -0.4303  0.3535 -0.2338
 2852SOL    HW120189   3.844   4.141  16.357 -2.0711  1.1439  0.3007
 2852SOL    HW220190   3.770   4.124  16.487 -1.2759 -3.0036  0.3056
 2853SOL     OW20191   3.678   4.096   4.847  0.1821 -0.2011 -0.0657
 2853SOL    HW120192   3.708   4.184   4.871 -1.4566  0.8430 -1.8065
 2853SOL    HW220193   3.726   4.036   4.904  1.3354  1.0193  0.2402
 2854SOL     OW20194   0.302   0.536   3.044  0.1176 -0.0139 -0.8917
 2854SOL    HW120195   0.345   0.516   3.127 -1.4660 -0.1254 -0.1214
 2854SOL    HW220196   0.223   0.579   3.075  0.0124  0.0588 -1.2528
 2855SOL     OW20197   0.270   3.111   2.371  0.1686 -0.0511 -0.0850
 2855SOL    HW120198   0.299   3.020   2.366  0.5973  0.1877 -1.8632
 2855SOL    HW220199   0.176   3.091   2.378 -0.6726  3.7744 -0.7273
 2856SOL     OW20200   1.084   2.073   6.643 -0.1391  0.3233  0.2253
 2856SOL    HW120201   1.056   2.025   6.721  1.0782 -0.2201  0.3310
 2856SOL    HW220202   1.133   2.145   6.684 -2.3155  1.6974  0.4006
 2857SOL     OW20203   1.338   0.363   5.517  0.1387 -0.0606 -0.1854
 2857SOL    HW120204   1.328   0.453   5.485  0.1226 -0.0544 -0.1635
 2857SOL    HW220205   1.358   0.309   5.441  1.1234  1.0741 -0.7303
 2858SOL     OW20206   4.713   3.935   7.724 -0.3490  0.1323  0.3111
 2858SOL    HW120207   4.694   3.867   7.790  0.0403  0.8136  1.1305
 2858SOL    HW220208   4.668   3.892   7.651 -1.1642  0.7584  0.4469
 2859SOL     OW20209   4.030   0.512  10.992  0.1509 -0.4074 -0.2456
 2859SOL    HW120210   3.949   0.542  11.034  0.1333  0.3401 -0.8026
 2859SOL    HW220211   3.988   0.431  10.962  0.6028 -1.0059  0.7439
 2860SOL     OW20212   2.572   4.337  11.114  0.4864 -0.0124 -0.2793
 2860SOL    HW120213   2.488   4.291  11.113  0.8202 -0.6347  0.4722
 2860SOL    HW220214   2.608   4.308  11.030  0.9293 -1.7310  0.4920
 2861SOL     OW20215   1.948   2.023  16.624 -0.2606 -0.3053  0.0948
 2861SOL    HW120216   2.004   1.956  16.664 -0.2233 -0.1261  0.3471
 2861SOL    HW220217   2.018   2.059  16.570 -0.9536 -0.9991 -1.2456
 2862SOL     OW20218   4.093   4.289   0.932 -0.0607 -1.0538 -0.5512
 2862SOL    HW120219   4.180   4.283   0.973  0.4482  2.3164 -1.1194
 2862SOL    HW220220   4.060   4.199   0.939  1.2284 -1.4776  0.2653
 2863SOL     OW20221   4.387   1.658  10.910 -0.5446 -0.3675  0.6297
 2863SOL    HW120222   4.472   1.695  10.886 -1.1729  0.0649 -0.9092
 2863SOL    HW220223   4.410   1.569  10.936  1.0900 -1.1490 -3.4326
 2864SOL     OW20224   0.723   3.849   6.282  0.4904 -0.1779  0.0924
 2864SOL    HW120225   0.741   3.943   6.283  3.0208 -0.6484 -0.5544
 2864SOL    HW220226   0.629   3.842   6.299  0.3512  1.2958 -0.1310
 2865SOL     OW20227   1.941   2.852   2.595  0.2969 -0.1718  0.4033
 2865SOL    HW120228   2.005   2.798   2.550  0.2147  0.6879 -0.7497
 2865SOL    HW220229   1.891   2.882   2.519 -0.3628 -2.1668  0.0311
 2866SOL     OW20230   3.684   4.456  10.271  0.1421 -0.1057 -0.3123
 2866SOL    HW120231   3.690   4.384  10.333  1.2950  0.2314 -0.0364
 2866SOL    HW220232   3.742   4.515  10.319 -2.0816 -0.2776  2.5986
 2867SOL     OW20233   4.044   2.819  15.021  0.1234  0.0623 -0.0663
 2867SOL    HW120234   4.019   2.830  14.930 -0.1087 -0.7928 -0.1087
 2867SOL    HW220235   3.996   2.889  15.064  0.7126 -0.3620  1.2955
 2868SOL     OW20236   0.155   2.731   4.477  0.0658  0.0577 -0.3633
 2868SOL    HW120237   0.125   2.814   4.514  0.5252  0.0266  0.0865
 2868SOL    HW220238   0.143   2.754   4.385  1.0168  0.0305 -0.5009
 2869SOL     OW20239   2.522   2.515   6.143  0.2717  0.8211  0.6920
 2869SOL    HW120240   2.593   2.458   6.170  0.1257 -0.7716 -2.3071
 2869SOL    HW220241   2.541   2.525   6.050 -0.0506  1.3057  0.6761
 2870SOL     OW20242   0.875   0.526   8.257  0.2042  0.5786  0.0912
 2870SOL    HW120243   0.793   0.484   8.231  0.9504 -1.8331  1.5920
 2870SOL    HW220244   0.862   0.564   8.344  1.6858  1.0622  0.1114
 2871SOL     OW20245   0.291   4.614   6.283 -0.3732 -0.2560 -0.0395
 2871SOL    HW120246   0.375   4.658   6.275 -0.7072  0.4551  0.3913
 2871SOL    HW220247   0.295   4.561   6.204  1.4242 -0.1599 -0.0006
 2872SOL     OW20248   1.125   1.093  15.206 -0.4431 -0.0940  0.5093
 2872SOL    HW120249   1.175   1.035  15.263 -1.1648  2.5637  3.8475
 2872SOL    HW220250   1.188   1.120  15.139  0.7696  0.1623  1.7596
 2873SOL     OW20251   3.371   3.350   4.483  0.2295  0.4433 -0.2764
 2873SOL    HW120252   3.444   3.410   4.497 -0.2845  1.0681 -0.2880
 2873SOL    HW220253   3.419   3.278   4.443  2.1257  1.9305 -0.6982
 2874SOL     OW20254   0.570   2.362   2.862  0.0225  0.3291 -0.5324
 2874SOL    HW120255   0.640   2.417   2.826  0.6864  0.2706  0.6708
 2874SOL    HW220256   0.495   2.414   2.834 -0.2227  0.3263  0.1221
 2875SOL     OW20257   2.336   3.100   4.641  0.7313 -0.2831 -0.0286
 2875SOL    HW120258   2.356   3.009   4.616  0.5072 -1.0646  2.6503
 2875SOL    HW220259   2.356   3.149   4.561  2.2640  1.7512  1.6126
 2876SOL     OW20260   2.945   1.433   3.115 -0.2082 -0.4206 -0.1857
 2876SOL    HW120261   2.997   1.368   3.163 -0.5945  0.1476  1.0048
 2876SOL    HW220262   2.965   1.406   3.025  1.4386 -2.0969  0.6799
 2877SOL     OW20263   4.232   2.689  15.415  0.0456 -0.2438  0.5848
 2877SOL    HW120264   4.238   2.634  15.337 -1.0912  1.0039 -0.3907
 2877SOL    HW220265   4.213   2.782  15.402  0.5357 -0.2692 -0.3644
 2878SOL     OW20266   0.660   1.853   7.180 -0.5140  0.5680 -0.3662
 2878SOL    HW120267   0.708   1.788   7.129 -0.1211  0.5612  0.0127
 2878SOL    HW220268   0.645   1.920   7.113 -1.9152  0.3026 -0.3214
 2879SOL     OW20269   0.209   0.121   9.795 -0.2326  0.1908 -0.2199
 2879SOL    HW120270   0.122   0.155   9.774 -0.8745 -1.6413 -0.5269
 2879SOL    HW220271   0.230   0.088   9.708 -0.1996 -0.9609  0.2186
 2880SOL     OW20272   4.569   4.612   7.149  0.6152  0.2248 -0.3480
 2880SOL    HW120273   4.513   4.555   7.097 -1.3302  0.2062  1.7666
 2880SOL    HW220274   4.569   4.690   7.094 -1.7633  0.1039 -0.5365
 2881SOL     OW20275   2.413   0.265   4.344 -0.0035 -0.1446 -0.4407
 2881SOL    HW120276   2.404   0.259   4.439  2.3617  1.9163 -0.0889
 2881SOL    HW220277   2.322   0.286   4.321 -0.0397 -1.3370 -1.4248
 2882SOL     OW20278   3.262   3.328   8.971  0.2064 -0.0966 -0.3963
 2882SOL    HW120279   3.308   3.307   9.052  0.5562 -1.5996 -0.9795
 2882SOL    HW220280   3.222   3.245   8.945 -3.0529  2.1814 -2.6370
 2883SOL     OW20281   3.080   1.514   6.494  0.4416 -0.3264  0.2878
 2883SOL    HW120282   3.043   1.467   6.419 -0.5662  1.2905 -0.2240
 2883SOL    HW220283   3.030   1.596   6.496 -0.3447 -0.7637 -1.9379
 2884SOL     OW20284   0.826   0.763   1.256 -0.2635  0.3844 -0.5272
 2884SOL    HW120285   0.852   0.674   1.280  1.9096  0.4387 -2.6773
 2884SOL    HW220286   0.801   0.786   1.346  1.6253  0.2036  0.0325
 2885SOL     OW20287   0.143   4.355   4.444  0.5759  0.0699  0.0861
 2885SOL    HW120288   0.194   4.417   4.391  0.9787 -0.1367  0.2313
 2885SOL    HW220289   0.097   4.315   4.371  0.5438  2.8058 -1.3826
 2886SOL     OW20290   3.209   1.110   7.392 -0.0456  0.4978  0.1274
 2886SOL    HW120291   3.203   1.017   7.415  2.7758  0.6206  1.3648
 2886SOL    HW220292   3.150   1.121   7.317  0.9847  0.0396 -0.7544
 2887SOL     OW20293   4.104   3.552   9.765 -0.1868 -0.0642  0.3964
 2887SOL    HW120294   4.083   3.643   9.789 -1.3298 -0.6513  1.6597
 2887SOL    HW220295   4.164   3.532   9.837 -0.0278  0.6870  0.4757
 2888SOL     OW20296   4.383   3.688   8.347 -0.2641  0.0981 -0.0394
 2888SOL    HW120297   4.380   3.709   8.254  2.9217 -1.0262 -0.3977
 2888SOL    HW220298   4.456   3.631   8.371  0.6080  0.8510 -0.8949
 2889SOL     OW20299   3.355   3.529  12.582 -0.0005 -0.0118 -0.7720
 2889SOL    HW120300   3.330   3.512  12.491 -0.7077 -0.4561 -0.4920
 2889SOL    HW220301   3.400   3.613  12.578 -1.5199  0.7651 -1.4614
 2890SOL     OW20302   2.069   3.002   9.444 -0.4206 -0.5954  0.9165
 2890SOL    HW120303   2.100   3.066   9.508 -0.0973  0.2071 -0.0371
 2890SOL    HW220304   1.975   3.009   9.459 -0.2494 -1.8158  2.6128
 2891SOL     OW20305   4.373   1.049   5.610  0.5537  0.5748 -0.4820
 2891SOL    HW120306   4.305   1.108   5.643  0.8885  0.3058  0.6884
 2891SOL    HW220307   4.451   1.083   5.654 -0.5439  1.8782  0.4887
 2892SOL     OW20308   2.029   0.318  14.453 -0.2157 -0.5494  0.1720
 2892SOL    HW120309   2.054   0.246  14.511 -1.1095  0.2994  1.6074
 2892SOL    HW220310   1.943   0.337  14.492 -0.3470  0.3307 -0.5492
 2893SOL     OW20311   0.717   2.044   1.345  0.1658  0.2173 -0.0525
 2893SOL    HW120312   0.811   2.057   1.333 -0.0086  0.5945 -1.0616
 2893SOL    HW220313   0.694   1.982   1.276  2.8701 -0.6819 -0.1214
 2894SOL     OW20314   3.604   2.933  11.410 -0.2779 -0.4589  0.2214
 2894SOL    HW120315   3.683   2.889  11.378  1.3137  1.6011  1.3076
 2894SOL    HW220316   3.630   3.024  11.398 -0.0890 -0.4289  0.8466
 2895SOL     OW20317   1.037   0.924   2.139  0.2529 -0.2071  0.3225
 2895SOL    HW120318   1.101   0.896   2.204 -0.8302 -1.3729  0.8727
 2895SOL    HW220319   0.953   0.947   2.180  0.8096 -0.4651  1.5983
 2896SOL     OW20320   2.082   2.868   4.928  0.0997 -0.2947 -0.2196
 2896SOL    HW120321   2.133   2.797   4.888 -1.0706 -1.8351  1.0642
 2896SOL    HW220322   2.111   2.891   5.016  0.0971  0.6580 -0.4703
 2897SOL     OW20323   0.734   4.153  16.115 -0.6242 -0.1653  0.3133
 2897SOL    HW120324   0.693   4.116  16.036  1.7993  0.5891 -1.2960
 2897SOL    HW220325   0.759   4.081  16.174  3.7104 -0.7440 -2.2841
 2898SOL     OW20326   2.459   2.320   7.006  0.2447 -0.3650 -0.0633
 2898SOL    HW120327   2.428   2.285   7.089 -0.0879 -0.4397 -0.2168
 2898SOL    HW220328   2.518   2.389   7.032  0.1916 -0.3583  0.0375
 2899SOL     OW20329   0.131   4.377   5.103 -0.4561  0.0921 -0.4442
 2899SOL    HW120330   0.135   4.324   5.183  0.4395  2.9189  1.3690
 2899SOL    HW220331   0.219   4.357   5.071  0.1568  0.1901  1.1847
 2900SOL     OW20332   3.898   2.011   3.374  1.0491 -0.1935  0.2039
 2900SOL    HW120333   3.898   2.105   3.359 -2.3562 -0.3136 -0.5691
 2900SOL    HW220334   3.990   1.995   3.394  1.2848 -0.2536 -0.8814
 2901SOL     OW20335   1.590   2.557  14.384  0.2021  0.5905 -0.3251
 2901SOL    HW120336   1.602   2.612  14.462 -0.0209 -1.7574  1.3724
 2901SOL    HW220337   1.664   2.502  14.411  0.2285  0.4627 -0.6599
 2902SOL     OW20338   0.017   3.885  16.482  0.3650 -0.2233 -0.0496
 2902SOL    HW120339   4.684   3.928  16.531 -1.4276 -0.1581 -2.6367
 2902SOL    HW220340   4.708   3.808  16.447 -0.2496  1.0171 -1.9878
 2903SOL     OW20341   2.101   1.262   8.168  0.3981  0.1482 -0.1223
 2903SOL    HW120342   2.168   1.264   8.236  0.5160 -3.4058 -0.1480
 2903SOL    HW220343   2.129   1.330   8.106  2.7043 -0.1398  0.5856
 2904SOL     OW20344   4.027   2.948   3.371  0.1072 -0.3997 -0.5090
 2904SOL    HW120345   4.072   2.946   3.287 -1.0039  1.1531 -1.1404
 2904SOL    HW220346   3.965   3.019   3.351 -0.3016 -1.0292 -1.4670
 2905SOL     OW20347   2.680   0.595   8.928  0.1879  0.4527 -0.1042
 2905SOL    HW120348   2.603   0.561   8.973  0.6674 -1.6653 -0.8572
 2905SOL    HW220349   2.664   0.689   8.936 -1.7954  0.1711 -0.7073
 2906SOL     OW20350   0.998   0.710  14.129  0.2616 -0.3470 -0.2913
 2906SOL    HW120351   1.063   0.652  14.170  0.3970  0.9286  1.3213
 2906SOL    HW220352   1.053   0.788  14.141  0.2770 -0.3386 -0.4203
 2907SOL     OW20353   2.899   2.549  13.846 -0.1072 -0.5282 -0.1566
 2907SOL    HW120354   2.886   2.561  13.752 -0.0668 -0.0111 -0.0939
 2907SOL    HW220355   2.986   2.587  13.851 -0.6413  0.7399 -0.4828
 2908SOL     OW20356   3.673   2.648   8.333 -0.2447 -0.5258  0.0221
 2908SOL    HW120357   3.632   2.588   8.396  0.0101 -0.1311  0.5650
 2908SOL    HW220358   3.740   2.586   8.303 -1.9999 -2.9796  1.1526
 2909SOL     OW20359   1.038   0.668   8.059 -0.4082 -0.4200 -0.0530
 2909SOL    HW120360   1.110   0.654   8.120 -1.5835  1.1378  1.6645
 2909SOL    HW220361   0.967   0.668   8.123 -2.8948 -0.8616 -2.8287
 2910SOL     OW20362   4.038   1.119  14.609 -0.5827  0.2616  0.6529
 2910SOL    HW120363   4.090   1.112  14.530 -0.2201 -2.2511  1.1396
 2910SOL    HW220364   4.114   1.128  14.667  0.3192  1.0077 -0.6480
 2911SOL     OW20365   4.612   3.622  17.158 -0.2544  0.0027  0.1411
 2911SOL    HW120366   4.605   3.589  17.247  2.3726  1.5579  0.9290
 2911SOL    HW220367   4.655   3.546  17.120  1.9593  1.4110 -0.1841
 2912SOL     OW20368   4.310   2.460   3.090 -0.1437  0.1162  0.1324
 2912SOL    HW120369   4.297   2.411   3.009 -3.7604 -1.7704  1.8542
 2912SOL    HW220370   4.223   2.498   3.099 -0.1574  0.0847  0.1335
 2913SOL     OW20371   3.856   0.339   1.501 -0.2719  0.0063  0.2099
 2913SOL    HW120372   3.855   0.425   1.458  1.1848  0.4730  1.1173
 2913SOL    HW220373   3.848   0.351   1.596  1.4350  1.6010  0.1552
 2914SOL     OW20374   1.585   0.107   4.685  0.4690 -0.3024 -0.1440
 2914SOL    HW120375   1.652   0.170   4.660 -0.8261  0.7621 -0.9804
 2914SOL    HW220376   1.626   0.060   4.757 -1.2123 -0.3931  0.7610
 2915SOL     OW20377   3.958   1.579  10.900 -0.0395  0.0111 -0.7453
 2915SOL    HW120378   3.929   1.633  10.826  0.1529 -1.0161 -1.5786
 2915SOL    HW220379   3.911   1.497  10.884 -0.0932  0.2388 -1.7638
 2916SOL     OW20380   2.330   2.283  17.337 -0.2843 -0.3756 -0.0667
 2916SOL    HW120381   2.266   2.226  17.377 -1.8732  1.2425 -0.3095
 2916SOL    HW220382   2.299   2.282  17.246 -0.0875  2.6942 -0.1641
 2917SOL     OW20383   1.643   0.418   0.119  0.0197 -0.2709  0.4757
 2917SOL    HW120384   1.561   0.464   0.097 -1.4249 -1.7761  2.6951
 2917SOL    HW220385   1.619   0.363   0.194  1.7576 -0.8697  0.5822
 2918SOL     OW20386   4.638   1.067   3.412 -0.5554  0.0251 -0.5853
 2918SOL    HW120387   4.669   1.016   3.487  2.3612  3.1085  0.3289
 2918SOL    HW220388   4.549   1.032   3.410 -0.9457  0.9890 -0.4624
 2919SOL     OW20389   3.527   0.088   9.206 -0.0838  0.2851  0.7791
 2919SOL    HW120390   3.526   0.171   9.158  0.7458  0.2535  0.7049
 2919SOL    HW220391   3.621   0.074   9.216 -0.1572 -1.1473 -0.6017
 2920SOL     OW20392   3.215   4.497  13.964  0.0239  0.6073  0.4270
 2920SOL    HW120393   3.207   4.567  13.899  0.9250 -2.8033 -3.3794
 2920SOL    HW220394   3.124   4.466  13.963  0.2785 -0.0864 -1.3222
 2921SOL     OW20395   1.346   0.921   4.489 -0.0942 -0.4113 -0.3364
 2921SOL    HW120396   1.295   0.903   4.568 -1.3826  4.2970 -0.0989
 2921SOL    HW220397   1.282   0.957   4.428 -1.1982  0.0352  1.1075
 2922SOL     OW20398   3.618   2.254   6.636  0.7627  0.4911 -0.1055
 2922SOL    HW120399   3.613   2.210   6.551  0.5850 -1.0287  0.6921
 2922SOL    HW220400   3.657   2.187   6.692 -0.5464  0.8869  1.2704
 2923SOL     OW20401   4.357   4.560   7.382  0.1469 -0.3351 -0.9217
 2923SOL    HW120402   4.356   4.608   7.465  0.7010  0.4814 -1.3939
 2923SOL    HW220403   4.360   4.635   7.324 -2.9449  0.1196 -0.5050
 2924SOL     OW20404   3.543   3.780  10.711 -0.2491 -0.3417  0.0387
 2924SOL    HW120405   3.574   3.813  10.795  0.2228 -0.2993 -0.1521
 2924SOL    HW220406   3.615   3.719  10.694 -0.7698 -0.9884  0.1431
 2925SOL     OW20407   2.262   3.648   9.515  0.4535  0.7917  0.0413
 2925SOL    HW120408   2.199   3.578   9.496  0.7058  0.9458 -1.3262
 2925SOL    HW220409   2.206   3.725   9.508  0.3624  0.9017  1.8589
 2926SOL     OW20410   2.130   2.380   7.459  0.4302  0.0707 -0.2892
 2926SOL    HW120411   2.084   2.423   7.531 -2.0956 -2.1095 -0.6029
 2926SOL    HW220412   2.124   2.286   7.475  0.2967 -0.0426 -0.9755
 2927SOL     OW20413   2.500   3.183   3.758  0.3963  0.0571  0.0722
 2927SOL    HW120414   2.431   3.165   3.822  2.6458 -1.4462  2.0653
 2927SOL    HW220415   2.465   3.260   3.713  0.5464 -0.6285 -1.2460
 2928SOL     OW20416   0.916   3.232   4.331  0.3314  0.8068 -0.4619
 2928SOL    HW120417   0.964   3.192   4.403 -2.1070 -0.9816  0.1775
 2928SOL    HW220418   0.890   3.319   4.362 -0.0300 -0.7531  3.5410
 2929SOL     OW20419   3.381   1.585   2.454 -0.0277  0.1099 -0.0561
 2929SOL    HW120420   3.454   1.535   2.489 -0.4282 -0.5145 -0.1223
 2929SOL    HW220421   3.428   1.662   2.421  0.6145 -0.8281 -1.3476
 2930SOL     OW20422   4.122   4.099  12.745 -0.7805 -0.9873 -0.3590
 2930SOL    HW120423   4.041   4.061  12.712 -1.6626  0.8446 -0.2948
 2930SOL    HW220424   4.078   4.174  12.785 -1.4628 -2.2499  1.2720
 2931SOL     OW20425   4.296   2.847   6.647 -0.3110 -0.0738  0.0789
 2931SOL    HW120426   4.367   2.811   6.702  0.9691  1.2407 -0.7006
 2931SOL    HW220427   4.219   2.801   6.680  0.7885 -2.4617 -0.6549
 2932SOL     OW20428   3.049   2.297  14.068  0.6481 -0.0584 -0.1113
 2932SOL    HW120429   3.042   2.230  14.000  0.5456 -0.4374  0.2677
 2932SOL    HW220430   2.963   2.332  14.043  0.7676  0.5160  0.3023
 2933SOL     OW20431   1.637   2.216   8.280 -0.1092  0.0620 -0.4020
 2933SOL    HW120432   1.698   2.285   8.256 -0.8972  0.6671 -0.6823
 2933SOL    HW220433   1.699   2.152   8.313 -0.3778 -1.4858 -2.9682
 2934SOL     OW20434   1.246   2.592  14.001 -1.1067  0.0053  0.1958
 2934SOL    HW120435   1.300   2.670  13.989  3.6190 -3.4110 -0.5978
 2934SOL    HW220436   1.305   2.519  14.018 -0.0024  1.0374  0.7662
 2935SOL     OW20437   3.293   1.958   8.916  0.1907 -0.5670  0.2541
 2935SOL    HW120438   3.363   2.001   8.965  0.6231 -1.5693  0.4927
 2935SOL    HW220439   3.325   1.972   8.827  0.7103  1.7122  0.7863
 2936SOL     OW20440   1.115   1.393   8.432  0.4319 -0.1657  0.0932
 2936SOL    HW120441   1.103   1.483   8.463 -1.5621 -0.6743  0.7968
 2936SOL    HW220442   1.204   1.399   8.398  0.0824 -0.3345 -0.8459
 2937SOL     OW20443   3.668   0.871  17.359 -0.3176 -0.1255 -0.6294
 2937SOL    HW120444   3.637   0.852  17.447 -0.6471 -0.7896 -0.8945
 2937SOL    HW220445   3.662   0.967  17.358 -0.6670 -0.1374  1.2423
 2938SOL     OW20446   3.660   3.491   4.218 -0.4564 -0.1374 -0.3304
 2938SOL    HW120447   3.630   3.400   4.209 -1.0394  0.0637 -0.3768
 2938SOL    HW220448   3.591   3.545   4.179 -0.3104 -0.8918 -1.6356
 2939SOL     OW20449   2.065   1.103   8.649 -0.1322 -0.0282  0.3234
 2939SOL    HW120450   2.098   1.068   8.731  0.2718  0.5035  0.3921
 2939SOL    HW220451   2.139   1.093   8.589  0.0873 -1.0089  0.7685
 2940SOL     OW20452   1.860   3.425  10.272  0.0705 -0.8959  0.6353
 2940SOL    HW120453   1.938   3.407  10.324  1.5741  1.6031 -0.7667
 2940SOL    HW220454   1.865   3.520  10.262 -0.0076 -1.2152 -2.2528
 2941SOL     OW20455   4.607   1.169   1.906  0.2549  0.0152 -0.1825
 2941SOL    HW120456   4.540   1.201   1.967 -1.4509 -4.0161  0.0781
 2941SOL    HW220457   4.559   1.164   1.824  0.3434  2.2649 -0.3668
 2942SOL     OW20458   4.010   0.454   1.210  0.2330 -0.0638 -0.3863
 2942SOL    HW120459   3.950   0.512   1.257 -0.4431 -1.0352 -0.0537
 2942SOL    HW220460   4.087   0.499   1.245  0.8270 -1.1707 -0.2697
 2943SOL     OW20461   4.224   2.089   7.748  0.5150 -0.4228 -0.3623
 2943SOL    HW120462   4.157   2.065   7.812 -0.6883  0.2591 -1.3668
 2943SOL    HW220463   4.169   2.100   7.670  0.6728  1.7660 -0.1643
 2944SOL     OW20464   1.146   2.143   1.646  0.2994  0.1016  0.5891
 2944SOL    HW120465   1.207   2.147   1.572  2.2674 -1.4931  2.1255
 2944SOL    HW220466   1.191   2.078   1.700  0.3876 -0.2003  0.1573
 2945SOL     OW20467   4.113   2.566   8.103 -0.4707 -0.1424  0.4826
 2945SOL    HW120468   4.129   2.643   8.157 -3.7514  1.9062 -1.5493
 2945SOL    HW220469   4.111   2.496   8.168 -0.4528 -0.5011  0.0983
 2946SOL     OW20470   1.027   3.680   0.884 -0.8023 -0.1704  0.6339
 2946SOL    HW120471   1.023   3.668   0.789  1.0489 -0.5994  0.6205
 2946SOL    HW220472   1.112   3.642   0.904 -1.5609 -2.2671 -0.1246
 2947SOL     OW20473   4.693   3.922   6.264  0.5107  0.0261 -0.4315
 2947SOL    HW120474   4.645   4.000   6.293 -0.2993 -0.9540  0.8267
 2947SOL    HW220475   0.043   3.961   6.251  0.2203  1.4377  1.8522
 2948SOL     OW20476   2.840   3.904   1.586 -0.6198 -0.1751  0.5768
 2948SOL    HW120477   2.847   3.999   1.583 -0.1722 -0.2705 -1.7564
 2948SOL    HW220478   2.873   3.873   1.501 -2.3029 -0.4751  0.0362
 2949SOL     OW20479   0.083   2.077  14.924  0.3723 -0.4064 -0.0985
 2949SOL    HW120480   0.165   2.102  14.967  0.1250 -0.5360  0.4419
 2949SOL    HW220481   0.127   2.010  14.871  3.8072  2.2356 -0.6202
 2950SOL     OW20482   3.941   0.093   2.609  0.2784  0.4209 -0.7398
 2950SOL    HW120483   4.011   0.120   2.669  0.2485  0.3527 -0.6740
 2950SOL    HW220484   3.867   0.153   2.615 -0.9556 -1.3075  1.2294
 2951SOL     OW20485   0.225   2.728   7.368  0.1290  0.2368 -0.0910
 2951SOL    HW120486   0.277   2.805   7.344  0.2133 -0.2929 -1.6142
 2951SOL    HW220487   0.156   2.769   7.420 -0.3743  1.8326 -2.0017
 2952SOL     OW20488   2.974   4.673   8.125 -0.0195 -0.1931  0.7131
 2952SOL    HW120489   2.898   4.720   8.092  0.2919 -0.5250 -0.4827
 2952SOL    HW220490   3.012   4.646   8.041 -2.3132 -0.4085 -0.2461
 2953SOL     OW20491   0.170   1.197   9.041  0.0134 -0.2794  0.0821
 2953SOL    HW120492   0.176   1.102   9.028 -1.2947 -0.4198  0.5395
 2953SOL    HW220493   0.256   1.209   9.083 -1.7452  1.9937  3.0592
 2954SOL     OW20494   0.661   4.603  12.128 -0.5018  0.4391 -0.7688
 2954SOL    HW120495   0.686   4.619  12.037 -0.5427 -1.8190 -1.1767
 2954SOL    HW220496   0.567   4.600  12.113 -0.5656  2.5153 -0.7768
 2955SOL     OW20497   3.649   0.575   3.855 -0.3857 -0.0018 -0.0725
 2955SOL    HW120498   3.698   0.550   3.934  0.8479  1.9387 -0.2156
 2955SOL    HW220499   3.708   0.537   3.790 -0.1195 -0.1724  0.2696
 2956SOL     OW20500   1.897   3.276   0.535  0.6134  0.1607  0.4168
 2956SOL    HW120501   1.965   3.211   0.551  1.6296  1.1652  0.2389
 2956SOL    HW220502   1.860   3.276   0.623 -1.0793  0.6906 -0.3028
 2957SOL     OW20503   3.747   0.932   6.667 -0.3887  0.3469 -0.2635
 2957SOL    HW120504   3.727   0.843   6.639 -0.8778 -0.4413  2.5757
 2957SOL    HW220505   3.717   0.923   6.758  1.4279 -1.4403  0.1549
 2958SOL     OW20506   3.591   4.611  14.167  0.0959  0.3286 -0.1223
 2958SOL    HW120507   3.591   4.681  14.233  3.1507  0.6396 -0.4746
 2958SOL    HW220508   3.682   4.588  14.153  0.8236  1.9048  2.0020
 2959SOL     OW20509   2.880   2.797  10.397  0.2794  0.1309  0.1606
 2959SOL    HW120510   2.802   2.829  10.440  0.8874 -0.2871  1.5583
 2959SOL    HW220511   2.871   2.702  10.404 -0.8299  0.2045 -0.2996
 2960SOL     OW20512   2.511   2.772   3.654  0.0085 -0.3878 -0.3869
 2960SOL    HW120513   2.431   2.772   3.603  0.6078  1.2832 -1.3382
 2960SOL    HW220514   2.568   2.825   3.598 -0.8707  0.3660 -0.5616
 2961SOL     OW20515   3.152   2.435   0.751  0.1351 -0.2733 -0.0262
 2961SOL    HW120516   3.086   2.468   0.690  2.2116 -0.9797 -2.6530
 2961SOL    HW220517   3.177   2.351   0.713  0.7762  0.1737 -0.6059
 2962SOL     OW20518   2.296   0.961   3.605 -0.8762  0.1531  0.2158
 2962SOL    HW120519   2.273   1.042   3.650  0.6286  0.2300  0.8518
 2962SOL    HW220520   2.248   0.979   3.524 -0.8304  1.6783  0.5316
 2963SOL     OW20521   2.446   0.221   4.990  0.8032 -0.2519 -0.0450
 2963SOL    HW120522   2.503   0.209   5.066  0.5182  1.7044  0.4770
 2963SOL    HW220523   2.419   0.132   4.967  1.1874 -0.6042  0.8472
 2964SOL     OW20524   1.339   1.759   9.219 -0.1757 -0.0983 -0.9412
 2964SOL    HW120525   1.322   1.852   9.201 -3.7955 -0.4066  0.7583
 2964SOL    HW220526   1.408   1.739   9.157 -0.0797 -1.0536 -0.5205
 2965SOL     OW20527   0.056   3.524   4.515 -0.2045 -0.3870 -0.1720
 2965SOL    HW120528   0.135   3.472   4.500  2.3455  3.7676 -1.2001
 2965SOL    HW220529   0.002   3.480   4.449  0.9890  0.4373 -1.6752
 2966SOL     OW20530   3.786   1.367   2.633 -0.5144  0.1735  0.0692
 2966SOL    HW120531   3.867   1.388   2.681 -0.9035 -0.8488  1.1737
 2966SOL    HW220532   3.817   1.309   2.563 -0.5114  1.3946 -0.9428
 2967SOL     OW20533   3.743   4.231   2.728  0.0685 -0.4880  0.1684
 2967SOL    HW120534   3.814   4.295   2.727  0.1230 -0.5835 -1.4479
 2967SOL    HW220535   3.668   4.288   2.715  1.3833  0.9673 -1.0169
 2968SOL     OW20536   1.761   2.986  14.624  0.2230 -0.5023 -0.5090
 2968SOL    HW120537   1.840   3.040  14.631 -0.1319 -0.1292  0.7389
 2968SOL    HW220538   1.690   3.048  14.613  1.0854  0.6053  0.1264
 2969SOL     OW20539   3.670   3.301   1.495 -0.4083 -0.1786 -0.2971
 2969SOL    HW120540   3.657   3.255   1.577 -3.1518 -0.9564 -1.1865
 2969SOL    HW220541   3.694   3.385   1.534  1.5549 -1.9028  2.1746
 2970SOL     OW20542   3.313   3.906   7.596 -0.4201 -0.2699 -0.3065
 2970SOL    HW120543   3.218   3.915   7.607 -0.4507 -1.0359  0.0322
 2970SOL    HW220544   3.332   3.895   7.503  1.1728 -0.5833  0.0602
 2971SOL     OW20545   2.621   4.248   8.635  0.1427 -0.0309  0.4968
 2971SOL    HW120546   2.558   4.222   8.702 -0.1290 -1.9059 -0.4713
 2971SOL    HW220547   2.684   4.285   8.696  3.2178 -3.2472 -0.7088
 2972SOL     OW20548   0.896   3.796   5.740 -0.6664  0.4221 -0.4068
 2972SOL    HW120549   0.961   3.749   5.792  1.5195  1.2995 -2.3742
 2972SOL    HW220550   0.885   3.885   5.774 -2.6830  0.5260 -1.3300
 2973SOL     OW20551   0.096   1.467   4.291  0.3997 -0.1346 -0.3135
 2973SOL    HW120552   0.108   1.448   4.385 -1.2437 -0.7433 -0.2292
 2973SOL    HW220553   0.019   1.524   4.290  0.2406 -0.3390  0.1530
 2974SOL     OW20554   3.606   1.287   4.904  0.0400  0.0833  0.3988
 2974SOL    HW120555   3.638   1.354   4.964  1.6604 -1.4674  1.2396
 2974SOL    HW220556   3.688   1.261   4.863  0.4335  0.8033  0.7368
 2975SOL     OW20557   4.219   3.589   1.507 -0.1448  0.8503  0.0795
 2975SOL    HW120558   4.285   3.536   1.552  0.7983  1.3717 -0.7041
 2975SOL    HW220559   4.245   3.662   1.563 -0.7635  0.8726  0.3375
 2976SOL     OW20560   3.863   3.771   6.166 -0.3900  0.0102  0.0568
 2976SOL    HW120561   3.820   3.785   6.250  0.8369  0.8184  0.5548
 2976SOL    HW220562   3.938   3.831   6.168 -0.0806 -0.3089 -2.1560
 2977SOL     OW20563   2.236   0.640   7.372 -0.4455  0.5690 -0.6557
 2977SOL    HW120564   2.270   0.729   7.383  0.6674  0.6917 -4.9695
 2977SOL    HW220565   2.158   0.655   7.317  0.7722 -0.5724 -2.6859
 2978SOL     OW20566   2.317   0.016   3.059  0.3418 -0.2833  0.3824
 2978SOL    HW120567   2.383   4.700   3.104  1.0705 -0.7042 -1.2008
 2978SOL    HW220568   2.351   0.100   3.091 -0.5277  0.8226 -1.6476
 2979SOL     OW20569   2.323   2.605   9.098  0.5494  0.2595  0.2722
 2979SOL    HW120570   2.389   2.586   9.165  1.6702 -0.4558 -1.0418
 2979SOL    HW220571   2.251   2.545   9.119 -0.0887  1.1927  0.7579
 2980SOL     OW20572   3.785   3.419   4.491  0.6526 -0.3042  0.0576
 2980SOL    HW120573   3.802   3.469   4.411  0.7844 -0.5280 -0.0528
 2980SOL    HW220574   3.786   3.332   4.452 -0.4841 -0.7703  1.0858
 2981SOL     OW20575   3.198   3.515  13.378 -0.3451 -0.4596 -0.0263
 2981SOL    HW120576   3.155   3.464  13.446  1.2510 -0.7678  0.7448
 2981SOL    HW220577   3.242   3.580  13.434  0.3260 -1.7345  0.9220
 2982SOL     OW20578   3.454   3.494   1.389  0.2789  0.5012  0.0211
 2982SOL    HW120579   3.497   3.445   1.459 -1.1769  1.3723  1.5477
 2982SOL    HW220580   3.528   3.541   1.350 -0.2504  2.4753  1.3941
 2983SOL     OW20581   2.551   2.521  14.181  0.5612 -0.2010  0.2770
 2983SOL    HW120582   2.502   2.487  14.106 -1.1341  0.8135  0.9273
 2983SOL    HW220583   2.526   2.613  14.183 -0.1413 -0.3694 -1.0581
 2984SOL     OW20584   0.297   2.959   9.706 -0.7526  0.3166 -0.1513
 2984SOL    HW120585   0.316   3.040   9.657  0.1636 -1.2346 -2.3537
 2984SOL    HW220586   0.382   2.952   9.749  0.0615  1.2881 -1.5623
 2985SOL     OW20587   2.735   2.379   3.759  0.5070  0.1269  0.2011
 2985SOL    HW120588   2.663   2.366   3.822  0.1054  3.3977  0.4115
 2985SOL    HW220589   2.728   2.292   3.719 -0.6547  0.5929 -0.6154
 2986SOL     OW20590   2.505   1.487  17.176  0.4128  0.1829  0.1077
 2986SOL    HW120591   2.457   1.420  17.224  0.4495 -1.9787 -2.9193
 2986SOL    HW220592   2.594   1.486  17.212  0.2815  2.0896  0.4627
 2987SOL     OW20593   0.238   0.600   7.312  0.0458  0.0242 -0.4443
 2987SOL    HW120594   0.316   0.575   7.361 -2.4346 -0.9241  3.0180
 2987SOL    HW220595   0.234   0.691   7.343  0.5976 -0.1591  0.1724
 2988SOL     OW20596   1.076   0.047   5.412  0.3504 -0.1956  0.1965
 2988SOL    HW120597   1.165   0.018   5.393  0.5088  0.1615  0.4104
 2988SOL    HW220598   1.040   4.704   5.450 -2.4701  0.7564 -0.4043
 2989SOL     OW20599   0.064   2.445   2.638 -0.3158  0.0617 -0.1965
 2989SOL    HW120600   0.057   2.411   2.727 -1.4376 -1.1277 -0.7556
 2989SOL    HW220601   4.723   2.408   2.597  0.0691 -2.0197  0.9689
 2990SOL     OW20602   4.009   4.279   3.630  0.2737  0.1770 -0.1678
 2990SOL    HW120603   3.958   4.250   3.706  1.4274  0.5564  0.7603
 2990SOL    HW220604   3.991   4.224   3.554  0.4752 -1.4944  0.9860
 2991SOL     OW20605   0.533   2.429   1.905 -0.5236  0.0036  1.0355
 2991SOL    HW120606   0.539   2.334   1.892 -1.6774 -0.0707  1.0909
 2991SOL    HW220607   0.438   2.440   1.913 -0.4221  1.8341 -0.2475
 2992SOL     OW20608   1.036   2.901   5.224 -0.4070 -0.3047  0.1875
 2992SOL    HW120609   1.046   2.931   5.314 -2.6970  2.3983 -0.4455
 2992SOL    HW220610   0.945   2.927   5.212 -0.2464  0.6756  1.0788
 2993SOL     OW20611   3.922   4.230   5.094  0.4870 -0.4548 -0.1772
 2993SOL    HW120612   3.947   4.143   5.065  2.3814  0.5185 -1.5037
 2993SOL    HW220613   3.980   4.285   5.041  0.9031  1.4300  2.1832
 2994SOL     OW20614   2.958   1.350   6.288  0.5092 -0.6533 -0.1459
 2994SOL    HW120615   2.944   1.255   6.285  0.2646 -0.5156 -3.0585
 2994SOL    HW220616   2.886   1.387   6.237  1.0900 -0.6111 -0.9251
 2995SOL     OW20617   3.581   3.337  15.291 -0.3004 -0.2771 -0.2983
 2995SOL    HW120618   3.512   3.302  15.347  1.2025 -1.6795  0.6730
 2995SOL    HW220619   3.546   3.334  15.202  2.0545  0.2478 -1.2370
 2996SOL     OW20620   4.331   4.496   3.662 -0.3590  0.6631 -0.2082
 2996SOL    HW120621   4.381   4.568   3.700 -2.4716  2.0376 -0.0257
 2996SOL    HW220622   4.269   4.480   3.733 -0.0350 -1.7732 -0.4478
 2997SOL     OW20623   0.945   4.611  12.867  0.7521 -0.3115  0.6163
 2997SOL    HW120624   0.920   4.688  12.815 -0.8017 -1.2954 -0.1029
 2997SOL    HW220625   0.887   4.619  12.942 -0.4804  0.6458 -0.4501
 2998SOL     OW20626   2.237   0.462   7.954  0.1442 -0.3605  0.1140
 2998SOL    HW120627   2.261   0.554   7.945 -1.1421  0.0307  0.6241
 2998SOL    HW220628   2.314   0.413   7.927 -0.2217 -1.0554  0.3324
 2999SOL     OW20629   2.597   1.268   2.112 -0.0162 -0.1487 -0.8652
 2999SOL    HW120630   2.684   1.307   2.120 -0.9553  1.4643  1.3526
 2999SOL    HW220631   2.609   1.194   2.053 -0.1764 -0.9298  0.0933
 3000SOL     OW20632   1.855   2.718  12.482 -0.1309 -0.0657 -0.8680
 3000SOL    HW120633   1.868   2.702  12.389  0.8994 -0.3207 -0.6742
 3000SOL    HW220634   1.771   2.763  12.489 -0.9574 -1.7708  0.2072
 3001SOL     OW20635   0.836   4.407   3.223 -0.0797  0.7829 -0.7329
 3001SOL    HW120636   0.907   4.430   3.283 -0.9379  0.4446  0.4053
 3001SOL    HW220637   0.873   4.386   3.138 -1.3674 -0.5173 -0.9667
 3002SOL     OW20638   1.799   2.450   3.215 -0.3433 -0.0690  0.3665
 3002SOL    HW120639   1.716   2.490   3.190  1.2772  3.0740 -0.0033
 3002SOL    HW220640   1.776   2.378   3.274 -2.4560 -0.4543 -0.9506
 3003SOL     OW20641   4.284   0.090   2.461 -0.7019 -0.1843 -0.3682
 3003SOL    HW120642   4.322   0.123   2.543 -0.9190 -2.0206  0.4679
 3003SOL    HW220643   4.321   0.150   2.397  2.1156 -1.2380  0.2672
 3004SOL     OW20644   3.100   0.668   6.261  0.8282 -0.1582 -0.0042
 3004SOL    HW120645   3.178   0.623   6.227  0.3801 -0.0921 -1.1113
 3004SOL    HW220646   3.069   0.594   6.313 -1.0183  0.1264 -0.7083
 3005SOL     OW20647   0.628   2.415  12.662 -0.0536  0.2814  0.0207
 3005SOL    HW120648   0.576   2.425  12.742  0.2318  0.3582  0.2010
 3005SOL    HW220649   0.590   2.475  12.599 -0.9543  0.5343  0.8126
 3006SOL     OW20650   1.122   2.485  10.570 -0.8268 -0.4341  0.0639
 3006SOL    HW120651   1.155   2.443  10.649  0.6968  1.1034  0.2497
 3006SOL    HW220652   1.049   2.525  10.618  0.4822  1.1026  0.7564
 3007SOL     OW20653   0.910   1.933  11.102  0.4848 -0.2706 -0.2464
 3007SOL    HW120654   0.888   1.842  11.121  0.6705 -0.1137  0.7129
 3007SOL    HW220655   0.942   1.919  11.013  2.1080  1.5448  0.0569
 3008SOL     OW20656   2.862   3.784  16.139  0.1036 -0.7888  0.5633
 3008SOL    HW120657   2.871   3.696  16.101  1.1836  0.0120 -1.0257
 3008SOL    HW220658   2.948   3.825  16.142  0.3625 -1.2730 -0.0254
 3009SOL     OW20659   4.091   2.068   8.836  0.3579  0.6332  0.3068
 3009SOL    HW120660   4.169   2.050   8.889 -0.1168 -1.0519  0.4558
 3009SOL    HW220661   4.020   2.027   8.887  1.8704 -0.4592  1.5421
 3010SOL     OW20662   0.128   0.958   2.747  0.0939 -0.2656 -0.2235
 3010SOL    HW120663   0.192   1.009   2.796 -3.0455  1.5869  1.9498
 3010SOL    HW220664   0.122   0.999   2.661  0.8984  0.8466  0.2608
 3011SOL     OW20665   2.360   2.702   7.111  0.1594  0.0627  0.3825
 3011SOL    HW120666   2.293   2.702   7.179  1.8007  1.8660  1.9954
 3011SOL    HW220667   2.315   2.701   7.027 -1.2762 -1.3249  1.1507
 3012SOL     OW20668   0.037   0.400   2.358  0.0177  0.0041  0.0758
 3012SOL    HW120669   0.111   0.441   2.314  1.4068  0.3200  2.7067
 3012SOL    HW220670   0.014   0.340   2.287 -1.0644  1.4562 -0.7945
 3013SOL     OW20671   1.731   1.898   8.520  0.1012  0.3974 -0.1703
 3013SOL    HW120672   1.710   1.923   8.610  0.6684 -2.0837  0.6411
 3013SOL    HW220673   1.672   1.825   8.504  0.5573 -0.1942  0.8743
 3014SOL     OW20674   4.007   1.103   8.907  0.2709 -0.5823 -0.4234
 3014SOL    HW120675   4.099   1.077   8.909  0.6092  0.4021 -3.0642
 3014SOL    HW220676   3.960   1.039   8.961  0.5239  0.2278  0.7475
 3015SOL     OW20677   1.406   0.724   4.273 -0.1020  0.0458 -0.3488
 3015SOL    HW120678   1.318   0.737   4.309 -0.0649 -3.0508  0.8374
 3015SOL    HW220679   1.455   0.675   4.338 -1.4455  0.4841  1.0158
 3016SOL     OW20680   4.611   2.075  16.569 -0.0562  0.1015  0.0744
 3016SOL    HW120681   4.704   2.093  16.582  0.4533 -2.1431 -0.4360
 3016SOL    HW220682   4.569   2.129  16.637 -2.1348 -0.1518 -1.0013
 3017SOL     OW20683   2.658   4.583  17.739 -0.2261 -0.0986  0.0120
 3017SOL    HW120684   2.682   4.605   0.082 -0.4736 -1.1406  0.3339
 3017SOL    HW220685   2.701   4.498  17.728  0.7396  0.0542  2.6252
 3018SOL     OW20686   3.836   1.195   7.506  0.0052  0.1244 -0.2162
 3018SOL    HW120687   3.846   1.285   7.538 -0.8240  0.0452  0.2748
 3018SOL    HW220688   3.928   1.173   7.490 -0.4718 -0.8403 -1.5021
 3019SOL     OW20689   1.722   0.627   1.900  0.3567 -0.0201 -0.1596
 3019SOL    HW120690   1.778   0.634   1.823 -0.7068  1.1898 -0.8299
 3019SOL    HW220691   1.754   0.691   1.964 -0.5597  0.5434 -0.2628
 3020SOL     OW20692   4.189   4.259  15.925 -0.3714 -0.1553 -0.3628
 3020SOL    HW120693   4.165   4.182  15.874  2.1496 -0.0725 -1.6860
 3020SOL    HW220694   4.267   4.222  15.966 -0.3064  0.1989 -0.1690
 3021SOL     OW20695   3.444   3.665   6.661 -0.3864 -0.2901 -0.0063
 3021SOL    HW120696   3.394   3.718   6.724 -0.8894  0.8796 -1.3760
 3021SOL    HW220697   3.394   3.700   6.586  0.4266  1.8767  0.4772
 3022SOL     OW20698   2.424   4.145   2.443 -0.4018 -0.2626  0.2104
 3022SOL    HW120699   2.508   4.180   2.471  0.7798 -0.6211 -2.9718
 3022SOL    HW220700   2.373   4.224   2.461 -1.7958 -1.0022 -0.5339
 3023SOL     OW20701   1.753   3.137   8.181 -0.1299  0.7592  0.3330
 3023SOL    HW120702   1.694   3.094   8.119  1.2108  0.4257 -0.7063
 3023SOL    HW220703   1.826   3.150   8.120 -1.2452  2.6347 -0.6172
 3024SOL     OW20704   4.116   4.080   9.441 -0.1805  0.1563  0.1067
 3024SOL    HW120705   4.123   4.143   9.513  1.6433  2.6337 -2.2523
 3024SOL    HW220706   4.027   4.052   9.463 -0.1833  1.1160  1.2976
 3025SOL     OW20707   2.505   2.303   2.462  0.7494  0.1660 -0.0893
 3025SOL    HW120708   2.589   2.336   2.430  0.9465  0.6526  0.9295
 3025SOL    HW220709   2.469   2.381   2.504 -0.7106  0.0320 -1.0891
 3026SOL     OW20710   2.070   4.097   7.006  0.0575  0.1032 -0.1935
 3026SOL    HW120711   2.018   4.149   6.945 -0.7246 -0.0730  0.3141
 3026SOL    HW220712   2.021   4.109   7.087  0.2400 -2.2768  0.2797
 3027SOL     OW20713   2.588   4.505  15.485  1.0504 -0.2241 -0.1925
 3027SOL    HW120714   2.643   4.534  15.412  0.9809 -1.9283 -0.9164
 3027SOL    HW220715   2.564   4.594  15.511  0.1194 -0.7199  0.6268
 3028SOL     OW20716   2.315   1.470   4.564 -0.0923  0.1467 -0.3159
 3028SOL    HW120717   2.336   1.496   4.654 -2.0330 -1.7042  0.6615
 3028SOL    HW220718   2.397   1.484   4.516 -0.3350 -1.2207 -1.1219
 3029SOL     OW20719   4.417   0.852   7.275 -0.2318  0.8211  0.0093
 3029SOL    HW120720   4.376   0.895   7.200  1.8866  1.3643 -0.8353
 3029SOL    HW220721   4.459   0.777   7.233 -0.7294 -0.0896  1.1221
 3030SOL     OW20722   2.719   2.786   5.740  0.0747 -0.4224 -0.5538
 3030SOL    HW120723   2.636   2.793   5.693 -0.4418 -1.0725  0.2751
 3030SOL    HW220724   2.753   2.719   5.680  0.7773 -0.4831 -0.0838
 3031SOL     OW20725   1.272   4.556  15.213 -0.1435 -0.4178  0.6415
 3031SOL    HW120726   1.331   4.524  15.145 -0.5906  1.0495 -0.4217
 3031SOL    HW220727   1.254   4.644  15.180 -0.5751 -0.9295 -0.4865
 3032SOL     OW20728   2.861   2.874   5.956 -0.0559 -0.2128 -0.3918
 3032SOL    HW120729   2.932   2.811   5.964  1.5182  1.4192 -1.4309
 3032SOL    HW220730   2.800   2.827   5.899 -0.5871  1.5388 -1.2847
 3033SOL     OW20731   3.550   2.832   7.385 -0.3203  0.0409 -0.1196
 3033SOL    HW120732   3.557   2.922   7.417  2.1404 -0.3036  0.3064
 3033SOL    HW220733   3.488   2.842   7.313  0.1127  3.8758  0.0130
 3034SOL     OW20734   2.399   4.454   2.468 -0.2384  0.4681 -0.2444
 3034SOL    HW120735   2.351   4.500   2.399  0.9232  0.4375 -1.0756
 3034SOL    HW220736   2.331   4.412   2.520 -0.2519  0.1051 -0.5569
 3035SOL     OW20737   4.157   4.105   9.170 -0.0174 -1.0421 -0.2663
 3035SOL    HW120738   4.200   4.126   9.253  0.5044 -0.2048 -0.7416
 3035SOL    HW220739   4.109   4.027   9.196 -2.4159 -0.2716 -2.3412
 3036SOL     OW20740   3.850   3.378   7.243  0.4575 -0.1788 -0.0665
 3036SOL    HW120741   3.894   3.454   7.281 -0.1918 -0.6408  1.6049
 3036SOL    HW220742   3.870   3.313   7.310  1.0495  0.0334 -0.0416
 3037SOL     OW20743   0.320   2.324   1.276 -0.1914 -0.0799 -0.3478
 3037SOL    HW120744   0.385   2.340   1.207 -0.4488 -0.8597 -0.7610
 3037SOL    HW220745   0.363   2.246   1.311 -2.4951 -0.7695  0.9403
 3038SOL     OW20746   1.328   0.311  11.740  0.6613  0.1087 -0.9422
 3038SOL    HW120747   1.412   0.353  11.721  0.0170  1.0551 -1.6956
 3038SOL    HW220748   1.342   0.261  11.820 -0.4192  3.7015  1.4703
 3039SOL     OW20749   3.631   4.184   2.249 -0.2921  0.2098 -0.5166
 3039SOL    HW120750   3.718   4.145   2.243 -0.0723  0.5833  0.2089
 3039SOL    HW220751   3.655   4.277   2.250  0.7083 -0.0803  1.3220
 3040SOL     OW20752   3.060   0.942  14.839 -0.4232  0.1308  0.1777
 3040SOL    HW120753   3.056   0.912  14.930  0.8831  0.1697  0.2490
 3040SOL    HW220754   3.027   1.032  14.848  0.7314  0.5249  0.4641
 3041SOL     OW20755   3.928   0.259   5.586 -0.5371 -0.2814 -0.6613
 3041SOL    HW120756   3.884   0.225   5.508  1.3215 -1.6121 -1.1438
 3041SOL    HW220757   3.953   0.174   5.623 -0.8151  0.2501  0.7592
 3042SOL     OW20758   4.042   4.627  14.355 -0.3711  0.5165 -0.0721
 3042SOL    HW120759   4.112   4.643  14.292  0.4962  1.5548  1.1505
 3042SOL    HW220760   3.982   4.676  14.299 -0.2810 -1.1158 -1.5827
 3043SOL     OW20761   1.282   3.583   7.363  0.3223  0.2093 -0.0427
 3043SOL    HW120762   1.306   3.494   7.337  0.9446  0.5088 -0.5182
 3043SOL    HW220763   1.228   3.598   7.286  2.5287  3.6487 -0.9129
 3044SOL     OW20764   2.968   0.293   3.296 -0.2502 -0.4590  0.4573
 3044SOL    HW120765   3.040   0.252   3.249 -0.1543 -0.9794  1.0572
 3044SOL    HW220766   2.907   0.219   3.295  1.9364 -2.2506  0.3893
 3045SOL     OW20767   3.305   3.797  11.274 -0.2656 -0.4299  0.3922
 3045SOL    HW120768   3.334   3.878  11.317 -0.2441 -0.2540  0.0406
 3045SOL    HW220769   3.386   3.747  11.263  0.3128  0.8725 -1.3588
 3046SOL     OW20770   1.323   1.998   5.749 -0.3338  0.5643 -0.0061
 3046SOL    HW120771   1.254   1.946   5.792 -0.5060 -1.2346 -2.4300
 3046SOL    HW220772   1.336   1.948   5.668  0.6584  2.5708 -1.0723
 3047SOL     OW20773   0.858   1.259   2.192 -0.4688  0.3033  0.2361
 3047SOL    HW120774   0.855   1.164   2.205 -0.7185 -0.1414 -3.2362
 3047SOL    HW220775   0.806   1.291   2.266 -0.8180  1.0279 -0.3213
 3048SOL     OW20776   1.300   4.600   6.553 -0.0634 -0.2177 -0.5581
 3048SOL    HW120777   1.390   4.623   6.530  0.0581  1.6177  1.7019
 3048SOL    HW220778   1.308   4.510   6.585 -0.0029  0.6501  1.8475
 3049SOL     OW20779   0.127   1.211   5.886  0.2397 -0.1120 -0.2422
 3049SOL    HW120780   0.108   1.262   5.965  1.6564  0.2345 -0.1283
 3049SOL    HW220781   0.135   1.122   5.921 -0.3750 -0.3637 -0.7447
 3050SOL     OW20782   4.501   4.661   2.357  0.3480 -0.1211  0.5418
 3050SOL    HW120783   4.473   4.575   2.389  3.2445 -1.4420 -0.4803
 3050SOL    HW220784   4.472   4.723   2.424 -0.8182  2.2188 -2.1223
 3051SOL     OW20785   2.624   3.908   7.062  0.0188 -0.2297 -0.1355
 3051SOL    HW120786   2.532   3.932   7.052  0.0246 -1.1194 -2.4274
 3051SOL    HW220787   2.635   3.837   6.999 -0.3839 -0.9618  0.6162
 3052SOL     OW20788   0.394   4.046   8.787  0.4434 -0.4476 -0.1866
 3052SOL    HW120789   0.362   3.977   8.846 -1.3859 -0.2641 -0.9810
 3052SOL    HW220790   0.488   4.030   8.796  0.5777 -2.4534 -5.2862
 3053SOL     OW20791   0.266   4.709   6.921  0.3698 -0.0459  0.0516
 3053SOL    HW120792   0.205   4.664   6.979 -1.1732  0.3802 -1.2191
 3053SOL    HW220793   0.212   0.049   6.905  0.8825  0.2651 -0.1770
 3054SOL     OW20794   0.162   4.245  11.978  0.6041 -0.3304  0.2042
 3054SOL    HW120795   0.105   4.189  11.926 -0.7033  1.4567 -0.2491
 3054SOL    HW220796   0.140   4.330  11.941  0.1497 -0.9664 -1.0019
 3055SOL     OW20797   3.205   4.245   3.219 -0.0263 -0.6073  0.5684
 3055SOL    HW120798   3.260   4.191   3.162  0.2958 -1.0766  1.3241
 3055SOL    HW220799   3.183   4.179   3.285 -0.9779  0.1380  1.0118
 3056SOL     OW20800   3.192   4.361  17.488  0.3724  0.0080 -0.1376
 3056SOL    HW120801   3.136   4.338  17.562 -0.1987  0.8364 -0.3098
 3056SOL    HW220802   3.211   4.275  17.450  2.1106 -0.2393  1.2795
 3057SOL     OW20803   4.430   3.015   4.480  0.1620 -0.6581 -0.3351
 3057SOL    HW120804   4.425   2.965   4.398  1.1238 -0.6198 -0.4108
 3057SOL    HW220805   4.363   3.080   4.458  1.6597  0.8566 -0.4199
 3058SOL     OW20806   4.239   3.833   9.560  0.5558 -0.4989  1.0515
 3058SOL    HW120807   4.174   3.767   9.535  0.2184  0.6799 -1.1767
 3058SOL    HW220808   4.196   3.918   9.547  0.5217 -0.3131  2.4149
 3059SOL     OW20809   0.992   4.504  16.021  0.3124 -0.1633 -0.1899
 3059SOL    HW120810   0.931   4.482  15.951 -1.6067 -0.4889  1.5676
 3059SOL    HW220811   1.062   4.556  15.983  1.0205  1.8752  3.8943
 3060SOL     OW20812   0.219   1.299  15.701 -0.1378 -0.1713 -0.1940
 3060SOL    HW120813   0.141   1.338  15.660  0.4582  1.4560  0.2124
 3060SOL    HW220814   0.244   1.251  15.622  0.8489 -1.1866  0.7485
 3061SOL     OW20815   2.667   2.072   2.055  0.3757  0.4070  0.1438
 3061SOL    HW120816   2.724   1.995   2.056  2.1824  1.7063 -2.1763
 3061SOL    HW220817   2.615   2.050   2.132  0.7601  1.2217  0.6441
 3062SOL     OW20818   1.281   1.056  17.105  0.9272  0.2994 -0.5892
 3062SOL    HW120819   1.319   1.116  17.041  1.5121  0.7730  0.1936
 3062SOL    HW220820   1.303   0.971  17.067  1.3151  0.5202 -0.8631
 3063SOL     OW20821   2.969   1.869   5.746 -0.2138  0.1768 -0.6423
 3063SOL    HW120822   3.064   1.869   5.737 -0.3330 -0.4016 -1.9166
 3063SOL    HW220823   2.944   1.961   5.746 -0.2270  0.1690  0.8917
 3064SOL     OW20824   1.530   0.395  15.297  0.0482  0.2769  0.3799
 3064SOL    HW120825   1.454   0.365  15.347  0.5862  1.2224  1.7428
 3064SOL    HW220826   1.565   0.468  15.348  0.6675 -0.9678  1.7453
 3065SOL     OW20827   3.862   0.916   4.698 -0.3414  0.2884 -0.3015
 3065SOL    HW120828   3.817   0.930   4.615  0.4803 -1.9117 -1.1131
 3065SOL    HW220829   3.875   1.008   4.722  2.0227  0.2727 -1.5161
 3066SOL     OW20830   3.091   0.976   6.567 -0.1229  0.2510 -0.3699
 3066SOL    HW120831   3.076   0.971   6.472 -0.9727  0.3225 -0.2418
 3066SOL    HW220832   3.186   0.984   6.564 -0.0271 -1.2203 -1.2543
 3067SOL     OW20833   0.919   3.710   5.470 -0.3213 -0.0504  0.3208
 3067SOL    HW120834   0.943   3.744   5.556  0.4813  0.3151 -0.0539
 3067SOL    HW220835   0.825   3.711   5.488 -0.6518 -2.6044 -1.2944
 3068SOL     OW20836   2.089   3.629  12.353  0.0199  0.3444  0.1708
 3068SOL    HW120837   2.112   3.605  12.443 -0.9845 -0.7611  0.1312
 3068SOL    HW220838   2.103   3.545  12.308 -1.9589  1.1011 -1.8345
 3069SOL     OW20839   4.017   0.789   5.711 -0.5268 -0.4058  0.7545
 3069SOL    HW120840   3.931   0.752   5.728 -1.8924  2.1757 -0.4410
 3069SOL    HW220841   4.045   0.811   5.801 -1.5481  0.8673  0.7661
 3070SOL     OW20842   1.194   1.081   9.098 -0.2739  0.0388 -0.0690
 3070SOL    HW120843   1.161   1.016   9.036  0.3109 -0.7174  0.4187
 3070SOL    HW220844   1.285   1.073   9.069 -0.5986 -1.9749 -0.4798
 3071SOL     OW20845   0.035   3.490   4.782  0.0152 -0.2719  0.0483
 3071SOL    HW120846   0.081   3.408   4.799  1.2574  0.7139  1.4088
 3071SOL    HW220847   0.031   3.493   4.686  0.9629 -1.3687 -0.0307
 3072SOL     OW20848   2.944   2.847  13.680 -0.1990 -0.0776 -0.1275
 3072SOL    HW120849   2.865   2.870  13.729  0.8178  0.0184  1.4352
 3072SOL    HW220850   2.984   2.933  13.690 -0.6965  0.1452 -0.0169
 3073SOL     OW20851   0.117   0.434   5.208 -0.0057 -0.5449 -0.0131
 3073SOL    HW120852   0.036   0.384   5.197 -0.2400  0.1037 -1.2579
 3073SOL    HW220853   0.130   0.459   5.117 -0.0562  0.0372  0.1380
 3074SOL     OW20854   4.500   4.640   7.847  0.7553 -0.2270  0.5424
 3074SOL    HW120855   4.567   4.572   7.856 -0.9025 -1.8315  0.6507
 3074SOL    HW220856   4.527   4.702   7.914  0.6517 -0.4705  0.8059
 3075SOL     OW20857   3.131   3.036   8.472  0.6134 -0.0650  0.1708
 3075SOL    HW120858   3.135   2.957   8.419  1.1870 -0.7057  1.1611
 3075SOL    HW220859   3.037   3.057   8.473  0.2345 -1.7081 -1.1553
 3076SOL     OW20860   3.146   3.717   3.704  0.4693  0.8172  0.5185
 3076SOL    HW120861   3.063   3.736   3.747  0.4924 -1.2636  1.5111
 3076SOL    HW220862   3.208   3.753   3.767  1.3577  3.0724 -1.6400
 3077SOL     OW20863   1.140   3.394  17.281  0.1858 -0.5621 -0.3807
 3077SOL    HW120864   1.099   3.323  17.330 -0.6296  2.0740  2.7390
 3077SOL    HW220865   1.087   3.473  17.295 -0.7940 -1.2128 -0.3657
 3078SOL     OW20866   1.754   1.467   5.069 -0.3711 -0.1739 -0.2824
 3078SOL    HW120867   1.783   1.450   5.159 -2.1713  1.7279  0.6707
 3078SOL    HW220868   1.776   1.559   5.054 -0.3677 -0.1652 -0.2248
 3079SOL     OW20869   0.761   2.376   6.077 -0.4926 -0.2864  0.9591
 3079SOL    HW120870   0.695   2.347   6.014 -0.6346  0.3756  0.8010
 3079SOL    HW220871   0.735   2.323   6.153  2.3605 -1.1536  1.3230
 3080SOL     OW20872   2.534   3.140   2.854 -0.4626  1.1211  0.7627
 3080SOL    HW120873   2.479   3.168   2.781 -0.5892 -0.4050  0.2672
 3080SOL    HW220874   2.484   3.155   2.935  0.2670  1.0134  1.2390
 3081SOL     OW20875   1.747   2.267   4.791 -0.0637 -0.1808 -0.4440
 3081SOL    HW120876   1.669   2.237   4.838 -0.0974  0.3632 -0.1525
 3081SOL    HW220877   1.790   2.184   4.771 -1.3098 -1.3042  1.5185
 3082SOL     OW20878   1.514   4.510   2.534 -0.1278  0.2554  0.3793
 3082SOL    HW120879   1.464   4.508   2.615 -1.2534  0.7142 -0.3041
 3082SOL    HW220880   1.603   4.496   2.565 -0.7574 -0.9597  1.6254
 3083SOL     OW20881   2.700   0.120   1.362  0.2099  0.2266  0.4897
 3083SOL    HW120882   2.733   0.201   1.323 -3.1711  1.2841 -0.1101
 3083SOL    HW220883   2.637   0.093   1.296  0.2857  0.4598  0.3250
 3084SOL     OW20884   3.908   1.892   8.928 -0.1069  0.0802 -0.1621
 3084SOL    HW120885   3.909   1.884   9.024  1.6597 -1.6207 -0.3440
 3084SOL    HW220886   3.821   1.929   8.910 -0.1248  0.4762  0.7020
 3085SOL     OW20887   4.402   4.013   3.666  0.3083 -0.4882  0.3032
 3085SOL    HW120888   4.379   4.094   3.621  1.3921 -0.3076  0.0815
 3085SOL    HW220889   4.347   4.014   3.745  0.3513  0.0688  0.3254
 3086SOL     OW20890   2.706   1.227   0.964  0.0552 -0.2696  0.0738
 3086SOL    HW120891   2.801   1.235   0.963  0.0147  0.1847 -0.3424
 3086SOL    HW220892   2.699   1.154   0.903 -1.0092 -0.4800  0.4360
 3087SOL     OW20893   4.253   3.257  17.736  0.0702  0.0875  0.0136
 3087SOL    HW120894   4.260   3.298   0.075  2.1001  2.1340 -1.1276
 3087SOL    HW220895   4.204   3.177   0.007 -0.7461  0.5600 -0.1077
 3088SOL     OW20896   0.719   4.221   9.551  0.1174 -0.0526 -0.2339
 3088SOL    HW120897   0.775   4.286   9.594  1.4666 -0.6398 -1.1009
 3088SOL    HW220898   0.726   4.256   9.462 -0.9277 -0.2514 -0.3928
 3089SOL     OW20899   0.885   3.409   5.257 -0.1432 -0.0782 -0.0789
 3089SOL    HW120900   0.968   3.366   5.237 -0.2964 -1.2930  1.8067
 3089SOL    HW220901   0.857   3.381   5.344  0.6588  0.7962  0.4578
 3090SOL     OW20902   4.214   3.000  12.926 -0.4447 -0.1117 -0.1532
 3090SOL    HW120903   4.157   2.923  12.930 -0.2806 -0.0508  3.9879
 3090SOL    HW220904   4.183   3.031  13.012  1.3502 -0.0277  0.4504
 3091SOL     OW20905   0.795   1.219   3.751 -0.0035  0.1083  0.0911
 3091SOL    HW120906   0.837   1.304   3.738 -2.7528  1.5417  0.6619
 3091SOL    HW220907   0.752   1.232   3.836  0.8851  1.6137  0.3039
 3092SOL     OW20908   1.829   4.431  11.054 -0.2922  0.3102 -0.5478
 3092SOL    HW120909   1.862   4.521  11.047  0.7812 -0.1960 -2.1980
 3092SOL    HW220910   1.745   4.441  11.010 -0.4753 -0.8294 -0.4583
 3093SOL     OW20911   0.178   3.169  10.014 -0.3623 -0.2723 -0.5868
 3093SOL    HW120912   0.214   3.098  10.068  0.1390  1.4239  1.3035
 3093SOL    HW220913   0.259   3.205   9.979  0.4005 -0.1922  1.2241
 3094SOL     OW20914   2.077   3.744   0.705  0.1170  0.0727  0.8305
 3094SOL    HW120915   2.146   3.772   0.645 -1.4037 -0.6329 -1.2257
 3094SOL    HW220916   2.000   3.759   0.651  0.4258  2.7682  1.1324
 3095SOL     OW20917   1.835   3.350   2.370 -0.7887  0.4990 -0.3490
 3095SOL    HW120918   1.773   3.330   2.300 -0.8610  0.4197 -0.2615
 3095SOL    HW220919   1.797   3.305   2.446 -0.7427 -2.0936 -1.8771
 3096SOL     OW20920   0.822   2.215   2.571 -0.3450 -0.5342  0.0017
 3096SOL    HW120921   0.796   2.247   2.658  1.5974  0.6775  0.1271
 3096SOL    HW220922   0.763   2.271   2.521  0.2301 -0.8304 -0.9969
 3097SOL     OW20923   3.153   0.067   7.385  0.1154 -0.2958  0.1640
 3097SOL    HW120924   3.223   0.120   7.424  0.8384 -1.8570  0.9608
 3097SOL    HW220925   3.158   4.724   7.436 -1.2279 -0.5615 -0.1232
 3098SOL     OW20926   1.556   3.909   3.749 -0.1328  0.4520  0.0228
 3098SOL    HW120927   1.526   3.926   3.659 -0.0504 -1.0717 -0.2964
 3098SOL    HW220928   1.650   3.902   3.737 -0.3714 -0.8447 -1.1882
 3099SOL     OW20929   1.490   1.688  10.154 -0.3228 -0.0676  0.0802
 3099SOL    HW120930   1.426   1.750  10.119 -0.5101  1.3144  2.8695
 3099SOL    HW220931   1.481   1.715  10.246 -0.5427 -1.2898  0.4187
 3100SOL     OW20932   1.550   3.318   2.094 -0.3795  0.1231 -0.1515
 3100SOL    HW120933   1.573   3.231   2.060  0.4013  0.0027  0.6786
 3100SOL    HW220934   1.580   3.364   2.016  1.8183  0.3564  0.8415
 3101SOL     OW20935   4.090   4.040  15.757 -0.3753 -0.0608 -0.8077
 3101SOL    HW120936   4.126   4.087  15.682 -0.1419  0.8926 -0.0879
 3101SOL    HW220937   4.056   3.968  15.703  1.5354 -1.6572  0.1245
 3102SOL     OW20938   3.526   4.544   7.780 -0.3970 -0.2196  0.5789
 3102SOL    HW120939   3.510   4.584   7.865 -3.1975 -1.1753  0.5323
 3102SOL    HW220940   3.531   4.621   7.722  1.2317  0.6338  1.8561
 3103SOL     OW20941   1.205   4.417   5.185 -0.3479  0.4473 -0.0003
 3103SOL    HW120942   1.181   4.325   5.200  0.7166  0.0233 -0.9294
 3103SOL    HW220943   1.116   4.453   5.181 -0.7111 -0.6239 -1.4337
 3104SOL     OW20944   3.055   4.007   3.028  0.6941  1.2861  0.2113
 3104SOL    HW120945   3.060   4.053   2.944  1.4372 -1.4034 -1.1948
 3104SOL    HW220946   3.147   4.005   3.056  0.2629  0.0953  1.5034
 3105SOL     OW20947   0.680   0.181   4.335 -0.1019 -0.0228 -0.4577
 3105SOL    HW120948   0.750   0.234   4.372 -1.3542  3.3474 -2.9187
 3105SOL    HW220949   0.700   0.095   4.373  1.5125  0.6488  0.1716
 3106SOL     OW20950   1.842   4.585   8.558 -0.1536 -0.7237 -0.2125
 3106SOL    HW120951   1.819   4.509   8.505 -0.2337  2.2794 -4.5154
 3106SOL    HW220952   1.865   4.531   8.633  0.1768 -0.4736 -0.1332
 3107SOL     OW20953   1.456   0.109   4.981  0.5346 -0.2709  0.2088
 3107SOL    HW120954   1.393   0.039   4.998  0.4847  0.1862  1.9317
 3107SOL    HW220955   1.519   0.063   4.927  0.5666  0.9246 -0.7809
 3108SOL     OW20956   0.234   4.151  10.511  0.2599  0.4973 -0.5377
 3108SOL    HW120957   0.148   4.107  10.511  1.2649 -1.4691 -0.9014
 3108SOL    HW220958   0.242   4.173  10.604 -0.5543  0.9925 -0.5802
 3109SOL     OW20959   4.704   0.764   8.012 -0.3799  0.2127 -0.7339
 3109SOL    HW120960   0.005   0.678   8.032 -2.1771  0.0184  1.8686
 3109SOL    HW220961   4.625   0.744   7.962  0.0735  1.0596 -1.7886
 3110SOL     OW20962   1.685   1.740  12.064  0.0304 -0.7266 -0.0601
 3110SOL    HW120963   1.736   1.815  12.035 -0.1821 -0.7325 -0.4651
 3110SOL    HW220964   1.683   1.687  11.984  0.9410  0.3557 -0.7851
 3111SOL     OW20965   2.195   3.991   2.929  0.3154 -0.2427  0.4751
 3111SOL    HW120966   2.287   4.017   2.920  0.6380 -1.0389  1.5764
 3111SOL    HW220967   2.202   3.967   3.021 -0.9381 -1.5980  0.2109
 3112SOL     OW20968   2.688   3.830  13.007 -0.1875  0.3886 -0.1910
 3112SOL    HW120969   2.753   3.889  13.045 -1.0948  0.7994  0.7128
 3112SOL    HW220970   2.737   3.748  13.009 -0.7940  0.1025  2.3320
 3113SOL     OW20971   4.031   2.617   5.474  0.0469  0.4432  0.1524
 3113SOL    HW120972   3.999   2.585   5.559  1.5388 -2.6178 -0.4324
 3113SOL    HW220973   3.956   2.589   5.422 -1.0869 -2.2665  3.1774
 3114SOL     OW20974   1.255   4.020  17.467  0.1058  0.1437  0.4912
 3114SOL    HW120975   1.286   3.948  17.413 -2.7765  0.9209 -2.2380
 3114SOL    HW220976   1.163   4.032  17.443 -0.1947  1.7714  2.3729
 3115SOL     OW20977   2.479   0.561   9.574 -0.3466 -0.1605  0.3339
 3115SOL    HW120978   2.391   0.599   9.583  0.8318  2.1594  2.0577
 3115SOL    HW220979   2.465   0.513   9.493  0.7668  0.1595 -0.0492
 3116SOL     OW20980   1.538   4.350   0.841 -0.2972  0.5559  0.1089
 3116SOL    HW120981   1.558   4.376   0.931 -1.1388  1.8218 -0.0798
 3116SOL    HW220982   1.569   4.260   0.851 -2.6724 -0.4388 -1.5624
 3117SOL     OW20983   0.504   2.406   4.732 -0.4414  0.4907  0.3883
 3117SOL    HW120984   0.413   2.393   4.758  0.1441 -0.9501  1.6799
 3117SOL    HW220985   0.530   2.314   4.721  0.9616  0.8340  0.8965
 3118SOL     OW20986   0.271   2.300   7.244 -0.5864  0.1345  0.2252
 3118SOL    HW120987   0.227   2.377   7.208 -1.0882  0.6912  2.0323
 3118SOL    HW220988   0.317   2.274   7.164  1.7914 -0.4348  1.8089
 3119SOL     OW20989   1.779   0.439   2.669  0.8201  0.0667  0.8044
 3119SOL    HW120990   1.840   0.512   2.678 -2.1221  2.6886 -0.3903
 3119SOL    HW220991   1.760   0.456   2.576 -1.1053  0.9978  1.3670
 3120SOL     OW20992   1.999   3.413   0.312 -1.2537 -0.0398  0.0520
 3120SOL    HW120993   2.061   3.356   0.267 -1.8983  1.0555 -2.2110
 3120SOL    HW220994   1.975   3.360   0.388 -0.3015  0.5501  0.7544
 3121SOL     OW20995   0.783   0.242  16.233  0.0487 -0.4108 -0.3793
 3121SOL    HW120996   0.826   0.156  16.231  0.8148 -0.0474  0.2024
 3121SOL    HW220997   0.837   0.286  16.298  3.0118 -1.6773 -1.9562
 3122SOL     OW20998   3.967   3.274   1.063  0.2777  0.2530  0.0842
 3122SOL    HW120999   3.929   3.294   1.148 -0.2059 -0.6819  0.0815
 3122SOL    HW221000   3.963   3.180   1.076 -1.1959 -0.0272 -2.2983
 3123SOL     OW21001   4.502   4.570   8.724 -0.2760  0.1855  0.7336
 3123SOL    HW121002   4.548   4.487   8.714 -0.4260 -0.0054  1.5659
 3123SOL    HW221003   4.543   4.619   8.654  1.1566 -2.1726 -0.0831
 3124SOL     OW21004   2.306   3.942  12.860  0.2854 -0.3302 -0.1707
 3124SOL    HW121005   2.302   3.957  12.765 -0.9345  2.7329  0.3552
 3124SOL    HW221006   2.240   4.004  12.890  0.9180  1.2063 -1.9843
 3125SOL     OW21007   3.614   0.612   3.398  0.1593 -0.2548  0.8428
 3125SOL    HW121008   3.677   0.673   3.436 -0.5207  0.9486  0.0437
 3125SOL    HW221009   3.627   0.638   3.307 -2.5482 -0.1014  0.5227
 3126SOL     OW21010   1.121   4.647  16.410 -0.2482 -0.2938 -0.2884
 3126SOL    HW121011   1.195   4.662  16.350 -1.8896 -0.9151 -2.4939
 3126SOL    HW221012   1.125   4.551  16.412 -1.1390 -0.3670 -1.7862
 3127SOL     OW21013   0.450   2.149   3.739 -0.5691 -0.5206 -0.2199
 3127SOL    HW121014   0.458   2.085   3.668 -1.0879  1.0020 -1.6535
 3127SOL    HW221015   0.499   2.107   3.810 -0.1229 -0.4076 -0.4629
 3128SOL     OW21016   1.603   1.593   6.390 -0.0858 -0.5464  0.4604
 3128SOL    HW121017   1.611   1.637   6.475 -1.2968  0.5656 -0.0093
 3128SOL    HW221018   1.685   1.545   6.393  0.8504  0.9578 -1.0177
 3129SOL     OW21019   2.586   0.655   2.512 -0.4250 -0.0146 -0.1505
 3129SOL    HW121020   2.566   0.673   2.420 -1.6842  1.5482  0.4294
 3129SOL    HW221021   2.507   0.608   2.539  0.7075 -1.1500  1.1468
 3130SOL     OW21022   3.482   2.185   3.692  0.0020 -0.1084  0.3178
 3130SOL    HW121023   3.493   2.241   3.769  1.1386 -1.8244  1.4320
 3130SOL    HW221024   3.561   2.208   3.642 -2.0546  1.8191 -2.0049
 3131SOL     OW21025   1.104   1.905  16.495 -0.2980 -0.2153  0.3409
 3131SOL    HW121026   1.159   1.853  16.437  1.3478  0.8646  0.9277
 3131SOL    HW221027   1.037   1.934  16.434  1.7667  0.3892 -1.6248
 3132SOL     OW21028   0.359   2.814   7.042 -0.5354 -0.1820  0.3848
 3132SOL    HW121029   0.361   2.844   7.132 -1.1903  3.5611 -0.8490
 3132SOL    HW221030   0.266   2.793   7.041 -0.1935 -1.6974  0.0082
 3133SOL     OW21031   2.368   2.764   4.902 -0.1680  0.2926  0.3377
 3133SOL    HW121032   2.414   2.710   4.837  0.9226 -1.1097  2.2510
 3133SOL    HW221033   2.362   2.846   4.855  0.7022  1.4521  2.2352
 3134SOL     OW21034   0.166   2.547   7.155 -0.7755 -0.1245 -0.1720
 3134SOL    HW121035   0.187   2.579   7.243  0.0596 -0.0771 -0.3852
 3134SOL    HW221036   0.128   2.630   7.125 -1.8391 -0.0409  1.3885
 3135SOL     OW21037   0.324   1.545  15.853  0.1916 -0.0708  0.0483
 3135SOL    HW121038   0.418   1.540  15.839  0.4298  1.4219  1.1070
 3135SOL    HW221039   0.293   1.470  15.803 -0.2824  1.9548 -2.6834
 3136SOL     OW21040   1.489   2.781   4.732  0.5042 -0.1131  0.0397
 3136SOL    HW121041   1.576   2.746   4.711  0.7047  1.0938 -1.1811
 3136SOL    HW221042   1.499   2.873   4.757 -2.8417  0.3575 -0.3316
 3137SOL     OW21043   1.409   1.822   2.708 -0.4603 -0.0927 -0.2127
 3137SOL    HW121044   1.441   1.777   2.630 -0.4084 -1.7606  0.7868
 3137SOL    HW221045   1.468   1.898   2.710 -1.8586  1.0396 -1.7820
 3138SOL     OW21046   1.227   3.084   4.810  0.3955  0.2495  0.3315
 3138SOL    HW121047   1.296   3.148   4.793  1.1286 -0.7535 -0.5221
 3138SOL    HW221048   1.244   3.037   4.892 -2.1147 -0.8404  0.2244
 3139SOL     OW21049   0.487   2.764  13.588 -0.4175 -0.6259  0.7313
 3139SOL    HW121050   0.518   2.839  13.537  0.0827 -1.6725 -0.4993
 3139SOL    HW221051   0.558   2.752  13.651  0.6688  0.3724 -0.2996
 3140SOL     OW21052   3.454   1.102   8.190 -0.1298  0.2183  0.7517
 3140SOL    HW121053   3.434   1.013   8.219  2.0918 -0.0936  1.3386
 3140SOL    HW221054   3.529   1.131   8.243 -0.4471 -0.5586  1.6363
 3141SOL     OW21055   2.006   2.921   7.727  0.0354  0.2435  0.7729
 3141SOL    HW121056   1.956   2.999   7.750 -1.5632 -0.4149 -0.5353
 3141SOL    HW221057   2.093   2.958   7.710  0.0870  0.1184  0.7656
 3142SOL     OW21058   2.879   0.139   0.412  0.0259 -0.4445 -0.0104
 3142SOL    HW121059   2.925   0.204   0.464 -1.1695 -0.4199  1.0217
 3142SOL    HW221060   2.889   0.188   0.330 -0.5138 -1.0886 -0.4617
 3143SOL     OW21061   3.924   3.459   4.133 -0.3170  0.3755 -0.3793
 3143SOL    HW121062   3.957   3.545   4.158 -0.4971  0.3186  0.0727
 3143SOL    HW221063   3.840   3.468   4.177  1.2823  1.5023  2.4385
 3144SOL     OW21064   2.717   2.550   5.529  0.2123 -0.7044  0.3116
 3144SOL    HW121065   2.790   2.497   5.498 -0.7478 -1.9232  0.1003
 3144SOL    HW221066   2.662   2.552   5.451 -1.2560  0.8308  1.3719
 3145SOL     OW21067   0.389   4.517   3.997  0.0917  0.0612  0.4210
 3145SOL    HW121068   0.439   4.452   3.947  1.0407  1.3444 -0.3123
 3145SOL    HW221069   0.296   4.493   4.000 -0.1245  0.9200  0.4930
 3146SOL     OW21070   2.956   3.127   4.361  0.5788 -0.3583  0.4550
 3146SOL    HW121071   2.901   3.077   4.302  0.6897  1.3073 -1.0584
 3146SOL    HW221072   2.931   3.105   4.451 -3.8165 -2.0662 -1.2059
 3147SOL     OW21073   1.468   2.148   8.021 -0.2439  0.1702  0.1625
 3147SOL    HW121074   1.522   2.224   7.997  1.1467 -0.9407 -0.2247
 3147SOL    HW221075   1.479   2.152   8.115 -0.5931 -0.8863  0.2507
 3148SOL     OW21076   3.058   3.397   5.526 -0.0070  0.1073  0.1730
 3148SOL    HW121077   2.994   3.370   5.592 -0.1862  3.9078  1.5854
 3148SOL    HW221078   3.132   3.355   5.569 -0.1745 -0.0383  0.3198
 3149SOL     OW21079   1.562   4.188   9.602 -0.3937  0.1532 -0.4176
 3149SOL    HW121080   1.554   4.151   9.689  1.1184 -0.5151 -0.5635
 3149SOL    HW221081   1.599   4.107   9.566 -1.5971 -0.8002  0.5023
 3150SOL     OW21082   3.617   0.032   8.858 -0.1057 -0.3381 -0.0410
 3150SOL    HW121083   3.627   0.072   8.944 -0.5434  1.6746 -0.9287
 3150SOL    HW221084   3.703   4.728   8.849 -0.6383 -1.7742  1.3268
 3151SOL     OW21085   3.918   2.786   8.018  0.3053  0.1140 -0.3402
 3151SOL    HW121086   3.948   2.700   7.989  2.8211  0.9025 -0.1498
 3151SOL    HW221087   4.006   2.815   8.042  1.2396 -3.8304  0.9311
 3152SOL     OW21088   3.434   0.021  14.012 -0.0081 -1.0692 -0.4333
 3152SOL    HW121089   3.477   4.712  14.083 -0.2202  0.8099  0.9044
 3152SOL    HW221090   3.496   0.092  13.996  0.1370 -0.5579  2.4678
 3153SOL     OW21091   0.219   0.248  12.356  0.2428  0.5010  0.6026
 3153SOL    HW121092   0.145   0.246  12.417 -1.7465 -1.6570 -1.8794
 3153SOL    HW221093   0.202   0.165  12.311  0.1115  0.6190  0.4313
 3154SOL     OW21094   2.068   0.590   2.915 -0.3169 -0.1176  0.4271
 3154SOL    HW121095   2.084   0.509   2.964 -0.9837 -0.1475  0.5940
 3154SOL    HW221096   2.152   0.590   2.867 -1.1502  1.0654 -1.0304
 3155SOL     OW21097   3.941   3.897  15.537  0.3941  0.7038  0.6333
 3155SOL    HW121098   3.862   3.843  15.542  0.5096  0.4701 -0.1164
 3155SOL    HW221099   3.915   3.970  15.481 -2.1525 -0.2580  0.5673
 3156SOL     OW21100   2.330   3.226   2.679 -0.0412 -0.3916 -0.2770
 3156SOL    HW121101   2.268   3.155   2.664 -2.0338  1.4358 -0.6472
 3156SOL    HW221102   2.274   3.299   2.706 -0.8565 -0.9329 -0.4968
 3157SOL     OW21103   1.940   0.856   1.488 -0.0358  0.1365 -0.6815
 3157SOL    HW121104   1.996   0.927   1.456 -0.6362  1.0185  0.2442
 3157SOL    HW221105   2.011   0.792   1.490 -1.4099 -1.3275  0.5686
 3158SOL     OW21106   0.789   3.552   7.157  0.5223 -0.7611 -0.1290
 3158SOL    HW121107   0.869   3.499   7.166  1.6527  1.3842  2.2124
 3158SOL    HW221108   0.717   3.489   7.148  1.8115 -2.2945  0.2691
 3159SOL     OW21109   0.116   3.730  15.911  0.5272 -0.0524 -0.6566
 3159SOL    HW121110   0.209   3.735  15.889  0.7322 -1.9382 -0.1816
 3159SOL    HW221111   0.085   3.699  15.826 -1.2190  0.0942 -0.0743
 3160SOL     OW21112   3.077   4.552  11.161  0.4006  0.4491 -0.4090
 3160SOL    HW121113   3.086   4.467  11.203  0.9552  1.6457  1.9097
 3160SOL    HW221114   2.981   4.561  11.157  0.3816 -0.0830 -1.0768
 3161SOL     OW21115   0.158   3.696   2.190  0.3560 -0.1706 -0.2021
 3161SOL    HW121116   0.132   3.767   2.249 -1.3569 -1.0994  0.1620
 3161SOL    HW221117   0.080   3.641   2.200 -0.1476  0.1309 -2.4380
 3162SOL     OW21118   0.661   4.176   4.480 -0.1018  0.3624 -0.4953
 3162SOL    HW121119   0.637   4.215   4.564 -2.3649  1.6846 -1.7600
 3162SOL    HW221120   0.686   4.086   4.503 -0.2905  0.0517 -1.5067
 3163SOL     OW21121   0.810   2.835  15.371  0.1504  0.1486 -0.3183
 3163SOL    HW121122   0.767   2.907  15.418  0.3402  0.8009 -1.1392
 3163SOL    HW221123   0.824   2.874  15.284  1.3586  0.3991 -0.0143
 3164SOL     OW21124   4.542   4.568  17.547 -0.2419 -0.0779  0.2020
 3164SOL    HW121125   4.615   4.608  17.500  0.0797  0.3913  1.0954
 3164SOL    HW221126   4.470   4.605  17.496 -1.2934 -0.1117  1.6685
 3165SOL     OW21127   2.420   0.441   6.735  1.3643  0.8591  0.5866
 3165SOL    HW121128   2.457   0.364   6.777 -0.3416 -0.0944  0.3703
 3165SOL    HW221129   2.333   0.436   6.775  0.6117  0.6224 -1.0594
 3166SOL     OW21130   0.774   0.784   7.515 -0.8341 -0.7398  0.1660
 3166SOL    HW121131   0.799   0.847   7.582  0.3791 -0.9831 -0.0683
 3166SOL    HW221132   0.743   0.711   7.569 -2.2802  0.1759  0.5743
 3167SOL     OW21133   3.436   4.344  13.843  0.1718  0.3476 -0.3165
 3167SOL    HW121134   3.360   4.288  13.828  0.3429  0.6067 -2.1361
 3167SOL    HW221135   3.393   4.425  13.869  0.2836  0.2260  0.2469
 3168SOL     OW21136   1.310   1.399  16.658 -0.1475  0.1077 -0.3267
 3168SOL    HW121137   1.273   1.454  16.590  1.1197 -0.6318 -1.6176
 3168SOL    HW221138   1.246   1.410  16.728  2.9763 -2.5500  2.9632
 3169SOL     OW21139   0.380   3.904   5.491 -0.1088 -0.1120  0.3943
 3169SOL    HW121140   0.364   3.978   5.551 -3.0979 -0.2775 -0.1981
 3169SOL    HW221141   0.299   3.904   5.440  0.6482 -1.6456 -0.7910
 3170SOL     OW21142   1.404   2.595   7.951  0.0239 -0.5705 -0.1710
 3170SOL    HW121143   1.412   2.677   8.001  2.7440 -2.2656  2.2258
 3170SOL    HW221144   1.308   2.591   7.948  0.0602 -1.8576  0.1088
 3171SOL     OW21145   1.481   4.544   8.119  0.5591  0.4739  0.5716
 3171SOL    HW121146   1.392   4.510   8.122  0.6964 -0.0405 -1.1635
 3171SOL    HW221147   1.503   4.557   8.211 -2.8451  0.9110  1.3271
 3172SOL     OW21148   2.000   2.440   4.853  1.0619  0.3457  0.0877
 3172SOL    HW121149   1.931   2.381   4.822 -0.2154  1.9265 -0.0927
 3172SOL    HW221150   1.981   2.522   4.807  0.5491  1.8680  2.9784
 3173SOL     OW21151   4.402   3.782   8.099 -0.0461 -0.3083 -0.5678
 3173SOL    HW121152   4.358   3.866   8.080 -0.5040  0.2370  2.9795
 3173SOL    HW221153   4.387   3.752   8.009  0.6628 -0.9158 -0.4768
 3174SOL     OW21154   0.669   3.730   6.965  1.0004  0.0421 -0.1230
 3174SOL    HW121155   0.733   3.799   6.947  2.4999 -0.8316  1.7867
 3174SOL    HW221156   0.713   3.667   7.023  0.3638  0.8156  1.2139
 3175SOL     OW21157   2.827   3.934   3.479 -0.0912  0.1805  0.7466
 3175SOL    HW121158   2.739   3.960   3.505  0.1771  2.4926 -0.6510
 3175SOL    HW221159   2.804   3.928   3.386  3.6121 -2.6916  0.0096
 3176SOL     OW21160   3.863   3.650   2.995  0.1707  0.3350 -0.2849
 3176SOL    HW121161   3.930   3.584   3.011  0.2349  0.5530  0.3420
 3176SOL    HW221162   3.807   3.597   2.938 -2.2000  0.4653  1.9176
 3177SOL     OW21163   3.737   4.092  16.855  0.5685  0.2975  0.1226
 3177SOL    HW121164   3.654   4.123  16.894  0.9526  1.7849 -0.2285
 3177SOL    HW221165   3.739   3.997  16.856  2.0762  0.3295 -0.7373
 3178SOL     OW21166   4.548   4.208   3.911 -0.1709  0.5763 -0.9629
 3178SOL    HW121167   4.507   4.295   3.913  2.3714  1.6687  2.0750
 3178SOL    HW221168   4.466   4.167   3.882 -0.8512 -1.7010  4.1539
 3179SOL     OW21169   2.964   1.713   4.082  0.4856 -0.2304  0.3200
 3179SOL    HW121170   2.900   1.717   4.153  0.2612  0.3195  0.0941
 3179SOL    HW221171   3.052   1.721   4.119 -0.2752  1.7117  1.7467
 3180SOL     OW21172   3.016   4.379   8.565  0.6888 -0.1590 -0.3252
 3180SOL    HW121173   2.945   4.323   8.534  1.4978 -0.6278 -1.3329
 3180SOL    HW221174   3.033   4.418   8.480  2.1566 -0.7064 -0.2765
 3181SOL     OW21175   3.135   0.816   7.474  0.0739  0.5121 -0.1111
 3181SOL    HW121176   3.071   0.820   7.546  2.7214 -1.6016  2.3439
 3181SOL    HW221177   3.124   0.727   7.440 -0.1618  0.7573 -0.6723
 3182SOL     OW21178   3.921   0.522   5.470  0.1006  0.3897 -0.0920
 3182SOL    HW121179   3.870   0.472   5.406 -0.8323  1.9078 -0.5169
 3182SOL    HW221180   3.908   0.466   5.547 -1.4072  1.2123  0.2568
 3183SOL     OW21181   3.913   0.230   4.048  0.6560  0.2684  0.3226
 3183SOL    HW121182   3.987   0.202   3.994  0.3842  1.3489 -0.6053
 3183SOL    HW221183   3.922   0.184   4.132  1.1456  1.3038  0.8483
 3184SOL     OW21184   3.043   1.241  10.854  0.3642 -0.2815 -0.1252
 3184SOL    HW121185   3.105   1.306  10.884 -0.4134 -0.3169  1.5357
 3184SOL    HW221186   3.086   1.160  10.882 -2.7585 -1.0441  2.4310
 3185SOL     OW21187   1.244   2.124   1.397  0.5196  0.0155 -0.8716
 3185SOL    HW121188   1.279   2.183   1.331 -1.6369  0.8260 -1.2817
 3185SOL    HW221189   1.324   2.082   1.429 -0.0410  1.3732  2.3072
 3186SOL     OW21190   3.228   4.698   0.392 -0.1249 -0.1841 -0.3775
 3186SOL    HW121191   3.256   4.628   0.450 -0.2252 -0.7934 -1.0589
 3186SOL    HW221192   3.156   4.649   0.352  0.3373 -2.5615  1.6859
 3187SOL     OW21193   1.329   1.783   9.735  0.2826 -0.7767  0.3949
 3187SOL    HW121194   1.338   1.873   9.704 -1.2669  0.1804  2.7226
 3187SOL    HW221195   1.304   1.741   9.652  0.8837  0.0487 -0.1993
 3188SOL     OW21196   3.495   0.364   3.488  0.4049  0.1993 -0.3677
 3188SOL    HW121197   3.536   0.445   3.460 -0.7866  0.3567 -1.6243
 3188SOL    HW221198   3.443   0.352   3.409  0.1364  1.1067 -0.3294
 3189SOL     OW21199   1.260   2.379   7.288  0.3771  0.2245  0.0088
 3189SOL    HW121200   1.209   2.455   7.256  0.6192  1.1182  1.7412
 3189SOL    HW221201   1.188   2.334   7.332  0.4978 -0.5767 -0.6311
 3190SOL     OW21202   3.392   1.069  10.280 -0.3235  0.0974 -0.0180
 3190SOL    HW121203   3.378   1.162  10.259 -0.9009 -0.1790 -0.8280
 3190SOL    HW221204   3.390   1.086  10.374  2.2169 -0.8461  0.2072
 3191SOL     OW21205   1.205   1.377  14.629  0.1757  0.4045  0.1849
 3191SOL    HW121206   1.214   1.282  14.619 -2.3905  0.0549  1.1179
 3191SOL    HW221207   1.122   1.394  14.585  0.3883 -0.8038 -0.6890
 3192SOL     OW21208   4.639   1.923   7.555  0.1068  0.1285 -0.2820
 3192SOL    HW121209   4.677   1.887   7.475  1.6444  0.1713  0.4332
 3192SOL    HW221210   4.600   2.006   7.525 -2.4326 -1.0674 -0.3346
 3193SOL     OW21211   1.859   1.895   5.947  0.0512 -0.5875 -0.1912
 3193SOL    HW121212   1.869   1.861   6.037  0.2486 -2.9981 -1.1075
 3193SOL    HW221213   1.786   1.956   5.952 -1.8664 -3.0066  1.3607
 3194SOL     OW21214   3.897   3.163   3.303  0.5100  0.4241 -0.4525
 3194SOL    HW121215   3.805   3.190   3.293 -0.0125 -1.2162 -0.0085
 3194SOL    HW221216   3.943   3.242   3.332 -0.4435  0.3091  1.3766
 3195SOL     OW21217   0.362   0.912   5.193  0.3565 -0.3991 -0.0933
 3195SOL    HW121218   0.375   0.827   5.150  1.6392 -1.7533  2.9100
 3195SOL    HW221219   0.412   0.979   5.148 -0.1726 -0.1335 -0.2818
 3196SOL     OW21220   4.655   4.707   9.202 -0.0040 -0.1939 -0.1316
 3196SOL    HW121221   4.711   4.689   9.127 -0.4869  0.5727 -0.6780
 3196SOL    HW221222   4.663   0.065   9.216 -0.4057 -0.2819  0.6729
 3197SOL     OW21223   0.917   0.699   6.703  0.1703  0.2825 -0.1328
 3197SOL    HW121224   0.887   0.626   6.757  1.4259 -0.1558 -0.0282
 3197SOL    HW221225   0.851   0.702   6.634  0.7097  2.9708 -0.5175
 3198SOL     OW21226   0.994   4.074   6.281  0.4595  0.2939  0.3512
 3198SOL    HW121227   0.949   4.127   6.215 -2.0606 -1.9045  0.3426
 3198SOL    HW221228   1.057   4.026   6.228 -0.5029  0.4739 -0.9437
 3199SOL     OW21229   3.919   3.044   9.763 -0.0562 -0.9640 -0.1251
 3199SOL    HW121230   3.930   3.078   9.852  0.1461  0.6439 -0.7632
 3199SOL    HW221231   3.939   3.130   9.728 -1.7036  0.5894  2.7786
 3200SOL     OW21232   1.409   0.482   2.963 -0.2530  0.2396  0.2155
 3200SOL    HW121233   1.389   0.389   2.967 -0.0052  0.1600 -0.5856
 3200SOL    HW221234   1.462   0.488   3.042  0.4868 -2.3870 -0.0949
 3201SOL     OW21235   3.053   3.601   5.371  0.5444  0.2553 -0.1742
 3201SOL    HW121236   3.030   3.550   5.293  1.5545 -0.2156 -0.1646
 3201SOL    HW221237   3.060   3.532   5.437 -0.4343  0.1983 -0.1229
 3202SOL     OW21238   0.330   3.330   2.184 -0.2365 -0.2126  0.1551
 3202SOL    HW121239   0.343   3.411   2.233 -0.2549  0.5469 -1.0873
 3202SOL    HW221240   0.301   3.277   2.258  0.8716 -0.6617  0.2644
 3203SOL     OW21241   0.435   4.466  14.119  0.1137  0.8841 -0.0492
 3203SOL    HW121242   0.364   4.407  14.147 -1.8680  2.7151 -1.2436
 3203SOL    HW221243   0.496   4.408  14.073  1.3685  2.5936 -0.4939
 3204SOL     OW21244   0.260   4.255   0.837 -0.0456  0.1707 -0.1996
 3204SOL    HW121245   0.192   4.263   0.771 -1.0516  3.0151  1.2113
 3204SOL    HW221246   0.319   4.187   0.802  1.0547  1.8915 -1.6877
 3205SOL     OW21247   1.867   3.877   8.695  0.7984  0.0976  0.1950
 3205SOL    HW121248   1.843   3.967   8.720  1.7596  0.2157  0.6753
 3205SOL    HW221249   1.789   3.824   8.711 -0.3848  1.7780 -0.0279
 3206SOL     OW21250   1.660   0.445   9.966 -0.7310  0.2143  0.4262
 3206SOL    HW121251   1.574   0.480   9.987 -0.3977  1.0352  0.4102
 3206SOL    HW221252   1.668   0.492   9.883  1.1854 -0.9004 -0.0198
 3207SOL     OW21253   0.616   0.074   5.389  0.1077  0.1309  1.0549
 3207SOL    HW121254   0.688   0.040   5.337 -1.3150  0.9416 -1.4376
 3207SOL    HW221255   0.622   0.166   5.365  0.9624 -0.2797 -0.2685
 3208SOL     OW21256   3.659   3.073  15.575  0.1808 -0.0543  0.4239
 3208SOL    HW121257   3.714   3.067  15.496 -0.7549  2.2297 -0.3956
 3208SOL    HW221258   3.665   3.167  15.586 -2.5084 -0.0841  1.8907
 3209SOL     OW21259   0.341   2.862   8.067  0.0314  0.2498  0.4180
 3209SOL    HW121260   0.340   2.852   7.972  1.4586 -0.0203  0.4371
 3209SOL    HW221261   0.249   2.871   8.092 -0.3328 -0.8914 -0.5221
 3210SOL     OW21262   4.176   2.713   7.532  0.0367  0.0071  0.2593
 3210SOL    HW121263   4.179   2.721   7.627  0.7181 -2.5499  0.4553
 3210SOL    HW221264   4.270   2.701   7.519  0.3753  0.2885  2.4696
 3211SOL     OW21265   0.324   1.652  16.107  0.0806 -0.2038 -0.2610
 3211SOL    HW121266   0.245   1.622  16.151 -0.2032  0.4691 -0.3084
 3211SOL    HW221267   0.322   1.613  16.020 -0.3901 -0.3886 -0.1653
 3212SOL     OW21268   2.294   3.268  16.259 -0.3169 -0.1456 -0.2738
 3212SOL    HW121269   2.328   3.357  16.263 -0.0701 -0.3187  1.7016
 3212SOL    HW221270   2.202   3.276  16.236 -0.4795 -0.8196  0.1481
 3213SOL     OW21271   0.093   4.444   6.375 -0.3551 -0.5110 -0.1945
 3213SOL    HW121272   0.172   4.394   6.394  1.1003  2.1228  0.7254
 3213SOL    HW221273   0.126   4.500   6.304 -0.2495  0.7808  0.8697
 3214SOL     OW21274   4.255   1.086   5.370  0.0475 -0.6711  0.2401
 3214SOL    HW121275   4.194   1.013   5.379  1.3629 -1.7767  0.1567
 3214SOL    HW221276   4.314   1.085   5.444  0.4210 -0.7941 -0.0595
 3215SOL     OW21277   2.324   0.572   8.308  0.0999 -0.2094 -0.6315
 3215SOL    HW121278   2.309   0.478   8.316 -0.9713  0.1122  1.2358
 3215SOL    HW221279   2.263   0.590   8.236  0.5645 -1.2986 -1.2835
 3216SOL     OW21280   4.442   1.956   6.491 -0.5951 -0.3758  0.3772
 3216SOL    HW121281   4.423   1.913   6.407 -0.2464  1.4368 -0.6161
 3216SOL    HW221282   4.536   1.971   6.487 -0.9399  1.5673 -0.2434
 3217SOL     OW21283   0.301   2.592   9.630 -0.1178  0.0909 -0.6258
 3217SOL    HW121284   0.388   2.629   9.646 -0.4796  0.5131  0.4408
 3217SOL    HW221285   0.265   2.663   9.576  1.7981  1.6600  0.1530
 3218SOL     OW21286   2.667   4.428  15.733  0.5032 -0.2452 -0.4298
 3218SOL    HW121287   2.749   4.406  15.687 -0.4772 -0.5565 -2.0239
 3218SOL    HW221288   2.626   4.476  15.661 -0.6568  0.2079  0.5326
 3219SOL     OW21289   4.716   2.908   0.212 -0.2855  0.4678 -0.8407
 3219SOL    HW121290   4.671   2.904   0.296  0.7714  2.2906 -0.1832
 3219SOL    HW221291   4.683   2.990   0.173  0.3939  0.3745 -1.5994
 3220SOL     OW21292   1.277   0.211  11.050 -0.1168  0.0776  0.3283
 3220SOL    HW121293   1.345   0.227  11.116  1.4816  2.0557 -1.7724
 3220SOL    HW221294   1.199   0.200  11.103 -1.5502  0.7895 -1.6263
 3221SOL     OW21295   0.989   2.225   7.860  0.3252  0.3964 -0.3543
 3221SOL    HW121296   0.938   2.162   7.910 -1.5762  1.8646 -0.4301
 3221SOL    HW221297   0.932   2.302   7.866 -0.6299 -0.2625 -0.8882
 3222SOL     OW21298   3.529   2.222   1.784  0.1058 -0.0393  0.0385
 3222SOL    HW121299   3.462   2.213   1.716  1.5649  1.3163 -1.5809
 3222SOL    HW221300   3.468   2.215   1.858 -0.4161  3.3522 -0.0501
 3223SOL     OW21301   1.226   2.606   2.361  0.2778  0.4015 -0.3999
 3223SOL    HW121302   1.218   2.641   2.450  0.2101 -1.2240  0.2361
 3223SOL    HW221303   1.146   2.646   2.326 -0.4111 -0.2238  0.4526
 3224SOL     OW21304   3.358   2.044   4.603  0.2244  0.3384 -0.7675
 3224SOL    HW121305   3.416   2.042   4.526  1.5310 -0.7325  0.2440
 3224SOL    HW221306   3.407   2.092   4.670  0.2158 -1.0938  0.2680
 3225SOL     OW21307   3.018   2.626  11.356  0.0514  0.1744 -0.0042
 3225SOL    HW121308   3.090   2.572  11.322  0.8034  2.5412 -2.2238
 3225SOL    HW221309   3.053   2.663  11.437 -0.6916  0.9959 -0.0609
 3226SOL     OW21310   1.011   1.547   6.710  0.2446 -0.2350  0.3992
 3226SOL    HW121311   0.929   1.542   6.661  0.5211  1.2054 -0.2182
 3226SOL    HW221312   1.077   1.567   6.644  0.3928 -0.0451  0.6027
 3227SOL     OW21313   1.703   3.004   3.149 -0.8191 -0.2374  0.3826
 3227SOL    HW121314   1.640   2.937   3.122 -0.2164 -0.3584 -0.7512
 3227SOL    HW221315   1.781   2.948   3.150  1.4355  2.9758  1.7793
 3228SOL     OW21316   4.210   3.851   3.954 -0.5337  0.1417  0.0129
 3228SOL    HW121317   4.130   3.902   3.945 -1.7903 -1.8608 -0.3905
 3228SOL    HW221318   4.176   3.765   3.927 -0.7226 -0.3177  1.7232
 3229SOL     OW21319   0.674   1.856  16.002 -0.2820 -0.3042  0.2158
 3229SOL    HW121320   0.660   1.838  15.909  0.8614 -0.3893  0.0665
 3229SOL    HW221321   0.725   1.778  16.023 -1.3495 -0.9034  0.5864
 3230SOL     OW21322   3.838   0.039   7.826  0.1382 -0.3312 -0.7014
 3230SOL    HW121323   3.918   0.067   7.782  0.8991 -2.7796 -0.8628
 3230SOL    HW221324   3.860   0.057   7.918 -0.9501  0.0854 -0.5201
 3231SOL     OW21325   4.658   2.356  12.846 -0.4723  0.1222  0.3149
 3231SOL    HW121326   4.679   2.271  12.885  0.2345 -0.7876 -2.0071
 3231SOL    HW221327   4.587   2.334  12.786 -0.4974  1.4015 -0.1146
 3232SOL     OW21328   2.782   2.588   7.988  0.0493 -0.4258 -0.1200
 3232SOL    HW121329   2.845   2.647   7.945 -0.2818 -0.2790 -0.4094
 3232SOL    HW221330   2.830   2.507   7.972  1.4599  0.5213 -0.7899
 3233SOL     OW21331   4.160   4.443   3.870 -0.5602  0.4359  1.1816
 3233SOL    HW121332   4.072   4.477   3.879 -0.4673  0.6668  1.2122
 3233SOL    HW221333   4.184   4.430   3.962 -0.3066  1.5982  1.2797
 3234SOL     OW21334   1.254   4.529  16.179  0.5566  0.1599 -0.5617
 3234SOL    HW121335   1.163   4.516  16.150  0.4774 -1.6397  0.4909
 3234SOL    HW221336   1.300   4.465  16.124 -0.9690  0.4962 -2.2390
 3235SOL     OW21337   3.171   2.780  11.099  0.5137  0.1761 -0.8754
 3235SOL    HW121338   3.156   2.729  11.178  0.5046  0.5818 -0.6135
 3235SOL    HW221339   3.225   2.721  11.046  0.4203 -1.4535  0.8482
 3236SOL     OW21340   4.268   0.704   6.190 -0.2636 -0.1310 -0.1756
 3236SOL    HW121341   4.238   0.615   6.172  2.1810 -1.3649  2.0370
 3236SOL    HW221342   4.261   0.715   6.285  0.0499 -1.7677  0.0258
 3237SOL     OW21343   1.094   0.325   8.387  0.2898 -0.2292  0.1218
 3237SOL    HW121344   1.030   0.322   8.316 -0.0654  1.5346  0.3751
 3237SOL    HW221345   1.107   0.231   8.399 -1.6228 -0.6633 -1.1837
 3238SOL     OW21346   2.500   4.529   9.343  0.0584 -0.6414  0.4804
 3238SOL    HW121347   2.542   4.488   9.268 -1.5309  2.0466 -1.8531
 3238SOL    HW221348   2.571   4.518   9.408  0.1484 -1.0641  0.3093
 3239SOL     OW21349   1.385   2.582  13.007  0.2384 -0.0303  0.1327
 3239SOL    HW121350   1.361   2.674  13.000  1.2250  0.2322  0.2482
 3239SOL    HW221351   1.469   2.593  13.051 -0.1226  1.1079  0.5299
 3240SOL     OW21352   4.421   2.770   8.746  1.1195  0.3617 -0.0887
 3240SOL    HW121353   4.362   2.765   8.821  0.1036  0.1340 -0.8995
 3240SOL    HW221354   4.441   2.863   8.737  1.2183  0.3729  0.2414
 3241SOL     OW21355   3.021   2.304   7.514  0.1218  0.1569  0.6980
 3241SOL    HW121356   2.939   2.351   7.523  0.2421  0.2495  1.3518
 3241SOL    HW221357   3.052   2.284   7.602  1.2986 -0.1513  0.2168
 3242SOL     OW21358   0.691   1.173   4.678 -0.1827  0.0233 -0.3631
 3242SOL    HW121359   0.599   1.149   4.687 -0.2887  0.4265 -0.3637
 3242SOL    HW221360   0.701   1.182   4.583 -1.5648 -0.7536 -0.5738
 3243SOL     OW21361   3.729   3.485  14.164  0.0464  0.0714 -0.2432
 3243SOL    HW121362   3.812   3.513  14.203 -0.1224 -2.4171  1.8439
 3243SOL    HW221363   3.680   3.461  14.243  0.6593  1.6205  0.6099
 3244SOL     OW21364   1.625   0.033  14.743  0.5540  0.2253  0.3342
 3244SOL    HW121365   1.669   0.045  14.659 -0.0871  0.8408  0.0960
 3244SOL    HW221366   1.616   0.120  14.782  0.2638  0.0968  0.5513
 3245SOL     OW21367   2.339   2.193   0.367 -0.1576 -0.6557  0.1445
 3245SOL    HW121368   2.302   2.139   0.297 -0.9290 -0.3735  0.3362
 3245SOL    HW221369   2.295   2.161   0.446  0.6960 -0.2875  0.7544
 3246SOL     OW21370   1.531   3.023   4.330 -0.3013 -0.4709  0.3931
 3246SOL    HW121371   1.606   2.963   4.329 -0.0543 -0.1579 -0.0907
 3246SOL    HW221372   1.466   2.964   4.293  1.8862 -2.1570 -0.7312
 3247SOL     OW21373   1.606   2.550   8.533  0.1413 -0.2910  0.7721
 3247SOL    HW121374   1.591   2.545   8.628 -0.9513 -1.4369  0.5406
 3247SOL    HW221375   1.596   2.459   8.505  1.1833 -0.5801  1.3277
 3248SOL     OW21376   0.156   0.448   4.940  0.2526  0.1871  0.3792
 3248SOL    HW121377   0.169   0.370   4.886 -1.3970 -0.0202  0.2749
 3248SOL    HW221378   0.199   0.512   4.884 -1.6630  0.0244 -1.2767
 3249SOL     OW21379   1.341   2.694   4.967  0.6204  0.3729 -0.5277
 3249SOL    HW121380   1.273   2.760   4.982  1.8908  0.9504  2.7124
 3249SOL    HW221381   1.386   2.731   4.891  2.2794  2.3398  1.4331
 3250SOL     OW21382   4.120   0.010   6.863  0.4227 -0.4992 -0.0800
 3250SOL    HW121383   4.068   0.048   6.792  1.6157 -1.3080 -1.4015
 3250SOL    HW221384   4.205   0.055   6.855 -0.2321  0.3691 -2.2621
 3251SOL     OW21385   4.389   0.963  10.874  0.3838 -0.2260 -0.8105
 3251SOL    HW121386   4.378   0.871  10.899  1.6742  0.4820  2.3330
 3251SOL    HW221387   4.436   0.946  10.792  0.0417 -1.5496 -0.7251
 3252SOL     OW21388   4.035   0.798  16.465 -0.6311 -0.2913  0.1532
 3252SOL    HW121389   4.121   0.827  16.437 -0.0326 -1.0944  1.1472
 3252SOL    HW221390   3.978   0.833  16.396 -2.5765 -0.9692  1.4112
 3253SOL     OW21391   2.454   0.469   9.077  0.3387  0.2823 -0.3991
 3253SOL    HW121392   2.457   0.411   9.154 -0.6768  1.2854  0.3928
 3253SOL    HW221393   2.370   0.436   9.045  0.8130  1.3828 -2.7126
 3254SOL     OW21394   2.947   3.924  14.103  0.5033  0.3520 -0.4815
 3254SOL    HW121395   2.969   3.994  14.041 -2.0802  1.3764 -0.2520
 3254SOL    HW221396   2.901   3.863  14.045 -0.5616  2.2260 -1.6092
 3255SOL     OW21397   2.733   3.829   9.037  0.5399 -0.4196  0.6518
 3255SOL    HW121398   2.665   3.806   9.100 -0.0705 -3.6784 -1.2025
 3255SOL    HW221399   2.790   3.753   9.030 -3.5286 -3.2958 -1.0934
 3256SOL     OW21400   3.542   0.100   5.832 -0.5631 -0.0738 -0.1489
 3256SOL    HW121401   3.628   0.126   5.866 -0.5106 -1.1025  0.5140
 3256SOL    HW221402   3.546   0.142   5.747 -2.2487 -0.2025 -0.2945
 3257SOL     OW21403   1.564   4.546   5.843 -0.0994 -0.1299 -0.0372
 3257SOL    HW121404   1.492   4.544   5.906 -1.4181  1.3267 -1.4826
 3257SOL    HW221405   1.519   4.612   5.791  0.1464  0.1595  0.1164
 3258SOL     OW21406   2.317   4.163   6.262  0.1150  0.3704  0.5706
 3258SOL    HW121407   2.344   4.078   6.295  1.2912 -0.6149 -3.0041
 3258SOL    HW221408   2.240   4.139   6.210  0.9717  0.4707 -0.7276
 3259SOL     OW21409   0.268   3.346   4.431  1.0420 -0.6302  0.0850
 3259SOL    HW121410   0.282   3.256   4.461 -0.4505 -0.2457  1.9734
 3259SOL    HW221411   0.264   3.348   4.336  0.7571 -0.8110  0.0948
 3260SOL     OW21412   2.688   4.150   4.328 -0.6060  0.0448 -0.3202
 3260SOL    HW121413   2.623   4.156   4.398  1.6178 -0.9676  1.8321
 3260SOL    HW221414   2.770   4.186   4.362  0.8293 -2.6774 -0.9632
 3261SOL     OW21415   2.755   3.185   8.287 -0.0620 -0.2379 -0.5223
 3261SOL    HW121416   2.841   3.226   8.292 -1.0869  1.7068  1.4926
 3261SOL    HW221417   2.729   3.171   8.378  0.7759  0.5964 -0.1557
 3262SOL     OW21418   1.798   0.365  14.603 -0.8674  0.2692 -0.0464
 3262SOL    HW121419   1.831   0.440  14.652  0.9139 -0.8882  0.5052
 3262SOL    HW221420   1.787   0.295  14.667 -1.0045  0.5860  0.2752
 3263SOL     OW21421   4.592   4.446   0.865 -0.0197  0.4664  0.1512
 3263SOL    HW121422   4.595   4.455   0.961  1.5777 -2.4293  0.3749
 3263SOL    HW221423   4.554   4.360   0.848  0.1000 -0.0779  2.6485
 3264SOL     OW21424   2.080   0.487  11.339 -0.3221  0.0741  0.5169
 3264SOL    HW121425   2.128   0.432  11.401 -1.8134 -1.1458  0.5929
 3264SOL    HW221426   1.992   0.454  11.360  0.2394 -0.4388  2.0450
 3265SOL     OW21427   4.566   4.347   6.347 -0.1010 -0.3129 -0.1739
 3265SOL    HW121428   4.655   4.382   6.356  0.2764 -2.0477  3.0901
 3265SOL    HW221429   4.520   4.427   6.323  0.5483  0.3165  0.6591
 3266SOL     OW21430   2.835   1.072   6.266  0.1609 -0.2025 -0.0550
 3266SOL    HW121431   2.906   1.084   6.329 -0.7514  3.3256  0.2562
 3266SOL    HW221432   2.799   0.992   6.305 -0.0709  0.0714  0.2954
 3267SOL     OW21433   0.528   0.492   8.211 -0.1914  0.1959 -0.3801
 3267SOL    HW121434   0.533   0.550   8.135  0.7960 -0.3308 -0.7191
 3267SOL    HW221435   0.451   0.445   8.180 -0.7306  0.8182  0.0142
 3268SOL     OW21436   4.012   3.421  10.628 -0.3721 -0.4148  0.2450
 3268SOL    HW121437   3.936   3.365  10.642 -1.5605  1.8966  3.1242
 3268SOL    HW221438   3.977   3.490  10.571  1.8454  0.2106 -0.3659
 3269SOL     OW21439   1.750   4.157  10.000 -0.1390  0.1370  0.3799
 3269SOL    HW121440   1.842   4.148  10.025 -0.2906  0.3355  1.0185
 3269SOL    HW221441   1.720   4.241  10.036 -1.2337 -0.4844  0.9257
 3270SOL     OW21442   4.684   2.658   3.534  0.5441 -0.3314  0.2167
 3270SOL    HW121443   4.664   2.592   3.600 -1.7734 -0.1904 -0.3604
 3270SOL    HW221444   4.631   2.632   3.458  0.6495 -1.0120  0.3728
 3271SOL     OW21445   1.229   3.185   3.836 -0.7260 -0.1726  0.3835
 3271SOL    HW121446   1.185   3.165   3.754  1.2025 -1.5354 -0.3197
 3271SOL    HW221447   1.319   3.200   3.807 -0.9891 -0.5764 -0.6166
 3272SOL     OW21448   2.922   1.407  11.122  0.8959 -0.2870 -0.5537
 3272SOL    HW121449   2.984   1.399  11.195  0.9094 -2.2460 -0.7905
 3272SOL    HW221450   2.916   1.502  11.120 -0.3494 -0.3378  1.1151
 3273SOL     OW21451   0.619   2.798   9.019  0.7227  0.5088 -0.2418
 3273SOL    HW121452   0.713   2.808   9.008  1.1699 -0.8190  2.1994
 3273SOL    HW221453   0.616   2.838   9.106  0.2620  2.0023 -0.9445
 3274SOL     OW21454   4.260   3.413   2.538  0.0566 -0.2120 -0.0479
 3274SOL    HW121455   4.279   3.367   2.620 -0.2960  0.0812  0.2013
 3274SOL    HW221456   4.196   3.479   2.567  1.2851  1.0693 -0.2850
 3275SOL     OW21457   0.155   3.232  15.799 -0.0268 -0.3561  0.1068
 3275SOL    HW121458   0.228   3.193  15.751 -0.1174 -0.4996  0.0882
 3275SOL    HW221459   0.196   3.318  15.809  0.4817 -0.6293  0.3976
 3276SOL     OW21460   1.506   4.158   4.341 -0.0294  0.3574  0.1938
 3276SOL    HW121461   1.494   4.225   4.273 -2.9070 -0.1106  0.2175
 3276SOL    HW221462   1.569   4.201   4.399 -1.3539  1.2118  1.0193
 3277SOL     OW21463   4.719   2.673   8.514  0.7114  0.1400 -0.1269
 3277SOL    HW121464   0.005   2.581   8.500  0.6914 -0.3709  3.1767
 3277SOL    HW221465   4.641   2.677   8.459 -0.2647  1.2108  1.3413
 3278SOL     OW21466   1.803   3.776  15.872  0.3282  0.5805 -0.3491
 3278SOL    HW121467   1.747   3.781  15.949  2.4514  0.3745  1.2218
 3278SOL    HW221468   1.807   3.869  15.846 -0.4065  1.3607  2.3676
 3279SOL     OW21469   1.638   1.598   1.430  0.4719  0.1448 -0.0512
 3279SOL    HW121470   1.576   1.547   1.379 -3.9419  3.0893  2.3421
 3279SOL    HW221471   1.583   1.636   1.499 -0.4850 -0.3572 -0.5450
 3280SOL     OW21472   1.869   3.155   7.252 -0.3298 -0.5050 -0.1836
 3280SOL    HW121473   1.930   3.088   7.283  0.4212  0.2878  0.0639
 3280SOL    HW221474   1.798   3.158   7.316 -2.5650  2.4818 -2.7713
 3281SOL     OW21475   3.695   0.732   8.627  0.4701 -0.2139  0.5748
 3281SOL    HW121476   3.663   0.680   8.700 -1.6548 -1.3920 -1.1921
 3281SOL    HW221477   3.650   0.815   8.645 -1.3335 -1.1611  0.4407
 3282SOL     OW21478   0.497   1.044   3.226  0.0337 -0.1156  0.1223
 3282SOL    HW121479   0.591   1.059   3.229  0.0500 -0.0055 -0.7469
 3282SOL    HW221480   0.482   1.006   3.312  0.9556 -0.9634 -0.0925
 3283SOL     OW21481   0.290   0.199   5.233  0.5483  0.1584 -0.2418
 3283SOL    HW121482   0.257   0.154   5.155 -1.1887  0.3733  0.3700
 3283SOL    HW221483   0.243   0.282   5.231 -0.2375 -0.2052  2.5522
 3284SOL     OW21484   4.022   2.385  11.096 -0.5202 -0.3284 -0.2141
 3284SOL    HW121485   3.929   2.392  11.118 -0.1077  1.5096  0.8936
 3284SOL    HW221486   4.062   2.338  11.168 -1.6942  2.1219  2.0387
 3285SOL     OW21487   4.487   1.362   6.905  0.1408  0.3745  0.1984
 3285SOL    HW121488   4.507   1.322   6.989 -0.1962 -1.4591 -0.6098
 3285SOL    HW221489   4.511   1.285   6.854 -2.7779  0.0751 -0.7286
 3286SOL     OW21490   3.086   2.268   1.010 -0.5115  0.2921 -0.4120
 3286SOL    HW121491   3.009   2.226   0.973  0.0725  0.0839 -1.3939
 3286SOL    HW221492   3.123   2.322   0.940 -2.0902  2.8961  0.7730
 3287SOL     OW21493   3.672   4.592   8.557 -0.5864 -0.4455 -0.5016
 3287SOL    HW121494   3.758   4.549   8.553 -0.7833 -0.9705  0.9764
 3287SOL    HW221495   3.709   4.680   8.550 -2.1230  0.2234 -0.1146
 3288SOL     OW21496   3.241   0.900  13.377  0.1841 -0.1027  0.1618
 3288SOL    HW121497   3.317   0.952  13.402 -0.6684  0.4020  1.6667
 3288SOL    HW221498   3.285   0.820  13.346  1.4628  0.6209  0.1121
 3289SOL     OW21499   3.868   0.622   6.350  0.2701 -0.0091 -0.1981
 3289SOL    HW121500   3.801   0.685   6.323 -0.9689 -1.6618 -0.9929
 3289SOL    HW221501   3.949   0.672   6.340  0.5570 -0.3921  0.2637
 3290SOL     OW21502   2.959   3.262   8.595  0.2823 -0.5194  0.1922
 3290SOL    HW121503   2.869   3.229   8.591  0.5052 -1.2097  0.7576
 3290SOL    HW221504   2.958   3.316   8.674 -0.2275 -0.6444  0.2704
 3291SOL     OW21505   4.364   3.604   3.588  0.0387  0.1035  0.0405
 3291SOL    HW121506   4.417   3.629   3.513  0.2592  0.2259  0.2375
 3291SOL    HW221507   4.420   3.632   3.660  0.9193  1.3211 -1.1155
 3292SOL     OW21508   0.038   3.371  12.877  0.5235 -0.4596  0.8131
 3292SOL    HW121509   4.726   3.411  12.949 -1.0784  0.4820 -0.7912
 3292SOL    HW221510   4.734   3.285  12.867  0.2979 -0.3104  0.4789
 3293SOL     OW21511   1.090   2.106   6.382 -0.4599 -0.5767 -0.5065
 3293SOL    HW121512   1.065   2.095   6.474 -0.6300 -0.8621 -0.5867
 3293SOL    HW221513   1.159   2.040   6.373 -1.2310 -1.0890 -2.7377
 3294SOL     OW21514   3.961   4.130   4.700 -0.4534 -0.3899  0.5034
 3294SOL    HW121515   4.019   4.192   4.655  0.8796 -3.3479 -1.8833
 3294SOL    HW221516   3.883   4.124   4.646  0.2294 -1.3338 -0.3708
 3295SOL     OW21517   0.309   3.358   6.222 -0.1340  0.0217  0.0918
 3295SOL    HW121518   0.325   3.286   6.160  1.6646 -0.4731  1.1399
 3295SOL    HW221519   0.213   3.355   6.225 -0.2684  2.6752 -2.0469
 3296SOL     OW21520   2.842   4.412   8.977  0.2282 -0.0703  0.0594
 3296SOL    HW121521   2.812   4.439   8.891 -1.8540  0.6080  0.9731
 3296SOL    HW221522   2.926   4.456   8.988 -0.8831  2.0946 -0.2214
 3297SOL     OW21523   2.730   2.181   2.615  0.0922 -0.1285  0.0390
 3297SOL    HW121524   2.640   2.157   2.591  1.0049 -0.1885 -3.3917
 3297SOL    HW221525   2.723   2.257   2.673  0.2540  1.2255 -1.6890
 3298SOL     OW21526   3.188   2.026   6.936 -0.2685  0.0790 -0.7091
 3298SOL    HW121527   3.273   2.022   6.979 -1.7003  0.2409  2.0784
 3298SOL    HW221528   3.228   1.994   6.855 -0.6695 -1.9537 -0.0899
 3299SOL     OW21529   3.828   3.166   4.375  0.3896 -0.1512  0.3070
 3299SOL    HW121530   3.863   3.081   4.399 -1.1369 -0.4019  1.7196
 3299SOL    HW221531   3.855   3.171   4.284 -2.7133 -0.6609 -0.6490
 3300SOL     OW21532   0.954   2.590  13.192  0.6262 -0.1610 -0.1933
 3300SOL    HW121533   0.907   2.664  13.155  0.6267 -0.0173  0.0921
 3300SOL    HW221534   0.919   2.587  13.282 -1.3568  0.6937 -0.9324
 3301SOL     OW21535   0.436   3.728  11.434  1.0416  0.9366  0.0872
 3301SOL    HW121536   0.342   3.714  11.447  1.0277  1.7893  0.8998
 3301SOL    HW221537   0.441   3.788  11.360  0.1292 -0.4049 -1.0759
 3302SOL     OW21538   0.868   1.497  17.070  0.2085  0.1067  0.0830
 3302SOL    HW121539   0.867   1.592  17.059  1.4720  0.1868  0.7117
 3302SOL    HW221540   0.957   1.483  17.103 -0.0879 -0.5329  0.6316
 3303SOL     OW21541   4.132   3.834   7.048 -0.8019 -0.7669  0.1114
 3303SOL    HW121542   4.144   3.866   7.137 -2.7124  1.8547 -0.5561
 3303SOL    HW221543   4.205   3.773   7.058 -1.1509 -1.1051  0.6099
 3304SOL     OW21544   2.766   2.008   6.970  0.3931  0.1941 -0.1367
 3304SOL    HW121545   2.806   1.927   7.004 -0.2464  0.9489  2.4207
 3304SOL    HW221546   2.754   2.064   7.047  1.6738  0.7438 -0.3511
 3305SOL     OW21547   3.935   3.477   5.264  0.0271 -0.1565 -0.4826
 3305SOL    HW121548   3.986   3.551   5.232  0.1432 -0.7817 -1.7390
 3305SOL    HW221549   4.007   3.414   5.264 -2.4881 -3.0419  0.2744
 3306SOL     OW21550   3.066   1.511  16.445  0.0824  0.1095 -0.4847
 3306SOL    HW121551   3.081   1.556  16.529 -0.0350  1.0642 -0.9676
 3306SOL    HW221552   2.990   1.567  16.427 -0.9916 -0.3652  2.4743
 3307SOL     OW21553   1.645   1.130   2.199  0.5509  0.2282  0.1086
 3307SOL    HW121554   1.644   1.148   2.293  0.3776  2.3320 -0.3022
 3307SOL    HW221555   1.614   1.040   2.206 -1.2441  0.6839 -1.7945
 3308SOL     OW21556   4.369   1.216   9.044  0.9737  0.1616  0.1290
 3308SOL    HW121557   4.372   1.231   9.139 -0.3960 -0.0852  0.2178
 3308SOL    HW221558   4.433   1.278   9.009 -0.3940  1.1024 -0.7026
 3309SOL     OW21559   3.822   4.299   1.816  0.1512 -0.5114 -0.5121
 3309SOL    HW121560   3.917   4.292   1.819  0.2126  1.1793  1.4670
 3309SOL    HW221561   3.802   4.206   1.807 -0.1712 -0.3257 -1.6587
 3310SOL     OW21562   3.089   0.935   7.098 -0.4219  0.3102  0.6899
 3310SOL    HW121563   3.013   0.975   7.055 -0.6552 -3.7061 -2.6406
 3310SOL    HW221564   3.044   0.903   7.175  0.8279  0.1121  1.3355
 3311SOL     OW21565   4.703   1.883   3.213  0.1774  0.1106 -0.2455
 3311SOL    HW121566   0.044   1.878   3.158 -0.6292 -1.4063 -1.2622
 3311SOL    HW221567   4.645   1.935   3.157 -0.5401  0.8034  1.1331
 3312SOL     OW21568   0.173   2.487   4.598 -0.6903  0.0120  0.0884
 3312SOL    HW121569   0.198   2.452   4.512 -0.9047  0.2590 -0.0717
 3312SOL    HW221570   0.182   2.579   4.576  0.0271 -0.4572 -1.5819
 3313SOL     OW21571   0.731   1.616   7.628 -0.4554 -0.0921  0.2025
 3313SOL    HW121572   0.687   1.693   7.592 -0.4595  0.9260  2.3772
 3313SOL    HW221573   0.752   1.661   7.710 -1.0007  1.4066 -0.4873
 3314SOL     OW21574   4.096   2.646   9.889 -0.1885  0.0254  0.0268
 3314SOL    HW121575   4.191   2.646   9.903 -0.5203  2.4615  2.2190
 3314SOL    HW221576   4.100   2.613   9.799 -0.3727  2.0917 -0.7456
 3315SOL     OW21577   3.520   0.943  11.760  0.0226 -0.6809  0.2264
 3315SOL    HW121578   3.500   0.855  11.793 -2.1269 -0.8209 -1.4663
 3315SOL    HW221579   3.544   0.917  11.671 -0.2183  0.5478 -0.2008
 3316SOL     OW21580   0.442   3.110   4.739  0.3447 -0.4228  0.0211
 3316SOL    HW121581   0.455   3.015   4.741  2.4246 -0.1515 -0.4259
 3316SOL    HW221582   0.476   3.147   4.820 -0.3788  3.0463 -1.2957
 3317SOL     OW21583   4.342   4.668  11.449  0.1967 -0.4855 -0.0285
 3317SOL    HW121584   4.311   4.710  11.530 -2.7546 -0.6375 -1.0845
 3317SOL    HW221585   4.422   4.717  11.431 -0.4418  1.3358  2.1373
 3318SOL     OW21586   1.531   1.708   9.058  0.9520  0.2009  0.1267
 3318SOL    HW121587   1.568   1.620   9.060  0.4066 -0.0307 -0.2797
 3318SOL    HW221588   1.572   1.745   8.979 -0.1452 -0.2370 -0.6475
 3319SOL     OW21589   3.554   4.441   2.800  0.3373 -0.4307  0.1960
 3319SOL    HW121590   3.461   4.442   2.822  0.7893  1.4533  2.0489
 3319SOL    HW221591   3.582   4.530   2.820  1.0185 -0.6421  0.1949
 3320SOL     OW21592   3.342   3.457   5.267 -0.0635 -0.2525 -0.2116
 3320SOL    HW121593   3.411   3.521   5.248 -0.0001 -0.4448 -0.6300
 3320SOL    HW221594   3.274   3.476   5.203  1.9458  3.3497 -1.2994
 3321SOL     OW21595   4.622   2.668   9.420 -0.2790 -0.3176  0.3495
 3321SOL    HW121596   4.585   2.697   9.503  0.9383 -4.1132  2.2119
 3321SOL    HW221597   4.543   2.641   9.374  0.2196 -0.0139 -0.6951
 3322SOL     OW21598   0.719   1.007   5.779 -0.2473 -0.5054 -0.1044
 3322SOL    HW121599   0.756   1.018   5.692 -0.0649 -0.1869  0.0128
 3322SOL    HW221600   0.649   1.072   5.782 -1.4436 -1.9055  2.6675
 3323SOL     OW21601   2.431   1.186   4.785  0.5666  0.2831 -0.2931
 3323SOL    HW121602   2.415   1.280   4.776  2.4756  0.7443  1.2851
 3323SOL    HW221603   2.511   1.184   4.732  1.2366 -0.7429  0.7722
 3324SOL     OW21604   3.071   0.442   7.726  0.5000 -0.0365 -0.1023
 3324SOL    HW121605   3.100   0.480   7.809  1.2673  4.1837 -2.2727
 3324SOL    HW221606   3.035   0.521   7.687  1.0019  0.4131  0.3409
 3325SOL     OW21607   4.571   3.500   8.363  0.2434 -0.4404 -0.0587
 3325SOL    HW121608   4.640   3.519   8.299  0.9827 -0.2604  0.7988
 3325SOL    HW221609   4.541   3.415   8.333  0.3117 -0.9850  1.4096
 3326SOL     OW21610   2.767   2.935   6.625  0.1372  0.1829  0.2925
 3326SOL    HW121611   2.793   3.023   6.650  0.9952  0.4817 -1.6139
 3326SOL    HW221612   2.788   2.940   6.531  2.0109  2.1938  0.8169
 3327SOL     OW21613   0.067   0.958   9.251  0.0249  0.0649 -0.0685
 3327SOL    HW121614   0.092   0.924   9.165  1.1326  2.3252 -0.6312
 3327SOL    HW221615   4.714   0.984   9.233 -0.0821  0.4858  1.0402
 3328SOL     OW21616   2.050   3.975   4.433 -0.1601 -0.1484  0.3532
 3328SOL    HW121617   2.000   3.988   4.513  2.0111 -0.2321  1.7341
 3328SOL    HW221618   2.073   4.067   4.414  0.2150 -0.2520  0.2928
 3329SOL     OW21619   0.368   2.777   6.419  0.1422  0.0929  0.0305
 3329SOL    HW121620   0.390   2.840   6.489  0.3031 -0.8874  0.8678
 3329SOL    HW221621   0.445   2.764   6.364  1.1215  3.0400  0.7252
 3330SOL     OW21622   0.109   4.301   7.068  0.2118 -0.2231 -0.0769
 3330SOL    HW121623   0.176   4.249   7.024 -0.2442  0.2618 -1.3433
 3330SOL    HW221624   0.058   4.344   6.999 -0.5996 -1.1684 -0.0542
 3331SOL     OW21625   2.798   2.561   9.208 -0.0836  0.3800 -0.1759
 3331SOL    HW121626   2.850   2.583   9.130  0.6484 -0.6209  0.0337
 3331SOL    HW221627   2.801   2.465   9.202 -1.7355  0.2202  1.4635
 3332SOL     OW21628   1.425   3.469   8.474 -0.3688 -0.1575  0.2121
 3332SOL    HW121629   1.466   3.386   8.495 -2.3037 -0.6179  2.2599
 3332SOL    HW221630   1.365   3.438   8.406 -3.0595 -0.8728  2.8932
 3333SOL     OW21631   4.715   0.545   2.927  0.2437 -0.2380  0.4296
 3333SOL    HW121632   0.038   0.574   2.858 -0.2833 -0.5749 -0.1713
 3333SOL    HW221633   0.019   0.459   2.932  0.3126 -0.0326  3.0073
 3334SOL     OW21634   2.457   2.795  14.049 -0.5632 -0.1548  0.2009
 3334SOL    HW121635   2.542   2.757  14.028 -0.2252  0.1777  0.9722
 3334SOL    HW221636   2.491   2.870  14.097  2.1007  0.0833 -2.0448
 3335SOL     OW21637   1.607   0.394   3.469 -0.1165  0.0859  0.2792
 3335SOL    HW121638   1.528   0.340   3.467 -2.4830  3.5727 -0.4739
 3335SOL    HW221639   1.660   0.323   3.505  1.2684  0.8645 -0.2479
 3336SOL     OW21640   2.872   1.421   4.253  0.4682 -0.0190 -0.3598
 3336SOL    HW121641   2.787   1.445   4.216 -1.3560 -0.7141  3.4272
 3336SOL    HW221642   2.901   1.349   4.198  1.9076 -0.2525  0.7086
 3337SOL     OW21643   1.464   2.376   4.186  0.0027  0.1838  0.2496
 3337SOL    HW121644   1.526   2.319   4.232  0.1195 -0.2558 -0.4483
 3337SOL    HW221645   1.403   2.311   4.153 -0.6694  1.0956 -0.2943
 3338SOL     OW21646   0.586   3.367   5.919  0.4956  0.3880  0.4260
 3338SOL    HW121647   0.606   3.378   6.012  1.2164 -1.9347  0.5610
 3338SOL    HW221648   0.569   3.456   5.890 -1.4733  0.4303  1.7415
 3339SOL     OW21649   1.025   2.807   9.603 -0.0678 -0.1718  0.4574
 3339SOL    HW121650   1.016   2.902   9.616  0.5338 -0.1646  0.7986
 3339SOL    HW221651   0.959   2.801   9.533  2.2969 -2.3069 -1.5596
 3340SOL     OW21652   2.073   4.321  11.031  0.1594 -0.4069  0.0495
 3340SOL    HW121653   2.062   4.241  11.083  0.3826 -0.9156 -0.6935
 3340SOL    HW221654   1.990   4.368  11.037  0.1258 -0.6461  1.4804
 3341SOL     OW21655   1.491   2.865   6.210 -0.5123  0.0032  0.1283
 3341SOL    HW121656   1.448   2.927   6.151 -0.2353  2.6227  2.7118
 3341SOL    HW221657   1.568   2.915   6.238 -0.7135  1.0028 -1.0703
 3342SOL     OW21658   0.530   2.758   2.825 -0.1721  0.0838 -0.2951
 3342SOL    HW121659   0.607   2.737   2.771  0.1996  1.2587 -0.2190
 3342SOL    HW221660   0.557   2.759   2.917 -0.1742  0.5594 -0.3031
 3343SOL     OW21661   4.539   0.516  12.477 -0.1245 -0.6021 -0.3097
 3343SOL    HW121662   4.613   0.491  12.533 -0.7189 -0.6829  0.4355
 3343SOL    HW221663   4.502   0.592  12.521  0.1556 -0.9170  0.4763
 3344SOL     OW21664   1.019   4.543   8.084  0.0478  0.5964  0.4590
 3344SOL    HW121665   0.984   4.618   8.132  0.5775  1.1625 -0.0308
 3344SOL    HW221666   0.999   4.569   7.994  0.9962 -0.4794 -0.0717
 3345SOL     OW21667   2.361   3.846   5.566 -0.7520 -0.4784  0.2200
 3345SOL    HW121668   2.442   3.897   5.564 -0.1855 -1.4447 -1.5114
 3345SOL    HW221669   2.395   3.772   5.515  0.6379  1.1913 -1.2728
 3346SOL     OW21670   3.442   1.543   5.632  0.5611 -0.2715  0.0733
 3346SOL    HW121671   3.511   1.609   5.642  0.8497 -0.5215 -0.2618
 3346SOL    HW221672   3.428   1.501   5.717 -1.0686 -0.1231 -0.1280
 3347SOL     OW21673   1.467   0.820   0.538  0.1604  0.4890 -1.0613
 3347SOL    HW121674   1.438   0.749   0.479 -3.3383  0.2635  0.9203
 3347SOL    HW221675   1.394   0.882   0.533 -2.1405 -1.9903  1.2636
 3348SOL     OW21676   4.213   0.519   2.938  0.2018 -0.1849  0.1944
 3348SOL    HW121677   4.255   0.474   3.012  0.1681  0.6299  0.7050
 3348SOL    HW221678   4.290   0.552   2.892  1.2797 -0.6226  1.6691
 3349SOL     OW21679   2.392   0.519  12.315 -0.1316  0.1967  0.1994
 3349SOL    HW121680   2.474   0.556  12.282 -0.4263 -0.3352 -1.1283
 3349SOL    HW221681   2.350   0.480  12.239  1.7584 -0.7574 -0.3440
 3350SOL     OW21682   2.221   1.910   6.824  0.4830 -0.3363  0.1097
 3350SOL    HW121683   2.157   1.900   6.894 -2.4226 -1.8161 -2.7447
 3350SOL    HW221684   2.214   1.829   6.775 -0.5140 -1.7550  2.6150
 3351SOL     OW21685   1.412   1.229   1.260  0.2767  0.3230  0.2794
 3351SOL    HW121686   1.481   1.293   1.274  0.8461  0.5763 -3.8193
 3351SOL    HW221687   1.439   1.195   1.175  0.9415 -2.3076  1.5599
 3352SOL     OW21688   0.468   2.100  10.336  0.6857 -0.3602  0.1853
 3352SOL    HW121689   0.533   2.135  10.397  1.5423  0.1494 -1.0227
 3352SOL    HW221690   0.522   2.105  10.258 -2.4205 -2.3657 -2.0795
 3353SOL     OW21691   0.881   2.705  16.664  0.0704  0.2461 -0.5729
 3353SOL    HW121692   0.877   2.624  16.613 -1.2108 -1.0439  1.5719
 3353SOL    HW221693   0.965   2.743  16.637  2.0565 -2.3309  1.9880
 3354SOL     OW21694   0.374   4.583   8.451 -0.5012 -0.0992 -0.1258
 3354SOL    HW121695   0.425   4.663   8.442 -0.0174 -0.5935 -1.8235
 3354SOL    HW221696   0.323   4.588   8.370 -0.9809  0.0799  0.1940
 3355SOL     OW21697   3.567   0.350   1.847 -0.1052  0.6977  0.0329
 3355SOL    HW121698   3.483   0.351   1.801  0.0319  1.5370 -0.1964
 3355SOL    HW221699   3.549   0.289   1.919  0.3959  0.9729  0.3889
 3356SOL     OW21700   3.451   3.174   5.242  0.6005 -0.0402  0.0059
 3356SOL    HW121701   3.421   3.255   5.203 -1.0048 -0.8719 -0.5025
 3356SOL    HW221702   3.398   3.172   5.322  0.3674 -2.6648 -0.1962
 3357SOL     OW21703   4.080   4.400   4.917  0.0051 -0.4811 -1.2073
 3357SOL    HW121704   4.066   4.449   4.837  3.3738 -0.6209 -1.9017
 3357SOL    HW221705   4.136   4.333   4.879  0.1465 -1.5427  0.8539
 3358SOL     OW21706   1.968   1.098  16.974 -0.1980 -0.1864  0.2944
 3358SOL    HW121707   2.002   1.133  17.056 -1.7465 -0.3615  1.0114
 3358SOL    HW221708   1.973   1.005  16.997  1.9952  0.5447  2.8055
 3359SOL     OW21709   1.592   2.370   7.958 -0.1196  0.4756 -0.3851
 3359SOL    HW121710   1.529   2.441   7.950 -0.2762  0.3255 -0.4712
 3359SOL    HW221711   1.672   2.421   7.973  0.2794  0.4343 -2.3667
 3360SOL     OW21712   1.737   1.269  11.264 -0.1772  0.4468 -0.0261
 3360SOL    HW121713   1.797   1.212  11.312 -0.9111 -1.3963 -1.2735
 3360SOL    HW221714   1.763   1.276  11.172  2.2060  1.9464  0.7752
 3361SOL     OW21715   0.797   0.568   6.902 -0.3386 -0.0266  0.5777
 3361SOL    HW121716   0.821   0.554   6.994  0.6640 -0.6965  0.2068
 3361SOL    HW221717   0.702   0.558   6.906 -0.7546  3.9846  0.7625
 3362SOL     OW21718   1.700   1.363  15.205 -0.0097 -0.4468  0.2132
 3362SOL    HW121719   1.664   1.294  15.150 -2.2772 -0.3037  1.5271
 3362SOL    HW221720   1.728   1.306  15.277 -2.6833 -0.9615  0.8288
 3363SOL     OW21721   2.570   2.004   6.607 -0.5257  0.0622  0.2578
 3363SOL    HW121722   2.558   1.964   6.693  1.7086 -0.9083  0.1042
 3363SOL    HW221723   2.616   2.083   6.636 -0.7806  0.5411 -0.6135
 3364SOL     OW21724   3.535   3.226   0.831  0.6791 -0.4368 -0.1334
 3364SOL    HW121725   3.461   3.271   0.872  0.4109  0.5577 -1.7131
 3364SOL    HW221726   3.613   3.265   0.870 -0.3463  1.5463 -0.0569
 3365SOL     OW21727   4.201   2.263  16.634 -0.3631  0.2678 -0.3023
 3365SOL    HW121728   4.172   2.355  16.636  0.2930  0.4787 -0.4848
 3365SOL    HW221729   4.180   2.246  16.542  0.8887  0.5635 -0.6457
 3366SOL     OW21730   4.624   1.662   4.507 -0.2044 -0.3702  0.1529
 3366SOL    HW121731   4.694   1.610   4.546 -1.3048 -1.9068  0.0841
 3366SOL    HW221732   4.632   1.642   4.413  0.3619 -1.2821  0.3995
 3367SOL     OW21733   1.894   3.660   6.727 -0.1937 -0.3457 -0.2067
 3367SOL    HW121734   1.860   3.650   6.638  0.2276  0.5666 -0.4753
 3367SOL    HW221735   1.891   3.754   6.748  3.7128  0.1384 -1.8363
 3368SOL     OW21736   1.055   2.983  16.509  0.0347  0.0675  0.2514
 3368SOL    HW121737   1.096   3.035  16.440 -0.7193  0.0040 -0.2456
 3368SOL    HW221738   1.087   2.899  16.476  0.3406 -0.0426  0.8203
 3369SOL     OW21739   1.325   3.317   6.468  0.3017  0.3364  0.2557
 3369SOL    HW121740   1.396   3.352   6.413 -0.0111 -1.6817 -1.4253
 3369SOL    HW221741   1.270   3.395   6.459 -0.3715 -0.3374 -1.4186
 3370SOL     OW21742   2.638   2.689   5.072  0.8479 -0.5488 -0.2748
 3370SOL    HW121743   2.629   2.783   5.086 -3.3816 -1.0054  0.0808
 3370SOL    HW221744   2.561   2.673   5.017 -1.0156  1.4502  1.7768
 3371SOL     OW21745   3.972   1.426   3.575  0.3197 -0.0703 -0.3198
 3371SOL    HW121746   4.023   1.495   3.531  1.5814 -2.0080 -1.8866
 3371SOL    HW221747   3.888   1.419   3.530  2.3584  0.0185 -4.0920
 3372SOL     OW21748   1.455   2.688  16.522  0.3227 -0.0944  0.1996
 3372SOL    HW121749   1.522   2.684  16.590  1.1552  3.1039 -0.4461
 3372SOL    HW221750   1.495   2.757  16.469  1.3067 -1.8610 -1.3556
 3373SOL     OW21751   3.357   4.345   1.868  0.2829  0.4078  0.0173
 3373SOL    HW121752   3.423   4.281   1.897 -1.7554 -1.8891 -0.3666
 3373SOL    HW221753   3.286   4.282   1.877  0.6526  0.0536  0.4859
 3374SOL     OW21754   1.452   3.066   6.540  0.1670  0.2845 -0.2226
 3374SOL    HW121755   1.513   3.059   6.466  2.8685  0.6982  1.9588
 3374SOL    HW221756   1.392   3.137   6.517  1.5960  1.7251  0.4933
 3375SOL     OW21757   0.255   2.490   2.988  0.8297 -0.6016  0.1699
 3375SOL    HW121758   0.275   2.545   2.913  0.4055  0.2555  0.6918
 3375SOL    HW221759   0.210   2.417   2.944  0.8233 -0.6663  0.2831
 3376SOL     OW21760   4.349   2.017   2.461  0.4017  0.0283 -0.0997
 3376SOL    HW121761   4.314   1.982   2.378 -0.4392 -0.2343  0.3637
 3376SOL    HW221762   4.369   1.944   2.519  0.0531 -0.7419 -0.9396
 3377SOL     OW21763   1.118   1.251   1.109  0.7692  0.0975 -0.2935
 3377SOL    HW121764   1.193   1.248   1.169  1.0894  1.6226 -0.6318
 3377SOL    HW221765   1.079   1.337   1.127 -1.0404 -0.9626  0.8536
 3378SOL     OW21766   1.697   1.659   2.679 -0.1932  0.4003  0.2559
 3378SOL    HW121767   1.641   1.594   2.723  1.8034  0.2693  2.6165
 3378SOL    HW221768   1.647   1.692   2.605 -2.3230  0.8543  1.8902
 3379SOL     OW21769   1.452   4.405   0.566 -0.2109 -0.1358  0.4039
 3379SOL    HW121770   1.471   4.388   0.659  0.3695 -2.0355 -0.0719
 3379SOL    HW221771   1.436   4.318   0.531 -1.0947  0.9660 -1.8631
 3380SOL     OW21772   0.583   0.838   3.641  0.1867 -0.2732 -0.4472
 3380SOL    HW121773   0.660   0.782   3.635  0.6068  0.2291  0.2148
 3380SOL    HW221774   0.533   0.778   3.698 -0.2316 -1.9281 -2.5659
 3381SOL     OW21775   4.064   0.493   2.393 -0.1439  0.2320  0.4553
 3381SOL    HW121776   4.029   0.571   2.437 -0.0577  0.2203  0.5460
 3381SOL    HW221777   4.094   0.444   2.470  1.7400  1.8379  0.7529
 3382SOL     OW21778   2.813   1.849   2.051  0.4712 -0.0185 -0.2489
 3382SOL    HW121779   2.862   1.842   2.133 -1.4961 -0.4069  0.9002
 3382SOL    HW221780   2.887   1.854   1.991  0.7417 -1.8568 -0.0731
 3383SOL     OW21781   4.720   2.564   5.369  0.2819  0.0211  0.1675
 3383SOL    HW121782   0.017   2.621   5.300 -0.3923  0.1510 -0.0529
 3383SOL    HW221783   4.732   2.478   5.330 -2.4525  0.1626 -0.9189
 3384SOL     OW21784   0.116   4.726  13.968  0.2010 -0.0634  0.1208
 3384SOL    HW121785   0.155   4.655  13.916  0.2237 -1.5888  2.2390
 3384SOL    HW221786   0.167   0.056  13.923  0.1634 -0.0193  0.1448
 3385SOL     OW21787   3.601   1.882   5.847  0.1842 -0.6492 -0.7062
 3385SOL    HW121788   3.507   1.864   5.857  0.2673 -0.0252  1.2134
 3385SOL    HW221789   3.634   1.838   5.926 -1.0195 -1.0425 -0.4200
 3386SOL     OW21790   0.981   0.859  11.412  0.3055  0.0091  0.2679
 3386SOL    HW121791   0.900   0.864  11.360 -0.0182 -0.6207  0.7092
 3386SOL    HW221792   0.966   0.779  11.464  0.8928  0.1900  0.7162
 3387SOL     OW21793   2.188   3.872  14.933 -0.1968  0.1301 -0.1437
 3387SOL    HW121794   2.246   3.935  14.975  1.7108 -1.2637 -0.6910
 3387SOL    HW221795   2.226   3.875  14.845  0.4126  0.6011  0.1386
 3388SOL     OW21796   3.528   2.756   3.503 -0.1650  0.2792 -0.6965
 3388SOL    HW121797   3.577   2.749   3.585  0.0038 -0.7819 -0.8796
 3388SOL    HW221798   3.491   2.668   3.491  1.6321 -0.4655 -0.8547
 3389SOL     OW21799   3.755   2.108   0.117 -0.2178  0.0125  0.0600
 3389SOL    HW121800   3.692   2.043   0.149 -0.3893  0.8660  1.4486
 3389SOL    HW221801   3.792   2.052   0.050  2.1884  0.7754  0.7675
 3390SOL     OW21802   0.844   3.408  11.217  0.6182 -0.2996 -0.5396
 3390SOL    HW121803   0.858   3.493  11.175 -2.7376 -0.4016 -1.8840
 3390SOL    HW221804   0.823   3.433  11.307 -1.7937 -2.9758 -0.3387
 3391SOL     OW21805   0.721   4.405   7.152 -0.4085  0.3923  0.1343
 3391SOL    HW121806   0.673   4.340   7.101  1.3405 -2.5856  2.3060
 3391SOL    HW221807   0.661   4.417   7.226 -1.3241  0.6610 -0.6486
 3392SOL     OW21808   4.734   0.486   1.792  0.2006 -0.0911 -0.0299
 3392SOL    HW121809   0.056   0.530   1.853 -1.0422  0.2351  0.9526
 3392SOL    HW221810   0.014   0.529   1.708 -0.1033 -0.1525 -0.1261
 3393SOL     OW21811   1.160   2.093   9.765  0.4702  0.5714  0.0259
 3393SOL    HW121812   1.225   2.068   9.699 -0.4440 -1.1989 -0.2140
 3393SOL    HW221813   1.188   2.181   9.790  2.7540  0.6024 -2.7007
 3394SOL     OW21814   4.407   4.260   0.819  0.2118 -0.0787 -0.2546
 3394SOL    HW121815   4.397   4.165   0.828  0.6195 -0.1016 -0.0724
 3394SOL    HW221816   4.370   4.270   0.906  0.1438  2.3012 -0.5464
 3395SOL     OW21817   4.493   2.238   8.911  0.0774  0.1666  0.2164
 3395SOL    HW121818   4.505   2.149   8.944 -1.3374 -0.1015  0.0084
 3395SOL    HW221819   4.417   2.259   8.965 -0.1633 -0.1947  0.0215
 3396SOL     OW21820   1.051   0.468   8.609  0.4185 -0.3595  0.1349
 3396SOL    HW121821   1.088   0.410   8.542 -0.7914  0.6135 -1.3626
 3396SOL    HW221822   0.971   0.500   8.568  0.4847  0.6008  0.7527
 3397SOL     OW21823   1.574   4.511  10.921  0.3075  0.5344 -0.4009
 3397SOL    HW121824   1.506   4.549  10.865  2.0524  3.1342 -0.7670
 3397SOL    HW221825   1.604   4.591  10.965  0.1715 -0.1789  0.9752
 3398SOL     OW21826   2.826   3.969   4.122  0.4707  0.0763 -0.1719
 3398SOL    HW121827   2.793   3.897   4.177 -0.7398  0.1760 -0.7582
 3398SOL    HW221828   2.792   4.037   4.181 -1.3810 -1.0046  0.0265
 3399SOL     OW21829   4.032   3.219  15.149  0.1613 -0.4891  0.6323
 3399SOL    HW121830   4.097   3.200  15.217  0.3614 -0.7048  0.3783
 3399SOL    HW221831   4.059   3.307  15.121 -1.5125  0.2034  1.1779
 3400SOL     OW21832   1.304   0.426   6.879  0.0971  0.2103 -0.3604
 3400SOL    HW121833   1.295   0.520   6.889 -1.9499  0.5312 -5.2331
 3400SOL    HW221834   1.378   0.415   6.819 -1.5334 -1.3313 -2.0880
 3401SOL     OW21835   0.253   3.404   8.942  0.4116  0.4476 -0.1696
 3401SOL    HW121836   0.191   3.330   8.944  1.5370 -0.5793 -3.0565
 3401SOL    HW221837   0.265   3.404   8.847 -0.4595 -0.5012 -0.2835
 3402SOL     OW21838   2.349   2.964   3.349 -0.3431 -0.3104 -0.6072
 3402SOL    HW121839   2.339   3.058   3.368  2.2900  0.3083 -2.3279
 3402SOL    HW221840   2.443   2.960   3.334 -0.4205 -0.7033 -0.9926
 3403SOL     OW21841   3.037   3.956   7.630  0.1354 -0.0702 -0.0391
 3403SOL    HW121842   2.990   3.896   7.572 -1.8030  1.1254  0.3003
 3403SOL    HW221843   2.997   4.041   7.608 -0.4755 -0.0970  0.9458
 3404SOL     OW21844   4.559   1.023  11.081 -0.2020 -0.1188 -0.7023
 3404SOL    HW121845   4.482   1.004  11.027  1.2996 -2.1603 -2.0683
 3404SOL    HW221846   4.559   1.119  11.089 -2.9309 -0.1877  0.1310
 3405SOL     OW21847   2.951   3.693   3.486  0.6736 -0.2742  0.0240
 3405SOL    HW121848   2.915   3.778   3.511  1.2387 -0.1031  0.2611
 3405SOL    HW221849   2.923   3.634   3.557  0.9925  1.1993  1.3744
 3406SOL     OW21850   4.148   4.226   4.524  0.2374  0.7550 -0.2899
 3406SOL    HW121851   4.242   4.233   4.539  0.1539  0.1606  0.4821
 3406SOL    HW221852   4.124   4.313   4.493  1.6353  1.6121  1.0688
 3407SOL     OW21853   0.892   0.301  10.324  0.1279  0.7850  0.1354
 3407SOL    HW121854   0.976   0.333  10.292  0.1291  1.9289  1.2990
 3407SOL    HW221855   0.859   0.375  10.375  0.0406  0.1314  1.0126
 3408SOL     OW21856   1.027   0.842  12.930  0.4215 -0.0787  0.7044
 3408SOL    HW121857   1.021   0.926  12.884  1.5505 -0.5023 -0.2018
 3408SOL    HW221858   1.098   0.865  12.991  0.3638  1.5189  0.1740
 3409SOL     OW21859   0.116   2.024   7.997  0.0380 -0.1306 -0.6423
 3409SOL    HW121860   0.075   2.028   7.910 -1.6649 -1.3266  0.1068
 3409SOL    HW221861   0.082   2.099   8.045 -1.1689 -2.2590  1.7890
 3410SOL     OW21862   4.382   1.915   4.104 -0.4703 -0.0429  0.5261
 3410SOL    HW121863   4.310   1.854   4.121  0.0829  0.5043  4.6029
 3410SOL    HW221864   4.462   1.869   4.078 -2.4707 -2.5161 -1.3143
 3411SOL     OW21865   1.875   1.907   7.978 -0.1094 -0.2433 -0.5488
 3411SOL    HW121866   1.787   1.926   7.944 -0.0116 -1.9890 -1.7510
 3411SOL    HW221867   1.858   1.817   8.003 -1.7614 -0.1585 -1.3286
 3412SOL     OW21868   1.979   3.019   5.173  0.2623  0.3340 -0.0108
 3412SOL    HW121869   2.008   3.110   5.161  0.9918  0.3522  1.9172
 3412SOL    HW221870   2.010   2.995   5.260  0.1663  0.4707  0.0625
 3413SOL     OW21871   3.405   0.426   8.100 -0.6193  0.6040 -0.2792
 3413SOL    HW121872   3.479   0.478   8.132  0.0137 -0.1030 -0.5948
 3413SOL    HW221873   3.351   0.489   8.052 -0.8247 -0.0927 -0.9668
 3414SOL     OW21874   3.112   1.240  14.825 -0.4219 -0.0363 -0.1673
 3414SOL    HW121875   3.144   1.297  14.755  1.4588  0.9227  1.4680
 3414SOL    HW221876   3.017   1.249  14.815 -0.4138 -1.2049 -1.2703
 3415SOL     OW21877   3.372   3.517  17.433  0.2966  0.6159  0.1124
 3415SOL    HW121878   3.422   3.436  17.441 -1.1603 -0.0727  2.0841
 3415SOL    HW221879   3.343   3.507  17.342  0.4657  1.5491 -0.0532
 3416SOL     OW21880   0.808   3.777   6.025 -0.1149 -0.4729  0.6489
 3416SOL    HW121881   0.835   3.689   6.049 -0.6843 -0.1155  2.5796
 3416SOL    HW221882   0.775   3.813   6.107 -0.7034  1.3838 -0.3928
 3417SOL     OW21883   2.685   1.649   5.996  0.6133  0.4639 -0.1811
 3417SOL    HW121884   2.639   1.679   6.074  1.2780  0.5650  0.1631
 3417SOL    HW221885   2.744   1.722   5.981 -0.3630  0.9284 -1.7267
 3418SOL     OW21886   3.615   2.014   2.916  0.8940 -0.5837  0.2418
 3418SOL    HW121887   3.666   2.012   2.997  1.2935  1.1774  0.0297
 3418SOL    HW221888   3.666   1.959   2.856  0.9544 -0.1992 -0.0575
 3419SOL     OW21889   3.205   0.579  16.891 -0.6158  0.1617  0.2683
 3419SOL    HW121890   3.168   0.545  16.810 -0.0015  0.5360 -0.1684
 3419SOL    HW221891   3.122   0.570  16.938 -0.7973  2.0392  0.2823
 3420SOL     OW21892   2.349   3.233   1.207  0.6007  0.2834 -0.2933
 3420SOL    HW121893   2.445   3.232   1.204  0.5919  1.9568 -1.3767
 3420SOL    HW221894   2.328   3.146   1.175  1.1884 -0.1499  0.4982
 3421SOL     OW21895   4.593   3.769   1.989 -0.5112  0.0425 -0.0342
 3421SOL    HW121896   4.660   3.768   2.058  0.9287 -2.2050 -1.4736
 3421SOL    HW221897   4.513   3.772   2.042 -1.4207 -1.4586 -1.2942
 3422SOL     OW21898   1.674   0.833  10.240 -0.4372 -0.2610 -0.0793
 3422SOL    HW121899   1.670   0.921  10.279 -1.7014  0.6964 -2.3893
 3422SOL    HW221900   1.690   0.785  10.321  1.0302  0.7211  0.2106
 3423SOL     OW21901   2.077   2.667   8.719  0.0429  0.1758 -0.1955
 3423SOL    HW121902   1.982   2.669   8.705  0.1309  0.3517 -0.7232
 3423SOL    HW221903   2.105   2.663   8.628  2.1497  1.7576  0.3869
 3424SOL     OW21904   1.598   2.145   9.332 -0.0615  0.9256 -0.3871
 3424SOL    HW121905   1.639   2.079   9.277 -1.0463 -0.6005  0.6923
 3424SOL    HW221906   1.665   2.151   9.400 -0.4464  0.9846 -0.0123
 3425SOL     OW21907   0.572   1.648   5.590  0.0404 -0.0523  0.3998
 3425SOL    HW121908   0.575   1.682   5.679  2.4857  0.9469 -0.0352
 3425SOL    HW221909   0.512   1.574   5.589 -0.1722  0.1355 -0.5210
 3426SOL     OW21910   3.565   0.188   8.561  0.2533 -0.0217  0.3810
 3426SOL    HW121911   3.632   0.146   8.506  0.4336  2.1275 -1.0065
 3426SOL    HW221912   3.593   0.166   8.650 -2.0644 -1.7828  0.6707
 3427SOL     OW21913   3.889   2.784  10.290 -0.2032 -0.2779 -0.0497
 3427SOL    HW121914   3.912   2.724  10.219  0.2415 -0.4633  0.2484
 3427SOL    HW221915   3.816   2.736  10.328  0.2483 -0.7590  0.2077
 3428SOL     OW21916   1.612   3.889   6.029 -0.2576  0.1950  0.1864
 3428SOL    HW121917   1.576   3.844   6.106  4.2452 -0.2172  2.0018
 3428SOL    HW221918   1.541   3.952   6.015  0.1468  0.9078  1.3553
 3429SOL     OW21919   3.315   4.460   4.039  0.2318 -0.3239 -0.1432
 3429SOL    HW121920   3.295   4.536   3.984  1.8489 -0.4795 -0.9445
 3429SOL    HW221921   3.229   4.436   4.075 -0.5625  1.1565 -1.0374
 3430SOL     OW21922   4.187   4.539  16.509 -0.0752 -0.0981  0.9244
 3430SOL    HW121923   4.103   4.504  16.479  0.2163 -1.5200  1.7692
 3430SOL    HW221924   4.255   4.480  16.476 -3.1031 -1.8066 -2.1937
 3431SOL     OW21925   3.850   4.404   7.077  0.2201  0.2083 -0.2531
 3431SOL    HW121926   3.785   4.414   7.008 -1.6240 -1.6114  1.2386
 3431SOL    HW221927   3.801   4.405   7.160  2.0384  1.7957  0.8204
 3432SOL     OW21928   2.230   1.250   1.588 -0.9926 -0.6561 -0.1281
 3432SOL    HW121929   2.191   1.228   1.503 -1.4288  0.5570 -0.2493
 3432SOL    HW221930   2.284   1.173   1.603  0.3044  0.2542 -0.1360
 3433SOL     OW21931   2.156   4.217  13.276 -0.2738  0.3296 -0.3259
 3433SOL    HW121932   2.134   4.172  13.358  2.0448 -1.2080 -0.5759
 3433SOL    HW221933   2.220   4.153  13.247 -1.2407 -0.9374  0.3551
 3434SOL     OW21934   3.613   4.322  13.397 -0.3578 -0.7694  0.4725
 3434SOL    HW121935   3.646   4.337  13.486  0.2615  0.6855 -0.0033
 3434SOL    HW221936   3.553   4.251  13.420 -0.8750 -0.2731  0.6539
 3435SOL     OW21937   0.594   1.880   3.844 -0.4445  0.1072  1.3013
 3435SOL    HW121938   0.538   1.932   3.902  0.3380 -0.1627  2.2928
 3435SOL    HW221939   0.550   1.795   3.833 -0.3779  0.4700 -1.9141
 3436SOL     OW21940   2.198   0.864  11.063 -0.0602  0.1538  0.2580
 3436SOL    HW121941   2.224   0.840  11.152  1.0703 -3.3949 -1.0298
 3436SOL    HW221942   2.243   0.948  11.057 -0.1789  0.1159 -1.2102
 3437SOL     OW21943   2.747   0.005   4.441 -0.2072  0.5255 -0.2518
 3437SOL    HW121944   2.798   0.077   4.404  0.4255  0.5438  0.6382
 3437SOL    HW221945   2.727   0.040   4.528  0.0205 -1.3038  0.5539
 3438SOL     OW21946   2.812   2.265  12.993  0.3317  0.1814  0.2018
 3438SOL    HW121947   2.896   2.281  13.036 -0.5821 -2.1947  2.8151
 3438SOL    HW221948   2.760   2.208  13.049  1.9020 -1.4090  0.0183
 3439SOL     OW21949   0.705   4.324   9.312 -0.7384 -0.2281 -0.1729
 3439SOL    HW121950   0.756   4.320   9.231 -0.4975  4.4006 -0.2451
 3439SOL    HW221951   0.671   4.413   9.314 -0.5787 -0.1732  0.1218
 3440SOL     OW21952   4.432   3.160  14.903 -0.3129  0.3064  0.5958
 3440SOL    HW121953   4.431   3.065  14.893  1.2088  0.5405 -1.9430
 3440SOL    HW221954   4.491   3.177  14.829 -0.7486  0.2307  0.2321
 3441SOL     OW21955   4.642   2.172  12.099 -0.0521  0.3803 -0.4742
 3441SOL    HW121956   4.717   2.176  12.158 -0.3340  0.5965 -0.1286
 3441SOL    HW221957   4.605   2.085  12.116 -2.3762  1.3697 -0.4518
 3442SOL     OW21958   3.599   2.591  12.468  0.5948 -0.4784 -0.3070
 3442SOL    HW121959   3.560   2.677  12.448  0.0411 -0.3026  1.5857
 3442SOL    HW221960   3.530   2.539  12.509 -0.5433  0.0583 -1.5364
 3443SOL     OW21961   2.228   1.981   4.353 -0.0453  0.0650  0.3817
 3443SOL    HW121962   2.190   1.950   4.270 -0.4617 -1.4724  1.1520
 3443SOL    HW221963   2.321   1.987   4.329 -0.2582  2.2755  0.1112
 3444SOL     OW21964   2.496   0.780   5.296 -0.5891 -0.1930  0.4722
 3444SOL    HW121965   2.544   0.776   5.379 -2.7306 -1.4788  1.6236
 3444SOL    HW221966   2.559   0.759   5.227  0.4428  2.7155  0.5116
 3445SOL     OW21967   4.100   4.296  17.456  0.1272 -0.8143  0.2191
 3445SOL    HW121968   4.131   4.345  17.379 -1.9907  0.4854  0.1725
 3445SOL    HW221969   4.056   4.363  17.509  1.3364 -0.1098  0.3209
 3446SOL     OW21970   2.947   2.572  12.313 -0.1106 -0.1439 -0.2525
 3446SOL    HW121971   2.973   2.491  12.269 -0.4724  0.2261 -1.1627
 3446SOL    HW221972   2.897   2.535  12.385  2.3663 -1.5049  0.7502
 3447SOL     OW21973   3.667   4.544  13.839 -0.2838  0.2433 -0.1590
 3447SOL    HW121974   3.632   4.583  13.919 -2.3648 -0.6829 -0.6245
 3447SOL    HW221975   3.713   4.467  13.874  1.0700  1.1462  0.0289
 3448SOL     OW21976   4.361   2.404   5.192  0.5107  0.0391 -0.4251
 3448SOL    HW121977   4.373   2.486   5.145  2.5906  1.4345  2.5997
 3448SOL    HW221978   4.432   2.353   5.152  0.9656 -0.4259  0.9917
 3449SOL     OW21979   2.439   3.612   0.902 -0.5896 -0.0319  0.4928
 3449SOL    HW121980   2.448   3.680   0.969 -1.5419 -1.5975  2.2040
 3449SOL    HW221981   2.356   3.581   0.938  0.0395 -0.4415  1.5601
 3450SOL     OW21982   0.677   1.793   0.649  0.3173 -0.0783  0.6482
 3450SOL    HW121983   0.597   1.846   0.644  0.9971  0.8557 -0.3503
 3450SOL    HW221984   0.740   1.855   0.613 -0.4925  0.8224  0.7863
 3451SOL     OW21985   4.174   3.482   8.732 -0.1044  0.0860 -0.2616
 3451SOL    HW121986   4.098   3.428   8.715 -0.0656  0.1025 -0.4890
 3451SOL    HW221987   4.138   3.569   8.717 -1.1312  0.0618  2.0934
 3452SOL     OW21988   0.605   0.170  16.860  0.4177  0.2670  0.1439
 3452SOL    HW121989   0.688   0.122  16.857  0.8854  1.0444  0.8467
 3452SOL    HW221990   0.574   0.141  16.774 -0.1072  1.5504 -0.1042
 3453SOL     OW21991   3.927   4.492  13.294 -0.3544  0.0289  0.0206
 3453SOL    HW121992   3.889   4.564  13.244  2.3518  0.4574 -1.4087
 3453SOL    HW221993   4.007   4.524  13.335 -2.1704  2.5040  1.6238
 3454SOL     OW21994   0.672   3.497  11.639 -0.4696 -0.1137  0.2874
 3454SOL    HW121995   0.667   3.407  11.672 -0.0711 -0.8401 -1.6785
 3454SOL    HW221996   0.599   3.537  11.687  0.1789  0.5695  0.6920
 3455SOL     OW21997   0.932   0.639  11.541 -0.1902  0.1931 -0.0934
 3455SOL    HW121998   0.962   0.629  11.632  0.7742  0.1051 -0.4265
 3455SOL    HW221999   0.839   0.621  11.555 -0.4957  0.3892 -1.9788
 3456SOL     OW22000   0.621   4.298  16.785 -0.0037 -0.0519 -0.0333
 3456SOL    HW122001   0.605   4.381  16.740  1.8861 -0.5811 -1.6570
 3456SOL    HW222002   0.546   4.248  16.751 -1.5397  0.9760  1.8459
 3457SOL     OW22003   0.074   0.707  13.337  0.7225  0.6110 -0.9602
 3457SOL    HW122004   0.146   0.715  13.400 -0.6446  2.6474  0.3263
 3457SOL    HW222005   0.025   0.634  13.374 -0.6839  2.3761  0.6720
 3458SOL     OW22006   0.618   1.860   9.261 -0.2360 -0.2919 -0.2394
 3458SOL    HW122007   0.533   1.835   9.227 -1.2749  0.7066  1.6138
 3458SOL    HW222008   0.616   1.802   9.338  0.1972  0.6029  0.4461
 3459SOL     OW22009   4.482   2.165  14.960  0.7969 -0.6410 -0.0054
 3459SOL    HW122010   4.478   2.179  14.865 -0.5934 -0.2349  0.1219
 3459SOL    HW222011   4.414   2.227  14.985 -0.1753 -2.0869  0.9591
 3460SOL     OW22012   3.042   2.998  11.380  0.0129  0.1311 -0.0664
 3460SOL    HW122013   3.072   3.086  11.406 -0.3685  0.2151  0.0933
 3460SOL    HW222014   3.080   2.939  11.445 -0.5063 -0.5496 -0.3902
 3461SOL     OW22015   0.753   3.244   2.231 -0.4044  0.4484 -0.2011
 3461SOL    HW122016   0.791   3.234   2.318  1.3924  2.1499 -0.7927
 3461SOL    HW222017   0.702   3.165   2.214  0.3938  0.5060 -2.8513
 3462SOL     OW22018   0.829   3.270   3.852  0.5342  0.4644 -0.2766
 3462SOL    HW122019   0.735   3.262   3.870  1.1871  0.0675  3.0781
 3462SOL    HW222020   0.844   3.353   3.897  0.9162  2.0425 -3.3911
 3463SOL     OW22021   4.692   3.696  11.861  0.4694  0.0554 -0.2618
 3463SOL    HW122022   4.736   3.672  11.780  0.4926  2.2481 -0.9010
 3463SOL    HW222023   4.643   3.774  11.834  0.9875 -0.4881 -2.7418
 3464SOL     OW22024   1.775   3.711   1.720 -0.0991 -0.1676 -0.6626
 3464SOL    HW122025   1.838   3.641   1.735  1.8026  1.2495 -2.1134
 3464SOL    HW222026   1.814   3.755   1.645  3.1273  1.2927  1.8573
 3465SOL     OW22027   1.223   0.683   5.802  0.1304  0.3323 -0.2916
 3465SOL    HW122028   1.157   0.636   5.751 -0.5893 -0.2890  1.2183
 3465SOL    HW222029   1.299   0.636   5.766 -0.1544 -1.3189  1.2655
 3466SOL     OW22030   4.065   3.187   6.076 -0.4412  0.0218 -0.3658
 3466SOL    HW122031   4.130   3.161   6.011  0.6399  0.0227  0.7013
 3466SOL    HW222032   4.057   3.108   6.130 -0.6793 -0.5925 -1.3021
 3467SOL     OW22033   1.690   3.041  12.311  0.5440  0.1262 -0.3206
 3467SOL    HW122034   1.690   3.016  12.404  0.7140  1.5417  0.0576
 3467SOL    HW222035   1.683   2.953  12.274 -2.8704 -0.1756  1.0101
 3468SOL     OW22036   0.542   4.158   3.552 -0.6605  0.9218  0.5968
 3468SOL    HW122037   0.556   4.114   3.468  2.2767  2.1425  0.4747
 3468SOL    HW222038   0.613   4.220   3.565 -1.0792  1.1036  2.0793
 3469SOL     OW22039   1.746   2.061   6.710 -0.1200 -0.4686 -0.4937
 3469SOL    HW122040   1.715   2.145   6.744 -0.6793 -0.6535 -0.5394
 3469SOL    HW222041   1.677   2.050   6.644 -0.2120 -0.0732 -0.4656
 3470SOL     OW22042   2.842   2.922   6.362  0.2476 -0.4468  0.2808
 3470SOL    HW122043   2.779   2.961   6.302 -2.5289 -1.3890  2.6222
 3470SOL    HW222044   2.924   2.965   6.339  1.5127 -1.6313  2.5836
 3471SOL     OW22045   0.947   3.112   4.060  0.0026  0.1080 -0.0859
 3471SOL    HW122046   0.964   3.166   4.137 -1.4554  0.4207  0.0202
 3471SOL    HW222047   0.902   3.176   4.004 -1.3037 -0.5656  0.1974
 3472SOL     OW22048   3.988   2.704   3.462 -0.3837  0.1800  0.8842
 3472SOL    HW122049   3.945   2.643   3.401  2.6833 -0.2187 -0.9011
 3472SOL    HW222050   3.982   2.790   3.421  0.8043  0.3469  1.0437
 3473SOL     OW22051   2.416   3.709   8.460  0.6622 -0.0792 -0.1610
 3473SOL    HW122052   2.484   3.771   8.435  1.9071 -0.6512  1.7983
 3473SOL    HW222053   2.428   3.709   8.555 -0.1086 -1.6522 -0.0734
 3474SOL     OW22054   1.540   3.206  14.574  0.0889 -0.1428  0.6378
 3474SOL    HW122055   1.511   3.123  14.611  0.1115 -0.1476  0.6449
 3474SOL    HW222056   1.459   3.230  14.531 -0.0019 -1.7168 -0.0634
 3475SOL     OW22057   1.753   0.565   3.259 -0.2644 -0.4496 -0.1361
 3475SOL    HW122058   1.677   0.621   3.241 -0.3954 -0.8638 -0.8580
 3475SOL    HW222059   1.706   0.513   3.324 -0.4542  0.7070  0.6599
 3476SOL     OW22060   3.299   2.471   4.006 -0.9387 -0.3454  0.3020
 3476SOL    HW122061   3.263   2.557   3.983  2.1407  0.8777  0.0272
 3476SOL    HW222062   3.282   2.477   4.100 -1.5180  0.1648  0.1704
 3477SOL     OW22063   2.537   1.935   3.335  0.6379  0.4170 -0.3083
 3477SOL    HW122064   2.466   1.954   3.397  1.4081  0.1719  0.6452
 3477SOL    HW222065   2.552   2.011   3.280 -1.0360  0.5203 -0.6452
 3478SOL     OW22066   4.321   3.443   3.910  0.2657  0.4801 -0.0392
 3478SOL    HW122067   4.415   3.462   3.916  0.0066  2.5519 -2.7771
 3478SOL    HW222068   4.314   3.364   3.965  0.4353  0.1164 -0.5444
 3479SOL     OW22069   3.694   4.287  10.633 -0.0337  0.3184 -0.2322
 3479SOL    HW122070   3.650   4.209  10.601 -1.0883  1.0491 -0.5828
 3479SOL    HW222071   3.638   4.312  10.707  0.7479 -2.5389  1.2967
 3480SOL     OW22072   3.172   0.773   2.957  0.0233 -0.1540  0.1141
 3480SOL    HW122073   3.211   0.835   3.019 -0.5617 -0.8090  1.1320
 3480SOL    HW222074   3.246   0.769   2.896 -1.4882  0.9844 -1.7877
 3481SOL     OW22075   2.542   1.959   5.812  0.7104  0.4111 -0.1872
 3481SOL    HW122076   2.587   2.036   5.848  0.6444  0.7674 -0.8596
 3481SOL    HW222077   2.486   1.937   5.886 -0.4878 -0.5813 -1.3886
 3482SOL     OW22078   1.312   4.159  14.894  0.1429 -0.6196 -0.1300
 3482SOL    HW122079   1.362   4.240  14.888 -1.6857  0.3709 -1.8031
 3482SOL    HW222080   1.367   4.116  14.960 -0.5929  0.0961  0.9526
 3483SOL     OW22081   2.944   2.034   9.311  0.3475  0.0452 -0.2003
 3483SOL    HW122082   3.000   2.027   9.388  0.5180  2.2287 -0.1342
 3483SOL    HW222083   2.888   2.109   9.332 -0.0174 -0.5160  0.8450
 3484SOL     OW22084   3.204   0.783   2.087  0.4209 -0.5321  1.0663
 3484SOL    HW122085   3.218   0.721   2.015 -0.7488 -0.3731  0.6938
 3484SOL    HW222086   3.108   0.782   2.087  0.3968  2.0930 -0.0427
 3485SOL     OW22087   3.242   2.535  11.244  0.0266  0.0777  0.0728
 3485SOL    HW122088   3.291   2.488  11.177 -1.6247 -0.8253 -0.4970
 3485SOL    HW222089   3.281   2.501  11.325 -0.4584 -1.0032 -0.1579
 3486SOL     OW22090   0.993   0.626  11.797  0.0258 -0.4081  0.1102
 3486SOL    HW122091   1.030   0.658  11.879 -0.1465  0.9558 -0.3308
 3486SOL    HW222092   0.976   0.534  11.815 -3.2942  0.5049  1.7224
 3487SOL     OW22093   1.564   0.178  14.144 -0.8353 -0.0050  0.0694
 3487SOL    HW122094   1.644   0.231  14.144 -1.5131  1.0255 -1.6100
 3487SOL    HW222095   1.598   0.089  14.156 -0.0481  0.3995  0.8326
 3488SOL     OW22096   0.169   3.021  10.562  0.0991  0.4886  0.4008
 3488SOL    HW122097   0.091   3.069  10.591  1.2087  0.8906  2.6887
 3488SOL    HW222098   0.123   2.939  10.547 -0.0598  0.7339 -0.4921
 3489SOL     OW22099   4.600   3.936  15.002 -0.6555  0.1078  0.7611
 3489SOL    HW122100   4.544   3.865  14.973 -0.4269  1.0626 -2.0133
 3489SOL    HW222101   4.603   3.983  14.919 -3.1766  1.7455  1.6171
 3490SOL     OW22102   3.846   2.697   5.264  0.0329 -0.0478  0.3391
 3490SOL    HW122103   3.765   2.665   5.223 -0.9452  2.4668  0.3525
 3490SOL    HW222104   3.914   2.689   5.197  0.0081 -0.5017  0.3633
 3491SOL     OW22105   4.178   1.424   4.228  0.1162 -1.2179  0.5496
 3491SOL    HW122106   4.246   1.372   4.185  1.1389  0.4329  0.1367
 3491SOL    HW222107   4.112   1.385   4.172  1.1816  0.2281 -1.7227
 3492SOL     OW22108   4.381   3.322   8.830  0.2820 -0.4424  0.0106
 3492SOL    HW122109   4.316   3.317   8.900  1.9746  0.2127  1.6411
 3492SOL    HW222110   4.325   3.338   8.754 -0.2816 -0.0779  0.5007
 3493SOL     OW22111   1.933   2.555   5.086  0.3812  0.0978 -0.1500
 3493SOL    HW122112   1.954   2.478   5.033 -1.1188 -0.0143 -0.5797
 3493SOL    HW222113   1.940   2.627   5.023  1.0268  0.2384  0.0897
 3494SOL     OW22114   3.719   3.161   2.345 -0.3751  0.3198  0.0336
 3494SOL    HW122115   3.652   3.136   2.409  1.6522 -1.6586  1.4251
 3494SOL    HW222116   3.766   3.078   2.334  0.6924  0.6113  2.3203
 3495SOL     OW22117   2.778   3.395  15.041 -0.0666  0.0382  0.1244
 3495SOL    HW122118   2.770   3.388  14.946 -0.1326 -0.8419  0.1950
 3495SOL    HW222119   2.726   3.321  15.071 -0.6791  0.5315  0.2675
 3496SOL     OW22120   1.917   3.892   3.310 -0.4459 -0.8094 -0.0122
 3496SOL    HW122121   1.987   3.837   3.344  1.1411  0.9500 -0.4647
 3496SOL    HW222122   1.853   3.843   3.361  0.3109 -1.2806  0.4762
 3497SOL     OW22123   2.349   1.019   1.648 -0.3215  0.4569 -0.1574
 3497SOL    HW122124   2.369   0.962   1.722  0.5460 -0.3577 -1.0106
 3497SOL    HW222125   2.346   0.955   1.576 -1.4787 -0.7572  0.9837
 3498SOL     OW22126   1.203   1.568   6.270 -0.0200 -0.1463 -0.1985
 3498SOL    HW122127   1.221   1.604   6.356 -0.0474  0.4273 -0.4326
 3498SOL    HW222128   1.248   1.626   6.210  1.4948  1.2144  2.2822
 3499SOL     OW22129   0.970   1.256  14.905  0.4728 -0.2934  0.1248
 3499SOL    HW122130   1.025   1.200  14.851 -0.0384  1.1718 -1.9490
 3499SOL    HW222131   1.028   1.333  14.902  2.5606 -1.9102 -0.8972
 3500SOL     OW22132   3.544   4.078   4.026 -0.7211  0.3423  0.9632
 3500SOL    HW122133   3.489   4.086   4.104  1.0288  0.9061  2.1337
 3500SOL    HW222134   3.634   4.083   4.059  0.1242  0.2022 -1.3658
 3501SOL     OW22135   2.687   1.820   6.413  0.5867 -0.3671 -0.9348
 3501SOL    HW122136   2.594   1.837   6.424  0.6779 -0.0907 -0.6085
 3501SOL    HW222137   2.709   1.867   6.333 -0.5011 -1.2037 -1.7212
 3502SOL     OW22138   3.419   1.628   7.293  0.1792 -0.6923 -0.1146
 3502SOL    HW122139   3.441   1.547   7.247 -2.8561 -1.3974 -0.3749
 3502SOL    HW222140   3.343   1.658   7.244  0.8423 -1.0672 -1.3754
 3503SOL     OW22141   3.681   3.841   6.426  0.0480 -0.6462  0.3388
 3503SOL    HW122142   3.652   3.793   6.503  0.9737 -0.5047  0.7850
 3503SOL    HW222143   3.727   3.912   6.472 -0.8418 -1.5333  2.5617
 3504SOL     OW22144   2.369   4.134   0.730 -0.5253  0.0439  0.0705
 3504SOL    HW122145   2.301   4.191   0.697  1.0791  1.7350 -0.3209
 3504SOL    HW222146   2.331   4.108   0.814 -0.9277  1.9012  0.4606
 3505SOL     OW22147   2.378   0.574   5.097  0.3351 -0.4757  0.3367
 3505SOL    HW122148   2.432   0.567   5.176  0.1626  0.1483  0.5131
 3505SOL    HW222149   2.441   0.584   5.027  0.8679  0.5790  0.9658
 3506SOL     OW22150   3.000   2.534   5.429  0.2361  0.1265 -0.3130
 3506SOL    HW122151   2.982   2.442   5.409 -1.8088  0.2141  1.1148
 3506SOL    HW222152   2.978   2.576   5.346  1.3363 -0.7331 -1.0397
 3507SOL     OW22153   3.340   2.498   6.510  0.1939  0.1745 -0.0457
 3507SOL    HW122154   3.331   2.591   6.491  1.1445  0.3626  0.4441
 3507SOL    HW222155   3.433   2.487   6.530  0.2644  1.1004  0.1269
 3508SOL     OW22156   3.760   0.113   1.905  0.5395 -0.0778  0.4929
 3508SOL    HW122157   3.705   0.133   1.981  1.0500  3.1190  0.0024
 3508SOL    HW222158   3.691   0.129   1.840 -0.3667 -2.2891  0.8958
 3509SOL     OW22159   3.257   0.201   2.624 -0.2235 -0.2275  0.0253
 3509SOL    HW122160   3.228   0.167   2.539 -0.0205 -1.1575  0.3284
 3509SOL    HW222161   3.188   0.266   2.634  0.4898  0.1634  2.2994
 3510SOL     OW22162   2.173   3.923  10.505 -0.6219 -0.2335 -0.7344
 3510SOL    HW122163   2.164   3.903  10.599  1.1381  0.7472 -0.3757
 3510SOL    HW222164   2.084   3.951  10.483 -1.1717  0.3430  2.1676
 3511SOL     OW22165   1.387   2.222   5.581 -0.0345 -0.2876  0.0621
 3511SOL    HW122166   1.362   2.161   5.650  1.8136  1.1762  2.0384
 3511SOL    HW222167   1.297   2.246   5.559  0.6118  1.3075 -0.8928
 3512SOL     OW22168   4.012   2.475  13.615  0.0158 -0.0531 -0.1137
 3512SOL    HW122169   3.996   2.463  13.709 -0.6526 -0.1002 -0.2350
 3512SOL    HW222170   3.925   2.493  13.579  0.0263  0.7537  0.2736
 3513SOL     OW22171   4.463   0.524  15.455  0.6892  0.0732 -0.2316
 3513SOL    HW122172   4.381   0.569  15.475  1.3450  1.4509 -0.6310
 3513SOL    HW222173   4.501   0.503  15.541  1.5440  1.4215 -0.2805
 3514SOL     OW22174   4.566   2.686   5.539 -0.1095 -0.2480  0.0199
 3514SOL    HW122175   4.622   2.633   5.483 -1.4645 -4.0776  2.2424
 3514SOL    HW222176   4.486   2.635   5.523 -1.3773  1.7282  0.0728
 3515SOL     OW22177   2.997   4.330   7.525  0.4314  0.2271  0.3949
 3515SOL    HW122178   2.914   4.282   7.521  0.4368  0.1748  0.8596
 3515SOL    HW222179   3.053   4.264   7.485  1.8921  1.3758  0.5476
 3516SOL     OW22180   2.376   3.628   5.344 -0.6107  0.1143 -0.1393
 3516SOL    HW122181   2.368   3.681   5.265  0.9947  0.7220  0.1099
 3516SOL    HW222182   2.441   3.565   5.314 -1.4788  0.5811 -2.9552
 3517SOL     OW22183   2.723   2.449  12.786 -0.2182  0.1838 -0.1924
 3517SOL    HW122184   2.748   2.377  12.844 -0.7291  0.8713  0.8806
 3517SOL    HW222185   2.738   2.522  12.846  0.8241 -1.7363  1.8427
 3518SOL     OW22186   3.897   3.032   4.959 -0.3259 -0.7037  0.4229
 3518SOL    HW122187   3.891   3.041   5.054 -0.1857  2.9375  0.0725
 3518SOL    HW222188   3.821   3.080   4.928  0.0006 -1.0477 -0.9072
 3519SOL     OW22189   3.628   1.825   7.272  0.9377 -0.7625 -0.0205
 3519SOL    HW122190   3.538   1.799   7.254 -0.0580  2.9226 -0.4113
 3519SOL    HW222191   3.635   1.841   7.366  0.5949 -0.8436  0.0176
 3520SOL     OW22192   3.891   4.640   2.014 -0.1569  0.2644 -0.4673
 3520SOL    HW122193   3.815   4.586   1.994  0.4671 -0.4169 -0.9615
 3520SOL    HW222194   3.873   4.702   1.943 -0.7800  0.9535  0.2913
 3521SOL     OW22195   2.705   1.183   8.278 -0.1653 -0.5405 -0.4393
 3521SOL    HW122196   2.622   1.171   8.232 -0.3841 -1.4269  0.1757
 3521SOL    HW222197   2.754   1.129   8.215  0.9887  1.3884 -1.2042
 3522SOL     OW22198   4.346   3.436  17.549 -0.0085 -0.0170 -0.3876
 3522SOL    HW122199   4.293   3.371  17.596  2.5637 -1.1436  0.9669
 3522SOL    HW222200   4.392   3.476  17.623 -0.5905 -1.4933  0.7900
 3523SOL     OW22201   2.325   4.674   3.966 -0.7778  0.5298 -1.1426
 3523SOL    HW122202   2.369   4.717   4.040  1.4170  0.4356 -2.4108
 3523SOL    HW222203   2.249   4.627   4.001  2.0119 -1.0382  2.8588
 3524SOL     OW22204   2.662   3.685   6.871  0.3515 -0.2882  0.0480
 3524SOL    HW122205   2.667   3.614   6.806 -0.5739  0.2059 -0.5582
 3524SOL    HW222206   2.642   3.635   6.950 -0.6753  1.5716  0.9417
 3525SOL     OW22207   0.134   2.689   8.186  0.0822  0.2746  0.1071
 3525SOL    HW122208   0.212   2.683   8.241  0.3276 -0.6408 -0.3422
 3525SOL    HW222209   0.120   2.599   8.155 -0.1026  1.4154 -3.0861
 3526SOL     OW22210   0.021   1.085   4.738  0.5261 -0.1660 -0.1700
 3526SOL    HW122211   0.043   1.178   4.749 -0.1549 -0.2274  1.7089
 3526SOL    HW222212   0.096   1.057   4.685  0.5797 -0.0705 -0.1443
 3527SOL     OW22213   2.777   2.894  11.377  0.7168  0.0904 -0.0268
 3527SOL    HW122214   2.772   2.855  11.464  1.0300 -0.8111 -0.4121
 3527SOL    HW222215   2.866   2.928  11.369  1.4441 -1.7717  0.1480
 3528SOL     OW22216   4.591   2.669   4.675 -0.7265 -0.0159 -0.8721
 3528SOL    HW122217   4.676   2.661   4.719 -0.6575 -1.1137 -1.2051
 3528SOL    HW222218   4.573   2.761   4.692 -0.7961 -0.0058 -0.9972
 3529SOL     OW22219   0.205   4.659   9.588 -0.4806 -0.3741  0.3342
 3529SOL    HW122220   0.184   4.601   9.514  1.5455  1.6960 -1.8885
 3529SOL    HW222221   0.233   4.599   9.657 -2.2234 -0.5663  0.8849
 3530SOL     OW22222   2.125   3.190   4.799  0.0873  0.5756  0.1025
 3530SOL    HW122223   2.191   3.145   4.746 -0.1035  1.3255 -0.7686
 3530SOL    HW222224   2.141   3.150   4.885 -2.8436  1.6244  1.1298
 3531SOL     OW22225   4.128   2.170   6.026 -0.1648  0.0511 -0.2487
 3531SOL    HW122226   4.087   2.107   6.085  1.3078  2.5266  3.3978
 3531SOL    HW222227   4.066   2.171   5.953  1.1006 -1.7856 -1.3306
 3532SOL     OW22228   1.216   3.124   6.799  0.3035 -0.5306  0.0748
 3532SOL    HW122229   1.238   3.216   6.791  0.1898 -0.6305 -1.3934
 3532SOL    HW222230   1.298   3.075   6.799  0.0219 -0.9868 -1.4771
 3533SOL     OW22231   3.266   1.149   3.596  0.1993  0.9353 -0.2068
 3533SOL    HW122232   3.293   1.074   3.650 -3.6410  0.1936  0.7250
 3533SOL    HW222233   3.172   1.132   3.601  0.0617  2.0657  1.0987
 3534SOL     OW22234   4.010   4.487   6.834  0.5380  0.3165  0.4270
 3534SOL    HW122235   3.979   4.461   6.920 -2.8803  1.0689 -0.5615
 3534SOL    HW222236   4.042   4.576   6.847  2.3814 -0.5438  1.6763
 3535SOL     OW22237   0.939   4.308  16.205  0.2748 -0.4191 -0.0846
 3535SOL    HW122238   0.956   4.377  16.141  0.2769 -1.7161 -1.4738
 3535SOL    HW222239   0.898   4.237  16.155  2.8518 -1.1420 -1.1846
 3536SOL     OW22240   0.274   1.422   2.241 -0.8490 -0.2994  0.6594
 3536SOL    HW122241   0.318   1.340   2.261  0.1548 -0.0757 -0.6610
 3536SOL    HW222242   0.227   1.437   2.324 -2.0299  1.5807 -0.3443
 3537SOL     OW22243   3.367   3.034   1.281 -0.1959 -0.2691 -0.0300
 3537SOL    HW122244   3.405   3.107   1.232 -1.6902 -0.2514 -1.1672
 3537SOL    HW222245   3.315   3.088   1.341 -1.1084 -1.9581  0.6930
 3538SOL     OW22246   1.453   4.432   3.796  0.1516  0.1197  0.2624
 3538SOL    HW122247   1.438   4.496   3.726  1.0715  0.1472  0.0918
 3538SOL    HW222248   1.506   4.362   3.758  1.8337  3.0894 -2.8083
 3539SOL     OW22249   1.857   4.161   9.026  0.4699 -1.0176  0.1712
 3539SOL    HW122250   1.935   4.115   9.057  1.2140  1.5046  2.0210
 3539SOL    HW222251   1.823   4.216   9.096 -1.2637 -1.5733 -0.2402
 3540SOL     OW22252   1.943   2.308   5.446  0.7153 -0.4001 -0.2230
 3540SOL    HW122253   1.899   2.263   5.518 -2.5612 -1.5846 -2.9685
 3540SOL    HW222254   1.985   2.238   5.397  0.9090 -0.1172 -0.4659
 3541SOL     OW22255   1.307   2.841   1.315 -0.5201  0.0023  0.4164
 3541SOL    HW122256   1.270   2.848   1.403 -0.6719  2.4911  0.1466
 3541SOL    HW222257   1.395   2.871   1.340 -0.5930  1.0458 -0.6148
 3542SOL     OW22258   2.529   3.567   4.198  0.4249 -0.3504 -0.1606
 3542SOL    HW122259   2.486   3.565   4.113  0.5733 -0.6517 -0.2289
 3542SOL    HW222260   2.557   3.477   4.216  4.7700  0.6175 -2.0333
 3543SOL     OW22261   0.002   3.335   8.097 -0.1721 -0.0451 -0.5415
 3543SOL    HW122262   0.047   3.395   8.155 -1.0447 -0.3322  0.4241
 3543SOL    HW222263   4.650   3.322   8.130  0.6082  1.3025  2.0303
 3544SOL     OW22264   1.328   1.261  12.620 -0.0123 -0.1027 -0.4644
 3544SOL    HW122265   1.297   1.174  12.645 -1.8563  0.2059 -1.7102
 3544SOL    HW222266   1.414   1.234  12.588 -0.0812 -1.6119  0.6166
 3545SOL     OW22267   2.392   0.886   3.113 -0.6144  0.2710 -0.3804
 3545SOL    HW122268   2.442   0.934   3.179 -0.0183 -0.5026 -0.2740
 3545SOL    HW222269   2.342   0.828   3.169 -0.9587  0.0465 -0.9266
 3546SOL     OW22270   4.652   2.720   9.943  0.3607 -0.4020  0.0550
 3546SOL    HW122271   4.684   2.692  10.028 -0.5164  0.4334  0.6677
 3546SOL    HW222272   4.718   2.782   9.914  0.9131 -0.5215  1.0554
 3547SOL     OW22273   0.260   3.411  16.104  0.2025  0.0795 -0.1845
 3547SOL    HW122274   0.335   3.430  16.161  1.1068 -3.0282 -0.3870
 3547SOL    HW222275   0.199   3.477  16.139  0.5054  0.1957  0.1323
 3548SOL     OW22276   4.287   2.338   2.854 -0.2099 -0.3470 -0.0580
 3548SOL    HW122277   4.238   2.269   2.808  0.6587 -1.8815  1.3167
 3548SOL    HW222278   4.259   2.414   2.804  1.2905  0.1719 -0.1049
 3549SOL     OW22279   1.806   2.540   7.953  0.3672 -0.2584 -0.4003
 3549SOL    HW122280   1.745   2.611   7.932  0.6007  0.7658  2.3169
 3549SOL    HW222281   1.890   2.579   7.931 -0.3232  1.5959  0.1755
 3550SOL     OW22282   1.966   3.456  14.634  0.1573  0.4660  0.0415
 3550SOL    HW122283   1.968   3.533  14.691  1.6828  0.6162 -0.2162
 3550SOL    HW222284   1.947   3.505  14.554 -0.9294  1.0746  0.6729
 3551SOL     OW22285   0.799   3.111   8.172  0.2437 -0.2766 -0.2494
 3551SOL    HW122286   0.831   3.032   8.129  1.2497  0.1185 -0.2199
 3551SOL    HW222287   0.745   3.074   8.242  0.5814 -0.1738  0.0631
 3552SOL     OW22288   0.562   1.866   7.698 -0.6840 -0.1622 -0.7378
 3552SOL    HW122289   0.525   1.886   7.611 -0.7342 -0.5015 -0.7916
 3552SOL    HW222290   0.487   1.837   7.750 -0.0483  0.9667  0.8138
 3553SOL     OW22291   2.360   2.426  10.303 -0.5315  0.1556  0.0977
 3553SOL    HW122292   2.269   2.408  10.281 -1.0712  0.5777  2.0253
 3553SOL    HW222293   2.395   2.337  10.297  1.1606  0.8399 -0.2031
 3554SOL     OW22294   2.689   1.806   4.821  0.1921 -0.0274 -0.1700
 3554SOL    HW122295   2.778   1.833   4.800 -0.0285  0.4764 -0.4640
 3554SOL    HW222296   2.658   1.890   4.855  0.4374 -1.1320  2.7826
 3555SOL     OW22297   3.082   3.152   2.618 -0.4353  0.1725  0.3666
 3555SOL    HW122298   3.001   3.154   2.566  0.0865 -0.6452 -0.4845
 3555SOL    HW222299   3.057   3.083   2.680 -0.1577 -2.7330 -2.7247
 3556SOL     OW22300   2.457   3.334   0.834  0.3311 -0.0204 -0.8099
 3556SOL    HW122301   2.463   3.404   0.899 -1.1888 -0.7076  0.0781
 3556SOL    HW222302   2.447   3.395   0.761 -0.3113 -0.9741 -1.5172
 3557SOL     OW22303   1.844   2.746   8.588  0.2635  0.3829  0.0691
 3557SOL    HW122304   1.863   2.760   8.496  0.5698  0.0855  0.0898
 3557SOL    HW222305   1.793   2.666   8.598  1.5323 -0.7664 -2.7557
 3558SOL     OW22306   3.197   1.543  13.438  0.1229  0.1149 -0.3192
 3558SOL    HW122307   3.184   1.629  13.398 -0.8902  0.2830  0.3673
 3558SOL    HW222308   3.293   1.540  13.441  0.1225  1.1483  0.5152
 3559SOL     OW22309   4.482   1.748   2.986 -0.5232 -0.2348  0.3863
 3559SOL    HW122310   4.442   1.699   2.914 -4.0169  2.2888  0.6230
 3559SOL    HW222311   4.454   1.699   3.064  0.5941 -1.6373 -0.0837
 3560SOL     OW22312   0.429   2.959   4.995  1.1397 -0.7192  0.0820
 3560SOL    HW122313   0.495   3.028   4.989  1.5518 -1.1487 -0.3267
 3560SOL    HW222314   0.372   2.991   5.065 -0.7821  1.5740 -2.5945
 3561SOL     OW22315   4.571   1.904  14.819  0.0591  0.9212 -0.6177
 3561SOL    HW122316   4.644   1.945  14.773  0.2636  0.3252 -0.8309
 3561SOL    HW222317   4.591   1.925  14.911 -0.5490 -3.4337  0.5315
 3562SOL     OW22318   2.115   3.234  16.635 -0.3701 -0.4634  0.3183
 3562SOL    HW122319   2.169   3.157  16.617 -0.8406 -1.4216  2.9114
 3562SOL    HW222320   2.100   3.211  16.727 -0.0136  0.0509  0.5017
 3563SOL     OW22321   2.120   1.076   7.585 -0.2118 -0.0513  0.5025
 3563SOL    HW122322   2.095   1.117   7.668  2.6870  0.1824  1.2453
 3563SOL    HW222323   2.149   1.150   7.531 -1.2956  0.4452  0.5889
 3564SOL     OW22324   3.772   1.419   8.033 -0.0698  0.3898 -0.3922
 3564SOL    HW122325   3.867   1.416   8.036 -0.1056 -1.1553 -0.4066
 3564SOL    HW222326   3.765   1.329   8.001  1.3656  0.6527 -1.4189
 3565SOL     OW22327   0.657   1.724   9.513 -0.2304  0.0434  0.3119
 3565SOL    HW122328   0.654   1.634   9.480 -1.1407 -0.1347  0.8782
 3565SOL    HW222329   0.692   1.696   9.598  0.2398 -0.6462 -0.1066
 3566SOL     OW22330   4.069   2.283  11.341  0.0768  0.4000 -0.2892
 3566SOL    HW122331   4.028   2.197  11.343  1.3992 -0.0967  3.7151
 3566SOL    HW222332   4.150   2.260  11.387 -0.2138  2.4204  1.2326
 3567SOL     OW22333   0.266   3.172   9.326 -0.0796 -0.3331  0.1717
 3567SOL    HW122334   0.333   3.240   9.327 -0.5920  0.1939 -1.7736
 3567SOL    HW222335   0.237   3.161   9.417  1.9839  1.3688  1.0132
 3568SOL     OW22336   1.541   4.172   7.169 -0.1752 -0.4535 -0.4561
 3568SOL    HW122337   1.464   4.142   7.217  0.5412 -1.1732  0.2484
 3568SOL    HW222338   1.517   4.150   7.079 -1.4563 -1.0770  0.0419
 3569SOL     OW22339   2.371   4.518   0.300  0.1398 -0.3144  0.0562
 3569SOL    HW122340   2.459   4.539   0.268 -0.2314  0.1944 -0.5994
 3569SOL    HW222341   2.313   4.591   0.279  1.3788  0.8593  0.7092
 3570SOL     OW22342   0.602   2.736  16.666 -0.1585  0.2311 -0.1364
 3570SOL    HW122343   0.545   2.698  16.600  1.5117 -0.5448 -1.1357
 3570SOL    HW222344   0.687   2.709  16.630 -1.8241 -1.0943 -3.1054
 3571SOL     OW22345   2.628   3.014   3.552  0.1052  0.1654  0.2679
 3571SOL    HW122346   2.568   3.063   3.609 -1.2489 -0.8656 -0.2683
 3571SOL    HW222347   2.656   3.082   3.491 -0.8644 -0.1023 -0.4705
 3572SOL     OW22348   2.285   4.461  11.491 -0.2062 -0.1618  0.4014
 3572SOL    HW122349   2.373   4.428  11.471  0.3622  1.9244 -0.5993
 3572SOL    HW222350   2.244   4.378  11.515 -0.9709  0.6030  1.7562
 3573SOL     OW22351   4.430   2.351   8.327  0.4393 -0.5661  0.1414
 3573SOL    HW122352   4.364   2.325   8.392 -0.3087  1.4842  0.1935
 3573SOL    HW222353   4.435   2.270   8.276 -1.0563 -0.0847 -0.7472
 3574SOL     OW22354   1.972   1.894   1.226  0.2966  0.3389 -0.5484
 3574SOL    HW122355   1.932   1.842   1.296  1.9030 -1.8337 -1.2622
 3574SOL    HW222356   2.031   1.828   1.189 -0.7378 -0.9474  0.1084
 3575SOL     OW22357   1.826   1.058   4.178 -0.2316  0.0007  0.2724
 3575SOL    HW122358   1.880   1.023   4.249 -0.7521  0.8288  1.0716
 3575SOL    HW222359   1.744   1.009   4.177 -0.4881  0.4392  0.3469
 3576SOL     OW22360   3.020   2.824   8.632  0.2204  0.1489 -0.1642
 3576SOL    HW122361   3.108   2.820   8.671  0.9530  1.6105 -1.6264
 3576SOL    HW222362   3.041   2.790   8.545  1.7210 -0.5705  0.4705
 3577SOL     OW22363   0.893   3.595  10.200  0.4099  0.1725 -0.2165
 3577SOL    HW122364   0.904   3.680  10.244  1.2888 -0.9413  1.6988
 3577SOL    HW222365   0.800   3.585  10.222  1.2491 -0.5760  2.9785
 3578SOL     OW22366   3.468   2.912   7.747 -0.0349  0.6627  0.1007
 3578SOL    HW122367   3.551   2.871   7.772  0.7403  2.6771  0.8898
 3578SOL    HW222368   3.438   2.844   7.687  0.3779  2.6671 -2.4109
 3579SOL     OW22369   0.555   0.303   2.659 -0.0593 -0.1150 -0.1248
 3579SOL    HW122370   0.629   0.342   2.706 -0.6103 -0.6668  1.1861
 3579SOL    HW222371   0.488   0.317   2.726  0.6017  0.2583  0.4566
 3580SOL     OW22372   4.339   3.866   4.354  0.1158  0.2717  0.0410
 3580SOL    HW122373   4.412   3.856   4.415  0.2865  1.2184 -0.0041
 3580SOL    HW222374   4.367   3.810   4.282  0.7940 -0.8761  1.1849
 3581SOL     OW22375   2.630   0.933   6.598  0.3351  0.3359  0.0457
 3581SOL    HW122376   2.715   0.976   6.609  2.2182 -3.3802  0.0519
 3581SOL    HW222377   2.596   0.981   6.523 -0.5770  0.7742  0.7400
 3582SOL     OW22378   0.709   3.193  12.962  0.3205  0.4061  0.3590
 3582SOL    HW122379   0.618   3.201  12.933  0.7984  3.5133 -0.2721
 3582SOL    HW222380   0.745   3.268  12.915 -0.2654  0.7961  0.5284
 3583SOL     OW22381   1.355   2.269  16.121 -0.0947 -0.2703  0.3054
 3583SOL    HW122382   1.412   2.305  16.188 -0.5079  0.6903  0.1369
 3583SOL    HW222383   1.351   2.178  16.151  3.9683  0.4031  2.9225
 3584SOL     OW22384   0.941   3.626  11.451 -0.4317  0.3834  0.3651
 3584SOL    HW122385   0.963   3.712  11.486 -2.0188  1.8601 -2.3455
 3584SOL    HW222386   0.845   3.628  11.451 -0.4561 -1.3278 -1.2663
 3585SOL     OW22387   1.352   3.060   7.837  0.0282 -0.2240 -0.4158
 3585SOL    HW122388   1.297   3.027   7.766 -1.9797  0.1759  0.9777
 3585SOL    HW222389   1.407   3.116   7.782 -0.1423 -0.6015 -0.9714
 3586SOL     OW22390   2.422   2.141  10.361  1.1264 -0.0965  0.2510
 3586SOL    HW122391   2.482   2.076  10.398  1.8094  0.9935  1.0528
 3586SOL    HW222392   2.336   2.124  10.400  0.5778  2.8363  0.3315
 3587SOL     OW22393   4.453   3.766   6.686  0.5355 -0.2831 -0.3990
 3587SOL    HW122394   4.379   3.709   6.704  1.0196 -0.4449  1.0884
 3587SOL    HW222395   4.413   3.840   6.640  0.0156  0.0517  0.5901
 3588SOL     OW22396   3.346   1.684   9.268 -0.2695 -0.5067 -1.3244
 3588SOL    HW122397   3.349   1.670   9.173  2.9466 -1.2715 -1.1203
 3588SOL    HW222398   3.252   1.697   9.282 -0.5837 -2.3630 -1.7206
 3589SOL     OW22399   3.897   4.679   6.579 -0.3916 -0.5169 -0.0326
 3589SOL    HW122400   3.952   4.601   6.572 -0.8212 -0.7533 -0.9107
 3589SOL    HW222401   3.842   4.659   6.502 -2.1029  0.5488  0.9208
 3590SOL     OW22402   0.680   1.752  14.216 -0.0594  0.5353 -0.2246
 3590SOL    HW122403   0.744   1.796  14.274  0.8675 -2.8268  1.2864
 3590SOL    HW222404   0.742   1.723  14.150 -1.5647 -2.4794 -0.2873
 3591SOL     OW22405   1.238   3.234  12.645 -0.4291  0.1694 -0.2576
 3591SOL    HW122406   1.321   3.239  12.597 -0.1015  0.0982  0.2991
 3591SOL    HW222407   1.184   3.300  12.602 -2.5264  0.8764  3.4443
 3592SOL     OW22408   1.096   2.436   4.559  0.1179 -0.3436  0.3423
 3592SOL    HW122409   1.002   2.450   4.566  0.0831 -0.4843  0.1515
 3592SOL    HW222410   1.121   2.466   4.647  0.9261 -3.2951  1.1286
 3593SOL     OW22411   4.639   3.160   8.984 -0.5047  0.5080  0.0821
 3593SOL    HW122412   4.732   3.140   8.989 -0.4605  0.6215 -0.2881
 3593SOL    HW222413   4.631   3.251   9.014  1.1630  0.0307  1.9553
 3594SOL     OW22414   3.393   0.557   9.387  0.1211  0.3787 -0.1286
 3594SOL    HW122415   3.387   0.468   9.421  4.0548  0.7781  1.6134
 3594SOL    HW222416   3.446   0.588   9.460 -0.0521  0.9526 -0.2447
 3595SOL     OW22417   0.377   0.363   8.012  0.4670 -0.3429  0.2301
 3595SOL    HW122418   0.416   0.292   8.063 -0.1825 -0.3849  0.6621
 3595SOL    HW222419   0.412   0.353   7.923  1.0351  0.0773  0.4060
 3596SOL     OW22420   2.255   0.981   7.939 -0.3858 -0.1822  0.2015
 3596SOL    HW122421   2.245   1.076   7.939  0.7153 -0.0761 -0.5690
 3596SOL    HW222422   2.248   0.964   8.033 -0.0322  0.8804  0.4085
 3597SOL     OW22423   3.048   1.002   2.663 -0.5521  0.2192  0.0818
 3597SOL    HW122424   2.986   0.938   2.698  0.9589 -1.6388 -0.5920
 3597SOL    HW222425   3.124   0.995   2.721  1.1322  1.4197 -1.9561
 3598SOL     OW22426   2.643   4.196   0.681 -0.7854  0.1822 -0.0077
 3598SOL    HW122427   2.551   4.196   0.706 -0.5094 -0.8378  1.0422
 3598SOL    HW222428   2.657   4.104   0.658  0.5402  0.3240  0.2127
 3599SOL     OW22429   1.352   1.110  14.323  1.6451  0.1286  0.5364
 3599SOL    HW122430   1.377   1.074  14.239  1.6232  0.8404  0.2204
 3599SOL    HW222431   1.274   1.153  14.287  2.0546  0.6160  0.2292
 3600SOL     OW22432   1.815   4.032  11.959 -0.4293  0.1465 -0.1010
 3600SOL    HW122433   1.759   4.090  12.012 -0.4144  1.6956 -1.7656
 3600SOL    HW222434   1.894   4.034  12.013 -1.2170 -1.3764  1.0937
 3601SOL     OW22435   1.743   2.583   4.248 -0.0778 -0.1957  0.1115
 3601SOL    HW122436   1.654   2.568   4.215  0.3447 -0.0910 -1.0890
 3601SOL    HW222437   1.784   2.499   4.268  0.2420 -0.7026 -2.7149
 3602SOL     OW22438   3.354   4.026   5.349  0.2203  0.1149 -0.0811
 3602SOL    HW122439   3.342   3.933   5.372 -0.6911  0.3136  0.2579
 3602SOL    HW222440   3.378   4.068   5.432  0.7571 -1.2993  0.4940
 3603SOL     OW22441   4.433   2.720   7.515  0.0329  0.0102 -0.3884
 3603SOL    HW122442   4.495   2.669   7.567  0.6810  0.8578 -0.3260
 3603SOL    HW222443   4.475   2.716   7.429 -0.4946  0.0161 -0.6455
 3604SOL     OW22444   3.459   0.515  15.400  0.3176 -0.6485  0.0105
 3604SOL    HW122445   3.431   0.555  15.318  0.1969 -1.8373 -0.5354
 3604SOL    HW222446   3.460   0.428  15.359  1.7191 -0.6395  0.0356
 3605SOL     OW22447   2.418   2.631   6.701 -0.0901  0.1698  0.1484
 3605SOL    HW122448   2.392   2.644   6.609 -1.2233 -0.4595  0.3782
 3605SOL    HW222449   2.445   2.540   6.690  0.1955  0.0301  2.1667
 3606SOL     OW22450   2.498   4.096   6.744  0.0198  0.1635  0.2493
 3606SOL    HW122451   2.466   4.082   6.833  0.3565  1.5970  0.5858
 3606SOL    HW222452   2.480   4.009   6.707 -0.5602  0.8383 -1.0252
 3607SOL     OW22453   1.298   3.542   2.010  0.5833  0.2930  0.4175
 3607SOL    HW122454   1.338   3.466   1.969 -0.5019  0.0207 -0.1461
 3607SOL    HW222455   1.366   3.609   1.998 -1.0287  1.2234 -3.4615
 3608SOL     OW22456   0.372   2.988   4.121  0.1145  0.3011 -0.3381
 3608SOL    HW122457   0.349   3.053   4.188 -1.5691 -0.5438 -0.1006
 3608SOL    HW222458   0.464   3.007   4.104  0.1751  1.4808  1.2721
 3609SOL     OW22459   0.160   4.150  15.183  0.1486 -0.0666  0.2435
 3609SOL    HW122460   0.175   4.064  15.145  0.0420 -0.7604  1.7799
 3609SOL    HW222461   0.118   4.201  15.114  1.5727 -0.3200 -0.8044
 3610SOL     OW22462   3.452   2.804   3.238 -0.0625  0.3862  0.2748
 3610SOL    HW122463   3.508   2.761   3.302  0.2384 -0.5755 -0.6320
 3610SOL    HW222464   3.441   2.735   3.173 -0.7536 -1.9151  2.8482
 3611SOL     OW22465   0.027   3.614   9.067  0.7899 -0.0895 -0.3136
 3611SOL    HW122466   0.079   3.638   8.990 -1.0049  3.1555 -0.5007
 3611SOL    HW222467   4.681   3.581   9.033  0.0976 -1.0970  2.3795
 3612SOL     OW22468   4.045   1.019  10.897 -0.1603 -0.5759 -0.2231
 3612SOL    HW122469   4.018   1.034  10.807 -2.6852  0.3297  0.6911
 3612SOL    HW222470   4.049   0.924  10.909  2.0315 -0.5946 -1.1259
 3613SOL     OW22471   2.165   4.164   4.036 -0.9625  0.1856  0.4748
 3613SOL    HW122472   2.100   4.096   4.057 -1.2738 -0.6805 -3.2281
 3613SOL    HW222473   2.213   4.119   3.966  0.2865  0.8692  0.8937
 3614SOL     OW22474   2.410   2.492   5.566  0.6038 -0.1979 -0.2236
 3614SOL    HW122475   2.481   2.523   5.511  0.0377  1.9155  0.2635
 3614SOL    HW222476   2.337   2.551   5.548 -1.5768 -2.2445  1.7271
 3615SOL     OW22477   3.188   2.378   6.311  0.5602 -0.1844  0.0967
 3615SOL    HW122478   3.252   2.418   6.369  0.3171  1.0052 -0.4701
 3615SOL    HW222479   3.239   2.373   6.230 -1.1737 -1.1865 -0.9358
 3616SOL     OW22480   0.645   2.214   4.609 -0.5520 -0.3043 -0.1533
 3616SOL    HW122481   0.731   2.185   4.639 -0.5262  0.9742  1.0136
 3616SOL    HW222482   0.672   2.268   4.535 -0.5101  0.2422  0.2617
 3617SOL     OW22483   0.279   0.961   5.493  0.2339  0.1737 -0.2699
 3617SOL    HW122484   0.308   0.927   5.408  1.5016 -0.4807  0.4222
 3617SOL    HW222485   0.260   0.875   5.530  1.8659  0.3318  0.9267
 3618SOL     OW22486   1.554   4.530   4.389  0.3622  0.2378  0.2697
 3618SOL    HW122487   1.471   4.496   4.422  1.7642 -3.5005 -0.0729
 3618SOL    HW222488   1.538   4.622   4.366 -0.9657 -0.0650 -0.0533
 3619SOL     OW22489   2.349   3.528   0.664  0.1544  0.5723  0.4360
 3619SOL    HW122490   2.372   3.583   0.739  0.3067  0.4407  0.4855
 3619SOL    HW222491   2.316   3.598   0.607  0.1512  1.7290  1.8432
 3620SOL     OW22492   0.546   0.320  15.405 -0.3870 -0.0174  0.1529
 3620SOL    HW122493   0.519   0.404  15.442 -0.7414 -0.3670  0.6931
 3620SOL    HW222494   0.612   0.345  15.340 -2.6722  0.9807 -1.7593
 3621SOL     OW22495   1.797   2.514   8.925  0.5061  0.3088  0.8062
 3621SOL    HW122496   1.704   2.536   8.915  0.7464  0.3890 -1.2909
 3621SOL    HW222497   1.818   2.534   9.016  0.4723 -1.2696  1.1516
 3622SOL     OW22498   4.064   2.588   5.052  0.2291  0.1814 -0.4079
 3622SOL    HW122499   4.038   2.655   4.989  0.5382  1.4306  0.7848
 3622SOL    HW222500   4.155   2.575   5.026  0.7386 -0.1048  1.5143
 3623SOL     OW22501   3.817   3.412  10.286  0.1069 -0.3153 -0.0605
 3623SOL    HW122502   3.882   3.413  10.216 -0.3864  1.1288 -0.4978
 3623SOL    HW222503   3.852   3.477  10.347 -0.3541  0.1030 -0.2373
 3624SOL     OW22504   4.596   4.733  17.288 -0.4412  0.2935 -0.2823
 3624SOL    HW122505   4.660   0.042  17.342  0.2638  0.4128 -1.2209
 3624SOL    HW222506   4.653   4.690  17.224 -1.4802 -1.1008 -0.2855
 3625SOL     OW22507   4.475   4.541   4.536  0.1621 -0.3336  0.5417
 3625SOL    HW122508   4.447   4.632   4.531  0.0622 -0.3977 -0.0299
 3625SOL    HW222509   4.566   4.549   4.565  0.2111 -0.3954  0.4023
 3626SOL     OW22510   4.333   0.822   3.199 -0.5503  0.2911  0.2601
 3626SOL    HW122511   4.410   0.768   3.181 -0.7737  0.3618 -0.9137
 3626SOL    HW222512   4.335   0.889   3.131 -0.6311 -0.7031 -0.7254
 3627SOL     OW22513   4.206   2.999   8.712 -0.7620 -0.6220 -0.0693
 3627SOL    HW122514   4.291   3.001   8.758 -0.7305  1.7288 -0.2381
 3627SOL    HW222515   4.215   3.059   8.638  1.3830 -0.1689  0.5350
 3628SOL     OW22516   0.039   4.471  12.137 -0.1878 -0.4663 -0.4823
 3628SOL    HW122517   0.053   4.526  12.214 -0.8397 -1.5188  0.3904
 3628SOL    HW222518   0.117   4.477  12.082 -1.2961 -0.2829 -2.0296
 3629SOL     OW22519   3.712   2.499   6.633  0.8890  0.4003 -0.2765
 3629SOL    HW122520   3.798   2.457   6.641 -1.1273 -2.8440  4.0884
 3629SOL    HW222521   3.661   2.418   6.635 -1.4543  1.9053 -0.1544
 3630SOL     OW22522   4.140   2.124   6.895 -0.2761 -0.4562  0.3642
 3630SOL    HW122523   4.226   2.083   6.883 -0.3448  0.1455 -2.1181
 3630SOL    HW222524   4.107   2.111   6.806  2.5815 -0.0962 -0.7364
 3631SOL     OW22525   1.436   3.876   4.892  0.3454 -0.0923 -0.2741
 3631SOL    HW122526   1.434   3.829   4.975  1.0483  0.0466 -0.1782
 3631SOL    HW222527   1.517   3.924   4.902 -0.1228  0.5505  0.4194
 3632SOL     OW22528   1.909   3.168   8.556 -0.3714 -0.0321  0.0140
 3632SOL    HW122529   1.995   3.149   8.520  0.5774  2.1161  1.1940
 3632SOL    HW222530   1.888   3.258   8.532 -2.2814 -0.1222  1.2721
 3633SOL     OW22531   2.582   4.407   9.099  0.1230 -0.2317  0.1039
 3633SOL    HW122532   2.573   4.495   9.064 -2.6842 -1.5249 -2.4433
 3633SOL    HW222533   2.661   4.382   9.051  0.1096 -0.4321  0.1854
 3634SOL     OW22534   2.312   4.004  12.305  0.1688  0.1714  0.4256
 3634SOL    HW122535   2.280   4.094  12.310  1.2780  0.6994 -2.1162
 3634SOL    HW222536   2.260   3.966  12.376 -0.1626  0.2390  0.2165
 3635SOL     OW22537   3.083   1.375   2.898 -0.0451  0.0370  0.3097
 3635SOL    HW122538   3.161   1.419   2.930  1.3096 -1.1429 -1.4031
 3635SOL    HW222539   3.084   1.411   2.810 -0.0188 -0.6036  0.0516
 3636SOL     OW22540   0.388   1.765   8.778  0.4947  0.3951 -0.5855
 3636SOL    HW122541   0.464   1.707   8.775  0.9742  0.9892 -0.0873
 3636SOL    HW222542   0.391   1.798   8.868 -2.7375  0.8774 -0.6659
 3637SOL     OW22543   2.857   0.359   0.995 -0.1105  0.4036 -1.2068
 3637SOL    HW122544   2.846   0.437   0.941 -3.0183  1.1547  0.4603
 3637SOL    HW222545   2.822   0.286   0.945 -1.4771  1.1971 -1.4172
 3638SOL     OW22546   4.256   0.161  11.172 -0.3162  0.4690  0.6034
 3638SOL    HW122547   4.263   0.245  11.125  0.4344  1.6226  2.7829
 3638SOL    HW222548   4.175   0.131  11.131  0.0930  1.0123 -0.6269
 3639SOL     OW22549   3.922   4.543   3.620  0.2048 -0.1581 -0.0764
 3639SOL    HW122550   3.975   4.463   3.620  0.2188 -0.1480 -1.0933
 3639SOL    HW222551   3.935   4.556   3.714 -1.2908 -2.4470  0.4395
 3640SOL     OW22552   0.174   0.032   6.466  0.2267  0.2008  0.3079
 3640SOL    HW122553   0.204   4.708   6.534  0.5654  0.9409  0.8241
 3640SOL    HW222554   0.205   4.721   6.390 -2.6956 -0.3995 -0.4757
 3641SOL     OW22555   1.451   4.428   1.744 -0.2573 -0.5319  0.5490
 3641SOL    HW122556   1.512   4.472   1.685 -0.6916 -0.3580  0.2279
 3641SOL    HW222557   1.434   4.495   1.810  1.9159  0.0616  0.4850
 3642SOL     OW22558   1.184   1.198   3.905  0.2386  0.0644 -0.6212
 3642SOL    HW122559   1.245   1.271   3.896 -0.9542  1.0577 -0.6456
 3642SOL    HW222560   1.096   1.227   3.931 -0.3342  0.0411 -2.5416
 3643SOL     OW22561   1.720   4.391  15.144 -0.1803  0.5813  0.3939
 3643SOL    HW122562   1.732   4.465  15.085 -1.2445  0.5555  0.1454
 3643SOL    HW222563   1.683   4.433  15.221 -1.1041  2.3247 -1.0184
 3644SOL     OW22564   0.931   3.725  15.783  0.3096 -0.3519 -0.0479
 3644SOL    HW122565   1.003   3.764  15.733 -0.1437  1.4763  0.7389
 3644SOL    HW222566   0.898   3.803  15.826 -1.6864 -1.2640  0.0611
 3645SOL     OW22567   2.570   2.214  12.004 -1.2934 -0.1728 -0.1679
 3645SOL    HW122568   2.634   2.158  11.961 -0.3307 -0.8869  2.1826
 3645SOL    HW222569   2.532   2.282  11.948 -0.2853 -0.5228 -1.2753
 3646SOL     OW22570   1.111   4.258   2.815  0.0768  0.2115  0.3321
 3646SOL    HW122571   1.099   4.200   2.739  0.5323 -0.6314  0.9015
 3646SOL    HW222572   1.133   4.192   2.881 -2.3481 -2.1558 -1.1757
 3647SOL     OW22573   4.709   1.947  16.129  0.4905 -0.1967 -0.0251
 3647SOL    HW122574   0.048   2.000  16.154  1.5929 -2.7593  2.0811
 3647SOL    HW222575   4.715   1.880  16.198  1.3113 -1.0321 -0.9123
 3648SOL     OW22576   0.993   4.428   0.953  0.6345 -0.2190  0.1941
 3648SOL    HW122577   1.059   4.480   0.997 -0.2500 -0.4948  1.8468
 3648SOL    HW222578   0.987   4.349   1.006  0.3644  0.4347  1.1196
 3649SOL     OW22579   0.261   2.598   8.881 -0.0743  0.0285 -0.4202
 3649SOL    HW122580   0.321   2.665   8.849  0.1768 -0.0303 -0.0822
 3649SOL    HW222581   0.179   2.623   8.840 -0.0362 -0.4954 -0.8155
 3650SOL     OW22582   1.472   3.216  12.249 -0.5175 -0.9650 -0.8450
 3650SOL    HW122583   1.552   3.175  12.282 -0.6070  1.1816  2.0402
 3650SOL    HW222584   1.433   3.243  12.332 -1.6251 -1.7114 -1.1344
 3651SOL     OW22585   3.738   2.826   9.129 -0.2288 -0.0771 -0.1351
 3651SOL    HW122586   3.768   2.752   9.181  1.2792  0.3223 -0.4531
 3651SOL    HW222587   3.779   2.901   9.173 -2.1063  1.1193 -0.3879
 3652SOL     OW22588   4.008   0.154   9.334 -0.6878  0.5172  0.6694
 3652SOL    HW122589   3.936   0.216   9.323 -2.2773 -1.7194 -1.5251
 3652SOL    HW222590   4.023   0.147   9.428  1.1459 -0.9577  0.2638
 3653SOL     OW22591   4.440   2.832   4.267  0.1132  0.1302 -0.5581
 3653SOL    HW122592   4.408   2.797   4.184  2.3139 -2.9795 -0.0976
 3653SOL    HW222593   4.475   2.752   4.306 -0.9435  0.1177  0.3801
 3654SOL     OW22594   3.128   1.629  16.166 -0.0191  0.0333  0.1439
 3654SOL    HW122595   3.115   1.568  16.093 -0.1876 -0.6022  0.7011
 3654SOL    HW222596   3.092   1.579  16.240 -0.8278 -2.1188 -1.6914
 3655SOL     OW22597   0.079   1.049   8.458  0.0304 -0.4617  0.1979
 3655SOL    HW122598   4.733   1.009   8.433 -0.6923  0.7076  0.6949
 3655SOL    HW222599   0.140   1.012   8.395 -1.1797  2.2345 -2.5734
 3656SOL     OW22600   0.477   3.778   7.771  0.1946 -0.1711  0.4568
 3656SOL    HW122601   0.529   3.841   7.820 -0.1669  0.2542  0.2999
 3656SOL    HW222602   0.539   3.708   7.752 -0.1039 -1.1694  3.0919
 3657SOL     OW22603   4.202   1.537   1.988 -0.1650  0.0802 -0.2858
 3657SOL    HW122604   4.274   1.474   1.999  0.2626  0.6013 -0.1166
 3657SOL    HW222605   4.137   1.473   1.959 -0.1108 -0.0309 -0.1615
 3658SOL     OW22606   0.113   1.266   4.077  0.1424 -0.3623 -0.0337
 3658SOL    HW122607   0.100   1.322   4.153 -0.2709 -1.0175  0.3712
 3658SOL    HW222608   0.109   1.337   4.013  0.0941 -0.7788 -0.4966
 3659SOL     OW22609   2.340   4.472   6.824  0.5669 -0.1364 -0.1496
 3659SOL    HW122610   2.430   4.440   6.822  0.2701 -0.8818 -1.1106
 3659SOL    HW222611   2.301   4.449   6.740  1.1914 -4.3539  0.7330
 3660SOL     OW22612   2.458   2.783   5.631  0.5147 -1.1052 -0.0524
 3660SOL    HW122613   2.385   2.756   5.576  1.0392 -1.2448 -0.6784
 3660SOL    HW222614   2.430   2.778   5.722 -0.5668  1.2623 -0.2547
 3661SOL     OW22615   2.202   1.835  17.187 -0.5969 -0.9324  0.6373
 3661SOL    HW122616   2.238   1.776  17.253 -1.3038  0.0486  1.9048
 3661SOL    HW222617   2.167   1.767  17.128  0.2546  0.7641 -1.8421
 3662SOL     OW22618   2.085   4.207   2.793  0.0837 -0.1904  0.1086
 3662SOL    HW122619   1.994   4.181   2.779 -0.8026  1.5469  2.4338
 3662SOL    HW222620   2.110   4.130   2.844 -2.0487 -1.5044 -0.8294
 3663SOL     OW22621   3.446   1.879   6.440 -0.2639 -0.0327 -0.2086
 3663SOL    HW122622   3.396   1.799   6.429  1.0516 -0.9164  0.1458
 3663SOL    HW222623   3.536   1.847   6.433 -0.4013 -0.6348  0.7321
 3664SOL     OW22624   2.070   4.168   7.934 -0.4447  0.0112 -0.0144
 3664SOL    HW122625   2.125   4.216   7.871 -0.5322 -1.2123 -1.0224
 3664SOL    HW222626   2.059   4.221   8.013 -0.9028 -0.6691  0.3727
 3665SOL     OW22627   0.692   3.524   3.522 -0.3888  0.3978  0.1186
 3665SOL    HW122628   0.598   3.515   3.542 -0.2659  0.0398  0.5304
 3665SOL    HW222629   0.709   3.436   3.489 -3.1327  0.0140 -0.3046
 3666SOL     OW22630   1.717   2.353   9.738 -0.1428  0.1807 -0.7118
 3666SOL    HW122631   1.775   2.414   9.784  0.4827  1.6509 -3.3781
 3666SOL    HW222632   1.754   2.378   9.653  0.1072  1.7755 -0.1410
 3667SOL     OW22633   0.026   3.070   6.932 -0.0854 -0.1339  0.0309
 3667SOL    HW122634   0.016   3.027   6.846 -1.9565  1.1399 -0.3885
 3667SOL    HW222635   4.690   3.131   6.923 -1.2416 -1.5146  0.0195
 3668SOL     OW22636   3.075   3.917   8.705 -0.0297 -0.1707  0.1164
 3668SOL    HW122637   3.147   3.978   8.723  0.7897 -0.8859 -0.7458
 3668SOL    HW222638   3.087   3.910   8.610 -3.3642  0.7499 -0.3671
 3669SOL     OW22639   0.500   4.178   6.753 -0.4012 -0.1750  0.3859
 3669SOL    HW122640   0.485   4.181   6.848  0.3942  0.9866  0.4766
 3669SOL    HW222641   0.596   4.174   6.750 -0.4576  0.0549 -1.3453
 3670SOL     OW22642   1.800   3.438   5.247  0.0046 -0.4088  0.4624
 3670SOL    HW122643   1.766   3.525   5.226  3.5325  0.5531 -1.1693
 3670SOL    HW222644   1.814   3.456   5.340  0.4954 -0.5260  0.4129
 3671SOL     OW22645   3.164   2.297   3.859  0.3196  0.2799 -0.0272
 3671SOL    HW122646   3.110   2.363   3.815  0.4720  0.5157  0.1397
 3671SOL    HW222647   3.224   2.354   3.906  0.1549  1.0213 -0.7200
 3672SOL     OW22648   1.887   4.329   4.943  0.1797  0.2737  0.4012
 3672SOL    HW122649   1.933   4.245   4.941 -0.9926 -0.3624 -0.2252
 3672SOL    HW222650   1.929   4.360   5.023 -0.5932  2.5162 -0.0479
 3673SOL     OW22651   0.201   3.981   1.006 -0.7717 -0.0586 -0.2189
 3673SOL    HW122652   0.238   4.003   0.920  0.0768 -0.0658  0.1370
 3673SOL    HW222653   0.282   3.947   1.045 -1.6402 -0.3021  1.3499
 3674SOL     OW22654   3.764   1.221   6.955 -0.1755 -0.4446 -0.1980
 3674SOL    HW122655   3.811   1.285   6.902  3.8233 -2.0134  1.3977
 3674SOL    HW222656   3.834   1.155   6.954  2.1069  1.9878 -0.3058
 3675SOL     OW22657   2.970   2.140   5.797  0.8732  0.3071  0.5332
 3675SOL    HW122658   2.895   2.199   5.784 -0.7515 -1.7624  0.4614
 3675SOL    HW222659   3.022   2.181   5.866 -0.1049 -0.5335  1.7662
 3676SOL     OW22660   3.855   2.577   3.235  0.0088 -0.2509 -0.0203
 3676SOL    HW122661   3.768   2.537   3.242 -0.0256 -0.5869 -2.3637
 3676SOL    HW222662   3.830   2.667   3.217  0.4507  0.0552  0.8824
 3677SOL     OW22663   0.803   0.995   2.266  0.0012  0.1206  0.3400
 3677SOL    HW122664   0.755   0.971   2.345  2.8190 -0.1314  2.0004
 3677SOL    HW222665   0.745   0.973   2.193  1.7922 -2.4649 -0.2779
 3678SOL     OW22666   4.447   0.528   1.853  0.2432  0.4172  0.5723
 3678SOL    HW122667   4.531   0.543   1.810  0.8727 -3.7367  0.3061
 3678SOL    HW222668   4.414   0.453   1.803 -1.2462  1.1434  0.4682
 3679SOL     OW22669   3.744   3.791  12.498  0.3496 -0.2827  0.2615
 3679SOL    HW122670   3.700   3.759  12.577 -1.9047  3.4816  0.5435
 3679SOL    HW222671   3.756   3.705  12.457 -1.1232 -0.3093 -0.1035
 3680SOL     OW22672   2.025   1.357   9.377  0.0472 -0.4010 -0.5802
 3680SOL    HW122673   1.953   1.410   9.340 -0.5171 -0.1675  0.8728
 3680SOL    HW222674   2.102   1.394   9.333 -0.7418 -0.5623 -2.1031
 3681SOL     OW22675   3.172   3.264   1.011  0.1830 -0.1547  0.6927
 3681SOL    HW122676   3.200   3.270   1.102 -0.2655  1.3067  0.7297
 3681SOL    HW222677   3.242   3.314   0.969 -1.0693 -0.8179 -2.2050
 3682SOL     OW22678   2.876   0.622   2.093  0.5441 -0.2816 -0.1693
 3682SOL    HW122679   2.896   0.597   2.183  0.4397  1.7373  0.4193
 3682SOL    HW222680   2.877   0.718   2.096 -1.8748 -0.2427  0.1859
 3683SOL     OW22681   1.390   0.073   8.305  0.6863  0.3909 -0.1105
 3683SOL    HW122682   1.435   0.005   8.356  0.1117 -0.0148 -0.1405
 3683SOL    HW222683   1.401   0.154   8.355 -2.5310  0.5296  0.3934
 3684SOL     OW22684   4.555   3.621   5.155 -0.1101 -0.7215 -0.3361
 3684SOL    HW122685   4.640   3.578   5.147  1.5873  2.6782 -0.4331
 3684SOL    HW222686   4.563   3.665   5.240  3.7930 -1.0086 -0.5289
 3685SOL     OW22687   1.658   4.517   1.024 -0.0892 -0.0665  0.5644
 3685SOL    HW122688   1.638   4.601   1.064  3.2073  0.3964  1.2500
 3685SOL    HW222689   1.661   4.461   1.102 -0.2984 -0.8540  0.0066
 3686SOL     OW22690   4.227   4.291   8.193  0.5748 -0.2617 -0.0952
 3686SOL    HW122691   4.191   4.212   8.153  0.4200 -0.2623  0.0416
 3686SOL    HW222692   4.160   4.348   8.156  1.5148 -0.4143 -1.9971
 3687SOL     OW22693   3.673   3.601   2.788  0.0015 -0.0359 -0.1982
 3687SOL    HW122694   3.739   3.663   2.758 -0.3258  1.0834  1.4131
 3687SOL    HW222695   3.604   3.609   2.722 -0.1707  3.4703  0.4278
 3688SOL     OW22696   1.856   2.531   9.537  0.0225  0.0419  0.0235
 3688SOL    HW122697   1.914   2.580   9.479  1.8066 -2.6573 -0.4747
 3688SOL    HW222698   1.822   2.604   9.589  1.9105 -0.4563  1.9432
 3689SOL     OW22699   1.928   3.218   1.958  0.4054  0.1244  0.6657
 3689SOL    HW122700   1.928   3.248   2.049 -1.0038  2.3000 -0.0542
 3689SOL    HW222701   2.009   3.257   1.925 -0.7846  3.7002  1.9421
 3690SOL     OW22702   2.710   3.814   6.541 -0.1178  0.2124  0.1079
 3690SOL    HW122703   2.769   3.753   6.498 -0.1658  1.2899 -1.4823
 3690SOL    HW222704   2.745   3.820   6.630  1.3879 -1.7655 -0.3677
 3691SOL     OW22705   4.156   0.899  12.138  0.4336  0.2051 -0.1796
 3691SOL    HW122706   4.111   0.914  12.222  0.6496 -0.6783  0.0951
 3691SOL    HW222707   4.126   0.813  12.107  0.5168  0.2698 -0.4371
 3692SOL     OW22708   0.511   3.848   1.947 -0.4148  0.0211 -0.0569
 3692SOL    HW122709   0.534   3.899   2.025 -0.4893 -0.2313  0.1317
 3692SOL    HW222710   0.438   3.902   1.915 -0.9762 -0.6160  0.1342
 3693SOL     OW22711   0.783   0.292   7.675  0.1081  0.8206 -0.7873
 3693SOL    HW122712   0.785   0.253   7.762  0.2570 -0.9822 -1.6004
 3693SOL    HW222713   0.876   0.297   7.652  0.9824 -0.7720  2.4209
 3694SOL     OW22714   3.019   1.873   7.488  0.4643 -0.4960 -0.1020
 3694SOL    HW122715   2.987   1.783   7.486 -0.8820 -0.0271  0.0278
 3694SOL    HW222716   3.080   1.866   7.562  1.7782 -0.0355 -1.1380
 3695SOL     OW22717   2.701   1.075   2.653 -1.2123 -0.3187  0.1113
 3695SOL    HW122718   2.639   1.078   2.726 -0.4250 -0.7873  0.8003
 3695SOL    HW222719   2.705   1.170   2.650 -0.9208 -0.3294  0.1683
 3696SOL     OW22720   0.162   1.214  11.571 -0.2788  0.5363 -0.2343
 3696SOL    HW122721   0.199   1.125  11.575 -1.2581  0.1900  0.9236
 3696SOL    HW222722   0.142   1.227  11.479 -0.0368  5.3920  0.4292
 3697SOL     OW22723   4.249   1.087   3.884  0.0334 -0.3313 -0.1817
 3697SOL    HW122724   4.196   1.112   3.960 -0.0330 -0.7336 -0.0960
 3697SOL    HW222725   4.292   1.168   3.857 -2.0240  0.3532 -1.4333
 3698SOL     OW22726   4.343   3.479   3.032  0.2646 -0.3623  0.1745
 3698SOL    HW122727   4.412   3.518   3.087 -0.4853 -2.3812  2.5409
 3698SOL    HW222728   4.354   3.386   3.051  0.9118 -1.1593 -4.1635
 3699SOL     OW22729   3.212   4.067   7.113  0.1226 -0.3693 -0.5253
 3699SOL    HW122730   3.248   4.000   7.054  0.0992 -0.9249  0.0933
 3699SOL    HW222731   3.268   4.139   7.083  1.5937 -2.4116 -2.7260
 3700SOL     OW22732   4.560   3.025   9.418  0.2977 -0.4488 -0.2861
 3700SOL    HW122733   4.573   2.955   9.483 -1.5242 -0.9334 -0.4300
 3700SOL    HW222734   4.473   3.051   9.450  1.6761  1.7980  1.5573
 3701SOL     OW22735   1.617   0.001  11.065 -0.2517  0.4052 -0.0175
 3701SOL    HW122736   1.617   0.062  11.139  0.8609 -0.6726  0.8704
 3701SOL    HW222737   1.690   0.038  11.014 -1.1791  0.1264 -1.5153
 3702SOL     OW22738   0.548   3.332   6.856  0.8531 -0.3900  0.1739
 3702SOL    HW122739   0.487   3.261   6.835 -0.3511  0.9314 -0.8006
 3702SOL    HW222740   0.505   3.413   6.828  1.1036 -0.3622 -0.1381
 3703SOL     OW22741   1.525   0.003   7.407  0.5647 -0.2150 -0.2667
 3703SOL    HW122742   1.511   4.651   7.438  1.0041 -0.2083 -0.0520
 3703SOL    HW222743   1.579   0.031   7.481  0.6189 -2.5569  0.5681
 3704SOL     OW22744   0.961   3.013   1.057 -0.0233  0.4707  0.0247
 3704SOL    HW122745   0.881   2.961   1.053 -0.5557  1.2888  0.1014
 3704SOL    HW222746   1.004   2.978   1.135  0.8761 -2.6034 -1.8726
 3705SOL     OW22747   1.019   3.170   2.734 -0.5426  0.3076 -0.4206
 3705SOL    HW122748   0.994   3.143   2.823 -0.2873  0.7485 -0.2174
 3705SOL    HW222749   1.076   3.245   2.753 -2.4057  1.7307 -0.4633
 3706SOL     OW22750   1.412   2.073  12.955  0.1317  0.1290 -0.4344
 3706SOL    HW122751   1.320   2.060  12.980  0.2047 -2.2138 -1.3743
 3706SOL    HW222752   1.417   2.167  12.936 -0.0653  0.1161 -0.5437
 3707SOL     OW22753   3.960   1.914   4.643  0.0590  0.0435 -0.0625
 3707SOL    HW122754   3.899   1.987   4.632  1.6003  1.3049 -0.3750
 3707SOL    HW222755   4.037   1.958   4.605  1.4235 -1.0521  1.4301
 3708SOL     OW22756   0.420   3.670   8.649 -0.0146 -0.3599  0.2252
 3708SOL    HW122757   0.428   3.696   8.741  0.5690  1.2402 -0.2807
 3708SOL    HW222758   0.362   3.596   8.665 -0.0368 -0.6813 -1.3392
 3709SOL     OW22759   0.640   4.341   4.898 -0.0461 -0.1026 -0.3031
 3709SOL    HW122760   0.732   4.331   4.923 -0.6188 -1.3267  1.3136
 3709SOL    HW222761   0.621   4.420   4.948  0.7464 -1.0896  1.5544
 3710SOL     OW22762   3.279   4.687   8.541 -0.5591  0.0043 -0.1387
 3710SOL    HW122763   3.281   0.032   8.492  2.2151 -0.2418 -0.4335
 3710SOL    HW222764   3.193   4.704   8.581 -1.7676 -0.8514 -2.3989
 3711SOL     OW22765   0.831   3.854   9.203 -0.8407  0.5422 -0.1442
 3711SOL    HW122766   0.780   3.804   9.267 -0.0444  0.5960  0.5433
 3711SOL    HW222767   0.868   3.921   9.260  2.6093 -0.9306 -0.6244
 3712SOL     OW22768   3.833   4.634  10.438 -0.2086 -0.1211 -0.0578
 3712SOL    HW122769   3.896   4.706  10.443 -2.2046  1.4906  2.1361
 3712SOL    HW222770   3.851   4.591  10.521  1.8225 -0.3996 -0.6602
 3713SOL     OW22771   0.818   3.288   6.890 -0.6613 -0.4070 -0.1157
 3713SOL    HW122772   0.818   3.194   6.909 -2.0122 -0.6964 -1.4606
 3713SOL    HW222773   0.725   3.310   6.878 -0.7974 -0.0325  1.7058
 3714SOL     OW22774   2.995   2.234   5.190 -0.6093  0.1865  0.1121
 3714SOL    HW122775   2.954   2.286   5.122  0.0839  2.0194  1.0913
 3714SOL    HW222776   3.031   2.159   5.142 -0.5098 -0.3682  1.0355
 3715SOL     OW22777   1.760   0.932   5.452 -0.3603  0.3656  0.2151
 3715SOL    HW122778   1.804   1.014   5.469 -0.0882  0.7576 -2.3316
 3715SOL    HW222779   1.803   0.872   5.513 -0.5979 -1.7656 -1.6972
 3716SOL     OW22780   3.486   4.518   4.878  0.1090  0.1020  0.2860
 3716SOL    HW122781   3.442   4.465   4.944 -1.6335 -1.5778 -2.2555
 3716SOL    HW222782   3.415   4.580   4.864  1.1133  1.1943 -0.0227
 3717SOL     OW22783   0.960   3.262   1.632  0.2541 -0.1998  0.2539
 3717SOL    HW122784   1.049   3.227   1.632 -0.3371 -1.6674  1.8231
 3717SOL    HW222785   0.945   3.297   1.544 -0.2813 -0.9708  0.0370
 3718SOL     OW22786   0.789   4.645   7.025 -0.2651 -0.1355 -0.1981
 3718SOL    HW122787   0.696   4.664   7.019  0.1102  1.2019 -1.7679
 3718SOL    HW222788   0.778   4.561   7.069  0.3479 -0.0655  0.0952
 3719SOL     OW22789   3.692   4.585  16.072  0.4588 -0.2778 -0.2557
 3719SOL    HW122790   3.644   4.504  16.091 -1.0591  0.5290 -0.6993
 3719SOL    HW222791   3.658   4.649  16.134 -1.5919 -1.0797 -0.5335
 3720SOL     OW22792   2.950   1.301   7.654  0.1672  0.4480 -0.1019
 3720SOL    HW122793   2.857   1.279   7.662  0.2516  0.0799 -0.1466
 3720SOL    HW222794   2.962   1.293   7.559 -0.0969 -1.3413  0.0208
 3721SOL     OW22795   0.669   0.969   7.075  0.0726 -0.2630 -0.0476
 3721SOL    HW122796   0.698   0.961   6.984  1.5310 -3.3660  0.7154
 3721SOL    HW222797   0.738   1.020   7.118 -0.0694  0.0223 -0.1539
 3722SOL     OW22798   1.246   1.994   5.009 -0.0010  0.1034  0.2383
 3722SOL    HW122799   1.157   1.971   5.032  1.0252 -2.7586  1.3922
 3722SOL    HW222800   1.254   2.082   5.045 -1.2050  0.0512  0.6188
 3723SOL     OW22801   3.417   1.763  13.441 -0.0852 -0.7039 -0.2286
 3723SOL    HW122802   3.420   1.783  13.347  4.2496 -2.6514 -0.4789
 3723SOL    HW222803   3.461   1.679  13.442  0.6333 -0.2719  3.4200
 3724SOL     OW22804   0.803   0.903   2.842  0.3325  0.3378  0.1607
 3724SOL    HW122805   0.841   0.919   2.756  0.9634 -0.0749  0.3597
 3724SOL    HW222806   0.769   0.814   2.831 -2.3160  1.3214  0.3374
 3725SOL     OW22807   4.143   3.935   2.684  0.0259  0.2098  0.4872
 3725SOL    HW122808   4.169   3.909   2.595  0.3313 -1.0906  0.9607
 3725SOL    HW222809   4.200   3.887   2.745 -1.6122  0.6742  2.3531
 3726SOL     OW22810   3.886   4.050   9.585 -0.1876  0.6603  0.5839
 3726SOL    HW122811   3.892   4.099   9.667 -1.7387  0.3332  0.9016
 3726SOL    HW222812   3.808   4.080   9.537 -0.1697 -0.3109 -0.0517
 3727SOL     OW22813   3.616   0.981   5.579  0.3549  0.2047 -0.0371
 3727SOL    HW122814   3.649   0.915   5.517 -0.5922 -0.7882  0.5216
 3727SOL    HW222815   3.692   1.011   5.629  0.6327  1.2630 -1.1060
 3728SOL     OW22816   4.694   4.653   3.993  0.2928  0.3611 -0.6770
 3728SOL    HW122817   4.632   4.590   3.958  0.2723 -0.2686  0.5005
 3728SOL    HW222818   4.662   4.667   4.082  0.5608 -0.9029 -0.3764
 3729SOL     OW22819   4.650   3.039   9.895 -0.3421  0.0810 -0.5079
 3729SOL    HW122820   4.590   3.018   9.966 -0.0572  1.3453  0.1085
 3729SOL    HW222821   4.601   3.113   9.860 -0.5298  0.8535  1.3910
 3730SOL     OW22822   2.170   0.555   6.868  0.8159 -0.1906 -0.9140
 3730SOL    HW122823   2.183   0.647   6.892  0.0190  0.0218 -1.2937
 3730SOL    HW222824   2.171   0.505   6.949  0.6849  0.2617 -0.6318
 3731SOL     OW22825   1.948   0.040   6.717  0.4721  0.6606 -0.1538
 3731SOL    HW122826   1.864   0.009   6.751  1.5450 -0.8643  1.0923
 3731SOL    HW222827   2.008   0.035   6.791  0.8759 -0.7470 -0.5757
 3732SOL     OW22828   0.146   1.625   5.647 -0.4509 -0.0890  0.3645
 3732SOL    HW122829   0.053   1.614   5.629 -0.6591  3.1173 -0.5231
 3732SOL    HW222830   0.172   1.540   5.682  0.8658 -0.2512 -1.0307
 3733SOL     OW22831   4.560   0.459   7.643 -0.1237 -0.0589  0.7378
 3733SOL    HW122832   4.496   0.490   7.579  0.7786 -0.4827 -0.3681
 3733SOL    HW222833   4.512   0.395   7.695 -1.2901  0.7065  0.5892
 3734SOL     OW22834   0.958   1.490   2.798 -0.3936 -0.1106  0.0521
 3734SOL    HW122835   0.879   1.518   2.844 -0.4956 -0.6059  0.1769
 3734SOL    HW222836   0.918   1.454   2.719 -0.9017  0.7152 -0.0725
 3735SOL     OW22837   0.430   2.277   6.281  0.0014 -0.1911 -0.3466
 3735SOL    HW122838   0.409   2.201   6.227 -0.0833 -0.9712  0.7979
 3735SOL    HW222839   0.525   2.286   6.278  0.0681 -0.8246 -0.1556
 3736SOL     OW22840   2.108   3.734   3.434 -0.3570 -0.5148  0.3400
 3736SOL    HW122841   2.195   3.750   3.471 -0.7952  0.4924  0.9220
 3736SOL    HW222842   2.087   3.643   3.453 -0.3572 -0.7495 -0.8016
 3737SOL     OW22843   4.059   1.317   4.003  0.1184  0.0929 -0.2425
 3737SOL    HW122844   4.047   1.392   3.945  0.8316  0.4877  0.1193
 3737SOL    HW222845   3.967   1.298   4.026  0.0038  0.4505 -0.4011
 3738SOL     OW22846   1.946   3.520   1.751  0.3520 -0.3077  0.2776
 3738SOL    HW122847   1.964   3.499   1.659 -0.5623 -2.2389  0.5428
 3738SOL    HW222848   2.000   3.457   1.798 -1.0214  0.3025  2.7227
 3739SOL     OW22849   4.281   4.367  12.349  0.3258 -0.0147  0.1262
 3739SOL    HW122850   4.235   4.295  12.306  2.5228 -0.2610 -1.8623
 3739SOL    HW222851   4.336   4.313  12.406 -0.9198 -0.5055  0.8636
 3740SOL     OW22852   3.858   2.258   6.300  0.2779  0.6392  0.4248
 3740SOL    HW122853   3.949   2.247   6.326  0.2571 -0.4233  0.0625
 3740SOL    HW222854   3.848   2.182   6.241 -0.9686  0.7510  0.4945
 3741SOL     OW22855   0.882   0.483   1.391  0.4124  0.2381  0.3135
 3741SOL    HW122856   0.848   0.399   1.422  1.5825 -0.6607 -0.8562
 3741SOL    HW222857   0.835   0.552   1.439  3.5176  2.7523 -0.2152
 3742SOL     OW22858   0.528   2.003  15.256  0.5013  0.2427  0.0044
 3742SOL    HW122859   0.606   2.035  15.212  0.5370 -1.3596 -1.0709
 3742SOL    HW222860   0.458   2.033  15.197 -0.5944 -1.7810  0.2712
 3743SOL     OW22861   1.437   1.460   3.279  0.1597  0.1688 -0.9464
 3743SOL    HW122862   1.464   1.451   3.187  0.3792 -0.1602 -0.8483
 3743SOL    HW222863   1.349   1.497   3.269  0.2539  0.5279 -0.4477
 3744SOL     OW22864   0.029   3.356   7.697 -0.2758  0.3444 -0.5605
 3744SOL    HW122865   0.019   3.356   7.792 -0.7116 -0.6183 -0.6087
 3744SOL    HW222866   0.063   3.443   7.677  1.0434 -0.6190 -2.5838
 3745SOL     OW22867   2.763   3.879  16.855 -0.3640  0.3645  0.0679
 3745SOL    HW122868   2.681   3.874  16.805  0.2790 -1.0796 -0.8290
 3745SOL    HW222869   2.726   3.900  16.940 -1.8843 -1.8024 -0.0639
 3746SOL     OW22870   0.574   4.404   8.605 -0.0771  0.4180 -0.0026
 3746SOL    HW122871   0.531   4.320   8.591 -0.2202  0.5127 -0.1480
 3746SOL    HW222872   0.497   4.458   8.587  1.2148  1.7634 -1.5102
 3747SOL     OW22873   3.557   4.177   3.635  0.8336  0.0631 -0.1805
 3747SOL    HW122874   3.572   4.239   3.706  0.7496 -0.9029  0.6848
 3747SOL    HW222875   3.515   4.107   3.685 -1.3614  0.4197 -1.4953
 3748SOL     OW22876   0.114   2.719   2.323  0.2380 -0.5483 -0.1294
 3748SOL    HW122877   0.155   2.709   2.238  2.3110 -1.4969  0.9792
 3748SOL    HW222878   0.044   2.656   2.306  0.4669 -0.1776 -2.4291
 3749SOL     OW22879   3.135   0.887  16.888  0.4127 -0.0494  0.0132
 3749SOL    HW122880   3.079   0.870  16.812  1.1486  2.5282 -1.0877
 3749SOL    HW222881   3.125   0.981  16.903  0.5980 -0.0184 -0.0623
 3750SOL     OW22882   0.848   3.989   8.972 -0.5519 -0.1180 -0.5143
 3750SOL    HW122883   0.860   3.925   9.042 -2.0461 -1.3637 -1.3832
 3750SOL    HW222884   0.934   4.031   8.970 -0.7702  0.3804  0.5724
 3751SOL     OW22885   0.711   2.266   6.570 -0.6091 -0.5214 -0.4476
 3751SOL    HW122886   0.776   2.305   6.629 -1.8710 -3.7226  3.0128
 3751SOL    HW222887   0.666   2.206   6.629 -0.7314 -0.5929 -0.6141
 3752SOL     OW22888   3.854   3.426   9.445 -0.3445 -0.0522  0.6227
 3752SOL    HW122889   3.762   3.406   9.463 -0.7447  1.0808 -0.1879
 3752SOL    HW222890   3.845   3.493   9.377 -0.9501 -1.2899 -0.5199
 3753SOL     OW22891   1.464   1.179  11.210 -0.2919 -0.5944 -0.0379
 3753SOL    HW122892   1.491   1.261  11.169 -1.7324  0.3543  0.9097
 3753SOL    HW222893   1.523   1.183  11.285 -0.2944 -0.3816 -0.0478
 3754SOL     OW22894   3.871   4.190   6.803  0.6087  0.4822 -0.1801
 3754SOL    HW122895   3.791   4.233   6.831  1.2840  0.6924  1.4124
 3754SOL    HW222896   3.917   4.181   6.886  0.9486 -1.6740 -0.5917
 3755SOL     OW22897   3.344   0.628   8.490 -0.0520  0.1061 -0.0670
 3755SOL    HW122898   3.299   0.617   8.573  0.0142  1.1298  0.1017
 3755SOL    HW222899   3.381   0.540   8.479  1.4375  0.8847 -1.4253
 3756SOL     OW22900   2.369   4.573   1.626 -0.5546 -0.1742  0.2123
 3756SOL    HW122901   2.434   4.613   1.684 -1.2141  0.5214  0.4642
 3756SOL    HW222902   2.300   4.561   1.691 -0.2238  0.5109  0.6805
 3757SOL     OW22903   1.497   0.525  11.755  0.3965 -0.4200 -0.4126
 3757SOL    HW122904   1.492   0.602  11.697  3.0509 -1.4288 -1.9868
 3757SOL    HW222905   1.466   0.569  11.835 -1.4140  1.6095 -2.2245
 3758SOL     OW22906   0.358   1.733   4.740 -0.1035 -0.2127  0.0303
 3758SOL    HW122907   0.329   1.642   4.740  0.5532 -0.4369 -1.9952
 3758SOL    HW222908   0.366   1.742   4.645  0.9509 -0.5189  0.0942
 3759SOL     OW22909   1.250   0.005   7.110 -0.4382 -0.5481 -0.3918
 3759SOL    HW122910   1.265   4.655   7.147 -2.6460 -0.5976  0.3809
 3759SOL    HW222911   1.156   0.015   7.126 -0.1361  1.4704  0.0965
 3760SOL     OW22912   0.406   1.171  14.342  0.0930 -0.0002  0.6303
 3760SOL    HW122913   0.406   1.223  14.262 -1.3776 -0.9483  0.0189
 3760SOL    HW222914   0.436   1.086  14.311  1.7245  0.8968 -0.2830
 3761SOL     OW22915   1.732   2.321   6.368  0.2700  0.4499  0.1970
 3761SOL    HW122916   1.649   2.366   6.353  0.9084  1.2011 -1.1155
 3761SOL    HW222917   1.722   2.295   6.459 -0.0221 -1.1508 -0.2857
 3762SOL     OW22918   0.851   2.491  11.975 -0.4659  0.8233  0.3733
 3762SOL    HW122919   0.796   2.557  12.018 -1.4467 -1.0759  2.0393
 3762SOL    HW222920   0.866   2.534  11.891 -1.6494 -1.6780 -1.1051
 3763SOL     OW22921   3.582   2.432  15.196 -0.4188 -0.0905  0.0561
 3763SOL    HW122922   3.630   2.444  15.277  1.3410 -1.3094 -0.8012
 3763SOL    HW222923   3.583   2.337  15.185  2.2637 -0.1881  1.1648
 3764SOL     OW22924   4.726   1.670  13.882  0.1953  0.0494  0.0614
 3764SOL    HW122925   4.690   1.639  13.965 -1.9730 -1.1199 -1.3208
 3764SOL    HW222926   4.682   1.615  13.817  0.0449  0.3857 -0.1200
 3765SOL     OW22927   3.887   0.237   7.229 -0.2073  0.3517 -0.2137
 3765SOL    HW122928   3.815   0.224   7.290 -1.8352  0.5145 -2.1043
 3765SOL    HW222929   3.946   0.292   7.281 -1.1383 -0.0664  1.2778
 3766SOL     OW22930   4.322   2.903   9.845 -0.5381 -0.1936  0.0197
 3766SOL    HW122931   4.293   2.972   9.904  0.0387  1.9902 -2.2284
 3766SOL    HW222932   4.266   2.912   9.768  0.3880 -1.6767 -0.8209
 3767SOL     OW22933   0.333   2.201   4.176  0.4263  0.2973  0.3890
 3767SOL    HW122934   0.318   2.217   4.269 -0.9255 -1.7535  0.5319
 3767SOL    HW222935   0.247   2.211   4.136  0.7251  1.2069 -0.0242
 3768SOL     OW22936   1.468   4.448  15.036 -0.2481 -0.1913  0.4708
 3768SOL    HW122937   1.497   4.460  14.946  1.3539  0.4269  1.0754
 3768SOL    HW222938   1.533   4.393  15.077 -0.3712 -0.5311  0.2073
 3769SOL     OW22939   4.034   0.000  13.661 -0.4466 -0.2185  0.9320
 3769SOL    HW122940   4.096   0.008  13.588 -1.1956  0.6232  0.3869
 3769SOL    HW222941   3.960   0.028  13.607 -0.1811  1.1368  1.2561
 3770SOL     OW22942   1.744   2.582   7.129  0.2527  0.2187 -0.4380
 3770SOL    HW122943   1.737   2.527   7.050  1.6857  0.2896 -0.6097
 3770SOL    HW222944   1.745   2.511   7.193  2.0890 -1.3373 -2.1751
 3771SOL     OW22945   1.532   0.276  14.839 -0.2166 -0.1129  1.1334
 3771SOL    HW122946   1.458   0.295  14.782 -0.4840 -1.2534  1.1024
 3771SOL    HW222947   1.510   0.329  14.916 -1.4908 -0.2470  0.8517
 3772SOL     OW22948   0.274   1.433   3.620  0.1736 -0.3285  0.5266
 3772SOL    HW122949   0.204   1.382   3.581 -1.5925  0.9908  1.9778
 3772SOL    HW222950   0.357   1.398   3.587  0.2589  0.5322 -0.1807
 3773SOL     OW22951   3.291   0.001   4.525 -0.5710  0.4939 -0.2269
 3773SOL    HW122952   3.314   4.723   4.617  2.9515 -0.5409 -1.3028
 3773SOL    HW222953   3.249   0.084   4.547  3.1075  1.9922  1.1261
 3774SOL     OW22954   3.333   2.030   1.889  0.4662 -0.5671 -0.0825
 3774SOL    HW122955   3.370   2.011   1.975  0.3619  0.4576  0.1819
 3774SOL    HW222956   3.363   1.948   1.851  0.0806 -0.3907 -0.7691
 3775SOL     OW22957   4.371   4.025   1.845 -0.0294  0.0509  0.3645
 3775SOL    HW122958   4.443   4.029   1.782  0.3634 -2.8838  0.6652
 3775SOL    HW222959   4.329   3.949   1.806  0.5968  0.6894 -1.5869
 3776SOL     OW22960   2.108   1.613   5.410  0.6658  0.4130 -0.0575
 3776SOL    HW122961   2.147   1.527   5.428 -0.5252 -0.7552 -3.1475
 3776SOL    HW222962   2.183   1.652   5.366  0.9344 -1.0593 -0.8824
 3777SOL     OW22963   2.847   0.624   7.591 -0.7635 -0.4709 -0.5169
 3777SOL    HW122964   2.779   0.675   7.547  0.7584  1.8273 -0.2240
 3777SOL    HW222965   2.882   0.692   7.649  0.1832 -3.3307  2.2626
 3778SOL     OW22966   2.423   1.017  14.995 -0.2574 -0.2783  0.1505
 3778SOL    HW122967   2.390   0.931  15.021 -0.1757  0.7234  3.4870
 3778SOL    HW222968   2.392   1.002  14.905 -1.0860  0.9965  0.2168
 3779SOL     OW22969   0.885   0.488   2.360 -0.4145 -0.6181 -0.0044
 3779SOL    HW122970   0.904   0.394   2.364 -2.4921 -1.0349  0.4239
 3779SOL    HW222971   0.962   0.527   2.321  0.5374 -0.9834  1.5049
 3780SOL     OW22972   3.824   4.507   7.657 -0.0227 -0.5279  0.3159
 3780SOL    HW122973   3.879   4.468   7.725  2.0924 -0.7138 -1.4845
 3780SOL    HW222974   3.794   4.581   7.709  1.9277  0.8716 -0.5241
 3781SOL     OW22975   0.232   1.675   7.661 -0.2596  0.1518 -0.2035
 3781SOL    HW122976   0.239   1.648   7.570 -0.1552  1.6930 -0.6479
 3781SOL    HW222977   0.137   1.688   7.668  0.0428  3.2478 -1.9386
 3782SOL     OW22978   1.882   1.429  13.925  0.0386  0.1977  0.2901
 3782SOL    HW122979   1.900   1.342  13.890  0.8922  0.3991  0.2314
 3782SOL    HW222980   1.971   1.463  13.939  1.1819 -2.4864 -0.4886
 3783SOL     OW22981   4.264   1.538  12.205  0.1648  0.4357 -0.1351
 3783SOL    HW122982   4.359   1.549  12.207  0.5355 -2.9296  0.9708
 3783SOL    HW222983   4.277   1.463  12.147 -0.0738 -0.5137  1.0271
 3784SOL     OW22984   4.161   4.357   1.686 -0.2369  0.2641 -0.3093
 3784SOL    HW122985   4.106   4.432   1.707 -0.5341  0.1709 -0.7393
 3784SOL    HW222986   4.221   4.388   1.618 -2.1664  1.2383 -1.5983
 3785SOL     OW22987   1.023   4.575   9.854  0.0914  0.0111 -0.4138
 3785SOL    HW122988   1.089   4.596   9.789  2.6233  3.1492  3.1981
 3785SOL    HW222989   1.073   4.512   9.906  2.6084  2.0317 -0.4080
 3786SOL     OW22990   0.701   3.469   0.464 -0.3384 -0.1244 -0.3211
 3786SOL    HW122991   0.613   3.439   0.490  0.8121 -2.0220  1.3708
 3786SOL    HW222992   0.748   3.398   0.508 -1.2211 -0.2462  0.4193
 3787SOL     OW22993   4.281   1.396   5.401 -0.2270 -0.0275  0.6559
 3787SOL    HW122994   4.334   1.421   5.476 -0.5663  0.9615  0.5579
 3787SOL    HW222995   4.267   1.305   5.429 -0.6592  0.2898  1.4970
 3788SOL     OW22996   4.376   2.759  17.212  0.2502  0.2005  1.1455
 3788SOL    HW122997   4.336   2.825  17.269  1.0796  0.3047  1.5988
 3788SOL    HW222998   4.303   2.697  17.203  0.7297 -0.3290  0.9373
 3789SOL     OW22999   1.327   3.771  17.429 -0.0423 -0.1906  0.3938
 3789SOL    HW123000   1.405   3.800  17.476 -0.7338 -2.0873  2.7201
 3789SOL    HW223001   1.259   3.777  17.496 -0.9417  0.6774 -0.6099
 3790SOL     OW23002   0.885   3.476   8.781 -0.2730 -0.1590  0.2104
 3790SOL    HW123003   0.824   3.403   8.773 -0.2959 -0.1402  0.2155
 3790SOL    HW223004   0.929   3.472   8.696 -1.4321 -3.7142 -0.2121
 3791SOL     OW23005   4.216   1.267   4.996 -0.2339  0.6708  0.1088
 3791SOL    HW123006   4.198   1.252   4.903  1.0127 -0.1984 -0.0042
 3791SOL    HW223007   4.304   1.305   4.993 -0.4513  0.9668 -2.5208
 3792SOL     OW23008   1.645   4.567   0.450  0.6901  0.6474  0.3496
 3792SOL    HW123009   1.573   4.511   0.481  2.4100 -2.2099 -0.8036
 3792SOL    HW223010   1.678   4.608   0.530 -0.8294  1.2071  0.6921
 3793SOL     OW23011   1.656   3.454  14.595 -0.0181  0.9142  0.7938
 3793SOL    HW123012   1.607   3.376  14.621 -0.2542  0.8357  0.1203
 3793SOL    HW223013   1.743   3.414  14.601  0.0167  0.6184 -1.6714
 3794SOL     OW23014   1.945   0.075   4.921  0.1879 -0.1847  0.0158
 3794SOL    HW123015   1.981   0.163   4.912  0.5277 -0.5522 -2.3452
 3794SOL    HW223016   2.000   0.026   4.859 -1.2205 -2.8624  0.8916
 3795SOL     OW23017   0.126   1.263   7.376 -0.3137  0.3729  0.1373
 3795SOL    HW123018   0.048   1.261   7.432 -2.5920 -1.5200 -3.0932
 3795SOL    HW223019   0.193   1.256   7.445 -1.1161  0.4903  0.9370
 3796SOL     OW23020   0.589   0.214   7.499 -0.0055  0.1513 -0.1083
 3796SOL    HW123021   0.647   0.225   7.574 -1.3938  2.0947  0.6742
 3796SOL    HW223022   0.653   0.212   7.428  0.2695  0.5602  0.1297
 3797SOL     OW23023   3.491   3.883   6.252  0.4557  0.1983 -0.0967
 3797SOL    HW123024   3.558   3.856   6.315  0.4493 -0.2233 -0.2773
 3797SOL    HW223025   3.542   3.895   6.172 -0.3344  1.0035 -0.4835
 3798SOL     OW23026   4.142   0.484   7.172  0.4425  0.6019 -0.1478
 3798SOL    HW123027   4.214   0.484   7.109  0.7340  1.0943  0.1793
 3798SOL    HW223028   4.106   0.571   7.157 -0.7714 -0.0493 -0.9776
 3799SOL     OW23029   2.650   2.073   3.639  0.0077  0.2957 -0.3535
 3799SOL    HW123030   2.571   2.044   3.592 -0.5401  1.7779 -0.3335
 3799SOL    HW223031   2.711   2.099   3.570  0.8151  1.1507  0.6899
 3800SOL     OW23032   4.467   0.887   1.633 -0.1612  0.0279 -0.0284
 3800SOL    HW123033   4.428   0.974   1.636  2.8854  1.3974  0.6411
 3800SOL    HW223034   4.501   0.881   1.723 -0.5944 -0.3070  0.1109
 3801SOL     OW23035   1.801   4.491  15.556 -0.0359  0.3287  0.1077
 3801SOL    HW123036   1.845   4.575  15.544  0.5787 -0.2336 -1.5896
 3801SOL    HW223037   1.873   4.430  15.545 -0.6491 -0.1474 -1.3650
 3802SOL     OW23038   0.939   0.024   6.816  0.2297  0.5077 -0.0626
 3802SOL    HW123039   0.880   4.731   6.885 -0.4630  0.5570 -0.6352
 3802SOL    HW223040   0.969   0.099   6.866  1.1296 -0.1871  0.4343
 3803SOL     OW23041   3.041   3.486   4.070 -0.0226  0.0763 -0.0641
 3803SOL    HW123042   2.999   3.452   3.991  1.1389  2.5296 -1.7601
 3803SOL    HW223043   2.982   3.436   4.126 -1.2636  1.0918 -0.4518
 3804SOL     OW23044   4.624   2.577   5.029  0.2165 -1.0512  0.1875
 3804SOL    HW123045   4.652   2.668   5.032  2.5669 -1.7460 -1.0518
 3804SOL    HW223046   4.694   2.549   4.971 -0.6915 -2.3825 -0.2747
 3805SOL     OW23047   4.727   2.274   1.935  0.0251 -0.3738  0.2625
 3805SOL    HW123048   4.661   2.340   1.954 -1.2096 -1.2139 -1.1036
 3805SOL    HW223049   0.016   2.246   2.023  0.3363 -1.6276 -0.2303
 3806SOL     OW23050   1.187   1.391   7.510 -0.1206 -0.4980 -0.1289
 3806SOL    HW123051   1.188   1.401   7.605  4.8322 -2.1175 -0.0014
 3806SOL    HW223052   1.147   1.475   7.486 -1.8224 -0.2987  3.4527
 3807SOL     OW23053   1.032   2.598   7.710 -0.0314  0.6156 -0.2599
 3807SOL    HW123054   1.122   2.581   7.682  0.1146 -1.0477  1.2166
 3807SOL    HW223055   0.980   2.575   7.633  0.4316 -0.2322 -0.3213
 3808SOL     OW23056   1.666   3.882   5.443  0.0971 -0.2067 -0.2526
 3808SOL    HW123057   1.575   3.904   5.422  0.0405  0.1750  0.3967
 3808SOL    HW223058   1.675   3.940   5.519 -0.2069  2.8218 -2.4873
 3809SOL     OW23059   1.985   1.101   4.987 -0.2224 -0.1369 -0.5986
 3809SOL    HW123060   2.015   1.087   4.897 -0.1216 -1.0848 -0.4165
 3809SOL    HW223061   1.982   1.011   5.019 -3.3444  0.3696  0.4984
 3810SOL     OW23062   0.244   2.229   2.163 -0.4573 -0.3422  0.2359
 3810SOL    HW123063   0.300   2.154   2.183  0.8093  0.7036  0.6453
 3810SOL    HW223064   0.162   2.205   2.205  0.0279  0.8563  1.8738
 3811SOL     OW23065   2.189   4.294   4.654  0.1826 -0.6774  0.0179
 3811SOL    HW123066   2.270   4.327   4.615  0.3387 -2.1102 -0.8734
 3811SOL    HW223067   2.210   4.225   4.718  0.6139 -1.1817 -0.6609
 3812SOL     OW23068   2.026   0.725  17.032  0.6620  0.0811 -0.7360
 3812SOL    HW123069   1.991   0.691  16.949  0.1860 -0.3274 -0.3661
 3812SOL    HW223070   2.101   0.774  16.997  0.8842  0.9576  0.9632
 3813SOL     OW23071   0.833   2.090   8.950 -0.3463 -0.3814 -0.3721
 3813SOL    HW123072   0.927   2.095   8.969 -0.3502 -1.6026 -0.0337
 3813SOL    HW223073   0.803   2.122   9.035 -1.4252  0.5756 -1.1126
 3814SOL     OW23074   1.753   4.515   3.894 -0.2792 -0.0720  0.0048
 3814SOL    HW123075   1.715   4.479   3.974  1.3301 -0.3728  0.6441
 3814SOL    HW223076   1.791   4.432   3.863 -0.3606 -0.3864  0.7512
 3815SOL     OW23077   2.526   3.014  14.164  0.8796 -0.2406  0.4329
 3815SOL    HW123078   2.569   3.082  14.112  0.0623 -1.0960 -1.3606
 3815SOL    HW223079   2.608   2.971  14.189  0.9108  0.9147  2.3263
 3816SOL     OW23080   4.225   1.492   9.635 -0.3091  0.5271 -0.3003
 3816SOL    HW123081   4.258   1.462   9.551 -1.6336 -0.2995 -0.5223
 3816SOL    HW223082   4.258   1.581   9.645 -0.5649  0.5231  0.6231
 3817SOL     OW23083   3.144   0.586   5.464 -0.4521 -0.0489  0.2796
 3817SOL    HW123084   3.121   0.598   5.556  2.0450 -0.3987  0.9617
 3817SOL    HW223085   3.060   0.566   5.423 -0.2629  0.1404 -0.1991
 3818SOL     OW23086   0.547   2.039  14.420  0.4150  0.4782  0.3088
 3818SOL    HW123087   0.573   2.131  14.429  0.9510  0.4758 -1.3592
 3818SOL    HW223088   0.582   2.021  14.333  1.8716  1.3665  0.7016
 3819SOL     OW23089   4.510   3.208   9.745  0.5262 -0.6776 -0.0406
 3819SOL    HW123090   4.475   3.296   9.733 -1.6145 -1.6184 -0.8793
 3819SOL    HW223091   4.473   3.151   9.678 -0.5815 -1.5808  1.3091
 3820SOL     OW23092   2.054   4.222   0.698  0.2019 -0.0238 -0.5545
 3820SOL    HW123093   2.084   4.268   0.620 -0.1808 -0.8937 -1.2041
 3820SOL    HW223094   2.002   4.149   0.664 -0.1018 -0.7494  1.4342
 3821SOL     OW23095   4.523   0.399   2.504 -0.0854  0.0029 -0.2648
 3821SOL    HW123096   4.486   0.390   2.416  2.2046 -2.6998 -0.9682
 3821SOL    HW223097   4.608   0.429   2.471  0.0748  1.2464  1.3132
 3822SOL     OW23098   4.456   4.087   7.018  0.0157  0.7646  0.1760
 3822SOL    HW123099   4.517   4.037   6.963 -0.1850  0.5236  0.1709
 3822SOL    HW223100   4.461   4.179   6.993 -2.1656  0.2783 -1.9074
 3823SOL     OW23101   1.326   3.667   0.460  0.2246  0.6598 -0.1228
 3823SOL    HW123102   1.329   3.592   0.520 -0.7558 -0.8181 -1.9587
 3823SOL    HW223103   1.413   3.646   0.425  0.0262 -1.0627  0.4320
 3824SOL     OW23104   0.270   3.283  13.360 -0.0409  0.5502  0.0663
 3824SOL    HW123105   0.193   3.328  13.397  0.8041 -0.1386  2.6600
 3824SOL    HW223106   0.274   3.213  13.425  1.8022 -0.4683 -1.1501
 3825SOL     OW23107   4.687   0.422   7.308 -0.1104  0.2770  0.6104
 3825SOL    HW123108   4.679   0.326   7.304 -0.3545  0.2931  0.7283
 3825SOL    HW223109   4.720   0.442   7.221 -1.1743 -2.2321 -0.3715
 3826SOL     OW23110   0.412   3.798   8.177  0.5709 -0.4088  0.5417
 3826SOL    HW123111   0.330   3.827   8.136  0.8013 -1.4413 -0.6367
 3826SOL    HW223112   0.391   3.721   8.231  2.3652 -0.4841  1.1347
 3827SOL     OW23113   1.098   3.866   8.136 -0.4499  0.2396 -0.2671
 3827SOL    HW123114   1.026   3.887   8.078 -1.8676  1.3269  1.8758
 3827SOL    HW223115   1.164   3.844   8.070 -0.4195 -0.4883  0.0089
 3828SOL     OW23116   0.922   4.287   4.221 -0.0154 -0.0161 -0.0756
 3828SOL    HW123117   0.855   4.356   4.225  1.7369  1.6721  0.2982
 3828SOL    HW223118   0.979   4.325   4.288 -2.1354  0.9486  1.2097
 3829SOL     OW23119   0.742   2.612   8.657 -0.0411 -0.3768 -0.0215
 3829SOL    HW123120   0.747   2.707   8.667 -0.1352 -0.2972 -0.6789
 3829SOL    HW223121   0.831   2.586   8.677 -0.5357 -0.1498  2.4131
 3830SOL     OW23122   1.572   2.056   7.767  0.5169  0.0907  0.0010
 3830SOL    HW123123   1.627   2.130   7.739  0.4402  0.6012  1.1886
 3830SOL    HW223124   1.510   2.102   7.823 -0.0966  0.5993 -1.1093
 3831SOL     OW23125   2.111   1.305   9.110 -0.3492 -0.5743  0.5830
 3831SOL    HW123126   2.179   1.367   9.134  0.1571 -0.6865 -0.5328
 3831SOL    HW223127   2.166   1.240   9.065 -1.0915 -0.6421 -0.2293
 3832SOL     OW23128   3.663   0.589   3.112  0.2684  0.3042 -0.2278
 3832SOL    HW123129   3.758   0.585   3.113  0.1041 -2.4567  2.3973
 3832SOL    HW223130   3.645   0.496   3.109 -2.3718  0.7943  0.1794
 3833SOL     OW23131   0.538   2.111   2.902  0.2550  0.0602  0.3898
 3833SOL    HW123132   0.625   2.093   2.936  0.1276  1.8411  1.7059
 3833SOL    HW223133   0.547   2.205   2.887 -0.4645 -0.2309 -1.8305
 3834SOL     OW23134   0.574   4.480   3.360 -0.3791  0.0824  0.4183
 3834SOL    HW123135   0.524   4.415   3.311 -1.6847  0.8181  0.7580
 3834SOL    HW223136   0.660   4.461   3.323 -0.6977 -1.1624  0.2974
 3835SOL     OW23137   1.595   4.487  14.141  0.7087  0.1382  0.2627
 3835SOL    HW123138   1.602   4.503  14.235  2.7389  0.7077  0.0102
 3835SOL    HW223139   1.538   4.410  14.139 -1.5816  1.8994 -2.4872
 3836SOL     OW23140   2.659   4.444   2.756  0.5660  0.1745 -0.3448
 3836SOL    HW123141   2.619   4.523   2.721 -0.7338  0.5030  1.8949
 3836SOL    HW223142   2.713   4.484   2.824  3.1005 -1.3329 -1.4692
 3837SOL     OW23143   4.298   3.569   6.109  0.0981 -0.2258 -0.8676
 3837SOL    HW123144   4.308   3.518   6.029 -1.1726 -0.9829 -0.5430
 3837SOL    HW223145   4.209   3.541   6.133  0.7294 -0.4188  1.2627
 3838SOL     OW23146   3.150   2.187   8.088 -0.0970 -0.3994  0.1548
 3838SOL    HW123147   3.228   2.164   8.039 -0.6971  0.5594 -1.2301
 3838SOL    HW223148   3.127   2.267   8.042  0.4214  1.3649  2.9221
 3839SOL     OW23149   0.686   1.189   6.363  0.2890 -0.5763 -0.3001
 3839SOL    HW123150   0.632   1.153   6.433  0.2632  1.9221  0.9833
 3839SOL    HW223151   0.665   1.144   6.282  0.0038  1.8220 -1.5527
 3840SOL     OW23152   3.829   0.289   8.879 -0.0345 -0.0729 -0.2393
 3840SOL    HW123153   3.856   0.328   8.795 -0.0907  0.9478  0.2149
 3840SOL    HW223154   3.916   0.289   8.918 -0.1663 -1.2989  0.0662
 3841SOL     OW23155   2.784   3.369   2.257  0.2197  0.3157 -0.3978
 3841SOL    HW123156   2.691   3.390   2.250  0.0083  0.1783  1.8857
 3841SOL    HW223157   2.817   3.456   2.279 -1.6652  0.7300  0.8573
 3842SOL     OW23158   0.893   3.798   3.896 -0.0175 -0.3380 -0.6515
 3842SOL    HW123159   0.824   3.787   3.830 -2.1474 -0.6417  1.6171
 3842SOL    HW223160   0.870   3.880   3.940  2.5356  0.8185 -1.5140
 3843SOL     OW23161   2.355   4.599   5.388  0.6259  0.2851  0.0177
 3843SOL    HW123162   2.409   4.526   5.359  0.2505  0.7512 -1.8463
 3843SOL    HW223163   2.388   4.616   5.476  0.0469 -1.3756  0.5536
 3844SOL     OW23164   4.662   0.849   4.096  0.3573  0.1275  0.3460
 3844SOL    HW123165   4.640   0.936   4.062  1.9488  0.6432  0.6368
 3844SOL    HW223166   4.574   0.826   4.126  0.2511  0.4768  0.3080
 3845SOL     OW23167   0.406   4.544   7.535 -0.3849  0.9403  0.2631
 3845SOL    HW123168   0.353   4.465   7.551  0.3628  0.0823 -1.5107
 3845SOL    HW223169   0.428   4.576   7.622  1.5135  1.5879 -0.4552
 3846SOL     OW23170   4.061   3.379   5.600  0.0721  0.1384  0.0422
 3846SOL    HW123171   4.039   3.463   5.640 -2.2766 -0.9613  1.0745
 3846SOL    HW223172   4.008   3.311   5.642  0.6202 -0.7736 -0.7274
 3847SOL     OW23173   2.181   3.952   6.471 -0.0584 -0.6771  0.4261
 3847SOL    HW123174   2.256   3.914   6.517  1.1605  0.8506 -0.2970
 3847SOL    HW223175   2.113   3.905   6.520 -0.1976 -2.3265 -1.3407
 3848SOL     OW23176   4.542   1.101   9.453  0.1462 -0.2623  0.1868
 3848SOL    HW123177   4.507   1.018   9.422  0.8399 -1.0095  1.4208
 3848SOL    HW223178   4.483   1.164   9.410 -0.0274 -2.2710 -2.5144
 3849SOL     OW23179   3.887   4.327   5.361 -0.1017 -0.2495 -0.2510
 3849SOL    HW123180   3.939   4.310   5.282 -0.9107 -0.2530 -0.7920
 3849SOL    HW223181   3.803   4.305   5.319  0.3699 -2.6301  0.0195
 3850SOL     OW23182   0.992   2.965  10.859 -0.8218 -0.5547 -0.1471
 3850SOL    HW123183   0.968   3.051  10.894  0.3837 -0.2594 -0.0544
 3850SOL    HW223184   1.035   2.927  10.936  0.0318  0.3301 -0.1905
 3851SOL     OW23185   3.282   4.125  11.804 -0.5564  0.1694 -0.4664
 3851SOL    HW123186   3.246   4.179  11.874  0.2652  1.6789 -1.1908
 3851SOL    HW223187   3.364   4.173  11.791 -0.0038 -1.5792 -3.5601
 3852SOL     OW23188   0.306   3.108   1.723 -0.0866  0.4916 -0.1593
 3852SOL    HW123189   0.232   3.158   1.690 -0.1679 -0.7688 -1.8161
 3852SOL    HW223190   0.337   3.166   1.793  0.4812 -1.6684  1.3833
 3853SOL     OW23191   4.487   3.251   8.230 -0.1634 -0.1295 -0.6818
 3853SOL    HW123192   4.505   3.159   8.210 -0.3342 -0.5424  1.1044
 3853SOL    HW223193   4.392   3.249   8.239 -0.2818 -3.0958 -2.6325
 3854SOL     OW23194   3.437   3.367   1.665 -0.0935  0.0150  0.3735
 3854SOL    HW123195   3.356   3.392   1.619  0.1282  0.1732  0.0641
 3854SOL    HW223196   3.426   3.278   1.697 -0.1350 -0.1160 -0.0033
 3855SOL     OW23197   0.528   3.932   1.183 -0.3590  0.5253 -0.3345
 3855SOL    HW123198   0.447   3.883   1.197  0.1680 -0.5011 -0.8090
 3855SOL    HW223199   0.520   3.997   1.252 -1.4543 -0.5250  0.5223
 3856SOL     OW23200   4.429   4.562   4.869 -0.2710 -0.3655  0.1011
 3856SOL    HW123201   4.514   4.522   4.885  0.6340  1.4914 -0.0967
 3856SOL    HW223202   4.404   4.488   4.813  2.2602 -0.2249 -1.1959
 3857SOL     OW23203   2.796   3.038  15.944  0.2459  0.2879  0.2535
 3857SOL    HW123204   2.788   3.100  15.871  0.9431  0.0661 -0.0205
 3857SOL    HW223205   2.751   3.082  16.016 -0.9687 -0.6372  0.0455
 3858SOL     OW23206   4.491   2.541  16.613  0.2495 -0.2446 -0.4708
 3858SOL    HW123207   4.448   2.469  16.565  0.9983  0.0488 -1.5843
 3858SOL    HW223208   4.575   2.500  16.634  0.3908  0.0995 -0.3761
 3859SOL     OW23209   4.126   0.328   7.418 -1.0226 -0.2127 -0.0953
 3859SOL    HW123210   4.206   0.276   7.422 -0.7402  0.4921  3.2011
 3859SOL    HW223211   4.143   0.384   7.342  0.1754 -0.3946  0.0300
 3860SOL     OW23212   2.392   3.837  10.975  0.2761 -0.3267 -0.3889
 3860SOL    HW123213   2.328   3.888  11.025 -0.4655 -1.8081  0.1558
 3860SOL    HW223214   2.461   3.819  11.039 -0.8760 -2.0205  0.3687
 3861SOL     OW23215   2.856   4.069   8.241  0.0954  0.1418 -0.2610
 3861SOL    HW123216   2.837   4.137   8.305 -2.0826  0.9006 -1.7194
 3861SOL    HW223217   2.869   4.122   8.163 -0.7956 -0.4056 -0.7745
 3862SOL     OW23218   2.823   1.703   7.161 -0.6239  0.6744 -0.2603
 3862SOL    HW123219   2.856   1.649   7.089 -1.4455 -0.7955  0.4610
 3862SOL    HW223220   2.878   1.780   7.157 -0.1360  0.3831  1.0351
 3863SOL     OW23221   1.988   4.490   4.573 -0.1919  0.3381  0.2815
 3863SOL    HW123222   1.964   4.456   4.487  1.2460 -1.5005  0.6134
 3863SOL    HW223223   2.014   4.412   4.622  2.0031  0.7340 -0.2426
 3864SOL     OW23224   1.527   2.389  16.643 -0.2571  0.5575  0.1050
 3864SOL    HW123225   1.614   2.349  16.643 -1.1029 -1.3148  0.2470
 3864SOL    HW223226   1.533   2.477  16.678 -1.5770  1.5039 -2.0258
 3865SOL     OW23227   4.020   2.878   1.760 -0.5202 -0.2985  0.0783
 3865SOL    HW123228   3.936   2.853   1.797 -0.6256 -1.0747 -0.6940
 3865SOL    HW223229   4.080   2.817   1.804 -0.0852 -0.1928 -0.3666
 3866SOL     OW23230   3.140   3.463   2.114 -0.3073 -0.2472 -0.3390
 3866SOL    HW123231   3.185   3.543   2.085 -4.1032  1.6598 -1.0082
 3866SOL    HW223232   3.052   3.470   2.076 -1.3388 -3.1571  1.4831
 3867SOL     OW23233   0.075   4.714   7.458  0.4981 -0.1359 -0.7377
 3867SOL    HW123234   0.166   0.005   7.467  1.2865 -2.5091 -1.3019
 3867SOL    HW223235   0.087   4.636   7.404 -1.2735 -2.1327  1.7465
 3868SOL     OW23236   3.091   0.962   8.388  0.4757 -0.0233 -0.2129
 3868SOL    HW123237   3.094   1.054   8.415  0.3379  0.1970 -0.9450
 3868SOL    HW223238   3.173   0.943   8.343  0.1855  1.1713 -1.2543
 3869SOL     OW23239   4.481   1.781   3.404  0.0475  0.3375 -0.1955
 3869SOL    HW123240   4.475   1.729   3.324 -0.6443 -1.0786  0.7843
 3869SOL    HW223241   4.569   1.817   3.392  0.7157 -1.7354 -1.4562
 3870SOL     OW23242   0.427   2.171   1.946  0.5391  0.0511  0.4304
 3870SOL    HW123243   0.419   2.077   1.961 -2.5032 -0.0045 -1.6674
 3870SOL    HW223244   0.361   2.212   2.001  2.4068  0.9216  2.0240
 3871SOL     OW23245   3.314   3.175   8.020 -0.4644  0.3729  0.4500
 3871SOL    HW123246   3.350   3.136   8.099  0.8630  0.9707  0.1429
 3871SOL    HW223247   3.249   3.225   8.069 -1.2488  1.2037 -1.4155
 3872SOL     OW23248   2.666   3.695   5.960  0.5059 -0.3840 -0.2973
 3872SOL    HW123249   2.664   3.637   6.036  2.7573 -0.3847 -0.2319
 3872SOL    HW223250   2.649   3.774   6.012 -0.6608 -0.0317 -1.2151
 3873SOL     OW23251   0.780   2.509   3.937  0.3792  0.1254  0.3333
 3873SOL    HW123252   0.713   2.545   3.880 -0.2024  0.4381  1.2126
 3873SOL    HW223253   0.859   2.541   3.893 -1.5816  3.7847 -0.5192
 3874SOL     OW23254   1.500   1.036   5.811 -0.7100 -0.3541 -0.3951
 3874SOL    HW123255   1.553   1.043   5.890 -0.5662  0.3110 -0.5481
 3874SOL    HW223256   1.525   0.950   5.779 -1.0625 -0.9014  0.7956
 3875SOL     OW23257   4.361   2.030   9.626 -0.3121  0.5926  0.2144
 3875SOL    HW123258   4.450   2.000   9.606 -0.8839 -1.0696  0.1097
 3875SOL    HW223259   4.384   2.096   9.691  3.0207 -0.6441  0.3324
 3876SOL     OW23260   2.491   4.342  15.201  0.8932 -0.6768 -0.2816
 3876SOL    HW123261   2.576   4.323  15.241  0.2092 -0.8212  1.1166
 3876SOL    HW223262   2.518   4.387  15.121  0.3453  1.1164  0.5381
 3877SOL     OW23263   1.411   0.984   2.451 -0.1351  0.2290 -0.3482
 3877SOL    HW123264   1.424   0.999   2.545  0.0709 -1.6280 -0.0954
 3877SOL    HW223265   1.456   1.064   2.422 -0.7852  0.3691 -0.9737
 3878SOL     OW23266   3.829   3.070   7.530  0.3137  0.0529  0.0323
 3878SOL    HW123267   3.819   3.157   7.570 -1.3860  0.1653 -0.6127
 3878SOL    HW223268   3.845   3.021   7.611 -2.1743  0.2096  0.6228
 3879SOL     OW23269   3.595   4.547   5.822 -0.1050 -0.7009 -0.2656
 3879SOL    HW123270   3.671   4.545   5.880  0.2136  1.2098 -0.6159
 3879SOL    HW223271   3.564   4.632   5.853 -0.1045 -0.0339 -2.0707
 3880SOL     OW23272   3.807   0.390   1.024  0.0957  0.3161  0.0500
 3880SOL    HW123273   3.760   0.313   1.056  1.5972 -0.8632 -0.5914
 3880SOL    HW223274   3.885   0.381   1.079 -1.1164  2.3894  2.1138
 3881SOL     OW23275   2.384   0.741  15.110 -0.5674  0.7513 -0.4855
 3881SOL    HW123276   2.326   0.717  15.183 -0.1642 -1.5853 -0.9216
 3881SOL    HW223277   2.428   0.657  15.097  0.5724  0.5905  4.2450
 3882SOL     OW23278   3.758   3.069   2.909  0.0956  0.1851  0.1444
 3882SOL    HW123279   3.754   3.120   2.990 -2.1783  1.2418 -0.6418
 3882SOL    HW223280   3.672   3.027   2.917 -0.2871  0.5369 -2.3297
 3883SOL     OW23281   4.239   0.365   6.147  0.0343  0.0408 -0.6526
 3883SOL    HW123282   4.190   0.297   6.101 -2.1854 -0.6666  2.7620
 3883SOL    HW223283   4.176   0.377   6.218  0.3930 -1.6716 -0.0475
 3884SOL     OW23284   4.178   1.109   2.119 -0.7718 -0.2519  0.6115
 3884SOL    HW123285   4.249   1.047   2.102 -0.7450 -0.6087  2.0485
 3884SOL    HW223286   4.174   1.153   2.034 -0.0421 -0.3341  0.5375
 3885SOL     OW23287   0.383   1.173   2.309  0.2182  0.6144 -0.0727
 3885SOL    HW123288   0.347   1.098   2.261 -0.8521  0.1273  1.4926
 3885SOL    HW223289   0.473   1.179   2.275  0.2126 -1.2266 -0.4230
 3886SOL     OW23290   2.165   1.279   7.392 -0.1231  0.5593 -0.2887
 3886SOL    HW123291   2.129   1.361   7.423  1.0072  0.4330  1.3344
 3886SOL    HW223292   2.126   1.279   7.304 -0.9869 -2.5694  0.1021
 3887SOL     OW23293   3.216   4.483   6.343  0.4868  0.1456  0.1524
 3887SOL    HW123294   3.171   4.485   6.259 -1.0019 -1.9625  0.9023
 3887SOL    HW223295   3.176   4.555   6.393  0.3219 -0.1651  0.4626
 3888SOL     OW23296   3.801   1.103   1.675  0.0370  0.0025 -0.3486
 3888SOL    HW123297   3.831   1.016   1.646  0.2804 -0.0935  0.1850
 3888SOL    HW223298   3.722   1.107   1.621 -1.4194  1.1603  1.8864
 3889SOL     OW23299   1.182   0.120   6.468  0.2453  0.4928  0.4643
 3889SOL    HW123300   1.089   0.101   6.485  0.1244  0.2652 -0.4529
 3889SOL    HW223301   1.212   0.029   6.465 -0.1487  0.3300  1.3078
 3890SOL     OW23302   0.087   0.723   2.152 -0.0022 -0.1718 -0.3000
 3890SOL    HW123303   0.122   0.681   2.073  1.6036 -0.6093  0.6554
 3890SOL    HW223304   4.737   0.683   2.154  0.7991 -1.8815  0.7041
 3891SOL     OW23305   3.635   1.167   3.276  0.4084  0.0861 -0.3500
 3891SOL    HW123306   3.674   1.203   3.356  1.5752  0.5343 -1.1174
 3891SOL    HW223307   3.706   1.177   3.212  0.1128  0.4567 -0.6174
 3892SOL     OW23308   2.934   0.136   3.627  0.1013 -0.5410  0.4167
 3892SOL    HW123309   2.922   0.210   3.687  2.2960  0.5383 -0.4932
 3892SOL    HW223310   3.024   0.153   3.600 -1.1739 -0.9681 -4.1261
 3893SOL     OW23311   1.581   3.334  10.285  0.2960 -0.2055  0.0601
 3893SOL    HW123312   1.676   3.342  10.274  0.2721  1.8189  1.3152
 3893SOL    HW223313   1.563   3.414  10.333  1.8859 -0.6205  1.3520
 3894SOL     OW23314   1.682   0.555  10.438  0.2422  0.2313  0.2859
 3894SOL    HW123315   1.721   0.629  10.483  0.6537  0.2917 -0.1612
 3894SOL    HW223316   1.706   0.494  10.507  0.8570 -0.8089 -0.8320
 3895SOL     OW23317   1.984   4.662   1.543 -0.3904  0.1525 -0.7649
 3895SOL    HW123318   2.039   4.734   1.574 -0.5141  0.9052 -2.3239
 3895SOL    HW223319   2.019   4.600   1.607  0.9324  0.3305 -1.3092
 3896SOL     OW23320   3.668   1.013  13.933  0.0738  0.0978  0.4112
 3896SOL    HW123321   3.747   1.061  13.958 -0.7266 -0.0907  3.3118
 3896SOL    HW223322   3.600   1.065  13.974 -1.8970 -1.5756 -0.7606
 3897SOL     OW23323   0.708   1.776  13.024  0.4384 -0.4615 -0.1420
 3897SOL    HW123324   0.658   1.722  13.085 -1.0742 -1.2529 -2.0953
 3897SOL    HW223325   0.652   1.784  12.947 -0.7132 -0.6666  0.6792
 3898SOL     OW23326   0.386   1.717   9.180 -0.1874  0.3708  0.2861
 3898SOL    HW123327   0.365   1.653   9.248  0.1554  0.1112  0.1419
 3898SOL    HW223328   0.431   1.654   9.124 -0.4148  0.8742 -0.4678
 3899SOL     OW23329   2.755   3.335   1.497  0.1084  0.0255 -0.6244
 3899SOL    HW123330   2.814   3.333   1.422  0.3952 -0.0251 -0.4008
 3899SOL    HW223331   2.819   3.314   1.565 -2.1896  0.5560  1.7146
 3900SOL     OW23332   2.784   1.145  16.837  0.4442 -0.5273  0.7456
 3900SOL    HW123333   2.870   1.120  16.870 -0.4110 -0.7551  2.7967
 3900SOL    HW223334   2.728   1.172  16.910 -1.2553  1.8334 -1.4362
 3901SOL     OW23335   0.628   1.627   2.625 -0.6695  0.1548  0.1013
 3901SOL    HW123336   0.708   1.664   2.588 -0.4332 -2.0962 -1.5807
 3901SOL    HW223337   0.580   1.613   2.544 -0.7176  1.7806 -0.1523
 3902SOL     OW23338   3.889   2.514   5.693  1.0177  0.0816 -0.3706
 3902SOL    HW123339   3.878   2.471   5.778 -0.2651  1.1436  0.0055
 3902SOL    HW223340   3.798   2.517   5.663  0.8141 -0.8031  0.1389
 3903SOL     OW23341   0.324   3.023   9.131 -0.4780  0.3522 -0.6385
 3903SOL    HW123342   0.298   3.089   9.195  1.2224  0.1412  0.2697
 3903SOL    HW223343   0.402   2.991   9.175  1.0048  1.5285 -2.4217
 3904SOL     OW23344   4.287   4.468   5.878 -0.2949  0.3294  0.3691
 3904SOL    HW123345   4.276   4.446   5.785 -0.8788 -0.2361  0.5716
 3904SOL    HW223346   4.199   4.493   5.905 -0.3340 -1.3547  1.8329
 3905SOL     OW23347   4.078   1.505   3.224  0.0856  0.3499  0.1826
 3905SOL    HW123348   4.038   1.585   3.192  1.8120  1.2541  0.3184
 3905SOL    HW223349   4.036   1.446   3.162  0.3354  0.2305  0.1265
 3906SOL     OW23350   3.642   4.227  10.977  0.1244 -0.8003  0.4509
 3906SOL    HW123351   3.650   4.135  11.000  0.8566 -0.8227  0.0930
 3906SOL    HW223352   3.560   4.225  10.927  0.6559 -1.7629 -0.3684
 3907SOL     OW23353   3.225   1.505   8.035  0.2952  0.0118 -0.5722
 3907SOL    HW123354   3.295   1.446   8.005 -0.7098 -1.0031 -0.9017
 3907SOL    HW223355   3.156   1.443   8.058  1.4581 -0.7204  0.9347
 3908SOL     OW23356   3.762   1.368   3.886  0.4254 -0.2216 -0.1144
 3908SOL    HW123357   3.698   1.422   3.932 -0.1724 -2.0685  1.1960
 3908SOL    HW223358   3.731   1.285   3.922 -1.0967 -0.0506 -1.0365
 3909SOL     OW23359   0.489   3.035   6.887 -0.7883 -0.3905  0.3510
 3909SOL    HW123360   0.432   2.978   6.939 -2.6524  0.4557 -0.7472
 3909SOL    HW223361   0.571   3.021   6.935 -0.2354 -1.4440 -0.9154
 3910SOL     OW23362   2.686   3.687   5.575 -0.9628  0.2391  0.0310
 3910SOL    HW123363   2.721   3.696   5.486  2.3802 -2.5351  1.0997
 3910SOL    HW223364   2.660   3.595   5.577  0.0912 -0.0264  0.9705
 3911SOL     OW23365   0.118   1.490   4.563  0.3726 -0.2079 -0.5847
 3911SOL    HW123366   0.203   1.445   4.570  0.1619 -0.3901  0.8959
 3911SOL    HW223367   0.073   1.444   4.634 -0.4041  0.8503 -0.4014
 3912SOL     OW23368   0.784   4.626   4.927  0.1029  0.0222 -0.1537
 3912SOL    HW123369   0.797   4.711   4.886  0.0664  0.0310 -0.1471
 3912SOL    HW223370   0.697   4.639   4.966 -0.4817 -0.8347 -1.1655
 3913SOL     OW23371   4.011   3.577   2.634  0.0365  0.2259 -0.1877
 3913SOL    HW123372   4.089   3.574   2.690 -0.6861 -1.6988  0.7116
 3913SOL    HW223373   3.959   3.650   2.669 -0.5125  0.1283 -0.8014
 3914SOL     OW23374   3.859   4.205   7.476 -0.1709 -0.0484 -0.1810
 3914SOL    HW123375   3.830   4.296   7.463  0.0388  0.0741  0.1927
 3914SOL    HW223376   3.840   4.165   7.391  1.5389  0.0008 -0.6055
 3915SOL     OW23377   1.752   0.031   2.875  0.1361  0.3323 -0.4586
 3915SOL    HW123378   1.822   0.096   2.866  0.6753 -0.1954 -0.0269
 3915SOL    HW223379   1.698   0.066   2.946 -1.3328 -0.0137 -1.3797
 3916SOL     OW23380   1.530   1.317   2.018  0.2575 -0.2634 -0.0011
 3916SOL    HW123381   1.532   1.249   2.086 -0.6781  0.7701  1.0742
 3916SOL    HW223382   1.589   1.286   1.950  0.0427 -1.4485  0.3472
 3917SOL     OW23383   0.835   3.365   5.510 -0.2397 -0.1921  0.4330
 3917SOL    HW123384   0.804   3.284   5.552 -2.6907  0.4523 -0.1618
 3917SOL    HW223385   0.783   3.429   5.558  1.8113  1.4008  0.5107
 3918SOL     OW23386   0.892   3.027  14.826  0.2555  0.7709  0.2921
 3918SOL    HW123387   0.807   3.043  14.785  0.7626  0.5176 -0.8475
 3918SOL    HW223388   0.879   2.932  14.830  0.8656  0.6809  0.1475
 3919SOL     OW23389   4.512   2.710   0.920 -0.3860 -0.5159  0.3152
 3919SOL    HW123390   4.430   2.725   0.873 -0.6441 -1.8088  0.3620
 3919SOL    HW223391   4.498   2.628   0.967  0.4012 -1.7917 -1.6693
 3920SOL     OW23392   0.822   2.996  16.661 -0.1907  0.4681  0.1205
 3920SOL    HW123393   0.804   2.904  16.681  0.2792 -0.2185 -2.6231
 3920SOL    HW223394   0.908   2.987  16.620 -0.6860  1.6189 -1.1925
 3921SOL     OW23395   0.855   1.918   8.739  0.0930  0.0156  0.1440
 3921SOL    HW123396   0.766   1.890   8.715 -0.2416 -0.0632  1.5274
 3921SOL    HW223397   0.838   1.949   8.827  2.1018 -0.0446  0.5429
 3922SOL     OW23398   4.122   2.787  11.419 -0.4461  0.2058  0.5496
 3922SOL    HW123399   4.128   2.699  11.382 -2.5812 -0.1766  1.0870
 3922SOL    HW223400   4.201   2.836  11.399 -0.2601  0.1418  1.1296
 3923SOL     OW23401   3.000   2.055   3.727  0.1092 -0.6685  0.0341
 3923SOL    HW123402   3.048   2.106   3.662  0.1772 -0.0302  0.5890
 3923SOL    HW223403   2.952   2.000   3.665  1.4145 -2.3692  0.5326
 3924SOL     OW23404   2.708   4.222  13.513  0.2867  0.5088 -0.3451
 3924SOL    HW123405   2.653   4.144  13.520  1.2175 -0.1005  0.1981
 3924SOL    HW223406   2.768   4.196  13.443  1.5253  0.8635  0.5869
 3925SOL     OW23407   3.261   2.034  11.221 -0.4732 -0.0454  0.1716
 3925SOL    HW123408   3.302   1.952  11.247  4.5228  2.5997  0.7412
 3925SOL    HW223409   3.262   2.076  11.308 -2.5735 -1.1596  0.7378
 3926SOL     OW23410   0.606   1.841   4.250  0.1593  0.4547 -0.4264
 3926SOL    HW123411   0.567   1.903   4.187 -1.4784  0.9590  1.0915
 3926SOL    HW223412   0.684   1.806   4.207  0.3364  1.0622 -0.6102
 3927SOL     OW23413   0.998   0.481  14.962 -0.2975 -0.0807 -0.2709
 3927SOL    HW123414   0.911   0.516  14.982 -0.0084 -0.7878  2.1666
 3927SOL    HW223415   1.054   0.555  14.985 -0.3942  0.4270 -1.6141
 3928SOL     OW23416   1.990   1.658   2.739 -0.1719  0.4987  0.4348
 3928SOL    HW123417   1.911   1.638   2.688  1.3380 -0.6262 -1.4572
 3928SOL    HW223418   2.006   1.570   2.771 -0.9168  0.2992  0.2590
 3929SOL     OW23419   3.201   1.216   0.794  0.3827 -0.0704  0.4740
 3929SOL    HW123420   3.105   1.222   0.797  0.4806  1.9136 -0.1587
 3929SOL    HW223421   3.227   1.291   0.848  0.0693 -0.5881  1.3409
 3930SOL     OW23422   1.429   0.642  14.857  0.6251  0.6443  0.4447
 3930SOL    HW123423   1.499   0.635  14.792  3.2067  2.7211  2.9941
 3930SOL    HW223424   1.462   0.580  14.922 -2.0871  1.1405  2.2948
 3931SOL     OW23425   4.079   2.477   0.736  0.1541  0.1951 -0.5642
 3931SOL    HW123426   4.015   2.479   0.807 -0.1979  0.6692 -0.8952
 3931SOL    HW223427   4.023   2.485   0.659 -1.1596  1.5543  0.5210
 3932SOL     OW23428   1.648   2.117   4.230  0.1431  0.0482  0.0243
 3932SOL    HW123429   1.605   2.102   4.146 -0.9710  2.2105  0.1984
 3932SOL    HW223430   1.653   2.025   4.256  1.5407 -0.0919 -0.7262
 3933SOL     OW23431   0.651   1.907  11.506 -0.4167  0.1432 -0.2057
 3933SOL    HW123432   0.665   1.999  11.486  0.2887  0.7901  3.2924
 3933SOL    HW223433   0.668   1.901  11.600  2.2094 -2.0956 -0.8142
 3934SOL     OW23434   0.617   0.530  12.608  0.4391  0.6902  0.0657
 3934SOL    HW123435   0.594   0.517  12.700 -2.3212 -0.0948 -0.7442
 3934SOL    HW223436   0.530   0.524  12.569  1.1504 -0.1111 -1.4118
 3935SOL     OW23437   1.094   3.184   5.209 -0.3621 -0.1281 -0.0143
 3935SOL    HW123438   1.182   3.211   5.232 -0.8968  0.7373  1.0202
 3935SOL    HW223439   1.064   3.150   5.294 -1.4015 -0.2482 -0.4233
 3936SOL     OW23440   1.981   0.756   3.144 -0.4501 -0.0413  0.3487
 3936SOL    HW123441   1.897   0.722   3.173 -0.6974 -1.1018 -1.6215
 3936SOL    HW223442   1.990   0.707   3.062 -0.0068  0.3807  0.1412
 3937SOL     OW23443   0.822   2.116   5.936  0.3475 -0.5701 -0.9004
 3937SOL    HW123444   0.811   2.206   5.964 -0.7574 -0.8753 -0.3308
 3937SOL    HW223445   0.893   2.083   5.992 -1.7117 -1.2941  1.2804
 3938SOL     OW23446   2.613   0.061   0.505  0.3462 -0.2123  0.3512
 3938SOL    HW123447   2.692   0.096   0.465  0.0533 -0.7905 -0.7474
 3938SOL    HW223448   2.605   4.708   0.475 -0.9075  0.0100  0.0077
 3939SOL     OW23449   0.940   4.180   1.069 -0.0434 -0.0684 -0.2676
 3939SOL    HW123450   0.962   4.177   1.163 -0.8420 -0.3178 -0.0931
 3939SOL    HW223451   0.963   4.091   1.041 -0.8248 -0.5671  0.6668
 3940SOL     OW23452   1.957   4.018   0.555  0.1066  0.2747 -0.3397
 3940SOL    HW123453   1.985   3.937   0.513  0.6810  0.8455 -1.0472
 3940SOL    HW223454   1.909   4.065   0.487 -1.7132 -0.9832  0.0685
 3941SOL     OW23455   4.663   0.936   3.690 -0.2335 -0.0424  0.4994
 3941SOL    HW123456   4.569   0.929   3.674  0.0798  1.4509 -1.9916
 3941SOL    HW223457   4.673   0.886   3.771 -1.2467 -1.2759 -0.1271
 3942SOL     OW23458   3.061   2.013   6.521  0.1363  0.7385 -0.0481
 3942SOL    HW123459   3.028   2.036   6.608  0.3310 -0.5753  0.3752
 3942SOL    HW223460   3.135   2.073   6.520  0.9127 -0.2121  0.6266
 3943SOL     OW23461   1.352   4.341   4.740 -0.3387 -0.0171  0.4355
 3943SOL    HW123462   1.368   4.249   4.718 -0.2872  0.2621 -0.6766
 3943SOL    HW223463   1.384   4.344   4.830  1.2803 -2.1584 -0.0643
 3944SOL     OW23464   3.547   3.043   6.216 -0.3003 -0.0408  0.1973
 3944SOL    HW123465   3.543   3.073   6.307  0.6184 -1.4076  0.6793
 3944SOL    HW223466   3.534   3.128   6.173 -2.0388 -0.0986  0.5809
 3945SOL     OW23467   3.855   2.872   0.283  0.2720 -0.5739  0.3276
 3945SOL    HW123468   3.899   2.802   0.332 -0.6148 -0.7480  0.8734
 3945SOL    HW223469   3.931   2.924   0.255  0.8157 -1.2080  0.6201
 3946SOL     OW23470   3.565   3.613   6.159 -0.1420  0.8329  0.3457
 3946SOL    HW123471   3.512   3.674   6.209 -3.2670 -1.6593  0.0544
 3946SOL    HW223472   3.507   3.598   6.085  3.0230 -1.5517 -1.6790
 3947SOL     OW23473   0.751   0.264   5.957 -0.3771 -0.1427  0.0077
 3947SOL    HW123474   0.725   0.182   6.001 -2.6286  0.8303  0.4998
 3947SOL    HW223475   0.836   0.273   6.001  1.2721  1.2998 -3.4626
 3948SOL     OW23476   3.795   3.143   8.139  0.0977 -0.2425 -0.1364
 3948SOL    HW123477   3.732   3.108   8.203 -0.3969 -0.6116 -0.8233
 3948SOL    HW223478   3.749   3.136   8.055  1.6782 -0.7176 -0.9465
 3949SOL     OW23479   0.410   0.121  12.063 -0.1388 -0.1903 -0.7088
 3949SOL    HW123480   0.355   0.044  12.078 -1.9436  0.9830 -1.3213
 3949SOL    HW223481   0.343   0.187  12.075 -1.3502 -1.9023  1.8097
 3950SOL     OW23482   1.339   2.428   2.787 -0.3208 -0.7451 -0.0028
 3950SOL    HW123483   1.335   2.355   2.849 -1.1090  0.3230  1.1784
 3950SOL    HW223484   1.365   2.369   2.716  0.7316  0.5895 -0.7226
 3951SOL     OW23485   1.313   2.620   4.014 -0.6156 -0.8026 -0.1394
 3951SOL    HW123486   1.303   2.651   4.104 -0.7779  0.3154 -0.5470
 3951SOL    HW223487   1.250   2.548   4.004 -0.0889 -1.1529 -0.8941
 3952SOL     OW23488   3.044   3.004   2.880 -0.1318  0.2788  0.6530
 3952SOL    HW123489   2.975   3.070   2.889 -4.1359 -3.3543 -2.9666
 3952SOL    HW223490   3.120   3.037   2.928 -0.8416  3.3849 -0.3713
 3953SOL     OW23491   3.334   3.368   6.671  0.1049  0.3498 -0.2953
 3953SOL    HW123492   3.417   3.342   6.711 -0.9605 -1.6204  0.6430
 3953SOL    HW223493   3.348   3.462   6.658  1.7590  0.2455  0.7627
 3954SOL     OW23494   1.475   1.688   8.526  0.5337  0.1591 -0.1959
 3954SOL    HW123495   1.392   1.710   8.567  0.9067 -0.8882  1.1462
 3954SOL    HW223496   1.508   1.629   8.594  3.6827  0.6294 -1.3062
 3955SOL     OW23497   0.815   1.634   5.803  0.1140  0.0644 -0.2273
 3955SOL    HW123498   0.837   1.727   5.802  0.5167 -0.0101  2.3277
 3955SOL    HW223499   0.760   1.628   5.881 -0.6609  1.5788 -0.6623
 3956SOL     OW23500   3.013   3.098  13.712 -0.5089  0.4883 -0.1916
 3956SOL    HW123501   2.919   3.117  13.714 -0.4093  1.1026 -1.6780
 3956SOL    HW223502   3.046   3.175  13.759  0.1522  1.9765 -3.1391
 3957SOL     OW23503   2.459   1.636   3.076 -0.1754  0.3146  0.0532
 3957SOL    HW123504   2.545   1.678   3.081  0.1334 -0.3287  0.0674
 3957SOL    HW223505   2.475   1.559   3.022  0.5386  1.2301 -1.0476
 3958SOL     OW23506   0.594   3.912   4.562  0.1822 -0.1304  0.2235
 3958SOL    HW123507   0.624   3.836   4.514  0.1784  1.0885 -1.7076
 3958SOL    HW223508   0.553   3.862   4.633  0.7369 -2.4660 -1.1102
 3959SOL     OW23509   2.207   2.322   8.972  0.3128  0.0093  0.0647
 3959SOL    HW123510   2.274   2.299   9.036  0.1574 -0.9303 -0.1043
 3959SOL    HW223511   2.151   2.375   9.029 -1.4943 -1.5463 -0.2532
 3960SOL     OW23512   3.218   4.362  11.935 -0.1167  0.1150  0.2848
 3960SOL    HW123513   3.264   4.440  11.966 -0.4333 -0.4899  2.2957
 3960SOL    HW223514   3.130   4.390  11.908  0.6814  1.8392 -0.4759
 3961SOL     OW23515   3.575   3.093   7.938 -0.3282 -0.3075  0.2760
 3961SOL    HW123516   3.587   3.026   7.872 -1.3528  1.3211 -1.5546
 3961SOL    HW223517   3.491   3.076   7.982 -0.8025 -2.0988 -1.3064
 3962SOL     OW23518   1.771   2.977  11.547  0.2923  0.0817 -0.1518
 3962SOL    HW123519   1.764   2.946  11.638 -0.4861 -2.8190 -1.1946
 3962SOL    HW223520   1.795   2.893  11.508  0.5455  0.1659 -0.1765
 3963SOL     OW23521   0.041   1.782   9.381 -0.0764  0.2796  0.3213
 3963SOL    HW123522   0.103   1.844   9.342  0.5125  1.3885  3.0575
 3963SOL    HW223523   0.042   1.711   9.317  0.3218  0.0387  0.6036
 3964SOL     OW23524   3.032   2.063  10.623  0.0464 -0.2347  0.1222
 3964SOL    HW123525   2.956   2.010  10.598  0.6086 -0.2413 -1.5406
 3964SOL    HW223526   3.031   2.056  10.719  0.0902  1.0823  0.2293
 3965SOL     OW23527   4.432   4.597  12.350  0.3232  0.1525  0.2838
 3965SOL    HW123528   4.402   4.508  12.369  0.9742  0.2114  1.5960
 3965SOL    HW223529   4.405   4.590  12.258 -2.0347 -1.1373  1.0936
 3966SOL     OW23530   0.965   1.260   4.050  0.5418  0.0657  0.0295
 3966SOL    HW123531   0.914   1.183   4.076 -0.0100  0.6852  0.8010
 3966SOL    HW223532   0.896   1.311   4.008  0.3106  0.4082  0.8245
 3967SOL     OW23533   0.164   1.291   7.718  0.1868  0.5335  0.6639
 3967SOL    HW123534   0.089   1.244   7.755  0.8913 -1.8045 -0.8409
 3967SOL    HW223535   0.137   1.382   7.724  1.2729  0.7855  1.6606
 3968SOL     OW23536   2.252   1.383  15.889  0.3623  0.5173 -0.5366
 3968SOL    HW123537   2.300   1.418  15.813  1.6575  2.2618  1.0890
 3968SOL    HW223538   2.191   1.456  15.895 -1.1673 -0.8221  0.4006
 3969SOL     OW23539   4.691   1.660  11.006 -0.2786 -0.0719 -0.6525
 3969SOL    HW123540   4.717   1.648  11.097 -1.1385 -1.8960 -0.6478
 3969SOL    HW223541   0.014   1.596  10.969  3.0099  1.3422  2.2874
 3970SOL     OW23542   4.175   1.839  10.972  0.2161 -0.0880  0.2473
 3970SOL    HW123543   4.261   1.796  10.970  1.4768  2.4815 -0.5249
 3970SOL    HW223544   4.141   1.812  10.887  0.0859 -0.5213  0.4387
 3971SOL     OW23545   0.245   1.910  16.718  0.2843  0.1293  0.0429
 3971SOL    HW123546   0.268   1.818  16.729  0.3646  0.1751  0.2488
 3971SOL    HW223547   0.288   1.945  16.795 -0.6063  0.5731  0.3436
 3972SOL     OW23548   0.706   4.563  11.060 -0.1408  0.0708 -0.2634
 3972SOL    HW123549   0.781   4.545  11.117  0.5838  0.8348 -0.9807
 3972SOL    HW223550   0.701   4.659  11.070 -0.2995  0.0795 -0.4209
 3973SOL     OW23551   1.204   3.329   4.937 -0.0622  0.4654 -0.3111
 3973SOL    HW123552   1.121   3.376   4.938  0.4397  1.3506 -0.4814
 3973SOL    HW223553   1.178   3.237   4.935 -2.1571  1.0245  0.5354
 3974SOL     OW23554   1.674   3.868   1.950 -0.0910  0.7592 -0.0254
 3974SOL    HW123555   1.601   3.806   1.941 -0.0526  0.5087  1.3809
 3974SOL    HW223556   1.741   3.819   1.903  0.2143  0.7810  0.3954
 3975SOL     OW23557   3.540   1.629   2.684 -0.5301 -0.3590 -0.0142
 3975SOL    HW123558   3.603   1.571   2.640  0.0811  0.6171 -0.4260
 3975SOL    HW223559   3.493   1.560   2.731 -1.9811 -0.2756 -1.3400
 3976SOL     OW23560   3.761   4.489   6.414 -0.3853 -0.2992  0.5536
 3976SOL    HW123561   3.818   4.439   6.473 -0.3005  0.1695  0.8702
 3976SOL    HW223562   3.700   4.420   6.387 -1.0983 -0.3953  2.3998
 3977SOL     OW23563   0.471   2.338  15.158  0.0577 -0.0199  1.1082
 3977SOL    HW123564   0.480   2.396  15.234  0.0492  3.6316 -1.6704
 3977SOL    HW223565   0.535   2.268  15.170  1.5247  1.2624  0.9133
 3978SOL     OW23566   2.413   0.830   2.727  0.8066  0.4188 -0.2572
 3978SOL    HW123567   2.456   0.890   2.788 -1.7710 -0.9495  2.9042
 3978SOL    HW223568   2.393   0.760   2.789  0.7274  1.2467  0.6583
 3979SOL     OW23569   0.593   3.377   8.252  0.5852 -0.6591  0.1089
 3979SOL    HW123570   0.589   3.427   8.170  0.5939 -0.1054  0.4505
 3979SOL    HW223571   0.547   3.301   8.217  0.9430 -1.2963  1.0244
 3980SOL     OW23572   3.603   2.353   9.489  0.1182  0.5891 -0.1871
 3980SOL    HW123573   3.553   2.276   9.516  1.1854  0.2797  0.8446
 3980SOL    HW223574   3.689   2.314   9.475 -0.5205 -1.3076  1.3009
 3981SOL     OW23575   0.309   4.370   1.062  0.2014 -0.0404 -0.5892
 3981SOL    HW123576   0.375   4.303   1.082  0.2185  0.3187  0.5632
 3981SOL    HW223577   0.263   4.328   0.989 -2.1060 -1.5794  1.7340
 3982SOL     OW23578   0.859   2.239   5.662  0.0859 -0.0961 -0.0294
 3982SOL    HW123579   0.873   2.223   5.756 -0.5393  0.8468  0.2241
 3982SOL    HW223580   0.768   2.211   5.651 -0.0217 -1.4951  4.3860
 3983SOL     OW23581   1.913   3.391   6.784 -0.0791 -0.1663 -0.7881
 3983SOL    HW123582   1.882   3.478   6.807 -0.1336 -0.7950  1.5548
 3983SOL    HW223583   1.895   3.341   6.864  2.9385 -0.8379 -0.5374
 3984SOL     OW23584   2.909   4.610   0.460 -0.5045 -0.1275 -0.3439
 3984SOL    HW123585   2.890   4.704   0.457 -0.5617 -0.1934 -2.7042
 3984SOL    HW223586   2.913   4.589   0.553 -1.0506 -4.6025 -1.3703
 3985SOL     OW23587   2.334   0.555   2.814 -0.3423  0.2514  0.5623
 3985SOL    HW123588   2.352   0.548   2.720 -1.5455  2.4424  0.1574
 3985SOL    HW223589   2.415   0.515   2.845 -0.2402  1.4595  1.8312
 3986SOL     OW23590   4.666   1.264   8.331  0.7541  0.8106 -0.1556
 3986SOL    HW123591   4.728   1.196   8.357 -1.9183 -1.1907  0.9681
 3986SOL    HW223592   4.693   1.292   8.244  1.2715  1.3113  0.1662
 3987SOL     OW23593   3.347   3.083  13.799  0.3236  0.4718 -0.1641
 3987SOL    HW123594   3.377   3.172  13.783  0.6469  0.3343 -0.3159
 3987SOL    HW223595   3.268   3.077  13.744  1.2958 -0.1687 -1.5066
 3988SOL     OW23596   3.744   0.769   5.222  0.6839 -0.5442 -0.4309
 3988SOL    HW123597   3.732   0.766   5.317  0.9629 -2.2452 -0.4415
 3988SOL    HW223598   3.827   0.813   5.203  0.1021  0.1896 -1.2503
 3989SOL     OW23599   2.822   2.728  15.956  0.1145 -0.3875 -0.3396
 3989SOL    HW123600   2.766   2.700  15.883 -0.0328  2.0414 -1.1686
 3989SOL    HW223601   2.797   2.820  15.959  0.7236 -0.0903 -4.0411
 3990SOL     OW23602   3.882   2.929   2.371  0.1760 -0.2589  0.5143
 3990SOL    HW123603   3.964   2.974   2.391 -1.5050  1.0563  4.5511
 3990SOL    HW223604   3.903   2.882   2.290 -1.3300 -0.1392  0.0444
 3991SOL     OW23605   2.926   0.755   8.315  0.1830 -0.1000  0.1696
 3991SOL    HW123606   2.992   0.818   8.345  0.1958 -0.2629  0.4839
 3991SOL    HW223607   2.853   0.776   8.372  0.2487 -0.0050  0.2191
 3992SOL     OW23608   3.925   4.394   1.485  0.0697 -0.0163 -0.1139
 3992SOL    HW123609   3.875   4.448   1.424 -0.1962  1.7906  1.7023
 3992SOL    HW223610   3.971   4.450   1.547  1.2743 -2.5262  1.2428
 3993SOL     OW23611   0.554   1.420   0.390 -0.2290 -0.5321 -0.3900
 3993SOL    HW123612   0.526   1.416   0.298 -0.9857  0.8237 -0.2152
 3993SOL    HW223613   0.649   1.420   0.373 -0.1999  0.9718 -0.2268
 3994SOL     OW23614   0.534   2.446   9.397  0.7024  0.2031 -0.2955
 3994SOL    HW123615   0.560   2.446   9.305  0.5500  0.1660 -0.3386
 3994SOL    HW223616   0.453   2.396   9.395 -0.7240  2.4611  0.6065
 3995SOL     OW23617   0.202   0.289  12.049 -0.0326  0.2507  0.2280
 3995SOL    HW123618   0.122   0.236  12.050 -0.6032  1.1453  2.0851
 3995SOL    HW223619   0.159   0.364  12.090 -0.6189  0.9245 -1.6338
 3996SOL     OW23620   2.650   1.529   9.021 -0.2321  0.7078  0.2661
 3996SOL    HW123621   2.745   1.541   9.013 -0.5038  2.2198 -0.7426
 3996SOL    HW223622   2.638   1.446   8.976  3.4663  1.8562 -2.8742
 3997SOL     OW23623   3.293   0.488   6.215 -0.0990 -0.0556  0.3628
 3997SOL    HW123624   3.383   0.516   6.233 -1.1299  1.3485  3.3348
 3997SOL    HW223625   3.294   0.396   6.243 -2.2608 -0.3051 -0.4452
 3998SOL     OW23626   0.006   4.049   2.790 -0.0491  0.4314  0.7117
 3998SOL    HW123627   4.662   4.044   2.842 -0.5739  0.2068 -0.1187
 3998SOL    HW223628   0.057   3.978   2.829  0.8674  1.7415  1.9033
 3999SOL     OW23629   1.754   2.353   6.100 -0.3800 -0.2133  0.4838
 3999SOL    HW123630   1.782   2.358   6.191 -0.2232 -0.4886  0.4497
 3999SOL    HW223631   1.830   2.372   6.046 -0.3273 -0.4128  0.4888
 4000SOL     OW23632   3.630   1.517   5.108  0.1949  0.8831  0.4094
 4000SOL    HW123633   3.601   1.480   5.191  0.6707 -1.1399 -0.3265
 4000SOL    HW223634   3.550   1.546   5.065 -0.4227 -2.0126 -0.4179
 4001SOL     OW23635   0.498   4.297   9.683 -0.1342  0.1245  0.1997
 4001SOL    HW123636   0.534   4.367   9.630  2.2415 -2.0548 -1.0450
 4001SOL    HW223637   0.531   4.224   9.631 -1.4167 -0.2795 -0.0550
 4002SOL     OW23638   1.345   3.522   6.263 -0.4048  0.1433  0.2233
 4002SOL    HW123639   1.335   3.591   6.198 -1.4009 -0.0060  0.2229
 4002SOL    HW223640   1.263   3.473   6.260 -0.1339 -0.1734 -2.3612
 4003SOL     OW23641   2.160   3.604   0.934 -0.0411 -0.2406 -0.2452
 4003SOL    HW123642   2.102   3.530   0.918 -2.0503  1.5075 -1.0598
 4003SOL    HW223643   2.137   3.655   0.856  2.6653 -0.1785 -0.9890
 4004SOL     OW23644   2.115   0.195   3.264  0.1004 -0.4509  0.6912
 4004SOL    HW123645   2.203   0.192   3.301  0.5845 -1.8191 -0.5693
 4004SOL    HW223646   2.068   0.139   3.325 -1.4054 -0.2353 -0.2788
 4005SOL     OW23647   2.524   2.348   3.910 -0.3043 -0.2830 -0.1525
 4005SOL    HW123648   2.475   2.421   3.947  1.2007  1.0049 -0.6792
 4005SOL    HW223649   2.481   2.275   3.954  1.0072  0.3626  2.1948
 4006SOL     OW23650   0.980   2.534   6.098  0.2366 -0.5305 -0.0759
 4006SOL    HW123651   0.918   2.462   6.100 -1.4258  0.8606 -1.6026
 4006SOL    HW223652   1.063   2.488   6.111  0.1868 -0.3831  0.7593
 4007SOL     OW23653   3.910   4.345  12.343  0.2730  0.2466  0.1483
 4007SOL    HW123654   3.837   4.341  12.281  0.1094 -0.5401  0.3834
 4007SOL    HW223655   3.946   4.432  12.326 -1.9546  0.9399 -1.0408
 4008SOL     OW23656   0.893   0.997   3.475  0.3176 -0.4357  0.3568
 4008SOL    HW123657   0.981   1.025   3.448 -0.5157  0.5428 -1.3263
 4008SOL    HW223658   0.905   0.985   3.569 -1.5353 -1.2265  0.4948
 4009SOL     OW23659   2.922   2.264   1.709  0.1304 -0.1599 -0.2872
 4009SOL    HW123660   2.911   2.213   1.789  0.9996  0.4922  0.2524
 4009SOL    HW223661   2.835   2.268   1.669  0.0917  1.1015 -0.1064
 4010SOL     OW23662   3.054   2.436   3.287 -0.3519  0.1293 -0.1877
 4010SOL    HW123663   3.114   2.476   3.223 -0.4802  2.0156  0.8506
 4010SOL    HW223664   3.026   2.514   3.335 -2.0632  0.4421 -1.7150
 4011SOL     OW23665   1.656   4.324   2.900  0.8073 -0.0264 -0.3036
 4011SOL    HW123666   1.580   4.285   2.856  0.7555  0.7126 -0.8577
 4011SOL    HW223667   1.725   4.275   2.856  1.0464  0.5158 -0.5225
 4012SOL     OW23668   2.978   3.841   1.365  0.0794  0.0835 -0.2057
 4012SOL    HW123669   2.930   3.825   1.284 -0.5032 -1.3653  0.4338
 4012SOL    HW223670   3.058   3.886   1.338 -0.4065 -0.0303 -1.7865
 4013SOL     OW23671   3.195   0.137   4.970 -0.4211  0.0311  0.1540
 4013SOL    HW123672   3.101   0.120   4.976 -0.0640 -1.3821  1.5241
 4013SOL    HW223673   3.203   0.226   4.935 -2.1278  0.5254  1.0299
 4014SOL     OW23674   2.863   0.254   8.986  0.2806 -0.2941  0.0745
 4014SOL    HW123675   2.932   0.191   9.004 -0.7848 -1.3898  0.3167
 4014SOL    HW223676   2.844   0.291   9.073  1.0701 -0.2277  0.2173
 4015SOL     OW23677   1.245   1.863   7.296 -0.2090  0.0134 -0.0377
 4015SOL    HW123678   1.205   1.869   7.383 -1.3606  1.1552 -0.6415
 4015SOL    HW223679   1.200   1.792   7.251  2.4375 -2.6630  1.4868
 4016SOL     OW23680   2.598   0.727   9.208  0.1107  0.5030  0.3431
 4016SOL    HW123681   2.642   0.672   9.272  0.6394  0.1475 -0.3284
 4016SOL    HW223682   2.538   0.662   9.172 -1.1323  0.4874  2.4414
 4017SOL     OW23683   2.971   0.353   4.685 -0.4625 -0.5029  0.6851
 4017SOL    HW123684   3.018   0.389   4.761  1.2637  0.2894 -0.7489
 4017SOL    HW223685   2.936   0.434   4.649  1.2132  1.0266  2.5002
 4018SOL     OW23686   0.798   4.170   2.048  0.2503 -0.0914  0.2269
 4018SOL    HW123687   0.833   4.108   1.985 -0.0594 -0.7511  0.7031
 4018SOL    HW223688   0.764   4.236   1.987 -0.1359 -1.3979 -0.9622
 4019SOL     OW23689   0.242   1.453   6.944 -0.1792 -0.1470  0.3069
 4019SOL    HW123690   0.188   1.519   6.987 -0.1940 -2.2266  3.4771
 4019SOL    HW223691   0.331   1.472   6.975  0.2489 -0.0334 -0.9882
 4020SOL     OW23692   2.020   4.628  17.444 -0.4763 -0.2287  0.0950
 4020SOL    HW123693   2.002   4.658  17.532  0.5842  3.1693 -0.8648
 4020SOL    HW223694   2.082   4.556  17.457 -2.0245 -1.7151 -0.6956
 4021SOL     OW23695   1.762   1.326   8.073  0.4943 -0.3514  0.1476
 4021SOL    HW123696   1.747   1.400   8.132 -1.0357 -1.7567  1.5309
 4021SOL    HW223697   1.853   1.310   8.097  0.1522 -0.1498  1.6106
 4022SOL     OW23698   0.999   4.728   7.860 -0.2206  0.1462 -0.5278
 4022SOL    HW123699   0.915   0.023   7.828  1.2904  2.3191 -2.3260
 4022SOL    HW223700   1.033   0.067   7.907 -1.6535  0.0087  0.7558
 4023SOL     OW23701   4.094   0.148   8.229 -0.4215 -0.4297 -0.2413
 4023SOL    HW123702   4.048   0.185   8.154 -1.4388  1.2583  1.1941
 4023SOL    HW223703   4.142   0.225   8.261 -3.2818  1.1484  0.2696
 4024SOL     OW23704   1.160   0.006   9.216 -0.3264 -0.3009  0.2970
 4024SOL    HW123705   1.190   0.030   9.304  1.4498  0.4662 -0.5251
 4024SOL    HW223706   1.083   4.690   9.239 -1.7153  1.9094  0.7718
 4025SOL     OW23707   3.384   2.631   7.878 -0.2074 -0.0320 -0.1999
 4025SOL    HW123708   3.374   2.688   7.801 -0.4690  0.6522  0.3423
 4025SOL    HW223709   3.351   2.547   7.847  1.2377 -0.9955  0.9058
 4026SOL     OW23710   4.310   4.299   7.350 -0.3831  0.1410 -0.8385
 4026SOL    HW123711   4.275   4.297   7.440 -1.6104  1.7632 -1.2806
 4026SOL    HW223712   4.343   4.389   7.344  2.5311 -0.9860 -1.2996
 4027SOL     OW23713   1.237   1.650   6.555  0.3356  0.5142 -0.0898
 4027SOL    HW123714   1.291   1.585   6.600 -0.3480 -0.6295 -0.9309
 4027SOL    HW223715   1.274   1.726   6.600 -0.2163  1.2349 -0.8594
 4028SOL     OW23716   2.968   4.106  10.597 -0.2440 -0.0587 -0.1215
 4028SOL    HW123717   3.019   4.025  10.600  0.1257  0.1909  0.3257
 4028SOL    HW223718   2.988   4.136  10.686  0.2953 -1.3059  0.1767
 4029SOL     OW23719   3.565   2.987   3.940  0.5392  0.7805 -0.0200
 4029SOL    HW123720   3.630   3.051   3.911 -0.5242  1.7686 -0.1933
 4029SOL    HW223721   3.603   2.960   4.023  1.8535  0.2704 -0.7814
 4030SOL     OW23722   1.431   0.900  17.335 -0.0260  0.1895 -0.2541
 4030SOL    HW123723   1.463   0.855  17.257  0.2599  1.0645 -0.6466
 4030SOL    HW223724   1.370   0.952  17.283 -1.7233 -2.3663 -0.7984
 4031SOL     OW23725   1.506   3.986  13.958  0.3350  0.5797 -0.6480
 4031SOL    HW123726   1.414   3.997  13.935  0.3131  1.0427 -0.3275
 4031SOL    HW223727   1.530   4.068  14.001 -1.2145  1.1073 -0.8045
 4032SOL     OW23728   0.583   1.689  12.222  0.3885  0.3773 -0.0306
 4032SOL    HW123729   0.558   1.667  12.311 -1.8223  3.1035  0.0017
 4032SOL    HW223730   0.556   1.781  12.215  0.4980  0.4812  1.0029
 4033SOL     OW23731   3.019   0.942  16.653  0.5545  0.0484 -0.4738
 4033SOL    HW123732   3.092   0.914  16.598 -0.2016  0.0800 -1.4856
 4033SOL    HW223733   3.031   1.037  16.655 -2.3637  0.4437 -1.6843
 4034SOL     OW23734   2.354   2.943   8.246 -0.1334 -0.5945  0.5855
 4034SOL    HW123735   2.305   3.025   8.237 -1.1989 -1.2975  0.1179
 4034SOL    HW223736   2.366   2.937   8.341 -1.7036  1.0917  0.8924
 4035SOL     OW23737   0.372   4.728  13.771 -0.0632  0.4339 -0.6170
 4035SOL    HW123738   0.428   4.726  13.849 -4.0524  0.0062  2.2297
 4035SOL    HW223739   0.424   4.665  13.720  0.1551  0.5986 -0.6004
 4036SOL     OW23740   1.182   4.468   7.244 -0.1226  0.6247 -0.1558
 4036SOL    HW123741   1.149   4.482   7.333  1.4260  1.2678  0.3249
 4036SOL    HW223742   1.104   4.463   7.189  0.0446 -0.9817 -0.2596
 4037SOL     OW23743   1.415   3.016  12.684  0.3156 -0.1100  0.0593
 4037SOL    HW123744   1.359   3.092  12.698 -0.5975 -0.6433 -0.6744
 4037SOL    HW223745   1.374   2.956  12.747 -0.5469  0.9887  0.5491
 4038SOL     OW23746   0.362   4.258   4.973  0.6605  0.3656 -0.1629
 4038SOL    HW123747   0.450   4.273   5.008  0.8231 -3.6767  1.1917
 4038SOL    HW223748   0.359   4.162   4.966 -1.1567  0.5266 -1.6281
 4039SOL     OW23749   1.454   0.452   7.892 -0.1128  0.2987 -0.6316
 4039SOL    HW123750   1.531   0.408   7.930 -3.1012 -0.8926  3.9984
 4039SOL    HW223751   1.449   0.405   7.809  0.7382  1.7435 -1.4961
 4040SOL     OW23752   0.893   3.352   1.978 -0.3601 -0.2850  0.7487
 4040SOL    HW123753   0.814   3.309   2.010 -0.2103  0.8926  2.7271
 4040SOL    HW223754   0.965   3.308   2.023  0.5501 -1.2118 -1.5982
 4041SOL     OW23755   0.022   2.990   2.491 -0.3931  0.2475 -1.2723
 4041SOL    HW123756   4.732   2.920   2.550  0.7058  0.8877 -0.0050
 4041SOL    HW223757   4.691   2.998   2.424  0.3026 -1.9510 -2.2348
 4042SOL     OW23758   4.172   2.676  11.696 -0.0356 -0.3969 -0.0220
 4042SOL    HW123759   4.194   2.766  11.722 -0.3728  0.6515 -3.3451
 4042SOL    HW223760   4.144   2.693  11.607 -0.2541 -2.0074 -0.2562
 4043SOL     OW23761   2.273   4.015   0.970 -0.9164  0.0087  0.4868
 4043SOL    HW123762   2.236   4.068   1.040 -0.4567  0.5562  0.3161
 4043SOL    HW223763   2.200   3.963   0.937  0.1037  0.3465 -2.3372
 4044SOL     OW23764   3.202   2.776   8.020  0.3753  0.6777 -0.3257
 4044SOL    HW123765   3.246   2.851   8.059  0.7944 -1.5988  3.6253
 4044SOL    HW223766   3.284   2.729   8.004 -0.0081 -0.0498 -0.1886
 4045SOL     OW23767   2.201   1.067   2.439 -0.2777  0.1094 -0.0367
 4045SOL    HW123768   2.105   1.067   2.433 -0.3611 -5.1667  1.4698
 4045SOL    HW223769   2.222   1.087   2.348  2.7710 -0.0925  0.6100
 4046SOL     OW23770   3.752   4.194   8.757 -0.1016  0.0493  0.3844
 4046SOL    HW123771   3.834   4.161   8.720  0.1786 -1.2949  2.2125
 4046SOL    HW223772   3.779   4.277   8.796  3.8824 -0.5318 -1.0779
 4047SOL     OW23773   0.813   3.770  11.794  0.0303 -0.1806  0.6437
 4047SOL    HW123774   0.861   3.758  11.712  0.0011 -0.0388  0.6056
 4047SOL    HW223775   0.724   3.784  11.760  0.5311  0.1991 -0.5121
 4048SOL     OW23776   1.079   4.543   8.454 -0.2685 -0.0637  0.0077
 4048SOL    HW123777   1.007   4.498   8.498  0.2959 -0.3330  0.6633
 4048SOL    HW223778   1.123   4.562   8.537 -0.8929 -2.3979  0.8678
 4049SOL     OW23779   2.868   3.567   8.816  0.2434  0.3588  0.5715
 4049SOL    HW123780   2.775   3.575   8.797  0.3117 -1.2327 -0.4027
 4049SOL    HW223781   2.865   3.584   8.911 -1.0045  0.7768  0.4577
 4050SOL     OW23782   0.933   3.464   6.725 -0.2662 -0.1525 -0.1541
 4050SOL    HW123783   0.843   3.491   6.703  0.3518  0.5840 -1.8338
 4050SOL    HW223784   0.917   3.383   6.773  0.6074  0.1033  0.5620
 4051SOL     OW23785   2.105   4.459   4.036  0.3458 -0.2044 -0.8511
 4051SOL    HW123786   2.124   4.479   4.127 -0.9115  1.7270 -1.0210
 4051SOL    HW223787   2.109   4.364   4.023 -3.0697 -0.4548 -0.2410
 4052SOL     OW23788   1.017   2.524   8.407  0.2135  0.0206  0.1388
 4052SOL    HW123789   1.032   2.609   8.447  0.5598  0.7817 -1.6161
 4052SOL    HW223790   1.089   2.476   8.448 -2.3443 -3.0183  1.0625
 4053SOL     OW23791   1.374   1.838  17.643  0.4077  0.1146  0.1935
 4053SOL    HW123792   1.430   1.916  17.646 -1.6971  1.6178  0.5543
 4053SOL    HW223793   1.287   1.866  17.673  0.2550  1.8285 -1.9019
 4054SOL     OW23794   3.350   0.779  15.637  0.2920 -0.5963 -0.1415
 4054SOL    HW123795   3.321   0.869  15.623  1.1317 -0.1575  0.8863
 4054SOL    HW223796   3.282   0.743  15.694  0.3890 -2.8964 -1.4710
 4055SOL     OW23797   3.357   1.317   6.933  0.1294 -0.2988 -0.3278
 4055SOL    HW123798   3.405   1.247   6.889 -0.5293 -0.3314 -1.0064
 4055SOL    HW223799   3.335   1.379   6.864 -0.0333  0.1482  0.1286
 4056SOL     OW23800   4.694   0.108   3.559 -0.1522  0.1451 -0.1181
 4056SOL    HW123801   0.036   0.150   3.525 -0.1631  0.2538 -0.0101
 4056SOL    HW223802   4.702   0.016   3.532 -1.8632 -0.3851  1.1951
 4057SOL     OW23803   2.971   4.613   3.720  0.1252  0.8557  0.4968
 4057SOL    HW123804   3.009   4.592   3.635  0.8731  2.6199  0.3968
 4057SOL    HW223805   2.941   4.701   3.697  0.1155  0.7506  0.1161
 4058SOL     OW23806   3.187   2.022   2.551  0.0073  0.0405  0.4140
 4058SOL    HW123807   3.214   1.996   2.462  2.2651 -1.0918  1.4117
 4058SOL    HW223808   3.095   2.036   2.531 -0.0385  2.0693  2.0405
 4059SOL     OW23809   3.257   0.336  14.836  0.0208  0.1514  0.2671
 4059SOL    HW123810   3.307   0.363  14.759  0.6244  0.8588  0.9245
 4059SOL    HW223811   3.325   0.292  14.886  0.3104  1.1871  0.7771
 4060SOL     OW23812   2.262   2.057   7.764  0.2611 -0.2533  0.0988
 4060SOL    HW123813   2.322   2.109   7.710 -0.2797 -0.2615 -0.5087
 4060SOL    HW223814   2.208   2.134   7.779  1.8501  0.8810 -0.0435
 4061SOL     OW23815   1.014   2.913   6.885 -0.6239  0.2579 -0.0842
 4061SOL    HW123816   1.082   2.980   6.893  0.7546 -1.0572 -0.9544
 4061SOL    HW223817   1.016   2.889   6.793 -0.2651  0.2547 -0.0764
 4062SOL     OW23818   2.579   3.573   2.463  0.0173  0.4481  0.1141
 4062SOL    HW123819   2.515   3.629   2.419 -0.8366 -1.1866 -0.7118
 4062SOL    HW223820   2.658   3.627   2.467 -0.5039  1.2881 -0.9068
 4063SOL     OW23821   4.401   2.981   5.599 -0.1006 -0.1789  0.8155
 4063SOL    HW123822   4.343   3.036   5.651 -2.4720 -0.3199 -1.6538
 4063SOL    HW223823   4.370   2.894   5.622  0.3318 -0.2458  1.1501
 4064SOL     OW23824   4.252   2.020   9.043  0.2043  0.0154  0.4157
 4064SOL    HW123825   4.332   2.028   9.095 -0.9078 -0.6638  2.2220
 4064SOL    HW223826   4.180   2.054   9.097  0.4303  1.1667 -0.0122
 4065SOL     OW23827   4.375   1.504   3.994  0.0481  0.6500  0.1338
 4065SOL    HW123828   4.392   1.416   4.028 -2.4097 -0.0309 -0.4125
 4065SOL    HW223829   4.364   1.482   3.901  1.1624  3.2377 -0.5931
 4066SOL     OW23830   4.333   1.921   6.250 -0.5170  0.2792 -0.2498
 4066SOL    HW123831   4.356   2.000   6.201 -2.8425  1.0390 -0.1465
 4066SOL    HW223832   4.265   1.962   6.304 -0.2129 -0.6889  0.8777
 4067SOL     OW23833   1.693   1.438  10.256  0.7580  0.3948  0.0566
 4067SOL    HW123834   1.696   1.354  10.212 -2.6603  1.0535 -1.4324
 4067SOL    HW223835   1.641   1.487  10.193  0.8137  2.1353  1.3458
 4068SOL     OW23836   3.255   2.095   5.080 -0.3737  0.2234  0.1477
 4068SOL    HW123837   3.217   2.130   4.999  0.2052  1.9266  0.6204
 4068SOL    HW223838   3.233   2.003   5.065  1.9149 -0.2096 -0.4168
 4069SOL     OW23839   1.412   3.749   1.878 -0.0520  0.2323  0.2850
 4069SOL    HW123840   1.433   3.727   1.787  1.0072  1.3305  0.2605
 4069SOL    HW223841   1.317   3.753   1.872  0.0537 -1.0612 -2.1248
 4070SOL     OW23842   0.203   0.282   6.363  0.4812  0.1066  0.3646
 4070SOL    HW123843   0.128   0.282   6.304  0.0317  2.4429  0.9544
 4070SOL    HW223844   0.188   0.202   6.414  0.1890  0.4348  0.8025
 4071SOL     OW23845   2.146   3.003   4.119  0.1984  0.3351 -0.2034
 4071SOL    HW123846   2.165   3.032   4.208 -1.7812  0.9682  0.0190
 4071SOL    HW223847   2.054   2.992   4.144  0.1247  1.4612  0.0279
 4072SOL     OW23848   2.396   0.304   1.734  0.5734  0.4651 -0.5713
 4072SOL    HW123849   2.373   0.345   1.818  1.2372  0.1077 -0.2157
 4072SOL    HW223850   2.462   0.369   1.712 -3.4421  3.7176 -2.8267
 4073SOL     OW23851   2.738   3.219  11.174 -0.1067  0.2262  0.1226
 4073SOL    HW123852   2.782   3.236  11.258  1.0101 -1.6708 -0.0778
 4073SOL    HW223853   2.722   3.307  11.139  1.3722  1.0682  1.5584
 4074SOL     OW23854   2.787   3.300   9.442  0.3457 -0.2475  0.3329
 4074SOL    HW123855   2.801   3.308   9.348  2.0727 -0.4848  0.5792
 4074SOL    HW223856   2.829   3.216   9.462  1.7147  0.0824 -1.1308
 4075SOL     OW23857   0.902   4.449   4.658 -0.4661  0.2981 -0.0622
 4075SOL    HW123858   0.938   4.394   4.727  0.0199 -2.1697 -2.3058
 4075SOL    HW223859   0.838   4.503   4.704 -1.3687 -1.6465  0.9481
 4076SOL     OW23860   2.160   0.282  11.507  0.1880 -0.1432 -0.2210
 4076SOL    HW123861   2.235   0.319  11.555  0.9174 -1.4459 -0.3594
 4076SOL    HW223862   2.163   0.188  11.522  2.8637 -0.3022 -1.7433
 4077SOL     OW23863   3.443   2.265   7.032  0.1784  0.0960  0.3055
 4077SOL    HW123864   3.531   2.295   7.013 -1.0642  1.6628 -3.0339
 4077SOL    HW223865   3.413   2.240   6.945  0.7993  1.3511 -0.2681
 4078SOL     OW23866   2.057   0.834   4.141 -0.6268 -0.0933 -0.4088
 4078SOL    HW123867   2.044   0.854   4.233  1.6164 -0.4459 -0.0230
 4078SOL    HW223868   1.971   0.794   4.129 -0.9315 -0.2716  2.4780
 4079SOL     OW23869   4.077   2.971   6.257  0.0220  0.3937 -0.8208
 4079SOL    HW123870   4.033   3.013   6.331 -1.4714  2.2409 -2.7429
 4079SOL    HW223871   4.148   2.929   6.305 -0.0532  0.3731 -0.7279
 4080SOL     OW23872   2.825   0.954   4.380  0.3468 -0.0878  0.0219
 4080SOL    HW123873   2.914   0.985   4.360  0.2484  0.1491 -0.0355
 4080SOL    HW223874   2.772   0.957   4.301  3.1571 -0.4344 -1.8909
 4081SOL     OW23875   1.512   3.699   0.955  0.0398 -0.8541  0.0122
 4081SOL    HW123876   1.505   3.778   0.901 -0.2065  1.0419  2.8190
 4081SOL    HW223877   1.606   3.681   0.957  0.5238  1.6090 -0.3598
 4082SOL     OW23878   3.406   3.915   2.869 -0.1590  0.0961 -0.1954
 4082SOL    HW123879   3.369   3.942   2.784  0.5831  3.3708  0.5082
 4082SOL    HW223880   3.500   3.932   2.864 -0.2460  0.4559 -0.7290
 4083SOL     OW23881   1.202   4.416   6.095 -0.2432 -0.1240 -0.4949
 4083SOL    HW123882   1.143   4.490   6.110 -0.0191 -0.7290  3.3973
 4083SOL    HW223883   1.213   4.411   6.000 -0.5928 -2.0705 -0.4325
 4084SOL     OW23884   1.312   2.435  11.569  0.0640 -0.2703  0.0681
 4084SOL    HW123885   1.311   2.346  11.532  1.6936 -0.4128  0.3795
 4084SOL    HW223886   1.342   2.491  11.498  0.7615 -0.3046  0.3349
 4085SOL     OW23887   4.070   3.789   8.223  0.3357 -0.1638 -0.0325
 4085SOL    HW123888   4.068   3.878   8.257 -0.4988 -0.8706  1.8061
 4085SOL    HW223889   4.084   3.737   8.302  2.8043  0.4689 -0.0506
 4086SOL     OW23890   0.409   0.688   9.206 -0.8336  0.1426  0.4477
 4086SOL    HW123891   0.443   0.673   9.118 -1.3817 -1.4699  0.5230
 4086SOL    HW223892   0.452   0.772   9.226 -2.5384  0.3005  3.4117
 4087SOL     OW23893   3.374   1.817   5.278 -0.2266  0.2406 -0.1175
 4087SOL    HW123894   3.445   1.861   5.325 -1.2478  0.2309  1.4314
 4087SOL    HW223895   3.413   1.778   5.200 -0.1794 -0.3476  0.2013
 4088SOL     OW23896   0.160   0.357   0.692  0.3206 -0.1162  0.2074
 4088SOL    HW123897   0.239   0.319   0.729  0.7455  0.4501 -0.1180
 4088SOL    HW223898   0.110   0.276   0.688 -2.4108  1.7126 -3.1368
 4089SOL     OW23899   1.148   1.772   5.828 -0.3607  0.2702  0.2059
 4089SOL    HW123900   1.141   1.705   5.759  0.8599 -1.4795  1.8010
 4089SOL    HW223901   1.084   1.841   5.810 -1.5985 -1.3946 -1.7717
 4090SOL     OW23902   1.757   4.419   6.409 -0.3200  0.1206 -0.2245
 4090SOL    HW123903   1.685   4.466   6.366 -1.4939 -0.6154  0.9065
 4090SOL    HW223904   1.812   4.494   6.430 -1.2096  0.3774  1.1737
 4091SOL     OW23905   1.303   2.124   4.195  0.0216  0.1217 -0.5603
 4091SOL    HW123906   1.297   2.178   4.274  2.0042  0.5001 -0.6563
 4091SOL    HW223907   1.210   2.112   4.175 -0.3148  1.6824  0.0231
 4092SOL     OW23908   2.373   2.129   3.774 -0.7504 -0.3016 -0.2208
 4092SOL    HW123909   2.358   2.105   3.683 -1.9714 -1.6534  0.3399
 4092SOL    HW223910   2.468   2.134   3.782 -0.5368  0.2789 -3.1848
 4093SOL     OW23911   0.385   0.722   3.762 -0.4341 -0.4678 -0.2520
 4093SOL    HW123912   0.360   0.812   3.782 -1.5766 -1.1136  1.1897
 4093SOL    HW223913   0.336   0.709   3.680 -1.4939 -0.3051  0.3560
 4094SOL     OW23914   2.668   2.414   1.805 -0.0433 -0.2057 -0.4536
 4094SOL    HW123915   2.615   2.492   1.822  0.2987 -0.2177  0.7254
 4094SOL    HW223916   2.674   2.412   1.710  1.8331  0.7595 -0.3589
 4095SOL     OW23917   2.906   2.268   5.455  0.3829  0.4544 -0.0925
 4095SOL    HW123918   2.832   2.210   5.439  0.6927 -0.3045  1.2075
 4095SOL    HW223919   2.948   2.266   5.369  1.9846  0.6349  0.6816
 4096SOL     OW23920   3.728   2.500  13.477  0.6865 -0.7822 -0.5147
 4096SOL    HW123921   3.663   2.547  13.531 -0.2502 -1.6564 -0.8709
 4096SOL    HW223922   3.728   2.562  13.405  1.2718  0.9415  0.9610
 4097SOL     OW23923   3.576   0.867   6.407 -0.3155  0.1986 -1.0239
 4097SOL    HW123924   3.559   0.960   6.391 -0.5038  0.2946 -0.2514
 4097SOL    HW223925   3.523   0.855   6.486  1.9949 -0.3762  0.4577
 4098SOL     OW23926   3.127   2.562  14.617 -0.2735 -0.3093  0.1342
 4098SOL    HW123927   3.118   2.606  14.532 -5.2082 -2.9062 -0.6673
 4098SOL    HW223928   3.051   2.505  14.625 -1.5991  1.7068  2.1697
 4099SOL     OW23929   0.978   1.021   0.263  0.1625  0.1985 -0.0470
 4099SOL    HW123930   1.029   0.944   0.289 -0.9728  0.1103  1.8794
 4099SOL    HW223931   0.931   1.040   0.344 -2.0932  2.7131 -1.9764
 4100SOL     OW23932   4.522   1.125  11.413 -0.0372 -0.2850  0.5715
 4100SOL    HW123933   4.516   1.032  11.391 -1.4495 -0.2466  0.8013
 4100SOL    HW223934   4.430   1.151  11.407  0.0751  0.2980  1.4592
 4101SOL     OW23935   0.304   0.617  12.192  0.6162 -0.0837 -0.3008
 4101SOL    HW123936   0.216   0.588  12.168  0.6699  0.2087 -0.8496
 4101SOL    HW223937   0.351   0.534  12.200  0.8322 -0.1689 -2.5205
 4102SOL     OW23938   3.872   1.102   5.649 -0.5669 -0.1739  0.4643
 4102SOL    HW123939   3.908   1.185   5.617 -0.2156 -0.4082  0.2577
 4102SOL    HW223940   3.918   1.091   5.732  1.3177  0.4977 -0.4946
 4103SOL     OW23941   2.508   3.285   7.731  0.2357  0.1650 -0.6049
 4103SOL    HW123942   2.432   3.317   7.781  0.5260  0.9322 -0.6486
 4103SOL    HW223943   2.465   3.298   7.647 -1.2389 -1.7308 -0.1348
 4104SOL     OW23944   0.632   1.612  13.218  0.0474  0.2750  0.3689
 4104SOL    HW123945   0.603   1.625  13.308  2.2088  0.1009  1.0894
 4104SOL    HW223946   0.619   1.517  13.218 -1.5024  0.4903  0.9221
 4105SOL     OW23947   3.487   4.672   8.017 -0.5692  0.0830 -0.3594
 4105SOL    HW123948   3.446   0.008   8.064 -0.2561  0.8014 -1.2019
 4105SOL    HW223949   3.538   4.640   8.091  0.4439  2.3311 -0.0926
 4106SOL     OW23950   3.390   2.730  10.700  0.2696  0.0799  0.3914
 4106SOL    HW123951   3.391   2.642  10.664 -2.8464  0.2296 -0.0802
 4106SOL    HW223952   3.385   2.707  10.793  1.2770  0.9384  0.6559
 4107SOL     OW23953   0.260   4.610   2.992 -0.3990  0.0946 -0.1136
 4107SOL    HW123954   0.217   4.627   2.908 -0.6575 -0.3038 -0.0610
 4107SOL    HW223955   0.306   4.529   2.972  0.8758  1.2676 -2.0120
 4108SOL     OW23956   0.979   1.422   6.259  0.0145  0.2754  0.7325
 4108SOL    HW123957   1.057   1.478   6.266  0.4802 -0.3321  0.4741
 4108SOL    HW223958   0.997   1.406   6.166 -0.7599 -1.5418  0.8889
 4109SOL     OW23959   3.035   4.287  14.083 -0.8308 -0.1977  0.2210
 4109SOL    HW123960   3.016   4.261  13.993  1.5394  0.0459 -0.3270
 4109SOL    HW223961   2.944   4.294  14.115 -1.1259 -1.4658 -0.3230
 4110SOL     OW23962   0.070   2.223   5.195  0.1290  0.1713 -0.1331
 4110SOL    HW123963   0.085   2.129   5.183  0.7180  0.2438  0.0176
 4110SOL    HW223964   4.718   2.233   5.162  0.1428 -0.2285 -0.2968
 4111SOL     OW23965   4.082   1.118   7.490 -0.0974 -0.1066  0.3315
 4111SOL    HW123966   4.070   1.032   7.528 -2.0544 -0.0620 -0.1920
 4111SOL    HW223967   4.146   1.160   7.547 -1.0781 -0.8678  1.9764
 4112SOL     OW23968   3.934   4.461  10.621 -0.1529  0.2786 -0.0805
 4112SOL    HW123969   3.991   4.390  10.652  0.4854 -0.3683 -2.7988
 4112SOL    HW223970   3.860   4.400  10.613  1.3613 -1.6493  0.4968
 4113SOL     OW23971   2.381   0.414  12.568  0.5718 -0.3939 -0.1706
 4113SOL    HW123972   2.383   0.467  12.487  0.0370  1.6218  1.1283
 4113SOL    HW223973   2.473   0.390  12.572 -0.2665 -3.3930  1.1394
 4114SOL     OW23974   2.376   1.678   1.473 -0.6903 -0.4502 -0.3361
 4114SOL    HW123975   2.463   1.654   1.441 -0.6472  0.3185 -0.7796
 4114SOL    HW223976   2.343   1.706   1.388  2.4358 -0.8402 -1.6716
 4115SOL     OW23977   2.249   2.322   8.712 -0.0825  0.4466  0.0149
 4115SOL    HW123978   2.232   2.300   8.804  0.0143 -0.6067 -0.2195
 4115SOL    HW223979   2.241   2.417   8.719  0.9875  0.5996 -0.8530
 4116SOL     OW23980   0.464   4.538  15.026  0.3543 -0.1927  0.1099
 4116SOL    HW123981   0.492   4.517  15.115 -1.3137 -2.2777  0.1534
 4116SOL    HW223982   0.538   4.588  14.991  1.1353 -2.2344 -1.1453
 4117SOL     OW23983   3.121   2.231   4.569  0.0893  0.2171  0.2492
 4117SOL    HW123984   3.083   2.218   4.482  0.1741 -3.9006  0.8092
 4117SOL    HW223985   3.184   2.159   4.564 -0.7570 -0.5017 -0.0907
 4118SOL     OW23986   1.309   0.128   3.171 -0.1164  0.1055 -0.1602
 4118SOL    HW123987   1.338   0.141   3.080 -0.1480  1.2321 -0.0182
 4118SOL    HW223988   1.397   0.125   3.210 -0.2900 -0.2919  0.1939
 4119SOL     OW23989   2.162   2.435   6.211 -0.3628  0.5406 -0.2555
 4119SOL    HW123990   2.154   2.353   6.163  0.4844 -1.2502  2.6591
 4119SOL    HW223991   2.179   2.403   6.300 -1.8757  0.4266 -0.0220
 4120SOL     OW23992   0.854   0.359   3.323 -0.5981 -0.3362  0.9574
 4120SOL    HW123993   0.838   0.453   3.316 -1.0617 -0.3788  1.4920
 4120SOL    HW223994   0.938   0.342   3.280 -0.6131  3.7133 -0.7193
 4121SOL     OW23995   4.660   0.198  11.993  0.3499 -0.1324  0.0970
 4121SOL    HW123996   4.612   0.116  11.979  0.1405  0.1764 -0.9315
 4121SOL    HW223997   4.653   0.205  12.089 -2.6800  0.3317 -0.1685
 4122SOL     OW23998   0.923   0.840   9.406 -0.1579 -0.6995 -0.1583
 4122SOL    HW123999   0.941   0.926   9.369  0.7548 -1.2221 -0.9124
 4122SOL    HW224000   1.010   0.831   9.445 -0.6450  1.0222  1.3357
 4123SOL     OW24001   3.693   4.189   3.225 -0.0872 -0.3854 -0.4779
 4123SOL    HW124002   3.657   4.206   3.138 -1.6770 -1.4691 -0.0309
 4123SOL    HW224003   3.783   4.164   3.209  0.0008 -0.1589 -0.3407
 4124SOL     OW24004   2.470   0.018  11.573  0.3610 -0.2505  0.2259
 4124SOL    HW124005   2.391   0.025  11.626  0.3994  3.1527 -0.1664
 4124SOL    HW224006   2.438   0.058  11.492 -2.4760  0.8457  1.9189
 4125SOL     OW24007   2.904   0.303   7.099  0.3325  0.6358  0.3836
 4125SOL    HW124008   2.925   0.217   7.061  0.2247  0.8121 -0.0738
 4125SOL    HW224009   2.815   0.330   7.077 -0.1683 -0.1375  1.4603
 4126SOL     OW24010   4.057   3.681   9.426 -0.0230 -0.0011  0.2731
 4126SOL    HW124011   4.123   3.621   9.389 -0.2894  0.8487 -1.5857
 4126SOL    HW224012   3.994   3.686   9.354  1.4540 -3.1352 -1.2750
 4127SOL     OW24013   3.161   0.121  15.980  0.5849 -0.2554  0.0153
 4127SOL    HW124014   3.081   0.069  15.977  1.2100 -1.2787  1.1545
 4127SOL    HW224015   3.155   0.154  15.890 -0.0518 -0.6125 -0.0688
 4128SOL     OW24016   0.609   3.804  15.678 -0.7280 -0.6190 -0.0652
 4128SOL    HW124017   0.612   3.716  15.714  1.3428 -1.2254 -1.7426
 4128SOL    HW224018   0.679   3.806  15.613 -1.7932 -0.4767 -1.2109
 4129SOL     OW24019   1.641   1.038  14.455  0.4760  0.4540  0.2723
 4129SOL    HW124020   1.590   1.095  14.396 -2.6422 -3.1079 -0.4975
 4129SOL    HW224021   1.593   1.055  14.536 -1.3182 -0.2481 -0.6240
 4130SOL     OW24022   2.525   2.783  11.538  0.1351 -0.1073 -0.5366
 4130SOL    HW124023   2.544   2.867  11.581  0.9583 -0.6051  0.0666
 4130SOL    HW224024   2.602   2.737  11.572  0.5346 -0.9828 -2.6599
 4131SOL     OW24025   1.231   4.486   2.430 -0.5938 -0.3143 -0.9248
 4131SOL    HW124026   1.308   4.431   2.442 -1.4870 -1.1234  1.0498
 4131SOL    HW224027   1.192   4.475   2.516 -3.1333  0.7644 -1.9254
 4132SOL     OW24028   4.409   1.236   4.121  0.1761 -0.7625  0.1389
 4132SOL    HW124029   4.373   1.169   4.179  0.6929 -0.1220  1.1955
 4132SOL    HW224030   4.491   1.189   4.105  0.4943 -0.1121 -0.1440
 4133SOL     OW24031   1.104   2.780  15.024  0.1029  0.8050 -0.0234
 4133SOL    HW124032   1.191   2.820  15.031  0.1731  0.7453 -0.5623
 4133SOL    HW224033   1.057   2.841  14.967 -0.8419  1.9063  1.9493
 4134SOL     OW24034   0.642   3.837   8.031  0.1934 -0.0230 -0.8048
 4134SOL    HW124035   0.563   3.832   8.085  1.5132  1.5397  1.3159
 4134SOL    HW224036   0.706   3.795   8.088 -1.7305 -0.3773  1.1071
 4135SOL     OW24037   1.866   0.958   3.423 -0.4507  0.5257  0.1583
 4135SOL    HW124038   1.854   0.873   3.465  0.3434 -0.0366 -0.7256
 4135SOL    HW224039   1.960   0.969   3.435  0.0896 -1.1199 -2.5141
 4136SOL     OW24040   3.169   3.210   5.726 -0.3019 -0.4338  0.0554
 4136SOL    HW124041   3.096   3.154   5.753  1.0388 -1.2175  2.0925
 4136SOL    HW224042   3.221   3.218   5.806 -1.3823  0.0717  0.7123
 4137SOL     OW24043   3.089   2.768   8.388  0.3849  0.3080  0.1059
 4137SOL    HW124044   3.039   2.705   8.335  3.7522 -1.0788 -1.4867
 4137SOL    HW224045   3.180   2.738   8.378  0.1712 -0.7880  1.4103
 4138SOL     OW24046   4.224   1.525   5.636 -0.8421  0.2672  0.3209
 4138SOL    HW124047   4.292   1.527   5.703  0.4964 -0.7042 -1.0094
 4138SOL    HW224048   4.206   1.617   5.620  1.3760  0.7652  0.6696
 4139SOL     OW24049   2.071   4.135  12.589 -0.4745  0.0784 -0.2380
 4139SOL    HW124050   1.989   4.178  12.614 -1.0070 -0.7112 -0.6222
 4139SOL    HW224051   2.051   4.042  12.580 -1.1918  0.3299 -1.2573
 4140SOL     OW24052   1.507   3.533  16.491 -0.1051 -0.1687 -0.1943
 4140SOL    HW124053   1.475   3.605  16.545  1.7582  1.2283 -0.9237
 4140SOL    HW224054   1.551   3.482  16.559  2.7981 -0.2688 -2.1511
 4141SOL     OW24055   3.027   3.230   9.203 -0.9114  0.0305 -0.1693
 4141SOL    HW124056   2.978   3.229   9.121  1.2381  2.2707 -1.5132
 4141SOL    HW224057   3.078   3.149   9.201 -0.0370  0.6203 -2.0195
 4142SOL     OW24058   3.121   4.357   6.862  0.5628  0.5476  0.5165
 4142SOL    HW124059   3.186   4.405   6.913  0.1159 -0.4075  1.9661
 4142SOL    HW224060   3.099   4.280   6.913  0.4948 -1.9601 -3.2724
 4143SOL     OW24061   2.364   4.055  13.243  0.4687 -0.4916 -0.2389
 4143SOL    HW124062   2.434   3.992  13.263  2.1181  1.4669  0.1129
 4143SOL    HW224063   2.383   4.113  13.317 -4.7207  0.0858  0.6527
 4144SOL     OW24064   3.805   3.788   4.092  0.0083 -0.4151 -0.3239
 4144SOL    HW124065   3.842   3.759   4.175  1.5410  0.6389 -0.6448
 4144SOL    HW224066   3.772   3.872   4.123  0.0364 -0.1030 -1.1420
 4145SOL     OW24067   4.494   1.811   9.237 -0.4352  0.1235  0.4229
 4145SOL    HW124068   4.437   1.882   9.266  0.2584  1.4514 -1.4670
 4145SOL    HW224069   4.493   1.756   9.315  1.5682  0.4584  0.6844
 4146SOL     OW24070   2.370   0.090   0.375  0.4352 -0.0203  0.4111
 4146SOL    HW124071   2.412   0.086   0.461  0.2955  0.8146  0.5159
 4146SOL    HW224072   2.391   0.180   0.349  0.6054 -0.4733 -1.0586
 4147SOL     OW24073   0.688   3.938   9.550  0.0568 -0.2724  0.3662
 4147SOL    HW124074   0.720   4.026   9.530 -0.7956 -0.7805 -3.1132
 4147SOL    HW224075   0.618   3.941   9.485  0.3886 -0.3919  0.0008
 4148SOL     OW24076   2.708   0.001   7.158 -0.3247  0.6589 -0.0656
 4148SOL    HW124077   2.618   0.016   7.131 -0.5700 -2.2230 -0.9139
 4148SOL    HW224078   2.710   4.721   7.252  1.7330 -0.0203 -0.2295
 4149SOL     OW24079   3.994   3.233   8.921 -0.0921  0.9212  0.0170
 4149SOL    HW124080   3.945   3.285   8.857  1.6751  1.3587 -0.9824
 4149SOL    HW224081   3.923   3.193   8.969 -0.4991 -1.1131 -2.2914
 4150SOL     OW24082   3.582   0.326   6.203  0.1115  0.0469 -0.0720
 4150SOL    HW124083   3.591   0.263   6.275 -3.1789 -1.2516 -0.7811
 4150SOL    HW224084   3.605   0.404   6.253 -2.1506 -0.7010  2.1547
 4151SOL     OW24085   2.672   1.374   2.734 -0.0367  0.0409 -0.1833
 4151SOL    HW124086   2.746   1.417   2.691 -0.0905 -0.7104 -1.0320
 4151SOL    HW224087   2.714   1.329   2.808 -0.5487  1.2064  0.8275
 4152SOL     OW24088   2.213   1.389  13.278 -0.4518  0.5693 -0.2576
 4152SOL    HW124089   2.220   1.433  13.193  0.7319 -2.2467 -1.6241
 4152SOL    HW224090   2.124   1.358  13.262 -0.1579 -0.9429  1.0656
 4153SOL     OW24091   3.583   3.166   8.633 -0.4076 -0.8292  0.3857
 4153SOL    HW124092   3.630   3.084   8.648  0.1289 -0.6714 -0.4596
 4153SOL    HW224093   3.504   3.146   8.683 -0.1940 -2.4799  0.0540
 4154SOL     OW24094   4.209   0.032   6.419  0.2560  0.2288 -0.2679
 4154SOL    HW124095   4.153   0.064   6.348 -0.6456  0.8506  0.7397
 4154SOL    HW224096   4.157   4.699   6.457 -4.1962  2.8423 -1.6074
 4155SOL     OW24097   2.559   1.269   5.420 -0.0946  0.2192  0.2127
 4155SOL    HW124098   2.644   1.312   5.424  1.5356 -3.0081 -0.0297
 4155SOL    HW224099   2.529   1.300   5.335  0.2127  1.6096  0.6061
 4156SOL     OW24100   3.051   1.634   1.815 -0.6017  0.0788  0.1960
 4156SOL    HW124101   3.104   1.670   1.886  0.8256  1.5472 -1.6083
 4156SOL    HW224102   2.969   1.602   1.853 -1.2777  0.9450 -0.5136
 4157SOL     OW24103   2.693   0.294   4.876 -0.4333 -0.4594 -0.1627
 4157SOL    HW124104   2.716   0.375   4.920 -0.2111 -0.2501 -0.6686
 4157SOL    HW224105   2.611   0.280   4.924  0.5281 -1.9574  1.0643
 4158SOL     OW24106   3.774   0.991   7.169  0.1358  0.5849  0.5234
 4158SOL    HW124107   3.707   1.042   7.214 -0.9458 -0.2354 -0.1643
 4158SOL    HW224108   3.850   1.045   7.192  0.9002 -1.6304  3.0845
 4159SOL     OW24109   1.682   3.773  15.136 -0.6005 -0.4053  0.2770
 4159SOL    HW124110   1.598   3.819  15.140  0.0583  0.8892 -0.7760
 4159SOL    HW224111   1.734   3.818  15.203 -1.3036  0.1733  0.4412
 4160SOL     OW24112   3.412   2.841   7.150 -0.0752  0.3093 -0.6580
 4160SOL    HW124113   3.335   2.898   7.150 -0.7890 -0.6662  0.7593
 4160SOL    HW224114   3.369   2.763   7.186 -0.9098  0.7769 -0.6287
 4161SOL     OW24115   1.203   3.913  13.142 -0.2302 -0.4421 -0.7178
 4161SOL    HW124116   1.244   3.827  13.153 -0.2272 -0.2495  0.7550
 4161SOL    HW224117   1.110   3.894  13.127  0.0612 -2.2313 -0.2833
 4162SOL     OW24118   4.179   1.197   8.404 -0.2976  0.3270  0.4320
 4162SOL    HW124119   4.237   1.237   8.470 -0.5096  0.4037  0.5719
 4162SOL    HW224120   4.247   1.180   8.340 -0.7283 -1.1960  0.3735
 4163SOL     OW24121   1.332   0.861   4.761  0.1066 -0.2520 -0.6372
 4163SOL    HW124122   1.401   0.923   4.781 -0.7643 -0.0295  1.6639
 4163SOL    HW224123   1.375   0.775   4.761  2.1621  0.7819 -0.8367
 4164SOL     OW24124   3.451   1.485  13.407 -0.3715 -0.2658 -0.2178
 4164SOL    HW124125   3.511   1.471  13.334 -0.9266  1.7367 -1.0707
 4164SOL    HW224126   3.421   1.395  13.421  0.5342 -0.4473  0.6225
 4165SOL     OW24127   3.087   3.259  12.605  0.1884 -0.4627  0.1304
 4165SOL    HW124128   3.084   3.170  12.640 -1.4742  0.2063  1.6831
 4165SOL    HW224129   3.182   3.262  12.610  0.1144  0.6174  0.9428
 4166SOL     OW24130   4.551   3.972  17.413 -0.2805  0.2111  0.1025
 4166SOL    HW124131   4.532   4.066  17.404 -0.1086  0.0556 -1.9129
 4166SOL    HW224132   4.643   3.971  17.388 -0.1838 -0.4538  0.5104
 4167SOL     OW24133   3.668   4.152   7.988  0.3199  0.3682  0.3045
 4167SOL    HW124134   3.584   4.143   7.942  0.6022 -1.2433  0.0958
 4167SOL    HW224135   3.644   4.135   8.079 -0.1508  0.0616  0.1287
 4168SOL     OW24136   2.286   4.230   1.237  0.3620 -0.3694 -0.3393
 4168SOL    HW124137   2.200   4.212   1.275  0.7868  2.4346  1.9676
 4168SOL    HW224138   2.330   4.280   1.305  1.2724 -2.0515  0.3188
 4169SOL     OW24139   2.424   2.405   0.160  0.0469 -0.3490 -0.0590
 4169SOL    HW124140   2.348   2.433   0.109 -0.2858  0.0400  0.6484
 4169SOL    HW224141   2.388   2.366   0.239  0.0027 -1.5618 -0.6884
 4170SOL     OW24142   0.822   1.596   7.054  0.4377 -0.3214 -0.1508
 4170SOL    HW124143   0.853   1.530   6.992 -0.0648 -0.9398  0.2519
 4170SOL    HW224144   0.845   1.544   7.131  1.0313  1.3821  0.8277
 4171SOL     OW24145   3.632   4.160  13.980 -0.7144  0.2632 -0.2371
 4171SOL    HW124146   3.563   4.221  13.954 -0.2335  0.6324 -0.6390
 4171SOL    HW224147   3.706   4.211  13.947  0.5898 -1.6614 -0.2839
 4172SOL     OW24148   1.875   2.782   1.405  0.0794  0.1643 -0.2440
 4172SOL    HW124149   1.897   2.724   1.478 -0.6507 -1.0608 -1.0012
 4172SOL    HW224150   1.799   2.739   1.367  0.3089  0.1883 -0.7302
 4173SOL     OW24151   2.516   0.617   3.366 -0.1088 -0.0758  0.4952
 4173SOL    HW124152   2.501   0.555   3.438  0.3298  2.7092  2.9918
 4173SOL    HW224153   2.489   0.697   3.410  1.0992  0.1000  0.9021
 4174SOL     OW24154   3.804   1.512   6.910 -0.2974  0.3051  0.4854
 4174SOL    HW124155   3.881   1.484   6.860 -0.2529  0.9967  0.1762
 4174SOL    HW224156   3.834   1.595   6.947 -2.8099 -0.0488  3.2976
 4175SOL     OW24157   1.863   2.230   9.416  0.3677  0.6387  0.3776
 4175SOL    HW124158   1.912   2.188   9.486 -1.8675 -2.0219  0.3467
 4175SOL    HW224159   1.916   2.191   9.347  1.5769  0.8117  1.2066
 4176SOL     OW24160   3.338   4.422   5.081 -0.0042 -0.2176 -0.6529
 4176SOL    HW124161   3.331   4.494   5.144  2.3925  1.6831 -2.5665
 4176SOL    HW224162   3.259   4.371   5.097 -0.2372  0.7902  1.4000
 4177SOL     OW24163   2.019   4.573   0.494  0.1793  0.0304 -0.1787
 4177SOL    HW124164   1.939   4.597   0.542 -0.2726  0.0131 -0.9190
 4177SOL    HW224165   2.030   4.645   0.431 -0.8504  0.1178 -0.2685
 4178SOL     OW24166   3.450   2.327   8.853  0.5074  0.0743 -0.1697
 4178SOL    HW124167   3.516   2.392   8.829 -0.5765  0.6865 -1.4329
 4178SOL    HW224168   3.373   2.383   8.862 -1.3147 -2.1387 -2.0402
 4179SOL     OW24169   0.462   1.672   3.369  0.0383 -0.2277  0.8224
 4179SOL    HW124170   0.420   1.601   3.320  0.1757  1.6495 -2.0100
 4179SOL    HW224171   0.460   1.743   3.305 -1.9107 -2.2429 -1.3994
 4180SOL     OW24172   4.663   0.135  14.869 -0.5650  0.1881 -0.0510
 4180SOL    HW124173   4.657   0.208  14.807 -1.4929  2.1852  2.3841
 4180SOL    HW224174   4.656   0.179  14.953  0.9581 -0.6263  0.5060
 4181SOL     OW24175   0.876   3.943   4.924  0.5563 -0.4222  0.0077
 4181SOL    HW124176   0.814   3.870   4.923 -0.5615  0.5122  1.0369
 4181SOL    HW224177   0.876   3.958   4.829  1.9423  1.1070  0.2598
 4182SOL     OW24178   4.023   3.238   2.994  0.1754  0.6848 -0.0419
 4182SOL    HW124179   3.990   3.169   3.050  3.2308 -0.9324 -0.2245
 4182SOL    HW224180   3.996   3.210   2.906  0.2608 -0.2720  0.2378
 4183SOL     OW24181   1.863   2.898   6.016 -0.2195 -0.0930  0.3727
 4183SOL    HW124182   1.955   2.924   6.008  0.1728 -2.7713 -3.3268
 4183SOL    HW224183   1.823   2.953   5.949  0.9290  0.1487 -0.1150
 4184SOL     OW24184   2.070   1.550   4.958  0.6114 -0.3151 -0.3814
 4184SOL    HW124185   2.063   1.645   4.964 -3.7401 -0.7822  2.0262
 4184SOL    HW224186   1.989   1.538   4.908  0.0172 -1.7564  0.9230
 4185SOL     OW24187   1.242   0.815  11.477  0.7461 -0.4889 -0.1344
 4185SOL    HW124188   1.279   0.852  11.397  1.3670 -1.0040 -0.0839
 4185SOL    HW224189   1.150   0.838  11.468 -0.0973 -3.4406  0.9431
 4186SOL     OW24190   2.151   3.143   8.415 -0.3428  0.1624 -0.7623
 4186SOL    HW124191   2.209   3.216   8.437  1.1964 -0.8536 -1.4007
 4186SOL    HW224192   2.181   3.062   8.456 -1.4126 -0.7452 -1.7666
 4187SOL     OW24193   3.173   1.872   8.162 -0.6405 -0.0404 -0.3409
 4187SOL    HW124194   3.199   1.959   8.132  0.0361 -0.1417 -0.0438
 4187SOL    HW224195   3.255   1.822   8.156 -1.3970 -1.0548 -2.4337
 4188SOL     OW24196   4.694   3.565   9.746  0.5010  0.2623  0.1093
 4188SOL    HW124197   0.014   3.490   9.766  2.1188  1.7196  0.9851
 4188SOL    HW224198   4.644   3.567   9.827 -0.5379 -0.6562 -0.5105
 4189SOL     OW24199   1.402   2.994  14.666 -0.2717  0.4715 -0.0532
 4189SOL    HW124200   1.444   2.933  14.727  0.4091 -1.0861 -2.0953
 4189SOL    HW224201   1.313   2.964  14.647 -0.1953  0.7197 -0.7964
 4190SOL     OW24202   4.191   3.585  10.368  0.2481  0.3156  0.0906
 4190SOL    HW124203   4.205   3.492  10.384 -1.8293  0.4229  2.6467
 4190SOL    HW224204   4.099   3.592  10.394  0.6344 -0.4780  1.6671
 4191SOL     OW24205   2.053   4.054   0.098  0.4027  0.6731  0.4456
 4191SOL    HW124206   2.068   4.101   0.180  0.4209 -0.3211  1.0051
 4191SOL    HW224207   2.075   4.125   0.038  2.7483 -0.4914 -0.0659
 4192SOL     OW24208   3.065   0.438  10.591  0.8489 -0.1473  0.2304
 4192SOL    HW124209   3.083   0.532  10.586  3.2948 -0.5624  1.0039
 4192SOL    HW224210   3.035   0.423  10.680 -1.2039  0.9967 -0.2620
 4193SOL     OW24211   0.216   1.611   2.708 -0.2301 -0.4786 -0.6620
 4193SOL    HW124212   0.173   1.537   2.666 -2.0714 -0.8100  1.8029
 4193SOL    HW224213   0.154   1.637   2.776 -1.3149  1.2848 -2.3210
 4194SOL     OW24214   2.721   4.681   1.036 -0.8478 -0.2744  0.0682
 4194SOL    HW124215   2.632   4.714   1.052 -0.5678 -0.7698  2.6416
 4194SOL    HW224216   2.771   4.721   1.107  1.9180 -2.3704 -0.7298
 4195SOL     OW24217   4.297   1.003   8.880  0.4650 -0.3218 -0.1065
 4195SOL    HW124218   4.309   1.069   8.947 -0.2712 -2.0294  1.7049
 4195SOL    HW224219   4.388   0.985   8.858  0.5518  0.3685 -0.2919
 4196SOL     OW24220   0.086   1.253   9.746 -0.2248 -0.1098 -0.4132
 4196SOL    HW124221   0.106   1.183   9.684 -0.2770  1.4604 -2.2279
 4196SOL    HW224222   4.731   1.230   9.762  0.0780  0.0442  1.5173
 4197SOL     OW24223   3.586   3.453   7.197  0.3434  0.1739  0.0813
 4197SOL    HW124224   3.660   3.393   7.208  0.1136 -0.2755 -0.8063
 4197SOL    HW224225   3.546   3.456   7.284  0.4777 -0.0468  0.1514
 4198SOL     OW24226   1.209   0.553  11.449  0.3969 -0.0385 -0.2224
 4198SOL    HW124227   1.197   0.643  11.480 -1.1511 -0.3858  0.1817
 4198SOL    HW224228   1.130   0.518  11.490  0.4643  2.1720  1.8067
 4199SOL     OW24229   0.362   2.496   5.366  0.5589 -0.2316  0.2031
 4199SOL    HW124230   0.448   2.504   5.324  0.5348  1.8899  0.5649
 4199SOL    HW224231   0.307   2.568   5.333  0.6678  0.4684  1.5488
 4200SOL     OW24232   4.529   2.885   5.372 -0.0249  0.6661  0.0554
 4200SOL    HW124233   4.550   2.817   5.436  1.4906  1.9368  0.9206
 4200SOL    HW224234   4.480   2.937   5.436 -0.2641 -1.1559  1.3612
 4201SOL     OW24235   4.110   2.602  15.616  0.3935  0.0375 -0.2264
 4201SOL    HW124236   4.159   2.627  15.538 -0.7438 -1.9563 -1.5575
 4201SOL    HW224237   4.021   2.593  15.584  0.1322  1.6850  0.0407
 4202SOL     OW24238   0.175   2.809   4.234 -0.0598 -0.0819 -0.5471
 4202SOL    HW124239   0.170   2.731   4.179 -1.7439 -0.1993 -0.2060
 4202SOL    HW224240   0.258   2.849   4.207 -0.6844  1.2533 -0.4552
 4203SOL     OW24241   2.521   0.386   7.899 -0.1679  0.1171  0.2027
 4203SOL    HW124242   2.564   0.310   7.860  0.0989  0.9891 -1.1843
 4203SOL    HW224243   2.563   0.456   7.849 -0.3538 -0.4974 -0.8159
 4204SOL     OW24244   1.257   1.646   9.510  0.4188  0.2432  0.8884
 4204SOL    HW124245   1.307   1.657   9.430 -0.4415 -3.1328 -0.1281
 4204SOL    HW224246   1.182   1.600   9.471  1.4679 -1.1671  0.5353
 4205SOL     OW24247   0.731   4.495   4.228  0.5030 -0.8492  0.4059
 4205SOL    HW124248   0.716   4.545   4.308  0.9743 -0.2297  0.1080
 4205SOL    HW224249   0.785   4.550   4.172 -3.5720  1.6725 -0.9917
 4206SOL     OW24250   2.516   1.128   5.651 -0.3964 -0.4597  0.2391
 4206SOL    HW124251   2.536   1.169   5.567  0.6672 -0.4824  0.4872
 4206SOL    HW224252   2.421   1.116   5.650 -0.2984 -1.3807  2.0592
 4207SOL     OW24253   3.422   3.827   7.872 -0.7355 -0.2714 -0.3737
 4207SOL    HW124254   3.401   3.920   7.886  0.6651  0.1548 -1.1195
 4207SOL    HW224255   3.404   3.821   7.778 -4.3663 -0.2448  0.3065
 4208SOL     OW24256   1.006   3.273   9.393 -0.2205 -0.2818 -0.6461
 4208SOL    HW124257   0.951   3.300   9.320 -0.2940 -0.2571 -0.5819
 4208SOL    HW224258   1.004   3.355   9.441  3.3644 -0.6317  0.0908
 4209SOL     OW24259   0.402   1.789   2.746 -0.5128 -0.0722 -0.2597
 4209SOL    HW124260   0.329   1.727   2.738 -2.0406  1.7583 -0.6538
 4209SOL    HW224261   0.472   1.756   2.690 -1.5947 -0.0093 -1.6530
 4210SOL     OW24262   0.941   3.371  17.675 -0.5326  0.2925 -0.7724
 4210SOL    HW124263   1.009   3.429  17.639  1.1532 -2.1596 -1.5593
 4210SOL    HW224264   0.926   3.318  17.597  0.8941  0.7781 -1.3851
 4211SOL     OW24265   0.016   3.640   6.203 -0.1167 -0.6813 -0.1770
 4211SOL    HW124266   4.692   3.633   6.130 -0.9341 -0.9106  0.5265
 4211SOL    HW224267   0.012   3.734   6.224  2.2496 -1.2163  2.6145
 4212SOL     OW24268   1.907   2.316  12.779  0.1737 -0.0379 -0.3523
 4212SOL    HW124269   1.994   2.276  12.785 -1.0120 -2.6908 -0.9963
 4212SOL    HW224270   1.945   2.379  12.718  2.2453 -1.4691 -0.5475
 4213SOL     OW24271   0.755   0.801   3.360  0.1811 -0.5679 -0.1981
 4213SOL    HW124272   0.804   0.872   3.402 -1.2840  0.0863  0.4237
 4213SOL    HW224273   0.663   0.819   3.379  0.0532 -1.4502 -0.0021
 4214SOL     OW24274   3.722   3.122   8.977 -0.1628 -0.1452  0.3185
 4214SOL    HW124275   3.686   3.208   8.999 -0.3646  0.2594 -1.6615
 4214SOL    HW224276   3.651   3.080   8.928  2.2407 -0.9777 -2.4187
 4215SOL     OW24277   4.642   1.510   6.719  0.0450 -0.1281  0.6013
 4215SOL    HW124278   4.602   1.487   6.803 -1.7361 -2.0042 -0.7453
 4215SOL    HW224279   4.661   1.604   6.721 -3.3453  0.4877  3.4108
 4216SOL     OW24280   0.871   2.361   1.717  0.0552  0.0740 -0.6469
 4216SOL    HW124281   0.894   2.269   1.730  0.3447  0.5215  2.1838
 4216SOL    HW224282   0.783   2.345   1.683 -1.3131  2.4599  1.7829
 4217SOL     OW24283   3.133   3.670   8.754  0.2628  0.4148  0.0336
 4217SOL    HW124284   3.081   3.652   8.833  0.0389  0.5528 -0.0829
 4217SOL    HW224285   3.106   3.761   8.743  0.3913  0.3354 -0.8964
 4218SOL     OW24286   3.836   2.882   5.488 -0.5841 -0.2699  0.1016
 4218SOL    HW124287   3.931   2.895   5.481  0.0333 -4.1250  1.6882
 4218SOL    HW224288   3.819   2.816   5.421 -2.7794  0.9327 -0.5378
 4219SOL     OW24289   3.905   1.453  16.691  0.5733  0.0067 -0.2708
 4219SOL    HW124290   3.821   1.484  16.726  0.6271  0.0752 -0.2014
 4219SOL    HW224291   3.934   1.525  16.635 -1.8946 -0.4329 -2.1026
 4220SOL     OW24292   0.560   2.296   8.693 -0.3191  0.3683  0.2717
 4220SOL    HW124293   0.557   2.262   8.604 -1.1744  1.0931  0.0336
 4220SOL    HW224294   0.554   2.390   8.679  1.8976  0.1722 -1.9919
 4221SOL     OW24295   3.604   3.192   1.222  0.3210 -0.2237 -0.8270
 4221SOL    HW124296   3.636   3.150   1.301  0.1095  0.5662 -0.3284
 4221SOL    HW224297   3.591   3.283   1.246  0.3299 -0.3711 -0.2641
 4222SOL     OW24298   2.574   0.873   2.125 -0.1728 -0.3053  0.8017
 4222SOL    HW124299   2.513   0.819   2.175 -1.1557 -0.4878 -0.6058
 4222SOL    HW224300   2.639   0.905   2.188 -0.7215  1.4807  0.4343
 4223SOL     OW24301   3.668   0.933   6.927 -0.2919  0.0555  0.6947
 4223SOL    HW124302   3.580   0.926   6.963 -0.3705  0.2242  0.5343
 4223SOL    HW224303   3.717   0.955   7.007  0.6269  0.2392  0.0886
 4224SOL     OW24304   0.534   1.857   6.410  0.4126 -1.2276 -0.2220
 4224SOL    HW124305   0.507   1.924   6.473 -1.2063 -0.3772 -1.8212
 4224SOL    HW224306   0.622   1.885   6.385 -1.1105  2.8585 -1.0532
 4225SOL     OW24307   0.594   1.606   3.799 -0.2222  0.3579  0.2405
 4225SOL    HW124308   0.555   1.574   3.881  0.1472  0.6461  0.5300
 4225SOL    HW224309   0.683   1.581   3.824  0.2635  2.1044  0.2372
 4226SOL     OW24310   3.401   1.664   7.575  0.0707  0.2550 -0.5901
 4226SOL    HW124311   3.454   1.597   7.619 -0.1806 -0.0018 -0.6774
 4226SOL    HW224312   3.411   1.655   7.480 -0.3327  0.5631 -0.6598
 4227SOL     OW24313   0.536   1.441   7.025 -0.1112 -0.5697 -0.8039
 4227SOL    HW124314   0.631   1.448   7.023 -0.0779 -0.4942  0.7620
 4227SOL    HW224315   0.520   1.358   7.071 -1.6267  0.9318  1.3748
 4228SOL     OW24316   2.151   3.516   3.674  0.5881  0.1919  0.0508
 4228SOL    HW124317   2.125   3.451   3.740 -1.2461  0.1928 -0.6632
 4228SOL    HW224318   2.102   3.491   3.595  1.1205  1.7365 -0.7637
 4229SOL     OW24319   0.107   0.249   7.811  0.2766  0.1671 -0.3213
 4229SOL    HW124320   0.098   0.340   7.783  3.0628 -0.8373 -4.5572
 4229SOL    HW224321   0.202   0.236   7.812  0.2598 -0.1424 -3.1938
 4230SOL     OW24322   0.345   1.270   6.086 -0.0878 -0.4487  0.1069
 4230SOL    HW124323   0.314   1.190   6.129  2.2197  0.3448  3.2557
 4230SOL    HW224324   0.350   1.319   6.169  0.3646  3.6449 -2.3350
 4231SOL     OW24325   1.823   0.418  16.977  0.0878  0.4671 -0.7075
 4231SOL    HW124326   1.732   0.446  16.987 -0.7480 -2.3447 -0.5538
 4231SOL    HW224327   1.848   0.475  16.904 -2.0209 -0.5044 -2.2022
 4232SOL     OW24328   0.520   4.012   3.313 -0.1747 -0.6427 -0.3660
 4232SOL    HW124329   0.576   3.935   3.304 -1.2598 -1.4268 -0.5356
 4232SOL    HW224330   0.434   3.970   3.310  0.3384 -1.8376  1.4618
 4233SOL     OW24331   2.438   0.181   5.486  0.0654 -0.3098  0.5124
 4233SOL    HW124332   2.388   0.263   5.484 -0.6707 -0.7753 -0.6123
 4233SOL    HW224333   2.404   0.135   5.563  0.5950 -0.1482  0.8396
 4234SOL     OW24334   0.823   2.436  14.196 -0.2922 -0.0453  0.2980
 4234SOL    HW124335   0.820   2.517  14.248 -0.7905 -0.8564  1.5297
 4234SOL    HW224336   0.741   2.426  14.147  0.1109 -1.5446 -0.0633
 4235SOL     OW24337   3.690   2.614   5.873 -0.0851  0.7262  0.1217
 4235SOL    HW124338   3.674   2.551   5.943 -0.4506 -0.1573 -0.7605
 4235SOL    HW224339   3.606   2.655   5.855 -0.0912 -0.9380 -3.5143
 4236SOL     OW24340   2.165   3.355   9.330  0.4546 -0.1391 -0.1689
 4236SOL    HW124341   2.222   3.432   9.327  0.2220  0.0196 -0.6043
 4236SOL    HW224342   2.098   3.373   9.397  1.5537  2.1758  0.3347
 4237SOL     OW24343   0.002   3.417  13.423 -0.0925  0.2125 -0.1724
 4237SOL    HW124344   4.658   3.396  13.468 -0.3645  1.4463 -0.0799
 4237SOL    HW224345   0.059   3.432  13.499  0.0754 -3.3621  0.4029
 4238SOL     OW24346   1.005   2.040   1.330 -0.0509 -0.3884  0.2498
 4238SOL    HW124347   1.033   1.955   1.297  1.2881  0.8963 -1.9230
 4238SOL    HW224348   1.083   2.074   1.375 -0.2151  0.8987 -0.4255
 4239SOL     OW24349   0.789   1.741   3.243  0.2898  0.2162 -0.0208
 4239SOL    HW124350   0.820   1.655   3.216  0.3459  0.4524 -0.7105
 4239SOL    HW224351   0.723   1.744   3.174  1.9035 -0.1223 -1.5752
 4240SOL     OW24352   3.280   3.166  17.374  0.4081  0.0461 -0.2464
 4240SOL    HW124353   3.371   3.170  17.402  0.4034 -1.3282 -0.0359
 4240SOL    HW224354   3.283   3.223  17.298  0.8249  1.2417  0.6677
 4241SOL     OW24355   3.677   3.223   4.830 -0.3803  0.1572 -0.0360
 4241SOL    HW124356   3.603   3.250   4.775 -0.5177 -0.2350 -0.0496
 4241SOL    HW224357   3.745   3.289   4.824  1.7451 -1.8909  1.4647
 4242SOL     OW24358   0.641   0.998   0.360  0.0111 -0.1854  0.2347
 4242SOL    HW124359   0.653   1.000   0.455 -0.6237 -1.6613  0.3316
 4242SOL    HW224360   0.675   1.086   0.340  1.5706 -0.9272 -0.3965
 4243SOL     OW24361   2.554   1.196  17.323  0.9302  0.3842 -0.5526
 4243SOL    HW124362   2.615   1.190  17.397 -1.9280  1.5091  1.9367
 4243SOL    HW224363   2.496   1.268  17.347  3.0209  2.1785 -0.8993
 4244SOL     OW24364   4.028   2.243   4.814  1.0674 -0.0704 -1.1524
 4244SOL    HW124365   4.010   2.252   4.721 -2.2061  0.7406 -0.4668
 4244SOL    HW224366   3.940   2.242   4.852  1.0427  0.9182 -1.1707
 4245SOL     OW24367   3.390   0.493  12.267  0.0946  0.1798 -0.2032
 4245SOL    HW124368   3.458   0.432  12.237  0.7294  0.3897  0.8231
 4245SOL    HW224369   3.377   0.538  12.183 -1.5311  0.4525  0.2001
 4246SOL     OW24370   1.603   0.158   3.240 -0.1241 -0.5247  0.1198
 4246SOL    HW124371   1.661   0.087   3.211  1.3989  0.8044 -0.0597
 4246SOL    HW224372   1.669   0.222   3.214  0.0707 -0.3510  1.0633
 4247SOL     OW24373   3.848   1.797  15.410 -0.4159 -0.6776 -0.2151
 4247SOL    HW124374   3.830   1.824  15.320  1.6917  1.8054  0.1077
 4247SOL    HW224375   3.763   1.764  15.438 -2.4790  2.5167 -2.6153
 4248SOL     OW24376   3.009   0.428   6.708  0.0030  0.0214  0.6010
 4248SOL    HW124377   3.013   0.465   6.796  0.1269 -0.0652  0.6316
 4248SOL    HW224378   2.931   0.374   6.724  0.7165 -0.5496  2.1795
 4249SOL     OW24379   3.979   2.627   8.590 -0.3259  0.4044 -0.3554
 4249SOL    HW124380   3.958   2.599   8.679 -1.1953  0.7993 -0.4317
 4249SOL    HW224381   3.911   2.583   8.538  0.5257 -0.6782 -0.5579
 4250SOL     OW24382   2.008   0.340  17.181  0.2500 -0.1459 -0.2959
 4250SOL    HW124383   1.932   0.386  17.145 -1.2677 -0.8081  2.0744
 4250SOL    HW224384   1.964   0.255  17.193  1.4635 -1.0523 -2.2456
 4251SOL     OW24385   4.288   1.157  13.247 -0.3649  0.2823  0.4798
 4251SOL    HW124386   4.311   1.110  13.167 -3.6721  1.2112 -1.0184
 4251SOL    HW224387   4.327   1.102  13.315 -0.8237 -1.9121 -1.0562
 4252SOL     OW24388   0.457   4.631  15.822 -0.0608 -0.0157 -0.4359
 4252SOL    HW124389   0.432   4.574  15.894  3.8341  0.0091  0.9621
 4252SOL    HW224390   0.391   4.700  15.833  1.4251  1.2036  0.8882
 4253SOL     OW24391   2.792   0.225   1.869  0.5923  0.9437  0.2239
 4253SOL    HW124392   2.848   0.303   1.870  0.9864  0.6760 -1.6284
 4253SOL    HW224393   2.771   0.218   1.776  1.9318  0.3856 -0.0369
 4254SOL     OW24394   4.675   4.441  14.613  0.2321  0.1478 -0.5040
 4254SOL    HW124395   4.682   4.492  14.694 -1.8327 -1.1528  0.4968
 4254SOL    HW224396   0.001   4.371  14.631 -0.0882 -0.3523 -1.3827
 4255SOL     OW24397   2.345   2.041   3.501 -0.4300  0.2525 -1.0177
 4255SOL    HW124398   2.252   2.024   3.518 -0.2275  0.0993 -0.0247
 4255SOL    HW224399   2.353   2.112   3.438  0.0977  1.3260  0.2437
 4256SOL     OW24400   4.148   0.321   1.763 -0.4078 -0.2317  0.0757
 4256SOL    HW124401   4.072   0.371   1.732  0.1986  1.2840  1.0112
 4256SOL    HW224402   4.107   0.286   1.841  0.6045  1.8995  1.5565
 4257SOL     OW24403   4.423   2.404  11.021  0.1946 -0.0319  0.0615
 4257SOL    HW124404   4.455   2.493  11.028 -1.8162  0.8026 -1.2229
 4257SOL    HW224405   4.399   2.388  10.929  1.9369 -0.2033 -0.3616
 4258SOL     OW24406   0.916   1.567   4.716  0.2911 -0.4215  0.1198
 4258SOL    HW124407   0.897   1.481   4.754 -2.1801  0.3490  0.6778
 4258SOL    HW224408   0.830   1.603   4.692  0.8592  0.6153 -0.3181
 4259SOL     OW24409   4.209   4.501   6.561 -0.1656  0.0661 -0.5447
 4259SOL    HW124410   4.254   4.417   6.570  0.7958  0.8632  2.0219
 4259SOL    HW224411   4.146   4.465   6.499 -1.6766 -1.1363  1.7408
 4260SOL     OW24412   2.566   0.749   7.603  0.0002  0.1949  0.0826
 4260SOL    HW124413   2.565   0.763   7.698 -1.5151 -1.3465  0.2972
 4260SOL    HW224414   2.473   0.737   7.581  0.0470  0.1677 -0.0978
 4261SOL     OW24415   1.987   1.901  11.466 -0.4136  0.0235  0.6758
 4261SOL    HW124416   1.951   1.817  11.493  0.0584 -0.4813 -0.2874
 4261SOL    HW224417   1.986   1.964  11.539 -3.9535  0.1780  0.5248
 4262SOL     OW24418   2.197   2.972  16.704 -0.1821 -0.3132 -0.1264
 4262SOL    HW124419   2.107   2.938  16.709 -0.6514  0.8980 -0.1937
 4262SOL    HW224420   2.209   2.991  16.797  1.5495 -1.3213 -0.1436
 4263SOL     OW24421   0.285   3.309   5.262 -0.3197  0.2139  0.2117
 4263SOL    HW124422   0.330   3.303   5.178  0.1546  2.1351  0.3370
 4263SOL    HW224423   0.343   3.375   5.301  1.1665 -0.2189 -1.2634
 4264SOL     OW24424   0.693   4.139   0.732  0.4200 -0.2743  0.1667
 4264SOL    HW124425   0.631   4.091   0.677 -1.3337  1.1858  0.8695
 4264SOL    HW224426   0.697   4.226   0.690  2.2304  0.3476  1.6213
 4265SOL     OW24427   3.055   1.650  16.695  0.0242  0.6843 -0.3111
 4265SOL    HW124428   2.989   1.718  16.707 -1.2428 -0.6593  0.4029
 4265SOL    HW224429   3.136   1.701  16.701  0.2597  0.1342  1.3008
 4266SOL     OW24430   3.752   3.480   6.300 -0.6094  0.2808 -0.1678
 4266SOL    HW124431   3.706   3.502   6.382  1.8006  2.2978  0.6194
 4266SOL    HW224432   3.710   3.531   6.231  2.2549  1.1086 -1.2828
 4267SOL     OW24433   0.491   1.057   8.995 -0.0433  0.4619 -0.0103
 4267SOL    HW124434   0.489   1.027   9.086 -2.0986 -0.0005 -0.2123
 4267SOL    HW224435   0.462   1.146   9.014  0.2966  0.1251  2.0177
 4268SOL     OW24436   4.294   4.362   9.367  0.2899  0.2765  0.4970
 4268SOL    HW124437   4.244   4.441   9.348 -1.0737 -0.4058  1.2423
 4268SOL    HW224438   4.241   4.316   9.433 -0.6774 -0.1237 -0.5678
 4269SOL     OW24439   3.610   1.397  13.210 -0.6979 -0.4528 -0.1577
 4269SOL    HW124440   3.693   1.372  13.250 -1.2210 -0.7109  0.7633
 4269SOL    HW224441   3.596   1.321  13.154 -4.5505  1.6540 -2.0322
 4270SOL     OW24442   0.476   3.474  16.233 -0.3325  0.0776 -0.3446
 4270SOL    HW124443   0.546   3.456  16.295  0.3238 -2.1815 -1.7469
 4270SOL    HW224444   0.533   3.469  16.157  0.8585 -0.6955  0.6100
 4271SOL     OW24445   3.679   3.048  12.178 -0.1930  0.4064  0.6137
 4271SOL    HW124446   3.769   3.029  12.204 -1.1072 -2.1176  1.9642
 4271SOL    HW224447   3.702   3.063  12.086 -1.4225 -1.0673  0.0638
 4272SOL     OW24448   1.418   0.583   0.392  0.1876 -0.4049 -0.1977
 4272SOL    HW124449   1.407   0.494   0.425 -3.5414 -0.5118 -1.8254
 4272SOL    HW224450   1.386   0.572   0.303 -0.4590 -1.5410  0.1821
 4273SOL     OW24451   1.539   4.386  10.534  0.3053  0.6187 -0.1135
 4273SOL    HW124452   1.510   4.431  10.455  0.9144 -1.0124 -1.2617
 4273SOL    HW224453   1.475   4.395  10.604  1.2637 -1.4985  1.0296
 4274SOL     OW24454   1.051   4.365   3.397  0.1794 -0.2090 -0.0248
 4274SOL    HW124455   1.117   4.323   3.342  1.4426  1.7249  0.0230
 4274SOL    HW224456   1.105   4.366   3.476 -0.1673 -2.8221  0.2691
 4275SOL     OW24457   0.180   4.552   5.844 -0.6690  0.1883  0.2347
 4275SOL    HW124458   0.095   4.527   5.881 -0.0669  0.5006  1.8096
 4275SOL    HW224459   0.174   4.636   5.799 -1.6763  1.1231  2.1004
 4276SOL     OW24460   1.700   4.671   6.827  0.2584  0.8071 -0.0197
 4276SOL    HW124461   1.708   4.579   6.854  0.7460  0.7846 -0.2415
 4276SOL    HW224462   1.616   4.685   6.871 -1.1108 -3.2255 -1.3875
 4277SOL     OW24463   4.218   2.923   3.144  0.6163 -0.2980 -0.5898
 4277SOL    HW124464   4.279   2.853   3.123  1.8138  1.2635 -2.3029
 4277SOL    HW224465   4.263   2.983   3.203 -0.0889  1.0976 -1.4682
 4278SOL     OW24466   0.023   3.005   3.914 -0.7915 -0.1661 -0.3802
 4278SOL    HW124467   4.719   2.971   3.835  2.4897  0.1085 -2.2147
 4278SOL    HW224468   0.008   2.924   3.962  1.2256  0.3083  1.0523
 4279SOL     OW24469   3.310   2.649   7.278  0.4996  0.2941 -0.1291
 4279SOL    HW124470   3.216   2.637   7.268  0.8921 -2.2304 -0.9307
 4279SOL    HW224471   3.341   2.564   7.247 -0.6350 -0.2853  0.3318
 4280SOL     OW24472   1.966   4.337   6.003 -0.2946  0.0611  0.3847
 4280SOL    HW124473   2.053   4.368   6.028 -1.5118  1.8806  2.3564
 4280SOL    HW224474   1.968   4.246   6.032 -0.7035  0.2756  1.0679
 4281SOL     OW24475   1.567   2.078   2.681  0.5674  0.5434 -0.2217
 4281SOL    HW124476   1.655   2.064   2.647  0.8702  1.1987  0.2916
 4281SOL    HW224477   1.544   2.165   2.648  3.1488  1.7461  1.1620
 4282SOL     OW24478   4.730   4.545   6.072  0.1661 -0.6632  0.4519
 4282SOL    HW124479   4.675   4.499   6.008 -1.6469 -1.7796  2.8502
 4282SOL    HW224480   4.673   4.563   6.146 -0.4642 -0.5217 -0.0618
 4283SOL     OW24481   0.160   3.526   5.929  0.2057  0.3412  0.1757
 4283SOL    HW124482   0.125   3.437   5.931  1.5139 -0.2186 -0.9689
 4283SOL    HW224483   0.143   3.542   6.021  2.4006 -0.1332  0.6655
 4284SOL     OW24484   1.593   1.629   4.738  0.3762 -0.4414 -0.1385
 4284SOL    HW124485   1.532   1.661   4.805 -0.9993 -1.8978 -0.7082
 4284SOL    HW224486   1.595   1.534   4.751 -1.4042 -0.3373  1.0316
 4285SOL     OW24487   1.781   3.722   3.452  0.1277  0.7968 -0.1517
 4285SOL    HW124488   1.794   3.634   3.488 -0.9677  0.1558 -1.2944
 4285SOL    HW224489   1.782   3.771   3.534  0.0455 -1.3472  1.1426
 4286SOL     OW24490   3.580   2.298   4.593 -0.6488  0.3098 -0.3761
 4286SOL    HW124491   3.495   2.340   4.601  0.0207  1.1269  2.5689
 4286SOL    HW224492   3.593   2.247   4.673 -1.0384 -0.5122 -0.8464
 4287SOL     OW24493   1.103   3.812   2.282  0.0607 -0.4160 -0.5259
 4287SOL    HW124494   1.019   3.805   2.236 -1.7027  0.6052  2.5305
 4287SOL    HW224495   1.137   3.898   2.259  0.2937 -0.2356  0.4636
 4288SOL     OW24496   2.855   0.301   8.711 -0.0135 -0.1453  0.3614
 4288SOL    HW124497   2.766   0.313   8.676 -0.7995  1.1019  2.7722
 4288SOL    HW224498   2.833   0.290   8.804  1.3707 -2.8893  0.3462
 4289SOL     OW24499   0.592   1.549   8.780  0.7125  0.2865 -0.4491
 4289SOL    HW124500   0.683   1.536   8.753  0.3174 -1.5645 -0.9088
 4289SOL    HW224501   0.546   1.504   8.709  0.0838  0.9425 -0.4519
 4290SOL     OW24502   2.834   0.981   6.899  0.1203  0.5392  0.0945
 4290SOL    HW124503   2.804   1.025   6.819  1.1052 -0.2540 -0.7093
 4290SOL    HW224504   2.787   1.020   6.973  0.7179  0.8426  0.3134
 4291SOL     OW24505   3.935   3.456   1.727 -0.1451 -0.1963 -0.0302
 4291SOL    HW124506   3.864   3.512   1.758  1.0222  0.8482  0.7483
 4291SOL    HW224507   3.903   3.371   1.758  0.4085 -1.7797 -3.9322
 4292SOL     OW24508   2.073   0.830   3.870 -0.0242 -0.1136  0.6252
 4292SOL    HW124509   2.053   0.922   3.853 -0.0671 -0.5303 -1.5215
 4292SOL    HW224510   2.117   0.837   3.955  2.3226 -0.8280 -0.5320
 4293SOL     OW24511   3.071   0.367  16.369  0.7292 -0.3522  0.0397
 4293SOL    HW124512   3.100   0.458  16.377  5.1917 -1.8914  1.8712
 4293SOL    HW224513   3.062   0.357  16.275  1.7848  1.6016 -0.2728
 4294SOL     OW24514   0.440   2.494   6.650 -0.3467 -0.1778 -0.4158
 4294SOL    HW124515   0.406   2.579   6.622  1.1624  0.6199  0.1610
 4294SOL    HW224516   0.525   2.491   6.607  0.7408  0.0353  1.7290
 4295SOL     OW24517   4.626   3.028  13.099  0.1319  0.3460 -0.9612
 4295SOL    HW124518   4.570   2.950  13.096  3.1137 -1.7654 -1.7978
 4295SOL    HW224519   4.695   2.996  13.157  1.8784  1.4095 -2.4565
 4296SOL     OW24520   0.559   4.551  16.690  0.1135 -0.2194  0.0811
 4296SOL    HW124521   0.475   4.578  16.652 -0.0937 -1.2966 -0.2273
 4296SOL    HW224522   0.551   4.589  16.777  1.5037 -1.1849  0.6320
 4297SOL     OW24523   1.448   2.637   6.878 -0.4293  0.1767  0.1782
 4297SOL    HW124524   1.510   2.684   6.821  1.0749 -1.3558  0.5408
 4297SOL    HW224525   1.492   2.552   6.884  1.2263  0.9126 -1.5413
 4298SOL     OW24526   2.789   2.017  14.437 -0.0883 -0.1285  0.1990
 4298SOL    HW124527   2.738   1.936  14.444  1.8660 -1.3770 -0.3246
 4298SOL    HW224528   2.731   2.072  14.384  0.4050  2.2746  2.1064
 4299SOL     OW24529   3.439   3.161   3.256 -0.7499  0.6059 -0.8089
 4299SOL    HW124530   3.448   3.101   3.329  0.1719  2.4003  0.5609
 4299SOL    HW224531   3.448   3.246   3.300 -1.7921  0.4392 -0.3002
 4300SOL     OW24532   1.554   2.652   9.255 -0.1783  0.0435  0.0230
 4300SOL    HW124533   1.467   2.650   9.215 -0.2598  2.8018  0.0825
 4300SOL    HW224534   1.576   2.740   9.224 -0.9849  0.5452  0.8979
 4301SOL     OW24535   1.355   1.856   3.911 -0.5047  0.6823  0.4300
 4301SOL    HW124536   1.358   1.815   3.824  1.7178 -0.8255  1.2255
 4301SOL    HW224537   1.340   1.783   3.970 -0.6737 -0.6444 -1.2318
 4302SOL     OW24538   0.075   0.637   6.725 -0.0025  0.0879 -0.0420
 4302SOL    HW124539   0.113   0.602   6.645  0.7367 -2.3547  1.3731
 4302SOL    HW224540   0.136   0.708   6.745  1.5126 -1.0998 -0.5322
 4303SOL     OW24541   3.492   2.130  17.435  0.0326 -0.8077  0.2516
 4303SOL    HW124542   3.426   2.080  17.484 -2.5288  0.9280 -1.3817
 4303SOL    HW224543   3.502   2.207  17.491  0.4931 -1.1557  0.6437
 4304SOL     OW24544   0.448   3.734   8.907  0.0026  0.0751 -0.0738
 4304SOL    HW124545   0.353   3.736   8.911 -0.0316 -1.0110 -0.3610
 4304SOL    HW224546   0.461   3.770   8.995 -2.7253 -0.5511  0.5748
 4305SOL     OW24547   0.839   2.107  15.930 -0.1184 -0.2604  0.1933
 4305SOL    HW124548   0.831   2.035  15.991  0.4455  0.8513  1.5763
 4305SOL    HW224549   0.761   2.159  15.951 -0.7337 -0.5397 -1.3434
 4306SOL     OW24550   1.118   0.975   8.593 -0.4901  0.0175  0.2925
 4306SOL    HW124551   1.203   0.931   8.580 -2.1004 -2.7004 -1.0831
 4306SOL    HW224552   1.151   1.063   8.610 -0.4850 -0.0564  0.6704
 4307SOL     OW24553   2.741   3.295   6.282  0.4393 -0.3772  1.1451
 4307SOL    HW124554   2.707   3.209   6.258  2.6849 -0.6577 -1.1500
 4307SOL    HW224555   2.829   3.268   6.310  0.8863  1.0041  1.0676
 4308SOL     OW24556   2.719   4.636  11.450  0.2406  0.8635  0.5430
 4308SOL    HW124557   2.653   4.678  11.506  0.6068  0.9367  0.9190
 4308SOL    HW224558   2.674   4.561  11.412  0.9346  2.2381 -2.9838
 4309SOL     OW24559   3.310   3.191   5.493  0.1270 -0.3135  0.2998
 4309SOL    HW124560   3.368   3.263   5.519  1.4635 -2.0641  2.1597
 4309SOL    HW224561   3.274   3.178   5.581  2.2560 -1.6092  0.9793
 4310SOL     OW24562   2.989   3.458   5.160  0.4853  0.3385 -0.4080
 4310SOL    HW124563   2.961   3.371   5.132 -1.1409  0.5123  0.6775
 4310SOL    HW224564   2.960   3.513   5.087  0.8122  2.3077  0.9381
 4311SOL     OW24565   1.285   4.096   7.303  0.2765 -0.4435  0.0045
 4311SOL    HW124566   1.215   4.107   7.239 -0.3467  0.7572  0.9001
 4311SOL    HW224567   1.233   4.071   7.380 -2.3097  0.1807 -1.5445
 4312SOL     OW24568   1.288   4.308  13.392 -0.5321 -0.1279 -0.1105
 4312SOL    HW124569   1.232   4.266  13.327  0.0338 -1.0523 -0.0032
 4312SOL    HW224570   1.345   4.240  13.428 -0.0173 -0.2146 -1.0807
 4313SOL     OW24571   2.786   1.204   2.918 -0.0151 -0.1712 -0.3146
 4313SOL    HW124572   2.712   1.191   2.978 -0.7290 -1.1557 -1.4134
 4313SOL    HW224573   2.849   1.142   2.953 -0.1112 -0.4645 -0.6613
 4314SOL     OW24574   0.925   0.830   6.131 -0.0940 -0.1827  0.3138
 4314SOL    HW124575   1.017   0.815   6.109  0.2559  2.1920  0.1970
 4314SOL    HW224576   0.913   0.920   6.102  0.4035 -1.4439 -3.8445
 4315SOL     OW24577   3.172   4.485   4.483  0.1660 -0.2115  0.2510
 4315SOL    HW124578   3.235   4.551   4.511  0.5840 -1.4245  2.1653
 4315SOL    HW224579   3.127   4.469   4.566 -0.4939  1.7753  0.2856
 4316SOL     OW24580   3.025   1.490   7.252  0.1333 -0.4353 -0.0095
 4316SOL    HW124581   3.117   1.506   7.229  0.4269 -0.7922  0.9501
 4316SOL    HW224582   2.993   1.478   7.162 -0.3503 -0.3384  0.1555
 4317SOL     OW24583   4.433   1.593   7.076  0.3122  0.0661 -0.1816
 4317SOL    HW124584   4.444   1.540   6.997  3.0060 -2.7873  2.1159
 4317SOL    HW224585   4.434   1.682   7.039 -0.6446 -0.1257 -0.6665
 4318SOL     OW24586   3.174   4.257   1.370 -0.1562  0.2411  0.1096
 4318SOL    HW124587   3.177   4.178   1.315 -0.3218 -0.2694  0.8374
 4318SOL    HW224588   3.175   4.318   1.297  1.0896  1.4303  1.1329
 4319SOL     OW24589   1.325   0.020   1.336 -0.5738  0.3963 -0.3199
 4319SOL    HW124590   1.384   0.032   1.410  1.7120  3.4873 -2.6620
 4319SOL    HW224591   1.268   0.093   1.360 -0.1308  0.5411  0.2808
 4320SOL     OW24592   1.554   0.649   7.483 -0.2378  0.0040  0.3382
 4320SOL    HW124593   1.583   0.577   7.538  1.7728  0.9691  0.5504
 4320SOL    HW224594   1.635   0.661   7.433 -0.5854 -0.3748 -0.3180
 4321SOL     OW24595   3.897   2.656  15.178 -0.1201  0.2796 -0.1979
 4321SOL    HW124596   3.839   2.732  15.175 -0.3804  0.1465  1.3975
 4321SOL    HW224597   3.980   2.683  15.138 -0.1287 -0.0851 -0.4610
 4322SOL     OW24598   3.292   0.574   1.939 -0.1158 -0.0119 -0.2899
 4322SOL    HW124599   3.385   0.591   1.957 -0.1627 -1.0642  0.9563
 4322SOL    HW224600   3.316   0.534   1.855  0.0814 -0.7504  0.1164
 4323SOL     OW24601   1.287   1.828  10.042  0.4463  0.2057 -0.1450
 4323SOL    HW124602   1.276   1.790   9.955  0.2030 -1.3255  0.5635
 4323SOL    HW224603   1.201   1.860  10.070 -0.4612  0.8567 -3.7190
 4324SOL     OW24604   0.721   0.500   9.166 -0.1361 -0.4913 -0.2677
 4324SOL    HW124605   0.634   0.478   9.132  0.0308 -1.4439 -0.0853
 4324SOL    HW224606   0.794   0.487   9.105  1.5353  2.0670  1.2015
 4325SOL     OW24607   1.667   2.030  16.059  0.2293  0.5842 -0.3289
 4325SOL    HW124608   1.637   2.093  16.124 -3.1525 -0.5674 -0.8030
 4325SOL    HW224609   1.749   2.009  16.105  0.6981 -0.6376 -1.7409
 4326SOL     OW24610   4.224   4.034  17.458  0.5819 -0.3216 -0.1647
 4326SOL    HW124611   4.182   4.120  17.456 -1.1029 -1.1065  0.8479
 4326SOL    HW224612   4.283   4.047  17.533  2.4480 -0.2596 -1.6490
 4327SOL     OW24613   4.257   4.162   3.854  0.0307  0.2098  0.3253
 4327SOL    HW124614   4.243   4.253   3.827 -1.4954  0.3393  1.5538
 4327SOL    HW224615   4.171   4.120   3.859 -0.1261  0.4254 -0.6056
 4328SOL     OW24616   1.371   1.318   2.259  0.1398  0.1662  0.6661
 4328SOL    HW124617   1.419   1.353   2.184  0.5124 -3.7344 -0.9196
 4328SOL    HW224618   1.282   1.345   2.237 -0.0072 -1.5524 -0.8089
 4329SOL     OW24619   3.382   0.755   8.056 -0.2477  0.4448  0.4898
 4329SOL    HW124620   3.464   0.792   8.085 -0.2802  0.4390  0.5881
 4329SOL    HW224621   3.380   0.789   7.966 -2.1723 -0.2214  0.2801
 4330SOL     OW24622   1.027   0.229  14.870 -0.1786  0.2107  0.4646
 4330SOL    HW124623   0.963   0.241  14.799 -2.0218 -0.4154  2.0093
 4330SOL    HW224624   1.039   0.319  14.899  1.1129  0.0689  0.3492
 4331SOL     OW24625   0.048   2.725   8.787 -0.5679  0.0349  0.3438
 4331SOL    HW124626   0.046   2.729   8.691 -2.6500  0.8343  0.4215
 4331SOL    HW224627   4.695   2.732   8.816 -0.6754 -0.8185  0.2094
 4332SOL     OW24628   1.009   0.951   5.808 -0.2908 -0.3350 -0.1797
 4332SOL    HW124629   0.985   1.041   5.789 -1.6502 -0.4660  0.9076
 4332SOL    HW224630   1.095   0.938   5.766 -0.2718  1.1317 -0.5733
 4333SOL     OW24631   2.195   2.332  13.323 -0.0111  0.1743 -0.0678
 4333SOL    HW124632   2.216   2.397  13.391  1.1166 -1.2952  0.9878
 4333SOL    HW224633   2.187   2.252  13.374  1.5620 -0.3002 -0.5475
 4334SOL     OW24634   3.741   0.896   4.458  0.2098 -0.4882  0.2607
 4334SOL    HW124635   3.648   0.875   4.444  0.4289  0.4643 -2.6625
 4334SOL    HW224636   3.791   0.819   4.435 -0.0333 -0.3097 -0.8688
 4335SOL     OW24637   2.815   2.793   7.347 -0.2712  0.1068 -0.0152
 4335SOL    HW124638   2.830   2.832   7.260  0.1824 -1.8723 -0.8128
 4335SOL    HW224639   2.851   2.855   7.411  3.9052 -2.4856  0.1234
 4336SOL     OW24640   0.042   3.551  11.360  0.3236 -0.2503 -0.5107
 4336SOL    HW124641   0.106   3.602  11.410 -1.7738  1.8005  0.1079
 4336SOL    HW224642   4.696   3.574  11.401  0.0889 -0.5808 -0.8066
 4337SOL     OW24643   0.362   2.651   1.127 -0.0466 -0.7516  0.2427
 4337SOL    HW124644   0.443   2.600   1.130 -0.7669 -1.8874  0.4799
 4337SOL    HW224645   0.366   2.683   1.217 -0.3594  3.9508 -1.4277
 4338SOL     OW24646   0.654   2.086   6.771 -0.3563 -0.0580 -0.6855
 4338SOL    HW124647   0.714   2.012   6.760  0.3503  0.3321  0.4739
 4338SOL    HW224648   0.654   2.097   6.866  1.2747 -1.4082 -0.5137
 4339SOL     OW24649   2.286   3.576   4.849  0.0264 -0.1672  0.4220
 4339SOL    HW124650   2.300   3.539   4.761  3.0188  2.1929 -0.1162
 4339SOL    HW224651   2.197   3.610   4.846 -0.3265 -1.1990 -1.1716
 4340SOL     OW24652   3.866   1.304   4.567  0.2523  0.7065 -0.3072
 4340SOL    HW124653   3.850   1.256   4.486 -0.0412  1.4415 -0.6763
 4340SOL    HW224654   3.956   1.334   4.557 -0.0139  1.4105 -0.5858
 4341SOL     OW24655   3.731   1.526   3.019 -0.6582 -0.7351  0.2424
 4341SOL    HW124656   3.664   1.593   3.009 -0.5332 -1.0144 -2.5669
 4341SOL    HW224657   3.805   1.541   2.960  1.1288 -1.7528  2.2153
 4342SOL     OW24658   2.527   4.020  13.572  0.2462  0.0061  0.1829
 4342SOL    HW124659   2.542   3.929  13.548 -0.0868  0.2973 -1.1349
 4342SOL    HW224660   2.434   4.021  13.592  0.8809  1.5362  3.0255
 4343SOL     OW24661   3.757   4.422   2.312 -0.0686 -0.3107  0.1458
 4343SOL    HW124662   3.759   4.430   2.407 -0.6387  0.7014  0.0604
 4343SOL    HW224663   3.847   4.443   2.287 -0.6136  0.6962 -0.9407
 4344SOL     OW24664   2.526   3.291   9.542  0.1047 -0.0051 -0.1512
 4344SOL    HW124665   2.617   3.287   9.514  0.3221  1.4727  0.3555
 4344SOL    HW224666   2.521   3.380   9.576  3.2621  0.6552 -1.4423
 4345SOL     OW24667   0.438   2.916  16.839  0.2781  0.9416 -0.4685
 4345SOL    HW124668   0.476   2.863  16.768  0.2662  1.3141 -0.7564
 4345SOL    HW224669   0.502   2.988  16.834  1.2289  0.1366  0.1375
 4346SOL     OW24670   0.748   1.388   5.608  0.1397 -0.1975 -0.2041
 4346SOL    HW124671   0.655   1.411   5.610  0.2305  0.2411 -0.7722
 4346SOL    HW224672   0.785   1.475   5.591 -1.0787  0.7923  2.3777
 4347SOL     OW24673   3.734   1.733  13.072 -0.9293 -0.3498 -0.4354
 4347SOL    HW124674   3.810   1.740  13.131 -1.1598  3.1065 -0.5488
 4347SOL    HW224675   3.695   1.817  13.094  0.6424  0.3114 -0.1520
 4348SOL     OW24676   3.979   3.786  14.084 -0.1973  0.4288 -0.0666
 4348SOL    HW124677   4.002   3.694  14.097 -2.6378  0.2573  3.1929
 4348SOL    HW224678   3.912   3.771  14.017 -0.5200 -0.0805  0.3668
 4349SOL     OW24679   0.468   0.372   6.381  0.4563  0.3928  0.2879
 4349SOL    HW124680   0.519   0.291   6.377 -0.6558 -0.2898 -0.3113
 4349SOL    HW224681   0.381   0.337   6.362  0.3578 -0.0456  1.5616
 4350SOL     OW24682   2.498   3.022   9.479  0.3250 -0.1022 -0.1903
 4350SOL    HW124683   2.487   2.983   9.565 -1.2508 -1.0930 -0.8400
 4350SOL    HW224684   2.473   3.112   9.498  1.9172 -0.3257  2.9368
 4351SOL     OW24685   4.232   0.471   5.560  0.2887  0.5109  0.5515
 4351SOL    HW124686   4.240   0.522   5.640 -0.3656  0.1546  0.8419
 4351SOL    HW224687   4.139   0.477   5.539  0.8418  0.0903 -1.9796
 4352SOL     OW24688   1.928   2.779   6.752 -0.5979 -0.2289  0.3963
 4352SOL    HW124689   1.994   2.804   6.688 -1.5781 -0.4643 -0.7222
 4352SOL    HW224690   1.917   2.852   6.813  1.2393  0.1817  0.2346
 4353SOL     OW24691   4.413   3.036   7.011  0.6447 -0.9542  0.2465
 4353SOL    HW124692   4.423   2.945   6.984 -1.2833 -0.9540 -0.4655
 4353SOL    HW224693   4.382   3.075   6.929 -0.7186  1.2432  1.7941
 4354SOL     OW24694   4.438   0.512   4.679  0.3867 -0.2166  0.0967
 4354SOL    HW124695   4.381   0.529   4.604  0.0636  0.7679  0.5700
 4354SOL    HW224696   4.392   0.450   4.735 -1.5645  1.9101  0.8748
 4355SOL     OW24697   0.744   0.379   8.610 -0.0041 -0.0762 -0.5762
 4355SOL    HW124698   0.738   0.467   8.574 -4.0228 -0.6487 -1.3360
 4355SOL    HW224699   0.674   0.331   8.566  0.2144 -0.8293 -0.0928
 4356SOL     OW24700   4.431   2.539   8.587  0.2613 -0.6260 -0.1758
 4356SOL    HW124701   4.422   2.623   8.631  1.4902 -0.0423 -1.0354
 4356SOL    HW224702   4.475   2.489   8.656 -0.4672 -0.7239  0.2177
 4357SOL     OW24703   2.562   2.673  11.283 -0.3056 -0.4576  0.4727
 4357SOL    HW124704   2.467   2.668  11.283 -0.1074 -4.3802 -0.7522
 4357SOL    HW224705   2.570   2.721  11.365 -1.3292 -2.0617  1.5046
 4358SOL     OW24706   2.503   2.920   8.012  0.3539 -0.4360  0.2195
 4358SOL    HW124707   2.463   2.930   8.098  1.0697  2.0338  0.2779
 4358SOL    HW224708   2.505   2.825   8.012 -0.7846 -0.4620 -0.9465
 4359SOL     OW24709   1.860   3.726  12.820 -0.0699  0.2271 -0.5948
 4359SOL    HW124710   1.836   3.804  12.870  0.9126  0.3653 -0.3333
 4359SOL    HW224711   1.955   3.738  12.821  0.2121 -2.0519  0.0987
 4360SOL     OW24712   2.250   4.457   7.077 -0.3192  0.1062  0.2609
 4360SOL    HW124713   2.282   4.441   6.988 -1.5830  0.0279 -0.1798
 4360SOL    HW224714   2.183   4.522   7.056 -0.2702  0.2251  0.4808
 4361SOL     OW24715   2.470   2.325  11.585  0.2901  0.6221 -0.6539
 4361SOL    HW124716   2.507   2.318  11.673  2.7798  0.7411 -1.6926
 4361SOL    HW224717   2.416   2.404  11.589  2.2775  1.8377  2.0714
 4362SOL     OW24718   2.487   2.200   7.597  0.0883 -0.1606 -0.5547
 4362SOL    HW124719   2.540   2.193   7.677 -0.7627 -0.6449 -0.0376
 4362SOL    HW224720   2.552   2.185   7.529 -1.5172 -1.2279 -1.8329
 4363SOL     OW24721   2.130   0.958   9.128  0.3416 -0.6269  0.2810
 4363SOL    HW124722   2.185   0.955   9.207  1.2871 -0.5233 -0.3738
 4363SOL    HW224723   2.134   0.864   9.111 -1.7129 -0.7292  0.4172
 4364SOL     OW24724   2.115   3.116   1.634 -0.6274 -0.2498 -0.0802
 4364SOL    HW124725   2.058   3.161   1.572 -0.9067 -1.6585 -0.8455
 4364SOL    HW224726   2.161   3.051   1.581  0.0412 -0.0310  0.2269
 4365SOL     OW24727   1.639   1.435   5.960 -0.4955 -0.1948 -0.1401
 4365SOL    HW124728   1.640   1.516   6.011 -0.0834  0.0846 -0.5867
 4365SOL    HW224729   1.615   1.464   5.872 -0.3508  0.8351  0.1567
 4366SOL     OW24730   3.804   0.878   2.599 -0.0822 -0.3778  0.3755
 4366SOL    HW124731   3.767   0.792   2.618 -0.1623 -0.1068  1.4923
 4366SOL    HW224732   3.745   0.931   2.653  0.3841 -1.1832  1.6836
 4367SOL     OW24733   2.473   1.722   3.603 -0.1155  0.6469  0.7981
 4367SOL    HW124734   2.413   1.758   3.668  0.8512 -0.1393  2.1535
 4367SOL    HW224735   2.417   1.735   3.527  0.5477  0.8005  0.3390
 4368SOL     OW24736   2.699   2.003  16.908 -0.8508  0.2772 -0.4869
 4368SOL    HW124737   2.686   2.082  16.857  0.2717  0.4568 -0.5021
 4368SOL    HW224738   2.717   2.031  16.998  0.5684 -0.0518 -0.6633
 4369SOL     OW24739   3.822   0.879   7.682 -0.1992  0.1066  0.3096
 4369SOL    HW124740   3.858   0.870   7.594 -0.0512  0.2330  0.3580
 4369SOL    HW224741   3.904   0.900   7.727  0.6029 -0.5186 -0.8610
 4370SOL     OW24742   3.354   2.334   2.170  0.0953 -0.3420  0.4458
 4370SOL    HW124743   3.441   2.375   2.167 -0.2296  0.1781 -2.4837
 4370SOL    HW224744   3.310   2.390   2.105  0.1645 -0.7686  0.0326
 4371SOL     OW24745   2.977   3.904   1.823 -0.3431 -0.2733  0.0237
 4371SOL    HW124746   2.902   3.910   1.764 -1.5430  0.5209  1.6266
 4371SOL    HW224747   3.036   3.883   1.750 -0.0770  0.7986 -0.0640
 4372SOL     OW24748   0.597   2.321   5.888 -0.5274 -0.0214 -0.2335
 4372SOL    HW124749   0.584   2.252   5.824 -0.0439 -2.5163  2.3601
 4372SOL    HW224750   0.589   2.394   5.826  1.7693  0.4171  0.0029
 4373SOL     OW24751   4.538   3.970   8.420  0.2002 -0.9025  0.6513
 4373SOL    HW124752   4.574   3.941   8.504  2.7559 -0.0673 -0.1505
 4373SOL    HW224753   4.524   4.060   8.450  0.7221 -0.8188  0.6578
 4374SOL     OW24754   1.230   0.648   8.262 -0.4507 -0.2567 -0.1988
 4374SOL    HW124755   1.311   0.686   8.297 -0.7040 -1.2652  1.4710
 4374SOL    HW224756   1.206   0.583   8.327 -2.6560  1.2165  0.4458
 4375SOL     OW24757   0.136   0.988   6.733 -0.1229  0.0391  0.5260
 4375SOL    HW124758   0.139   1.074   6.775  1.3678 -1.2173  3.0449
 4375SOL    HW224759   0.209   0.940   6.774  0.7173  1.2001  0.3835
 4376SOL     OW24760   3.454   1.101   4.627  0.4197 -0.3375 -0.1047
 4376SOL    HW124761   3.541   1.067   4.649  0.5663 -0.6792 -1.2041
 4376SOL    HW224762   3.455   1.096   4.531 -0.7947 -1.6379 -0.0460
 4377SOL     OW24763   1.129   2.554  16.839  0.1553  0.2408 -0.4588
 4377SOL    HW124764   1.098   2.508  16.761  0.3201  1.2145 -1.0996
 4377SOL    HW224765   1.190   2.622  16.810 -0.7871  1.4375  0.3694
 4378SOL     OW24766   0.785   3.857  15.429  0.2715 -0.0819  0.2109
 4378SOL    HW124767   0.705   3.837  15.380  0.2668 -0.3803  0.3344
 4378SOL    HW224768   0.850   3.797  15.394  2.0114  0.5139  2.4370
 4379SOL     OW24769   2.506   1.806  10.634 -0.0950 -0.0902 -0.0328
 4379SOL    HW124770   2.554   1.840  10.709  0.3466 -2.4712  0.7461
 4379SOL    HW224771   2.501   1.714  10.659  0.7861 -0.0398  0.3127
 4380SOL     OW24772   3.722   0.242   7.436  0.3727 -0.1749 -0.5312
 4380SOL    HW124773   3.789   0.263   7.501  1.2238 -0.2043 -1.3845
 4380SOL    HW224774   3.648   0.284   7.480 -1.0062 -0.9316 -2.1093
 4381SOL     OW24775   2.853   2.878   1.967 -0.2420 -0.0744  0.0880
 4381SOL    HW124776   2.773   2.875   2.019 -1.4030 -0.7990 -1.7760
 4381SOL    HW224777   2.910   2.812   2.006 -0.0666  0.1996  0.3006
 4382SOL     OW24778   1.651   1.472   9.003 -0.1887  0.0999 -0.0086
 4382SOL    HW124779   1.741   1.504   8.999 -0.1461  0.0726  0.7879
 4382SOL    HW224780   1.660   1.397   9.061  0.6577  0.5566  0.4470
 4383SOL     OW24781   2.665   0.614  16.427  0.2103  0.6139  0.0997
 4383SOL    HW124782   2.687   0.686  16.368  0.0398  0.8728  0.3476
 4383SOL    HW224783   2.714   0.643  16.504  1.5229  1.1730 -0.9489
 4384SOL     OW24784   0.354   3.912   8.523 -0.6268  1.0827 -0.2865
 4384SOL    HW124785   0.394   3.987   8.566 -2.4587  1.1144  1.3542
 4384SOL    HW224786   0.363   3.838   8.584 -1.6964 -0.5743 -2.1436
 4385SOL     OW24787   2.914   0.571   8.109 -0.1993 -0.6829 -0.1252
 4385SOL    HW124788   2.903   0.628   8.184 -1.8831 -0.0304 -0.8622
 4385SOL    HW224789   2.893   0.635   8.041  1.4365 -0.0194 -0.0041
 4386SOL     OW24790   3.168   1.050   9.124  0.0339 -0.1490 -0.0519
 4386SOL    HW124791   3.252   1.048   9.169 -1.1872 -0.9382  2.1930
 4386SOL    HW224792   3.154   0.956   9.125  2.4382 -0.4754  1.6845
 4387SOL     OW24793   0.605   4.400   8.882 -0.0769 -0.3458 -0.0239
 4387SOL    HW124794   0.606   4.387   8.787  0.8398 -2.2123  0.2454
 4387SOL    HW224795   0.699   4.394   8.897  0.0628  0.0147 -0.7473
 4388SOL     OW24796   4.425   0.219  17.005  0.5396  0.8576 -0.2587
 4388SOL    HW124797   4.366   0.200  16.932 -0.3981 -1.2055  1.0394
 4388SOL    HW224798   4.489   0.155  16.974  2.1729  2.4444 -0.1504
 4389SOL     OW24799   3.101   3.755   0.926  0.4207  0.1104 -0.0650
 4389SOL    HW124800   3.126   3.811   0.852  1.8789  0.4469  0.6955
 4389SOL    HW224801   3.179   3.700   0.921 -1.1505 -2.2483  1.3396
 4390SOL     OW24802   1.827   4.695   0.254  0.3440 -0.3096 -0.3273
 4390SOL    HW124803   1.842   0.045   0.292 -2.1106  0.2270 -0.6399
 4390SOL    HW224804   1.752   4.664   0.304  0.4089  0.4291  0.2269
 4391SOL     OW24805   1.354   1.650   2.318 -0.5270  0.3562  0.1136
 4391SOL    HW124806   1.375   1.618   2.230 -0.6766  0.9307 -0.1362
 4391SOL    HW224807   1.329   1.567   2.357  1.6753  0.1812  1.1288
 4392SOL     OW24808   1.506   1.109   1.008 -0.1515 -0.2855 -0.2141
 4392SOL    HW124809   1.503   1.070   0.921  0.9821 -0.9312  0.0355
 4392SOL    HW224810   1.600   1.104   1.029 -0.6464  0.7907  2.3130
 4393SOL     OW24811   3.392   2.825   5.053 -0.5294 -0.4865 -0.6690
 4393SOL    HW124812   3.422   2.851   5.140  3.0211  0.5228 -2.1882
 4393SOL    HW224813   3.323   2.891   5.043 -0.6991 -0.1762  2.6949
 4394SOL     OW24814   1.136   2.354   0.462 -0.1350 -0.4774 -0.6132
 4394SOL    HW124815   1.088   2.334   0.543  0.6629  1.9438  0.4607
 4394SOL    HW224816   1.145   2.264   0.432 -0.7597 -0.8041  0.1847
 4395SOL     OW24817   1.642   1.985   8.767 -0.5462 -0.2035  0.4959
 4395SOL    HW124818   1.698   2.058   8.793  0.0201 -0.5872  0.3534
 4395SOL    HW224819   1.552   2.015   8.779 -0.7646 -0.5348 -0.3402
 4396SOL     OW24820   2.492   0.916   0.498 -0.3233 -0.5354  0.4885
 4396SOL    HW124821   2.421   0.902   0.435  1.4909 -0.2536 -1.6523
 4396SOL    HW224822   2.556   0.948   0.434 -0.4015  0.6460  1.0046
 4397SOL     OW24823   1.978   2.434   5.970  0.1066  0.3681 -0.2209
 4397SOL    HW124824   2.046   2.481   6.018 -0.8293 -0.7487  2.2076
 4397SOL    HW224825   2.009   2.433   5.879 -4.5655 -0.6443 -1.7946
 4398SOL     OW24826   3.799   4.481   8.296 -0.0260 -0.4288 -0.3235
 4398SOL    HW124827   3.772   4.438   8.378  2.0980  0.3190  0.7741
 4398SOL    HW224828   3.719   4.523   8.264  0.0084  1.5399  2.2315
 4399SOL     OW24829   2.060   0.463   0.605 -0.2492  0.5820 -0.5008
 4399SOL    HW124830   2.048   0.435   0.515  0.8204  0.1218 -0.4993
 4399SOL    HW224831   1.990   0.526   0.624 -1.8792 -1.5754  0.5840
 4400SOL     OW24832   3.675   2.301   5.248 -0.2747 -0.3886 -0.1580
 4400SOL    HW124833   3.767   2.302   5.275 -1.1462  0.2801  2.8491
 4400SOL    HW224834   3.637   2.242   5.313  0.4093 -1.5117 -0.7868
 4401SOL     OW24835   3.383   4.484   1.484 -0.1043  0.0178 -0.1180
 4401SOL    HW124836   3.331   4.404   1.477  0.7729 -0.4027 -1.6736
 4401SOL    HW224837   3.459   4.446   1.527 -0.8009  0.1311  1.2205
 4402SOL     OW24838   4.657   0.944   2.176  0.0581 -0.4450  0.0301
 4402SOL    HW124839   4.713   0.868   2.192  1.0054  0.2193 -0.1386
 4402SOL    HW224840   4.713   1.003   2.125 -0.2007 -1.1799 -1.1208
 4403SOL     OW24841   0.991   4.057   9.371  0.6139  0.4481  0.0596
 4403SOL    HW124842   1.059   4.119   9.343  0.0563  0.7468 -0.6415
 4403SOL    HW224843   1.021   4.040   9.460 -2.2574  1.5156  1.2195
 4404SOL     OW24844   4.064   1.118   6.263  0.1624 -0.0375  0.0161
 4404SOL    HW124845   4.012   1.145   6.339  2.3551 -2.3277  2.3377
 4404SOL    HW224846   4.113   1.197   6.240 -0.5641  0.8640  1.5654
 4405SOL     OW24847   0.774   0.311   4.642 -0.0201  0.0598 -0.1476
 4405SOL    HW124848   0.858   0.274   4.668 -0.7811 -0.2049  1.8771
 4405SOL    HW224849   0.808   0.360   4.567  0.4400 -0.5901 -0.3638
 4406SOL     OW24850   1.607   3.524   2.476 -0.8806 -0.0109  0.6488
 4406SOL    HW124851   1.656   3.571   2.543 -0.2055  0.0507  0.1189
 4406SOL    HW224852   1.649   3.438   2.478 -1.8438 -0.5561 -1.8627
 4407SOL     OW24853   0.161   2.443   5.065  0.5482  0.4662 -0.6522
 4407SOL    HW124854   0.094   2.381   5.094  2.4305 -0.6661  1.2497
 4407SOL    HW224855   0.217   2.399   5.000 -1.6644 -0.7710 -1.6986
 4408SOL     OW24856   2.065   4.301   1.001 -0.4884 -0.0790  0.1981
 4408SOL    HW124857   2.072   4.263   0.914  1.5205 -1.8797  1.1676
 4408SOL    HW224858   1.997   4.245   1.039  0.3672 -0.9114  0.4783
 4409SOL     OW24859   0.213   0.139   8.392  0.0832 -0.4055  0.1682
 4409SOL    HW124860   0.296   0.093   8.406  1.1825  1.8257  1.1594
 4409SOL    HW224861   0.154   0.068   8.416  1.7095 -1.6903  0.3650
 4410SOL     OW24862   1.120   2.775   1.785  0.2255 -0.7722 -0.3351
 4410SOL    HW124863   1.142   2.714   1.855 -1.3529 -3.1054 -1.8663
 4410SOL    HW224864   1.052   2.827   1.829  2.3747  1.0470  0.8757
 4411SOL     OW24865   2.462   1.174   8.108  1.0279  0.8783 -0.4640
 4411SOL    HW124866   2.393   1.111   8.129  2.0513 -0.5683 -1.3829
 4411SOL    HW224867   2.424   1.257   8.134 -1.1911 -0.2280 -0.2086
 4412SOL     OW24868   0.836   0.626   7.762 -0.5196  0.6123  0.1772
 4412SOL    HW124869   0.920   0.633   7.716  0.7431  1.1883  2.5828
 4412SOL    HW224870   0.827   0.706   7.813  1.9618  0.4599  0.8645
 4413SOL     OW24871   1.188   1.028   4.283  0.3554  0.2679 -0.2538
 4413SOL    HW124872   1.173   1.122   4.288  0.8999  0.3798 -0.7595
 4413SOL    HW224873   1.216   1.006   4.195  0.4673  0.3698 -0.2430
 4414SOL     OW24874   1.195   2.975   2.711 -0.0278  0.0026  0.1836
 4414SOL    HW124875   1.138   3.051   2.696 -1.8140 -0.8490  2.7858
 4414SOL    HW224876   1.280   3.018   2.714 -0.0060 -0.0262 -0.0499
 4415SOL     OW24877   4.323   2.903  14.979 -0.4542 -0.1072  0.3918
 4415SOL    HW124878   4.351   2.971  15.041  0.2502 -0.6885  0.7165
 4415SOL    HW224879   4.235   2.880  15.007 -0.7631  1.8926  1.0304
 4416SOL     OW24880   0.947   4.101   4.609 -0.3684  0.1678  0.4031
 4416SOL    HW124881   0.901   4.184   4.594 -2.3255 -0.9330  0.4401
 4416SOL    HW224882   0.960   4.079   4.517  4.3539  1.1406  0.8160
 4417SOL     OW24883   4.174   4.202   1.896  0.2988  0.2544 -0.2212
 4417SOL    HW124884   4.235   4.131   1.876 -0.4930 -0.1614 -1.1183
 4417SOL    HW224885   4.166   4.252   1.815 -0.7268 -0.2887 -0.4484
 4418SOL     OW24886   0.606   1.508   4.073  0.5858  0.7810  0.1685
 4418SOL    HW124887   0.553   1.517   4.152 -0.1299  1.5273 -0.3845
 4418SOL    HW224888   0.684   1.560   4.093 -1.3990  3.2792  1.5453
 4419SOL     OW24889   2.219   0.018   3.724  0.2290 -0.4543 -0.2301
 4419SOL    HW124890   2.286   0.008   3.791 -0.4471  0.1292  0.5328
 4419SOL    HW224891   2.152   4.718   3.782  0.1633  2.9164  1.8298
 4420SOL     OW24892   1.096   1.209   3.394  0.7832  0.1308 -0.4843
 4420SOL    HW124893   1.037   1.284   3.402  0.8379  0.3214 -1.8315
 4420SOL    HW224894   1.163   1.239   3.456 -0.9844  2.0514  0.4930
 4421SOL     OW24895   0.710   0.338  11.568  0.1308 -0.1298  0.0298
 4421SOL    HW124896   0.723   0.369  11.658 -2.0225  0.8467  0.0110
 4421SOL    HW224897   0.615   0.346  11.568  0.1388 -0.1098  2.0865
 4422SOL     OW24898   2.589   2.316   6.438  0.4274  0.5050  0.0087
 4422SOL    HW124899   2.517   2.278   6.489  1.6462 -0.8309  0.7320
 4422SOL    HW224900   2.616   2.396   6.483 -0.4518 -0.0535  1.5243
 4423SOL     OW24901   1.393   0.747   2.034  0.1540  0.0244 -0.0519
 4423SOL    HW124902   1.361   0.711   1.952 -0.2972 -2.5535  1.2425
 4423SOL    HW224903   1.395   0.666   2.086 -0.6967  1.1098  1.6742
 4424SOL     OW24904   4.438   1.032   3.067 -0.3850 -0.5486  0.6088
 4424SOL    HW124905   4.481   1.107   3.109 -0.1096  0.0013 -0.6506
 4424SOL    HW224906   4.505   1.001   3.007 -2.1546  0.1849 -1.7623
 4425SOL     OW24907   1.934   1.263   3.548  0.2404 -0.0775 -0.2724
 4425SOL    HW124908   1.935   1.252   3.453  0.2564 -1.6975 -0.0696
 4425SOL    HW224909   1.886   1.346   3.552  1.1667  0.4926 -0.9388
 4426SOL     OW24910   2.272   3.013   1.079  0.0874 -0.3949 -0.1430
 4426SOL    HW124911   2.286   2.920   1.096  1.0343 -0.3372 -0.6074
 4426SOL    HW224912   2.272   3.013   0.983 -0.8022 -2.1513 -0.1327
 4427SOL     OW24913   1.786   0.328  14.217  0.7036 -0.5958  0.5305
 4427SOL    HW124914   1.791   0.416  14.255 -2.5594  0.1985 -0.9194
 4427SOL    HW224915   1.876   0.304  14.192 -0.0081 -0.7058 -1.8833
 4428SOL     OW24916   2.615   3.849   4.335  0.6306 -0.2370 -0.4001
 4428SOL    HW124917   2.542   3.903   4.304  0.0582 -1.0756 -0.5354
 4428SOL    HW224918   2.588   3.761   4.308  1.3832 -0.3343 -0.8354
 4429SOL     OW24919   3.423   1.464   8.634  0.0848 -0.1497  0.1273
 4429SOL    HW124920   3.385   1.392   8.686  0.0574  1.0908  1.8257
 4429SOL    HW224921   3.417   1.532   8.701 -1.5866 -0.7158  0.5611
 4430SOL     OW24922   1.800   0.837   2.090 -0.4571 -0.0447  0.2247
 4430SOL    HW124923   1.717   0.860   2.132 -0.1560  1.1480  0.1465
 4430SOL    HW224924   1.862   0.833   2.162  0.4464 -1.1445 -0.6029
 4431SOL     OW24925   0.026   2.542  12.339 -0.6401  0.9504 -0.2575
 4431SOL    HW124926   4.704   2.468  12.324 -1.0137  1.0598  0.6662
 4431SOL    HW224927   4.735   2.566  12.428 -0.6325  0.2469 -0.0650
 4432SOL     OW24928   2.071   1.853   9.361 -0.1082  0.0177 -0.0843
 4432SOL    HW124929   2.067   1.919   9.291 -1.5888 -0.9758 -0.9535
 4432SOL    HW224930   2.112   1.895   9.436 -0.5145  0.3627 -0.0565
 4433SOL     OW24931   0.431   3.999  16.162 -0.2096  0.5286  0.3563
 4433SOL    HW124932   0.446   4.008  16.068 -0.5780 -1.0145  0.1659
 4433SOL    HW224933   0.384   3.916  16.162  2.1316 -0.8103  0.9424
 4434SOL     OW24934   0.019   0.213   0.968  0.4939 -0.1126 -0.4956
 4434SOL    HW124935   4.681   0.161   0.940  0.2755  1.3831 -2.7860
 4434SOL    HW224936   4.733   0.306   0.958  1.1390 -0.0767 -1.7055
 4435SOL     OW24937   1.328   4.142   3.011  0.1471 -0.7382 -0.1358
 4435SOL    HW124938   1.351   4.187   2.929 -1.9731  1.1573  0.3230
 4435SOL    HW224939   1.341   4.050   2.987  0.5765 -0.6850 -0.1130
 4436SOL     OW24940   3.825   3.987   5.691  0.4434  0.3559 -0.0307
 4436SOL    HW124941   3.810   3.907   5.641 -2.0047  0.8159 -0.0270
 4436SOL    HW224942   3.869   3.964   5.772  0.0129  0.9066  0.3571
 4437SOL     OW24943   4.065   1.076   6.755 -0.2184 -0.1460 -0.0035
 4437SOL    HW124944   4.081   1.045   6.844 -0.5049 -2.8559 -0.9000
 4437SOL    HW224945   4.113   1.008   6.708  0.6854 -0.1459  0.9365
 4438SOL     OW24946   0.764   3.202   4.578  0.2664 -0.2739 -0.2712
 4438SOL    HW124947   0.839   3.171   4.629  1.1204  1.7096 -0.3194
 4438SOL    HW224948   0.780   3.296   4.584  1.2412 -0.5087  0.6486
 4439SOL     OW24949   0.740   4.500   0.858  0.4082  0.3965 -0.0073
 4439SOL    HW124950   0.707   4.478   0.945  0.4430  0.1128 -0.0680
 4439SOL    HW224951   0.833   4.484   0.875  0.1946 -0.0541  0.7391
 4440SOL     OW24952   4.213   2.348   8.549  0.3447  0.3894  0.2843
 4440SOL    HW124953   4.276   2.418   8.566  0.2593  0.3826  0.6296
 4440SOL    HW224954   4.154   2.358   8.624 -0.2101 -0.1790 -0.0685
 4441SOL     OW24955   1.533   2.757  13.357 -0.2417  0.0705  0.2243
 4441SOL    HW124956   1.440   2.767  13.339  0.7223 -0.1371 -4.9040
 4441SOL    HW224957   1.567   2.727  13.272  0.3197 -0.8981  0.7786
 4442SOL     OW24958   1.642   2.521   5.604  0.9884  0.1391  0.6605
 4442SOL    HW124959   1.627   2.555   5.516 -0.4648  0.1462  0.9177
 4442SOL    HW224960   1.560   2.518   5.652  0.1503  0.6219 -0.7359
 4443SOL     OW24961   2.082   1.590   7.779  0.0957 -0.1850 -0.1347
 4443SOL    HW124962   2.078   1.684   7.760  1.5970 -0.3409 -1.2358
 4443SOL    HW224963   1.992   1.564   7.796  0.2986  0.6567  2.1588
 4444SOL     OW24964   0.016   4.505   6.623  0.4647 -0.3889  0.0292
 4444SOL    HW124965   0.031   4.453   6.544 -1.0242  0.6262 -0.9172
 4444SOL    HW224966   0.087   4.570   6.627  0.0888 -0.0485  1.1591
 4445SOL     OW24967   4.733   1.879   3.485  0.2814 -0.3253  0.6193
 4445SOL    HW124968   0.064   1.816   3.513  1.2943  1.2311  1.6460
 4445SOL    HW224969   0.006   1.868   3.391 -1.9085 -0.3947  0.3898
 4446SOL     OW24970   1.278   4.064   3.589  0.0568  0.3857 -0.6829
 4446SOL    HW124971   1.336   3.995   3.555  0.0993 -0.5230  1.1862
 4446SOL    HW224972   1.200   4.016   3.616 -1.7805  2.5662 -2.1907
 4447SOL     OW24973   3.716   0.868   2.228 -0.3662 -0.1053  0.0521
 4447SOL    HW124974   3.641   0.926   2.241 -0.1111 -0.5191  3.5424
 4447SOL    HW224975   3.793   0.913   2.263 -1.3392  0.3793  1.5689
 4448SOL     OW24976   0.791   1.699   1.680  0.2588  0.1108  0.3454
 4448SOL    HW124977   0.759   1.776   1.633 -0.5168 -0.8072 -0.6428
 4448SOL    HW224978   0.886   1.711   1.679  0.2458  0.1567 -0.4697
 4449SOL     OW24979   3.563   4.103   8.242 -0.8325  0.2776  0.2574
 4449SOL    HW124980   3.541   4.172   8.304  1.8444  1.5560 -0.2083
 4449SOL    HW224981   3.486   4.050   8.262 -0.6046 -0.8692 -1.8327
 4450SOL     OW24982   3.872   4.070   2.514 -0.0842  0.0318  0.5075
 4450SOL    HW124983   3.964   4.096   2.505 -0.1558  0.1347  0.0897
 4450SOL    HW224984   3.838   4.127   2.584 -1.7403  0.8232 -0.9709
 4451SOL     OW24985   0.115   3.845   7.122 -0.1678 -0.0179 -0.2810
 4451SOL    HW124986   0.192   3.900   7.131 -1.1497  1.0939  1.3256
 4451SOL    HW224987   0.043   3.893   7.163  0.0852 -1.1573  1.5022
 4452SOL     OW24988   0.198   4.112   9.330  0.2976 -0.1683  0.2142
 4452SOL    HW124989   0.194   4.017   9.324 -1.2254 -0.2983  3.3939
 4452SOL    HW224990   0.119   4.136   9.379  0.3324  1.8481 -0.6950
 4453SOL     OW24991   2.981   0.592   2.374  0.1393  0.5114  0.2995
 4453SOL    HW124992   3.031   0.654   2.427  0.3049  0.9541 -0.3691
 4453SOL    HW224993   2.917   0.551   2.432 -1.7113  4.0464  0.8056
 4454SOL     OW24994   2.619   0.986   2.380 -0.1854  0.2829 -0.4815
 4454SOL    HW124995   2.537   0.937   2.376 -1.3234  2.1254  0.0558
 4454SOL    HW224996   2.627   1.010   2.472  0.1919 -4.3527  0.6890
 4455SOL     OW24997   2.495   4.133   5.946 -0.4853 -0.1061 -0.3679
 4455SOL    HW124998   2.421   4.075   5.928 -1.6761  1.6480 -1.1253
 4455SOL    HW224999   2.536   4.137   5.860  1.0868 -2.0765  0.2771
 4456SOL     OW25000   4.344   3.129  10.978 -0.2784  0.2536 -0.2995
 4456SOL    HW125001   4.327   3.072  10.903 -0.3663  0.7133 -0.6281
 4456SOL    HW225002   4.324   3.211  10.933 -2.0248 -0.1462 -0.2656
 4457SOL     OW25003   3.908   1.740   9.418 -0.0365 -0.2454 -0.1845
 4457SOL    HW125004   3.890   1.652   9.450 -0.2644 -1.2014 -2.9315
 4457SOL    HW225005   3.998   1.739   9.448 -0.0140  1.5978 -0.1832
 4458SOL     OW25006   1.023   2.864   6.622  0.1408 -0.4625  0.1416
 4458SOL    HW125007   0.934   2.875   6.588 -0.5010 -1.5141  1.4596
 4458SOL    HW225008   1.046   2.781   6.580  1.6591 -0.2427  0.5429
 4459SOL     OW25009   0.102   0.503   7.727 -0.1316 -0.2722 -0.1486
 4459SOL    HW125010   0.152   0.583   7.714  0.5803 -0.4567  1.4321
 4459SOL    HW225011   0.033   0.510   7.661  0.2187  0.5898 -0.4212
 4460SOL     OW25012   3.926   0.820   8.567  0.4548  0.3865 -0.1250
 4460SOL    HW125013   3.949   0.753   8.503  0.0940  1.2912 -1.2074
 4460SOL    HW225014   3.850   0.781   8.610  0.4533 -0.9130 -1.2941
 4461SOL     OW25015   3.778   0.625   2.698  0.5908  0.6096 -0.0839
 4461SOL    HW125016   3.691   0.589   2.683  0.2913  0.5157  1.9080
 4461SOL    HW225017   3.783   0.560   2.768 -0.3001  0.9180  0.2695
 4462SOL     OW25018   4.028   2.126   6.640  0.0846  0.7210 -0.1694
 4462SOL    HW125019   4.005   2.205   6.592  0.3998 -0.5766 -2.4610
 4462SOL    HW225020   4.090   2.091   6.577  0.2555  1.9822 -0.6784
 4463SOL     OW25021   1.447   3.201  17.342 -0.4365  0.1695 -0.5373
 4463SOL    HW125022   1.364   3.195  17.295 -0.0466 -1.2832 -1.0324
 4463SOL    HW225023   1.412   3.218  17.429  1.2416 -0.1719  0.2171
 4464SOL     OW25024   3.237   4.563   9.374 -0.2789  0.2295 -0.3985
 4464SOL    HW125025   3.209   4.591   9.286 -1.6599 -1.1407 -0.3958
 4464SOL    HW225026   3.316   4.518   9.345  0.4988  0.4351  1.4372
 4465SOL     OW25027   1.196   1.500  14.277 -0.1488 -0.3604 -0.4441
 4465SOL    HW125028   1.172   1.408  14.261  2.5323 -1.3575  1.1944
 4465SOL    HW225029   1.232   1.532  14.195 -0.9570 -0.4325 -0.8291
 4466SOL     OW25030   2.376   4.448   8.081  1.2042  0.1702 -0.0190
 4466SOL    HW125031   2.420   4.432   7.997  0.6405  0.7128 -0.4119
 4466SOL    HW225032   2.386   4.366   8.129  0.8603  0.0204 -0.2045
 4467SOL     OW25033   3.805   1.683   0.134  0.0316 -0.8081  0.4095
 4467SOL    HW125034   3.854   1.663   0.055  3.1768  1.8029  1.7105
 4467SOL    HW225035   3.799   1.597   0.176  0.2953 -0.5675  0.9491
 4468SOL     OW25036   2.697   2.052   8.029 -0.3704 -0.2687  1.0070
 4468SOL    HW125037   2.712   2.139   7.992 -1.5847 -0.1465  0.8015
 4468SOL    HW225038   2.713   1.985   7.963  0.0441  2.4655 -1.6384
 4469SOL     OW25039   1.221   3.681   4.836 -0.5832 -0.4923 -0.5129
 4469SOL    HW125040   1.302   3.650   4.877 -1.6106 -0.8399  1.2381
 4469SOL    HW225041   1.239   3.775   4.837  0.8745 -0.7802  0.4329
 4470SOL     OW25042   0.651   2.937   1.051 -0.1339  0.0670  0.1136
 4470SOL    HW125043   0.653   2.842   1.037  0.7155 -0.1019  1.3450
 4470SOL    HW225044   0.559   2.964   1.054 -0.6532 -1.8464  1.4294
 4471SOL     OW25045   2.279   1.697   8.673 -0.0696  0.2516 -0.3843
 4471SOL    HW125046   2.362   1.737   8.697 -0.5523  0.8192  0.3163
 4471SOL    HW225047   2.271   1.632   8.743  2.3406 -0.1109 -0.4516
 4472SOL     OW25048   2.724   4.017   9.361 -0.1637  0.4403 -0.5266
 4472SOL    HW125049   2.765   4.087   9.309  3.1925 -0.5343  0.8387
 4472SOL    HW225050   2.742   4.046   9.450  1.2750  0.3621 -0.7825
 4473SOL     OW25051   2.916   3.817   3.831  0.2605 -0.3798 -0.3818
 4473SOL    HW125052   2.863   3.853   3.902  0.1318 -0.2050 -0.5662
 4473SOL    HW225053   2.920   3.895   3.777  0.6616 -0.4460 -0.4453
 4474SOL     OW25054   3.859   4.110   1.427  0.3227 -0.5435 -0.2338
 4474SOL    HW125055   3.924   4.079   1.364  2.1756  2.0474  0.3795
 4474SOL    HW225056   3.903   4.193   1.445  1.3087 -1.2699  0.7267
 4475SOL     OW25057   1.617   1.822  15.896  0.4365  0.3579 -0.5307
 4475SOL    HW125058   1.611   1.879  15.819 -0.2444 -1.1728 -1.6259
 4475SOL    HW225059   1.642   1.876  15.971  0.4787 -2.4758  1.5124
 4476SOL     OW25060   4.719   3.265   0.719 -0.0804  0.4480 -0.0851
 4476SOL    HW125061   4.679   3.332   0.664  1.1828  1.7907  0.6462
 4476SOL    HW225062   4.724   3.196   0.652 -2.1780 -0.0665  0.2696
 4477SOL     OW25063   0.597   3.035   3.234 -0.2309 -0.7600 -0.6801
 4477SOL    HW125064   0.576   3.070   3.320  1.0548  0.2326 -0.7681
 4477SOL    HW225065   0.624   2.956   3.281 -0.4014  0.7461  1.9354
 4478SOL     OW25066   1.215   4.234   9.764 -0.0767 -0.4670 -0.0398
 4478SOL    HW125067   1.278   4.306   9.766 -0.0569 -0.4090 -2.5964
 4478SOL    HW225068   1.242   4.194   9.846 -2.5509 -1.0999  0.4834
 4479SOL     OW25069   3.132   0.217  15.726 -0.3625 -0.3748  0.0759
 4479SOL    HW125070   3.109   0.206  15.634 -2.0999  0.1770  0.4522
 4479SOL    HW225071   3.227   0.219  15.711 -0.7778  0.7704 -2.4426
 4480SOL     OW25072   4.113   2.685   1.437  0.7012 -0.5312 -0.5633
 4480SOL    HW125073   4.021   2.682   1.464  0.3549 -2.0298 -1.8730
 4480SOL    HW225074   4.146   2.629   1.507  0.7597 -0.8951 -0.8821
 4481SOL     OW25075   0.071   0.520   8.794  0.3980 -1.0078  0.3563
 4481SOL    HW125076   0.163   0.533   8.815  0.5912  0.5490 -1.4459
 4481SOL    HW225077   0.058   0.615   8.793  0.7918 -0.9555  0.0703
 4482SOL     OW25078   3.314   0.358   4.836  0.2545 -0.4123 -0.5302
 4482SOL    HW125079   3.409   0.357   4.846  0.2272  0.0178 -0.2364
 4482SOL    HW225080   3.302   0.434   4.893  0.6257  1.0305 -2.3771
 4483SOL     OW25081   4.323   1.221   7.602 -0.1448  0.0999 -0.0572
 4483SOL    HW125082   4.340   1.214   7.696 -1.0264  0.4412  0.1254
 4483SOL    HW225083   4.412   1.203   7.569 -0.4125 -1.2892 -0.0316
 4484SOL     OW25084   3.622   0.869   3.790 -0.2150  0.0619  0.1152
 4484SOL    HW125085   3.630   0.955   3.831 -0.7555 -0.2785  0.9307
 4484SOL    HW225086   3.652   0.807   3.856  2.5190  2.6012  1.2869
 4485SOL     OW25087   1.542   2.577   2.483 -0.3701  1.1147  0.0304
 4485SOL    HW125088   1.509   2.622   2.405  0.2731 -0.7940 -1.3455
 4485SOL    HW225089   1.635   2.593   2.465 -0.3605 -0.7775 -1.5904
 4486SOL     OW25090   0.282   4.105   6.990 -0.4141 -0.1772  0.8011
 4486SOL    HW125091   0.289   4.024   7.041 -1.0177 -2.2771 -2.4582
 4486SOL    HW225092   0.242   4.090   6.905 -0.3365 -0.5429  0.8303
 4487SOL     OW25093   1.602   0.916  10.952  0.2842  0.1509  0.1058
 4487SOL    HW125094   1.663   0.857  10.995 -0.2001 -0.0566  0.5095
 4487SOL    HW225095   1.558   0.854  10.895 -1.2949 -0.1103  1.6093
 4488SOL     OW25096   0.720   0.356   2.892 -0.5511 -0.3719 -0.6479
 4488SOL    HW125097   0.806   0.323   2.919 -0.1624  2.3611  1.4058
 4488SOL    HW225098   0.664   0.320   2.960 -0.4966  1.2626  0.2415
 4489SOL     OW25099   2.994   4.573  17.654 -0.7241 -0.1134 -0.4162
 4489SOL    HW125100   3.003   4.583  17.559 -0.8329 -0.4980 -0.4637
 4489SOL    HW225101   3.004   4.665  17.680 -0.2154 -0.4432  0.5315
 4490SOL     OW25102   2.158   3.314   1.785  0.1833 -0.3531  0.0368
 4490SOL    HW125103   2.224   3.371   1.745 -3.0775  2.8305 -0.7459
 4490SOL    HW225104   2.156   3.244   1.720 -1.6075 -0.7460  0.5305
 4491SOL     OW25105   1.102   2.907   8.787 -0.2158 -0.2415 -0.4354
 4491SOL    HW125106   1.075   2.995   8.757  1.4038 -0.4821 -2.6315
 4491SOL    HW225107   1.115   2.912   8.881 -0.3257 -0.6011 -0.4034
 4492SOL     OW25108   0.600   2.646   4.680 -0.1446  0.1987 -0.6363
 4492SOL    HW125109   0.560   2.564   4.707  1.3152 -0.1148  0.6163
 4492SOL    HW225110   0.637   2.675   4.764  0.3338 -2.2088 -0.0004
 4493SOL     OW25111   2.999   4.484   5.893  0.6835  0.6618  0.3289
 4493SOL    HW125112   3.046   4.449   5.817 -0.5528  0.2871 -0.2543
 4493SOL    HW225113   2.957   4.403   5.922 -0.1654  1.0148  0.0791
 4494SOL     OW25114   4.507   3.890  16.167 -0.2368 -0.1490 -0.3735
 4494SOL    HW125115   4.501   3.937  16.250  0.7636 -1.2669  0.3369
 4494SOL    HW225116   4.495   3.801  16.201 -1.1217 -0.1302 -0.6270
 4495SOL     OW25117   0.918   2.566   1.319 -0.6284 -0.2805 -0.7262
 4495SOL    HW125118   0.945   2.510   1.391 -0.4147  2.1219  1.0874
 4495SOL    HW225119   0.930   2.654   1.355 -0.9641  0.5490 -2.6224
 4496SOL     OW25120   1.558   0.501  16.964 -0.5772  0.3763 -0.9043
 4496SOL    HW125121   1.527   0.564  16.900 -0.8325 -0.3718 -1.5219
 4496SOL    HW225122   1.508   0.530  17.040 -0.5667  2.1372 -1.5635
 4497SOL     OW25123   3.487   1.164   4.300  0.1088 -0.4217  1.0327
 4497SOL    HW125124   3.457   1.127   4.217 -1.9091  1.4352  0.9310
 4497SOL    HW225125   3.416   1.226   4.316  0.1157 -0.3371  0.7426
 4498SOL     OW25126   2.635   1.878   5.397  0.0855 -0.0038  0.3438
 4498SOL    HW125127   2.668   1.850   5.482 -1.6437 -2.6076  0.1490
 4498SOL    HW225128   2.544   1.850   5.402 -0.4119  0.9539 -3.3142
 4499SOL     OW25129   1.513   2.061   3.990 -0.3351 -0.3229 -0.1303
 4499SOL    HW125130   1.433   2.099   4.026 -1.0121  1.0751 -3.1076
 4499SOL    HW225131   1.469   1.989   3.945 -2.1356  1.1240 -0.6666
 4500SOL     OW25132   2.791   2.223   9.481  0.2495 -0.0031  0.5897
 4500SOL    HW125133   2.753   2.295   9.532 -0.9884 -1.1966  1.3745
 4500SOL    HW225134   2.878   2.228   9.522  0.6526  1.7710 -0.4806
 4501SOL     OW25135   0.353   0.480  11.147  0.7851  0.1876 -0.2009
 4501SOL    HW125136   0.403   0.549  11.103 -0.7301  1.7600  0.5746
 4501SOL    HW225137   0.297   0.526  11.209  2.2481  2.4751 -0.5896
 4502SOL     OW25138   3.978   2.583  14.127  0.3801 -0.3837  0.4171
 4502SOL    HW125139   4.009   2.634  14.052 -0.2133  0.7623  0.9608
 4502SOL    HW225140   4.057   2.584  14.181  0.7957  1.3996 -0.2284
 4503SOL     OW25141   4.725   2.578  16.968 -0.0953  0.3120  0.0302
 4503SOL    HW125142   4.657   2.645  16.976  1.2319  1.8920 -2.2548
 4503SOL    HW225143   0.065   2.631  16.948  0.2479 -0.3363 -0.3663
 4504SOL     OW25144   4.409   4.460   5.600  0.2006  0.0691  0.8682
 4504SOL    HW125145   4.313   4.462   5.602  0.1594 -1.6433  0.5318
 4504SOL    HW225146   4.424   4.376   5.558 -0.7450  0.2107  0.2317
 4505SOL     OW25147   1.982   0.392   1.240  0.1801  0.5942  0.4960
 4505SOL    HW125148   1.958   0.387   1.332  2.7126 -0.7468  1.0967
 4505SOL    HW225149   1.913   0.337   1.203 -0.4326 -0.6489  3.5226
 4506SOL     OW25150   1.494   1.837   6.374  0.1254  0.1842 -0.4323
 4506SOL    HW125151   1.567   1.859   6.432 -0.7871  1.0052  0.4167
 4506SOL    HW225152   1.505   1.742   6.382  2.2373  0.4116 -0.8458
 4507SOL     OW25153   2.478   2.232   5.574  0.2231 -0.0542  0.4299
 4507SOL    HW125154   2.400   2.181   5.595  2.0718 -2.6996  0.9641
 4507SOL    HW225155   2.442   2.321   5.574  1.0163  0.2659  1.4027
 4508SOL     OW25156   4.579   0.885   4.686 -0.1121  0.2292  0.1940
 4508SOL    HW125157   4.600   0.826   4.759  0.1077 -0.1330 -0.1590
 4508SOL    HW225158   4.641   0.956   4.702  1.7940 -2.1361  3.2432
 4509SOL     OW25159   4.553   3.431   9.495 -1.0205 -0.5428 -0.0367
 4509SOL    HW125160   4.459   3.437   9.512 -0.6051 -0.8773  2.3993
 4509SOL    HW225161   4.583   3.429   9.586  1.6820 -0.4379 -0.9072
 4510SOL     OW25162   1.038   3.936   7.685  0.4767  0.8057 -0.2606
 4510SOL    HW125163   1.016   3.943   7.778 -3.2246  1.0284 -1.1640
 4510SOL    HW225164   0.950   3.937   7.647 -0.5124  1.4132  2.0626
 4511SOL     OW25165   4.668   2.123   4.715 -0.1040 -0.4525  0.3570
 4511SOL    HW125166   4.617   2.183   4.661 -0.5197 -2.1928 -1.1644
 4511SOL    HW225167   4.607   2.050   4.717 -2.4905  1.4578 -2.2632
 4512SOL     OW25168   2.424   2.208   2.853 -0.4452 -0.0628  0.4491
 4512SOL    HW125169   2.391   2.180   2.768 -3.2939  3.4402  0.3902
 4512SOL    HW225170   2.498   2.267   2.835  0.5208 -1.2522  0.5513
 4513SOL     OW25171   1.980   4.618   3.564 -0.2211  0.2233  0.5991
 4513SOL    HW125172   2.009   4.620   3.655  1.3601 -0.7732  0.1206
 4513SOL    HW225173   1.961   4.526   3.544  0.9944  0.5789 -2.2657
 4514SOL     OW25174   1.690   3.964   8.073 -0.1593  0.5023 -0.4676
 4514SOL    HW125175   1.648   3.891   8.029  1.9005 -0.0700 -1.5054
 4514SOL    HW225176   1.773   3.924   8.100 -1.6320 -2.3606 -0.1414
 4515SOL     OW25177   0.953   4.505   5.104 -0.2196  0.0414  0.0662
 4515SOL    HW125178   0.911   4.545   5.027  0.9374  0.4089 -0.3799
 4515SOL    HW225179   0.886   4.441   5.129 -0.8086  1.5677  2.3133
 4516SOL     OW25180   2.932   0.646   2.846  0.2350  0.1469 -0.0389
 4516SOL    HW125181   2.864   0.705   2.812 -0.4861 -0.4871  0.3085
 4516SOL    HW225182   2.986   0.704   2.900 -0.7217  1.3086 -0.3185
 4517SOL     OW25183   4.093   3.570   7.229 -0.1024 -0.3985  0.2927
 4517SOL    HW125184   4.167   3.611   7.185 -0.6222  1.8185  1.5203
 4517SOL    HW225185   4.093   3.488   7.179  4.3695  1.0235 -2.0098
 4518SOL     OW25186   0.967   1.459   1.166  0.1702 -0.3071  0.1957
 4518SOL    HW125187   0.956   1.400   1.241  0.7012  0.0454  0.5578
 4518SOL    HW225188   0.965   1.545   1.209  2.9686 -0.8404  1.4148
 4519SOL     OW25189   1.477   0.043   6.941 -0.0029 -0.2332  0.9295
 4519SOL    HW125190   1.407   0.025   7.005 -1.4669 -1.0097 -0.8698
 4519SOL    HW225191   1.425   0.075   6.867 -0.9936 -2.4513  0.6418
 4520SOL     OW25192   3.726   4.659  13.116 -0.1841 -0.4430  0.3613
 4520SOL    HW125193   3.661   4.713  13.069  0.1571  0.0520  0.4614
 4520SOL    HW225194   3.791   4.726  13.137  0.3864 -2.0023  3.5257
 4521SOL     OW25195   0.413   0.978   3.899 -0.0592  0.1191  0.0741
 4521SOL    HW125196   0.342   1.019   3.850 -1.3015  0.6950  2.4111
 4521SOL    HW225197   0.403   1.020   3.984 -0.5836 -0.7468  0.4384
 4522SOL     OW25198   3.376   3.093   2.714  0.1111  0.3134  0.4006
 4522SOL    HW125199   3.318   3.059   2.645 -0.5370  1.2923  0.4597
 4522SOL    HW225200   3.353   3.048   2.796 -0.0229  1.2477  0.8769
 4523SOL     OW25201   0.410   0.224   5.980 -0.0159  0.1078 -0.0672
 4523SOL    HW125202   0.400   0.318   5.992  1.7514  0.2723  0.2178
 4523SOL    HW225203   0.320   0.191   5.984  0.2584 -0.6705 -0.2433
 4524SOL     OW25204   3.822   1.024   6.096 -0.1821 -0.1996  0.0093
 4524SOL    HW125205   3.856   1.011   6.184 -2.3648  1.1948  1.0542
 4524SOL    HW225206   3.876   1.091   6.054 -2.5277  1.8525  0.2185
 4525SOL     OW25207   0.643   2.025  14.179 -0.0622  0.6262  0.3281
 4525SOL    HW125208   0.713   2.052  14.120 -0.4991  0.5900 -0.2094
 4525SOL    HW225209   0.649   1.929  14.183  0.1587  0.5903 -0.8212
 4526SOL     OW25210   3.944   2.810   2.882 -0.4387 -0.0383 -0.2447
 4526SOL    HW125211   3.866   2.850   2.922 -1.3711 -2.6597  0.5412
 4526SOL    HW225212   3.916   2.774   2.798 -0.2952  2.2615 -1.2703
 4527SOL     OW25213   0.152   0.599   8.389 -0.3954 -0.2154  0.4709
 4527SOL    HW125214   0.194   0.518   8.417  0.3335 -0.3736 -1.0409
 4527SOL    HW225215   0.208   0.668   8.424 -1.1914  1.1180 -0.8701
 4528SOL     OW25216   1.795   3.574   0.512  0.4532  0.2583 -0.1256
 4528SOL    HW125217   1.859   3.506   0.491 -1.4082 -1.8341  1.0116
 4528SOL    HW225218   1.717   3.522   0.530  1.3962 -1.2776 -0.5008
 4529SOL     OW25219   2.963   0.039   0.112 -0.3217  0.0691 -0.1718
 4529SOL    HW125220   3.046   0.069   0.076  0.1814 -2.0006 -0.7411
 4529SOL    HW225221   2.915   0.121   0.127 -0.2499 -0.0008  0.4010
 4530SOL     OW25222   3.050   1.135  10.400 -0.0121  0.4789  0.1326
 4530SOL    HW125223   2.964   1.178  10.398  0.8987  2.3102 -0.3691
 4530SOL    HW225224   3.095   1.193  10.461  0.9716  0.1082 -0.2458
 4531SOL     OW25225   1.473   4.226   8.175  0.4934 -0.1909 -0.4125
 4531SOL    HW125226   1.442   4.139   8.197  1.3141 -1.1021 -2.8209
 4531SOL    HW225227   1.395   4.280   8.190  1.5034  0.7728  1.3906
 4532SOL     OW25228   1.443   0.800   1.615 -0.4051 -0.2356  0.1232
 4532SOL    HW125229   1.387   0.877   1.614  1.2348  0.9347 -0.9303
 4532SOL    HW225230   1.490   0.825   1.536 -0.5957  1.5745  0.5812
 4533SOL     OW25231   3.986   4.569   8.473  0.8048 -0.2006  0.5351
 4533SOL    HW125232   3.948   4.525   8.396  1.4802 -0.9950  0.6557
 4533SOL    HW225233   4.064   4.597   8.426 -0.1386  1.4694 -0.0163
 4534SOL     OW25234   0.019   3.043  14.365 -0.0147  0.1425 -0.2521
 4534SOL    HW125235   0.053   3.086  14.444 -2.5895  2.7883 -0.5655
 4534SOL    HW225236   0.019   3.114  14.301 -0.1175  0.1916 -0.1969
 4535SOL     OW25237   0.025   0.910   7.107 -0.6895  0.2383  0.3953
 4535SOL    HW125238   4.697   0.849   7.142  1.0272 -2.4792 -1.1455
 4535SOL    HW225239   0.095   0.902   7.172  0.4131  0.9410 -0.7086
 4536SOL     OW25240   0.002   3.381  17.077  0.1008 -0.2335  0.3682
 4536SOL    HW125241   4.697   3.354  17.159 -0.7288 -0.4126 -0.1235
 4536SOL    HW225242   4.692   3.340  17.005  0.8893  1.1933 -0.9439
 4537SOL     OW25243   1.571   0.808   8.168  0.0495 -0.2562 -0.5668
 4537SOL    HW125244   1.572   0.715   8.144  0.7757 -0.4796  0.3088
 4537SOL    HW225245   1.544   0.806   8.260 -1.5409 -1.5957 -1.0566
 4538SOL     OW25246   1.836   4.507   3.022  0.2201  0.6519 -0.2952
 4538SOL    HW125247   1.764   4.459   2.981  0.1435 -2.7092  3.7978
 4538SOL    HW225248   1.872   4.550   2.945 -0.6832  0.1476 -0.9993
 4539SOL     OW25249   1.752   3.970   1.094 -0.4523 -0.0181 -0.5830
 4539SOL    HW125250   1.688   3.958   1.023 -2.7656  2.5185  1.0785
 4539SOL    HW225251   1.702   3.944   1.171 -1.8168  0.8108 -1.1760
 4540SOL     OW25252   3.662   0.840   5.972  0.1127 -0.3323  0.0255
 4540SOL    HW125253   3.709   0.900   6.030 -1.0395  0.7679 -0.1864
 4540SOL    HW225254   3.732   0.790   5.929  1.1967  2.0672 -1.0155
 4541SOL     OW25255   3.960   1.744   7.879  0.1243 -0.3803  0.5305
 4541SOL    HW125256   3.894   1.753   7.948 -1.8465  0.0472 -1.3897
 4541SOL    HW225257   3.910   1.734   7.798  0.0980 -0.3133  0.5377
 4542SOL     OW25258   2.753   1.769   3.583 -0.2706  0.3366  0.0976
 4542SOL    HW125259   2.787   1.742   3.668 -2.0833 -1.1347  0.3778
 4542SOL    HW225260   2.658   1.755   3.594  0.1043  0.8238  3.9840
 4543SOL     OW25261   2.458   4.000   2.945 -0.1877  0.0725  0.0943
 4543SOL    HW125262   2.463   3.924   3.003 -0.5554 -0.2459 -0.2964
 4543SOL    HW225263   2.552   4.009   2.927 -0.3997  0.6800 -0.7000
 4544SOL     OW25264   3.910   3.660   2.376 -0.4517  0.2266 -0.2666
 4544SOL    HW125265   3.833   3.607   2.396  0.6708 -1.0968  0.5916
 4544SOL    HW225266   3.951   3.665   2.463 -1.1740 -1.9140  0.1992
 4545SOL     OW25267   1.304   3.110   9.582  0.2058  0.2267 -0.1223
 4545SOL    HW125268   1.382   3.161   9.605  0.2827 -0.7997  1.9365
 4545SOL    HW225269   1.342   3.024   9.602  0.3240  0.5001  0.8321
 4546SOL     OW25270   4.493   2.460   9.112  0.1153  0.2597 -0.3284
 4546SOL    HW125271   4.540   2.540   9.091  1.4000 -0.3915  0.0597
 4546SOL    HW225272   4.408   2.475   9.071 -0.7232 -1.0902  0.8966
 4547SOL     OW25273   4.284   2.767   5.819  0.3036 -0.1005  0.5894
 4547SOL    HW125274   4.265   2.795   5.908  2.1710 -0.2150  1.0308
 4547SOL    HW225275   4.227   2.690   5.825 -2.5566  1.9761 -0.1839
 4548SOL     OW25276   2.011   1.918   2.893 -0.6279 -0.0801  0.0227
 4548SOL    HW125277   2.072   1.951   2.959 -1.1858 -2.3770  1.6823
 4548SOL    HW225278   2.073   1.873   2.836  0.0153 -0.7278  1.2518
 4549SOL     OW25279   1.819   0.204   2.294  0.5183 -0.3591 -0.2201
 4549SOL    HW125280   1.828   0.198   2.389 -1.1640  3.5869  0.2092
 4549SOL    HW225281   1.729   0.170   2.289  0.8715 -1.0795 -1.8284
 4550SOL     OW25282   2.345   2.777   7.730 -0.3338  0.4972  0.4024
 4550SOL    HW125283   2.407   2.826   7.677 -0.2128  0.7791  0.8048
 4550SOL    HW225284   2.284   2.847   7.754 -0.7362  1.0714 -2.3432
 4551SOL     OW25285   2.096   0.661   9.044 -0.3752 -0.3414 -0.4842
 4551SOL    HW125286   2.054   0.576   9.054 -2.5368  0.6922 -0.7520
 4551SOL    HW225287   2.181   0.652   9.089 -0.3208  2.0870 -0.1056
 4552SOL     OW25288   1.413   2.844   9.531  0.1435  0.4252 -0.2685
 4552SOL    HW125289   1.324   2.817   9.512  0.9348 -2.0221 -0.5463
 4552SOL    HW225290   1.450   2.773   9.478 -1.2811 -2.7356  2.9473
 4553SOL     OW25291   0.041   2.952   7.284  0.0743  0.6867  0.0383
 4553SOL    HW125292   4.718   3.026   7.288 -0.5557  0.2282 -1.0049
 4553SOL    HW225293   0.034   2.930   7.376  0.3326  0.3839 -0.0136
 4554SOL     OW25294   0.147   1.329   2.525  0.0533  0.2841  0.5003
 4554SOL    HW125295   0.139   1.234   2.526  0.8155  0.2391  1.5195
 4554SOL    HW225296   0.240   1.342   2.540  0.0154  0.4400  0.6028
 4555SOL     OW25297   2.202   2.785   8.060  0.3766  1.0326 -0.6426
 4555SOL    HW125298   2.133   2.735   8.103  1.3840 -0.5783 -0.8540
 4555SOL    HW225299   2.255   2.811   8.135 -0.3095  1.6780 -0.3888
 4556SOL     OW25300   3.467   4.224   6.707 -0.6914  0.1502 -0.2444
 4556SOL    HW125301   3.423   4.245   6.625 -4.3323 -2.2492  1.0821
 4556SOL    HW225302   3.426   4.143   6.737 -2.0502  0.4768 -1.2053
 4557SOL     OW25303   0.504   0.884   6.338 -0.1117 -0.0893 -0.6369
 4557SOL    HW125304   0.546   0.944   6.276  2.3733  1.2840  2.3518
 4557SOL    HW225305   0.512   0.932   6.420  0.3421  0.1153 -0.7978
 4558SOL     OW25306   4.727   2.091   9.356 -0.3007  0.0178 -0.5534
 4558SOL    HW125307   4.725   2.151   9.282  1.9811  1.4777  0.5625
 4558SOL    HW225308   0.044   2.016   9.331 -0.9919 -0.4486 -0.6566
 4559SOL     OW25309   3.043   0.815   4.130 -0.0917 -0.5149  0.2893
 4559SOL    HW125310   3.035   0.720   4.117 -1.4575 -0.2635 -0.6440
 4559SOL    HW225311   2.962   0.844   4.172  0.7068 -0.3296  1.7120
 4560SOL     OW25312   1.225   3.190   7.571  0.7708  0.1465  0.0648
 4560SOL    HW125313   1.163   3.220   7.639  0.2578 -0.8238  0.0378
 4560SOL    HW225314   1.197   3.248   7.501  1.8572  0.8947  0.2677
 4561SOL     OW25315   3.518   0.776  17.582  0.5040  0.4838 -0.1720
 4561SOL    HW125316   3.564   0.695  17.603 -0.5420 -0.2883 -0.9099
 4561SOL    HW225317   3.430   0.749  17.607 -0.1474  0.7242 -2.2163
 4562SOL     OW25318   4.668   3.228   4.031  0.0500 -0.4057 -0.7294
 4562SOL    HW125319   4.697   3.150   3.984  0.0491 -0.1746 -1.1115
 4562SOL    HW225320   4.607   3.267   3.969  0.7340 -0.0950 -1.1998
 4563SOL     OW25321   0.658   0.704   6.508 -0.0729  0.4466  0.2789
 4563SOL    HW125322   0.726   0.762   6.471  1.6922 -2.6600 -1.3278
 4563SOL    HW225323   0.583   0.737   6.459 -0.3865  2.0683  1.8335
 4564SOL     OW25324   4.515   4.542  11.765 -0.2063  0.1159 -0.5857
 4564SOL    HW125325   4.544   4.466  11.815 -0.9032  0.5133  0.4267
 4564SOL    HW225326   4.514   4.612  11.830 -2.6386 -1.3675  0.9849
 4565SOL     OW25327   0.492   1.976   9.996 -0.2736 -0.2600 -0.1536
 4565SOL    HW125328   0.509   2.065  10.027  0.0099  0.6095 -2.8499
 4565SOL    HW225329   0.402   1.952  10.019 -0.5259  0.0528 -0.8367
 4566SOL     OW25330   1.938   4.118   5.589  0.2507  0.1520 -0.0174
 4566SOL    HW125331   2.025   4.143   5.619  0.4405  0.1292 -0.5540
 4566SOL    HW225332   1.913   4.072   5.670  0.7963  1.6652  1.0221
 4567SOL     OW25333   3.156   4.552   7.489 -0.1137 -0.5202 -0.1754
 4567SOL    HW125334   3.097   4.482   7.514  0.5176 -0.9447  0.1125
 4567SOL    HW225335   3.233   4.524   7.538 -1.6902  0.8985  3.0758
 4568SOL     OW25336   1.607   1.654   6.125 -0.4443  0.3353  0.4486
 4568SOL    HW125337   1.575   1.608   6.203 -0.6011  0.6256  0.5548
 4568SOL    HW225338   1.685   1.695   6.164  2.9901 -3.9873 -1.9303
 4569SOL     OW25339   2.838   3.587   9.105  0.0346 -0.6337  0.0641
 4569SOL    HW125340   2.808   3.599   9.195  0.0961 -2.0405  0.2764
 4569SOL    HW225341   2.934   3.584   9.108  0.0861  1.4431  0.5500
 4570SOL     OW25342   3.591   3.240   9.285  0.4227 -0.3370  0.3654
 4570SOL    HW125343   3.624   3.313   9.232 -0.2454 -0.8853 -0.7936
 4570SOL    HW225344   3.499   3.241   9.261  0.6628 -0.0590 -0.5420
 4571SOL     OW25345   2.802   0.731  16.673  0.1012  0.1395 -0.1771
 4571SOL    HW125346   2.872   0.791  16.648  0.7992 -0.9408 -0.8044
 4571SOL    HW225347   2.856   0.653  16.682 -0.4404 -0.1302  0.8405
 4572SOL     OW25348   0.022   1.685   2.902  0.2435 -0.2036 -0.2433
 4572SOL    HW125349   0.082   1.708   2.973 -2.2093  0.3818  1.6363
 4572SOL    HW225350   4.674   1.712   2.936  0.9649  2.5344 -0.6156
 4573SOL     OW25351   0.892   0.444   7.979  0.9803  0.1976  0.1525
 4573SOL    HW125352   0.922   0.523   8.025 -2.0943  0.4701  1.6840
 4573SOL    HW225353   0.866   0.482   7.895  0.8522  1.5292  0.7981
 4574SOL     OW25354   1.110   2.852  12.589  0.3827  0.3913 -0.6347
 4574SOL    HW125355   1.183   2.801  12.623  1.9922  2.7931 -0.5241
 4574SOL    HW225356   1.056   2.781  12.553  1.9219 -1.1351  0.0998
 4575SOL     OW25357   3.810   0.589  14.088  0.9150 -0.1405 -0.2126
 4575SOL    HW125358   3.825   0.674  14.045  2.1269 -0.0416  0.4074
 4575SOL    HW225359   3.876   0.542  14.036  2.2168  1.1771  0.2337
 4576SOL     OW25360   4.308   4.043  12.318  0.2300  0.1991  0.0834
 4576SOL    HW125361   4.363   3.967  12.338 -2.0117 -2.5192 -3.9819
 4576SOL    HW225362   4.234   4.027  12.377  1.7676 -0.7027  1.7490
 4577SOL     OW25363   3.398   2.371   2.976 -0.1550 -0.3186  0.9043
 4577SOL    HW125364   3.420   2.309   3.046 -1.1851 -0.4868  1.0743
 4577SOL    HW225365   3.323   2.336   2.928  0.8465 -0.5812 -0.4850
 4578SOL     OW25366   1.852   1.076   7.969 -0.7884 -0.0168 -1.0833
 4578SOL    HW125367   1.772   1.119   8.000  0.0343  2.2778 -2.1501
 4578SOL    HW225368   1.913   1.096   8.040  0.2386 -0.4619 -1.8571
 4579SOL     OW25369   0.829   4.149   6.489 -0.9127 -0.0276 -0.0382
 4579SOL    HW125370   0.752   4.128   6.437 -1.2593  0.0331  0.4460
 4579SOL    HW225371   0.898   4.137   6.424 -0.2252 -0.2399  0.7240
 4580SOL     OW25372   4.172   3.197   4.972  0.6543 -0.6186  0.2528
 4580SOL    HW125373   4.139   3.139   5.041 -0.9980  1.0109  0.8356
 4580SOL    HW225374   4.222   3.135   4.920  0.8504  1.5800 -2.1829
 4581SOL     OW25375   2.752   4.157   6.930  0.4469 -0.2003 -0.2704
 4581SOL    HW125376   2.804   4.079   6.916 -0.5910 -1.3573  2.2462
 4581SOL    HW225377   2.728   4.133   7.020 -0.1966  1.0252 -0.1111
 4582SOL     OW25378   2.160   2.995   2.794 -0.0684  0.1001  0.4522
 4582SOL    HW125379   2.102   3.065   2.826 -1.9588 -0.0881 -2.5566
 4582SOL    HW225380   2.209   2.974   2.874 -0.5706  2.9378  1.5315
 4583SOL     OW25381   4.469   1.361   2.763  0.6265  0.0580  0.3156
 4583SOL    HW125382   4.507   1.284   2.806  1.8356 -0.2719 -1.3475
 4583SOL    HW225383   4.424   1.321   2.689  0.5208 -0.2330  0.5340
 4584SOL     OW25384   1.644   4.423   4.151  0.6158  0.1576  0.2954
 4584SOL    HW125385   1.586   4.494   4.122 -2.7068 -2.5120  0.3432
 4584SOL    HW225386   1.625   4.437   4.243 -0.6279 -1.8122  0.3374
 4585SOL     OW25387   2.388   3.177   8.879 -0.0282 -0.1417 -0.6230
 4585SOL    HW125388   2.477   3.153   8.903 -0.2760 -0.3221  0.0968
 4585SOL    HW225389   2.344   3.103   8.921 -4.2354  2.2692 -0.7648
 4586SOL     OW25390   2.977   1.904   1.615 -0.6640  0.8926 -0.1683
 4586SOL    HW125391   2.932   1.954   1.683 -2.5266  0.1318 -0.8414
 4586SOL    HW225392   2.909   1.856   1.567  0.3665 -2.4653  1.7650
 4587SOL     OW25393   1.484   0.070   1.555 -0.0301  0.2914  0.1856
 4587SOL    HW125394   1.434   0.135   1.604 -2.3811 -0.1573 -1.6331
 4587SOL    HW225395   1.572   0.107   1.564  0.3323 -0.6465  0.5204
 4588SOL     OW25396   1.851   3.514   3.230  0.2071 -0.2126  0.0893
 4588SOL    HW125397   1.823   3.583   3.170  1.0679  1.2536  1.3651
 4588SOL    HW225398   1.813   3.438   3.186 -0.9252  0.4345 -0.0554
 4589SOL     OW25399   3.803   1.381  10.886 -0.1575 -0.2952  0.4300
 4589SOL    HW125400   3.790   1.324  10.811  1.2119  1.0815 -0.8560
 4589SOL    HW225401   3.843   1.316  10.944 -2.1467  0.6488  2.8826
 4590SOL     OW25402   3.255   3.476   8.104 -0.2479 -0.1191 -0.4337
 4590SOL    HW125403   3.248   3.407   8.169  0.4310  0.0304 -0.2014
 4590SOL    HW225404   3.177   3.532   8.112  0.2592  0.6997 -1.1740
 4591SOL     OW25405   3.781   3.332   8.744 -0.6651  0.5146  0.2320
 4591SOL    HW125406   3.839   3.351   8.670 -1.2016 -0.9893 -0.5671
 4591SOL    HW225407   3.706   3.292   8.698 -0.8608  0.7090  0.3811
 4592SOL     OW25408   0.240   4.436   9.732 -0.4038  0.3511 -0.2870
 4592SOL    HW125409   0.328   4.409   9.708 -0.8374 -0.7662 -0.6057
 4592SOL    HW225410   0.179   4.371   9.698 -0.9781  1.3262 -1.1373
 4593SOL     OW25411   0.843   2.475  16.491 -0.3913 -0.1827 -0.0444
 4593SOL    HW125412   0.888   2.464  16.408  1.8025 -0.2580  1.1611
 4593SOL    HW225413   0.760   2.427  16.485  0.4641 -1.6207 -0.2649
 4594SOL     OW25414   3.686   1.940   8.803  0.2578  0.1496  0.0956
 4594SOL    HW125415   3.611   1.994   8.776  0.4840  1.6152  2.4032
 4594SOL    HW225416   3.702   1.876   8.733  1.4330  0.9015 -0.3173
 4595SOL     OW25417   0.765   2.477   2.696 -0.1564 -0.5511  0.1698
 4595SOL    HW125418   0.741   2.570   2.692 -0.4957 -0.6122  0.7458
 4595SOL    HW225419   0.858   2.489   2.716 -0.0915  0.0854 -0.4908
 4596SOL     OW25420   3.253   2.558  12.141 -0.0176  0.0905  0.0556
 4596SOL    HW125421   3.305   2.620  12.191  0.1009 -0.3718  0.5095
 4596SOL    HW225422   3.194   2.506  12.196  1.1489 -2.9433 -1.5393
 4597SOL     OW25423   3.757   0.280   9.300 -0.2752  0.0212  0.0982
 4597SOL    HW125424   3.719   0.318   9.221  1.7317  0.2068 -0.7686
 4597SOL    HW225425   3.727   0.349   9.358 -0.8261 -0.1372  0.0038
 4598SOL     OW25426   1.606   4.611   6.281 -0.7043 -0.0932  0.1097
 4598SOL    HW125427   1.545   4.642   6.213 -2.3191 -1.5156  0.9246
 4598SOL    HW225428   1.571   4.658   6.356 -1.7375 -1.8832  0.7448
 4599SOL     OW25429   1.950   0.658   2.697  0.2320 -0.1533 -0.4620
 4599SOL    HW125430   2.004   0.641   2.775 -0.9060 -1.1831  0.1048
 4599SOL    HW225431   2.005   0.727   2.659  0.4089  0.0977  0.2285
 4600SOL     OW25432   1.135   2.806   6.295  0.1711 -0.7580  0.0645
 4600SOL    HW125433   1.204   2.756   6.250  2.6684 -0.0013  3.0777
 4600SOL    HW225434   1.125   2.748   6.370  1.0845  0.0167  0.7801
 4601SOL     OW25435   0.105   4.015   1.850  0.0401  0.1965 -0.1474
 4601SOL    HW125436   0.181   4.074   1.850 -0.4658  0.8620  0.8573
 4601SOL    HW225437   0.121   3.963   1.772 -0.4575  0.4226 -0.3963
 4602SOL     OW25438   4.077   0.375  17.075 -0.0275 -0.2460  0.1590
 4602SOL    HW125439   4.001   0.429  17.059 -0.2182 -0.6799 -0.3948
 4602SOL    HW225440   4.061   0.296  17.023 -0.5084  0.1458 -0.2793
 4603SOL     OW25441   3.378   2.905  13.390 -0.3341  0.1313 -0.0943
 4603SOL    HW125442   3.408   2.994  13.408 -0.9802  0.5823 -1.2568
 4603SOL    HW225443   3.315   2.891  13.461  0.7822 -0.2517  0.8236
 4604SOL     OW25444   1.041   3.125   9.622 -0.1012  0.4208  0.6790
 4604SOL    HW125445   1.031   3.208   9.575 -1.6334 -0.4025 -0.4317
 4604SOL    HW225446   1.135   3.110   9.607  0.0009  2.6435 -0.8333
 4605SOL     OW25447   3.830   2.419   8.271 -0.5095  0.7431 -0.4784
 4605SOL    HW125448   3.921   2.409   8.298 -1.0320  0.9457  1.3869
 4605SOL    HW225449   3.825   2.364   8.193  2.1429 -0.5326  0.2481
 4606SOL     OW25450   2.611   3.390   5.570  1.1512  0.2176 -0.9972
 4606SOL    HW125451   2.694   3.348   5.589  1.4260  2.0692  1.7959
 4606SOL    HW225452   2.575   3.331   5.504 -0.5118 -1.5587  1.4934
 4607SOL     OW25453   0.817   1.682   4.094 -0.2725  0.4081  1.0088
 4607SOL    HW125454   0.871   1.642   4.026 -0.4917  0.9225  0.5356
 4607SOL    HW225455   0.889   1.709   4.151  1.2767 -0.5686 -0.4718
 4608SOL     OW25456   3.083   0.355  16.091  0.1309 -0.4687 -0.4155
 4608SOL    HW125457   3.105   0.276  16.043  2.0075  0.8620 -1.7409
 4608SOL    HW225458   3.079   0.422  16.022  2.3546 -1.5648 -1.5934
 4609SOL     OW25459   2.374   0.845   2.447 -0.4964 -0.0665  0.5013
 4609SOL    HW125460   2.410   0.815   2.530 -0.7928 -0.7418  0.3785
 4609SOL    HW225461   2.325   0.924   2.470 -0.8377  0.5233 -2.1820
 4610SOL     OW25462   2.577   0.378   7.292 -0.2142  0.4094  0.1633
 4610SOL    HW125463   2.597   0.388   7.199  0.0747  3.6045  0.5628
 4610SOL    HW225464   2.591   0.283   7.295 -0.8556  0.2959 -0.4760
 4611SOL     OW25465   2.813   2.234   0.583 -0.0428 -0.2425  0.0585
 4611SOL    HW125466   2.846   2.323   0.595 -1.6594  0.1131  1.9247
 4611SOL    HW225467   2.736   2.252   0.530 -1.3054  0.3098  2.0896
 4612SOL     OW25468   4.416   2.756   3.071 -0.5530  0.4575 -0.3649
 4612SOL    HW125469   4.494   2.777   3.020 -0.2883  0.0452 -0.1264
 4612SOL    HW225470   4.403   2.665   3.047  1.2591  0.3222 -0.8347
 4613SOL     OW25471   4.569   4.716   2.855 -0.0149 -0.0409  0.8194
 4613SOL    HW125472   4.477   4.690   2.857 -0.1774  0.6142  1.5259
 4613SOL    HW225473   4.552   0.073   2.857 -0.7122 -0.1539  0.0654
 4614SOL     OW25474   0.247   3.983   4.180 -0.5417  0.2289  0.1917
 4614SOL    HW125475   0.247   4.079   4.186  0.3155  0.0779  2.6115
 4614SOL    HW225476   0.177   3.968   4.243  0.9456  0.9298  2.0156
 4615SOL     OW25477   3.766   3.771   9.582 -1.1647 -0.0262  0.7316
 4615SOL    HW125478   3.853   3.746   9.612 -1.4873  1.9862  3.3098
 4615SOL    HW225479   3.738   3.835   9.647  3.5133 -0.2212  2.8722
 4616SOL     OW25480   1.283   1.136  14.699  0.2035  0.6462 -0.1295
 4616SOL    HW125481   1.370   1.100  14.717  0.3693  1.2581  0.2683
 4616SOL    HW225482   1.260   1.065  14.638 -0.1165  0.0544  0.6790
 4617SOL     OW25483   3.858   0.810  13.904 -0.6334 -0.4182  0.3762
 4617SOL    HW125484   3.873   0.831  13.812  0.8635 -0.3463  0.6322
 4617SOL    HW225485   3.828   0.892  13.943 -1.9028  0.4682 -2.4216
 4618SOL     OW25486   1.310   4.620   4.904 -0.1210 -0.0033  0.0929
 4618SOL    HW125487   1.332   4.537   4.860 -1.8285 -0.4356  0.0493
 4618SOL    HW225488   1.244   4.583   4.962  0.5367  0.2871  1.0134
 4619SOL     OW25489   2.817   2.136   8.924  0.0815  0.3196 -0.1783
 4619SOL    HW125490   2.861   2.065   8.877  0.8331 -0.2477  1.3685
 4619SOL    HW225491   2.730   2.136   8.884 -0.2798 -1.0786  0.6169
 4620SOL     OW25492   3.201   1.838   4.709  0.5736  0.1995  0.1219
 4620SOL    HW125493   3.255   1.914   4.688  2.4667 -1.0288  0.4617
 4620SOL    HW225494   3.260   1.766   4.686 -0.1440  0.4213 -2.3344
 4621SOL     OW25495   0.324   2.578   8.363  0.0380  0.3589  0.1455
 4621SOL    HW125496   0.356   2.561   8.452 -0.5120  1.9723  0.6368
 4621SOL    HW225497   0.290   2.491   8.342  0.8895  0.0045  0.2144
 4622SOL     OW25498   1.104   2.031   8.605  0.1286 -0.4190  0.0969
 4622SOL    HW125499   1.111   2.121   8.637 -3.0861  0.4901 -1.6749
 4622SOL    HW225500   1.022   2.001   8.645 -2.1269  0.5344 -3.7238
 4623SOL     OW25501   4.035   3.419   6.429 -0.0357  0.5759  0.5977
 4623SOL    HW125502   4.045   3.427   6.335 -0.2574  2.0700  0.7038
 4623SOL    HW225503   3.949   3.378   6.426  0.2174  0.0273  0.8793
 4624SOL     OW25504   2.516   4.552   3.771 -0.0731  0.2924 -0.3084
 4624SOL    HW125505   2.474   4.572   3.854  0.3513 -1.3044  0.2923
 4624SOL    HW225506   2.579   4.625   3.769  0.6323 -0.3398 -1.2784
 4625SOL     OW25507   2.160   1.219   6.692 -0.0848  0.0622 -0.6473
 4625SOL    HW125508   2.237   1.165   6.712 -0.0928  0.0307 -0.7017
 4625SOL    HW225509   2.099   1.190   6.760 -0.1100  1.1227 -0.2153
 4626SOL     OW25510   4.478   4.102  16.361  0.3277 -0.0734 -0.0247
 4626SOL    HW125511   4.385   4.127  16.364  0.0458 -1.4132  2.2088
 4626SOL    HW225512   4.523   4.186  16.374 -0.4366  0.1914  0.9065
 4627SOL     OW25513   3.296   4.187   8.945 -0.2754  0.0960  0.0851
 4627SOL    HW125514   3.292   4.193   9.041 -0.3550  2.2728 -0.0443
 4627SOL    HW225515   3.351   4.263   8.926  0.1009  0.0561  1.0259
 4628SOL     OW25516   2.379   1.542   9.025  0.0168  0.0946 -0.1297
 4628SOL    HW125517   2.472   1.561   9.011 -0.2402  1.3441 -0.1414
 4628SOL    HW225518   2.357   1.483   8.954  1.0410  0.4917 -0.7660
 4629SOL     OW25519   3.745   0.725   5.490  0.0807 -0.2838 -0.2391
 4629SOL    HW125520   3.689   0.660   5.533 -0.3670  1.1666  1.3815
 4629SOL    HW225521   3.832   0.686   5.493  0.2521  0.0751 -0.4747
 4630SOL     OW25522   3.902   1.171   4.805  0.3619 -0.0784 -0.1704
 4630SOL    HW125523   3.884   1.240   4.741  0.4344  0.0072 -0.0992
 4630SOL    HW225524   3.996   1.184   4.819  0.3268 -1.0459  1.0087
 4631SOL     OW25525   1.003   0.663   0.547  0.6363 -0.0249  0.5938
 4631SOL    HW125526   1.044   0.578   0.532 -0.0388  0.0078 -1.4531
 4631SOL    HW225527   0.920   0.646   0.504 -0.1019  1.5700  1.4052
 4632SOL     OW25528   0.097   1.079  14.756 -0.7252 -0.2778 -0.2814
 4632SOL    HW125529   0.185   1.073  14.794  0.5289  2.9997 -2.6806
 4632SOL    HW225530   0.054   1.013  14.810  1.0592 -1.2673 -0.0489
 4633SOL     OW25531   0.762   4.233   1.415 -0.0075  0.0955 -0.0908
 4633SOL    HW125532   0.813   4.302   1.457  1.4925 -0.7228 -0.5598
 4633SOL    HW225533   0.835   4.180   1.384 -1.4024 -0.7409 -1.9330
 4634SOL     OW25534   0.821   1.191  17.049 -0.7258 -0.0462 -0.0048
 4634SOL    HW125535   0.790   1.213  16.961  1.7663  0.8148 -0.6772
 4634SOL    HW225536   0.748   1.234  17.092  0.7782  2.4147  0.0799
 4635SOL     OW25537   4.129   0.266   3.369 -0.4585 -0.6975  0.4249
 4635SOL    HW125538   4.129   0.182   3.322 -0.6879  0.0655 -0.9618
 4635SOL    HW225539   4.051   0.304   3.328  0.4114  1.9194  1.1781
 4636SOL     OW25540   3.940   3.737   4.312  0.0580 -0.5887  0.1798
 4636SOL    HW125541   4.028   3.699   4.314  0.6052  0.6090 -1.2052
 4636SOL    HW225542   3.941   3.811   4.373 -1.9317 -0.2011 -0.2832
 4637SOL     OW25543   3.800   4.703  11.335  0.4371 -0.4502 -0.2577
 4637SOL    HW125544   3.801   0.053  11.374 -0.9376  0.5488 -2.4516
 4637SOL    HW225545   3.705   4.700  11.322  0.7959 -1.2063 -2.7073
 4638SOL     OW25546   1.018   0.002   5.787 -0.3755  0.0582  1.0918
 4638SOL    HW125547   1.067   0.074   5.747  2.1831 -0.3381  3.5135
 4638SOL    HW225548   1.004   4.678   5.715 -2.4988 -0.5276  1.9969
 4639SOL     OW25549   4.733   4.648  17.066  0.5562 -0.4350  0.2952
 4639SOL    HW125550   0.079   4.637  17.020  0.0111  1.0080 -1.0468
 4639SOL    HW225551   4.684   4.709  17.011 -0.8631 -1.9323 -0.0828
 4640SOL     OW25552   3.568   1.821   4.791  0.4112  0.0264 -0.4717
 4640SOL    HW125553   3.650   1.786   4.825 -0.1447  1.7603  2.7335
 4640SOL    HW225554   3.520   1.740   4.810  1.7478 -0.2571  1.7513
 4641SOL     OW25555   2.947   1.745   4.668 -0.2089 -0.3562  0.3693
 4641SOL    HW125556   3.027   1.788   4.699  1.6049 -1.4893 -2.8161
 4641SOL    HW225557   2.971   1.733   4.576 -1.4960  1.9174 -0.2501
 4642SOL     OW25558   0.662   0.918   8.105  0.2081  0.1446 -0.1921
 4642SOL    HW125559   0.675   1.003   8.147 -0.3201  0.5816 -0.9056
 4642SOL    HW225560   0.724   0.930   8.033 -1.5812  3.6477 -1.1370
 4643SOL     OW25561   2.600   3.124   0.984  0.2188 -0.3211  0.0840
 4643SOL    HW125562   2.549   3.200   0.958 -2.3973 -2.2800 -0.4615
 4643SOL    HW225563   2.632   3.148   1.071 -2.2291 -0.1765  0.9203
 4644SOL     OW25564   3.943   4.256  14.592  0.0837 -0.3687 -0.1477
 4644SOL    HW125565   3.883   4.185  14.617 -1.2047  0.3579 -1.1531
 4644SOL    HW225566   4.015   4.214  14.546  2.0068  2.1562  0.5441
 4645SOL     OW25567   4.193   4.314  14.192  0.3618  0.0676  0.5215
 4645SOL    HW125568   4.118   4.334  14.248  0.6769 -0.5089  1.1471
 4645SOL    HW225569   4.270   4.346  14.239  1.1653 -1.3701  0.2059
 4646SOL     OW25570   3.334   0.070   0.637 -0.2733 -0.6229  0.1613
 4646SOL    HW125571   3.407   0.008   0.645  0.5235  0.2679 -0.1945
 4646SOL    HW225572   3.279   0.030   0.569  0.5048 -0.4746 -0.5582
 4647SOL     OW25573   1.985   2.608   6.345 -0.8502  0.1280  0.2548
 4647SOL    HW125574   2.032   2.557   6.278 -0.2065 -0.7960  1.4037
 4647SOL    HW225575   1.893   2.619   6.322 -0.5105  0.0817 -1.1131
 4648SOL     OW25576   4.580   3.766   4.602 -0.5179  0.2409  0.1103
 4648SOL    HW125577   4.632   3.693   4.567  0.4223 -0.3427  2.6779
 4648SOL    HW225578   4.648   3.805   4.658 -1.5872  2.2155  0.0270
 4649SOL     OW25579   1.727   4.110   2.064  0.0667  0.2581 -1.3617
 4649SOL    HW125580   1.673   4.181   2.028 -2.1581 -0.5126  0.4894
 4649SOL    HW225581   1.703   4.034   2.011  1.1676 -0.5767 -0.6495
 4650SOL     OW25582   0.503   4.708  14.008  0.0808 -0.3159 -0.0575
 4650SOL    HW125583   0.444   4.654  14.060  0.6997 -0.5674  0.3806
 4650SOL    HW225584   0.541   0.024  14.079  1.4406 -1.8627  0.3601
 4651SOL     OW25585   1.998   2.683  16.855  0.0004  0.3010 -0.2262
 4651SOL    HW125586   1.988   2.755  16.917 -0.1528 -0.4539  0.6181
 4651SOL    HW225587   1.955   2.716  16.777  3.0659  1.4478 -1.4539
 4652SOL     OW25588   4.091   4.578  11.344 -0.2556  0.4851 -0.5659
 4652SOL    HW125589   4.055   4.628  11.270  0.8800  0.4819 -1.1099
 4652SOL    HW225590   4.172   4.622  11.368  0.8958 -1.0524 -1.6530
 4653SOL     OW25591   2.725   2.071   1.616  0.0943 -0.3819 -0.0486
 4653SOL    HW125592   2.718   2.048   1.523 -1.0821 -0.3535  0.0343
 4653SOL    HW225593   2.647   2.042   1.663  0.7590 -0.7099  0.8782
 4654SOL     OW25594   3.593   0.290   9.003  0.0448 -0.0312 -0.8365
 4654SOL    HW125595   3.558   0.379   8.994 -1.5834 -0.6556 -0.6391
 4654SOL    HW225596   3.674   0.292   8.951  0.4400  0.8162 -0.1955
 4655SOL     OW25597   1.842   2.950  15.556 -0.0749 -0.3732  0.1747
 4655SOL    HW125598   1.932   2.982  15.559 -0.8118  1.8078 -0.5172
 4655SOL    HW225599   1.812   2.988  15.639  0.0657  0.0238  0.0476
 4656SOL     OW25600   1.037   0.356  11.759  0.1251 -0.0889 -0.6090
 4656SOL    HW125601   1.021   0.274  11.805  0.3810  0.4539  0.4545
 4656SOL    HW225602   1.131   0.367  11.749  0.0738  0.9719 -0.0275
 4657SOL     OW25603   4.233   1.491   8.756 -0.5988 -0.7189 -0.8816
 4657SOL    HW125604   4.169   1.557   8.781 -1.6389 -1.3012 -1.9686
 4657SOL    HW225605   4.289   1.487   8.833  0.0991 -1.4759 -1.4253
 4658SOL     OW25606   3.701   2.122   5.777 -0.3252 -0.6901 -0.9457
 4658SOL    HW125607   3.764   2.125   5.850 -1.3007  1.6750 -0.1899
 4658SOL    HW225608   3.651   2.042   5.795  0.4982 -0.8349  0.7134
 4659SOL     OW25609   1.388   4.556  11.971 -0.1123 -0.4390  0.2623
 4659SOL    HW125610   1.330   4.527  11.901 -0.5154 -0.6129  0.6736
 4659SOL    HW225611   1.343   4.524  12.049 -0.1847 -2.7742 -0.7377
 4660SOL     OW25612   3.675   3.447   0.047  0.5375 -0.4039  0.2806
 4660SOL    HW125613   3.669   3.474  17.702  0.2656 -1.8652 -0.1260
 4660SOL    HW225614   3.770   3.447   0.057  0.7466  2.0060 -1.7869
 4661SOL     OW25615   2.206   3.779   4.151  0.4844  0.1289 -0.8820
 4661SOL    HW125616   2.236   3.789   4.060  2.1396 -0.1438 -0.3598
 4661SOL    HW225617   2.116   3.798   4.126  0.3131  1.2151  0.6149
 4662SOL     OW25618   0.109   0.507   8.017 -0.4391  0.2702 -0.2535
 4662SOL    HW125619   0.185   0.457   8.048 -1.1864 -0.5737  0.2056
 4662SOL    HW225620   0.130   0.519   7.924  1.2256  0.2322  0.1166
 4663SOL     OW25621   0.713   1.312   5.894  0.7162  0.0655 -0.2191
 4663SOL    HW125622   0.731   1.403   5.868  1.0266 -0.0640 -0.4639
 4663SOL    HW225623   0.637   1.292   5.839  0.9074  0.4731 -0.6357
 4664SOL     OW25624   0.105   0.904   7.785 -0.1820  0.3703  0.2975
 4664SOL    HW125625   0.035   0.959   7.750 -2.2397 -1.9392  0.8024
 4664SOL    HW225626   0.060   0.875   7.864  1.2301  1.6819  1.5976
 4665SOL     OW25627   0.624   1.737   5.241  0.1640 -0.1803 -0.2724
 4665SOL    HW125628   0.678   1.663   5.211  0.4417 -0.5500  1.1372
 4665SOL    HW225629   0.544   1.688   5.260 -0.5165  1.0141 -0.0748
 4666SOL     OW25630   2.872   0.415  10.083  0.1528  0.2491  0.0151
 4666SOL    HW125631   2.921   0.350  10.032 -1.9897 -0.1030 -1.5664
 4666SOL    HW225632   2.925   0.414  10.163 -0.2140 -0.8531  0.2515
 4667SOL     OW25633   3.223   3.440   8.599 -0.1277 -0.0745 -0.7416
 4667SOL    HW125634   3.171   3.519   8.614  2.1317  1.3483 -0.4369
 4667SOL    HW225635   3.175   3.376   8.651 -1.0596  0.9116 -0.3812
 4668SOL     OW25636   2.148   2.272   3.811 -0.0029 -0.6055  0.0783
 4668SOL    HW125637   2.183   2.357   3.782 -1.8315 -0.9091 -2.9426
 4668SOL    HW225638   2.226   2.218   3.803  0.7911  0.5532 -0.1015
 4669SOL     OW25639   2.402   1.263   7.600  0.2915 -0.3732 -0.6723
 4669SOL    HW125640   2.378   1.355   7.608 -1.5907 -1.0451  1.3569
 4669SOL    HW225641   2.351   1.225   7.672 -3.2189  2.0149 -1.8997
 4670SOL     OW25642   2.222   0.466   4.058  0.1375  0.0964  0.3255
 4670SOL    HW125643   2.234   0.411   4.135  0.1680 -0.4359 -0.0610
 4670SOL    HW225644   2.143   0.519   4.074 -0.5392 -0.5851 -0.7457
 4671SOL     OW25645   2.194   3.933   9.830  0.0486  0.1922 -0.1596
 4671SOL    HW125646   2.194   4.017   9.875  0.5037  0.1474 -0.0812
 4671SOL    HW225647   2.116   3.892   9.869  0.5133 -2.5406 -2.0579
 4672SOL     OW25648   2.970   0.096   3.053 -0.9304 -0.7270  0.4855
 4672SOL    HW125649   2.910   0.021   3.057  1.4370 -2.7167 -1.8289
 4672SOL    HW225650   2.981   0.104   2.958  1.5069 -0.0732  0.8309
 4673SOL     OW25651   0.429   4.034   2.669 -0.0953  0.3635 -0.2176
 4673SOL    HW125652   0.367   3.979   2.620  0.1882  0.3767 -0.5979
 4673SOL    HW225653   0.405   4.019   2.760 -1.3173  2.4584 -0.2086
 4674SOL     OW25654   3.042   0.529   4.082 -0.3346  0.0192 -0.2479
 4674SOL    HW125655   3.001   0.474   4.148 -0.0677  1.4718  1.1189
 4674SOL    HW225656   3.129   0.502   4.112 -0.3777  0.6649  0.4456
 4675SOL     OW25657   2.014   1.855   4.552  0.2871 -0.1830 -0.2863
 4675SOL    HW125658   1.955   1.787   4.586  1.7349 -2.2084 -1.8196
 4675SOL    HW225659   2.004   1.839   4.458 -0.4934 -1.1347 -0.0452
 4676SOL     OW25660   1.442   0.361   1.561 -0.3221 -0.8286  0.1508
 4676SOL    HW125661   1.376   0.430   1.559  3.7267  3.0576 -1.0368
 4676SOL    HW225662   1.495   0.397   1.633 -1.3067  1.1270 -0.1162
 4677SOL     OW25663   2.763   2.841  11.000 -0.0850 -0.3162  0.5427
 4677SOL    HW125664   2.713   2.911  11.041 -1.3578 -0.3108 -0.9671
 4677SOL    HW225665   2.792   2.789  11.074  0.8293 -0.0112  0.3902
 4678SOL     OW25666   0.225   0.934   7.283 -0.8178  0.2161  0.3292
 4678SOL    HW125667   0.306   0.965   7.242 -0.4370  1.5470  2.1022
 4678SOL    HW225668   0.246   0.947   7.375  0.5152 -2.4299  0.3812
 4679SOL     OW25669   3.339   1.846   4.010 -0.2879  0.4848  0.5874
 4679SOL    HW125670   3.363   1.938   4.008 -1.8593  0.9308  1.8730
 4679SOL    HW225671   3.279   1.834   3.936  2.3018 -1.0504 -1.2584
 4680SOL     OW25672   1.203   1.044   3.165 -0.9477  0.5620 -0.3019
 4680SOL    HW125673   1.173   1.108   3.229 -0.1486  0.9145 -0.2898
 4680SOL    HW225674   1.121   1.019   3.123 -0.3901 -0.7265 -0.6394
 4681SOL     OW25675   1.611   3.521   2.794  0.2306  0.8613 -0.3023
 4681SOL    HW125676   1.585   3.480   2.876  0.1916 -2.0793 -1.7798
 4681SOL    HW225677   1.699   3.492   2.768  0.2425 -0.0659  0.7801
 4682SOL     OW25678   4.044   2.736   0.955  0.6644  0.1142  0.1454
 4682SOL    HW125679   3.960   2.696   0.977  1.4447 -2.5127 -1.6636
 4682SOL    HW225680   4.071   2.746   1.046  0.3210  1.7880  0.0577
 4683SOL     OW25681   2.202   4.563   6.323  0.0632 -0.2744 -0.3937
 4683SOL    HW125682   2.174   4.629   6.261  1.1806  0.4731 -0.0902
 4683SOL    HW225683   2.218   4.491   6.261  1.2005  1.3280 -1.9377
 4684SOL     OW25684   0.036   3.415   7.265 -0.6920  0.4204 -0.6174
 4684SOL    HW125685   0.090   3.358   7.211 -0.0056  2.0257 -1.6293
 4684SOL    HW225686   4.694   3.362   7.255 -0.4625  0.0033 -0.2060
 4685SOL     OW25687   2.444   3.425   6.768  0.2449  0.2080 -0.2121
 4685SOL    HW125688   2.407   3.502   6.810  1.2838 -0.0966  1.2650
 4685SOL    HW225689   2.370   3.370   6.792 -0.8238  0.4545 -2.9573
 4686SOL     OW25690   2.584   2.253   0.428 -0.2402  0.5426  0.5571
 4686SOL    HW125691   2.598   2.313   0.355  1.2051  2.6439  2.6099
 4686SOL    HW225692   2.493   2.234   0.406 -0.0599 -0.3747  0.5766
 4687SOL     OW25693   1.720   2.201   1.886 -0.2651  0.8489 -0.2585
 4687SOL    HW125694   1.811   2.213   1.910 -0.2462  0.4344 -0.1198
 4687SOL    HW225695   1.684   2.275   1.934  0.0413  0.9118 -0.1331
 4688SOL     OW25696   1.771   1.682  10.097 -0.0652 -0.0729  0.5648
 4688SOL    HW125697   1.777   1.760  10.041  1.5607  0.1921  1.1278
 4688SOL    HW225698   1.683   1.688  10.136 -0.6372 -0.4320 -0.6722
 4689SOL     OW25699   3.562   3.116  10.572 -0.4466 -0.3227 -0.1200
 4689SOL    HW125700   3.470   3.125  10.593 -0.3935 -2.7629  1.1339
 4689SOL    HW225701   3.567   3.029  10.532 -3.5997 -0.2843 -0.5347
 4690SOL     OW25702   1.738   1.106  16.834 -0.2509  0.2879 -0.6773
 4690SOL    HW125703   1.682   1.146  16.899  0.5234 -0.4676  0.4499
 4690SOL    HW225704   1.812   1.079  16.888  0.8978  0.0868 -2.3383
 4691SOL     OW25705   1.618   0.027  16.928 -0.1458 -0.6156  0.3643
 4691SOL    HW125706   1.642   4.680  16.889  0.8176  0.3476 -1.1493
 4691SOL    HW225707   1.654   0.013  17.016  0.5322  1.1097  0.3672
 4692SOL     OW25708   1.355   0.175   5.303  0.2613  0.3054  0.2420
 4692SOL    HW125709   1.436   0.156   5.351  0.0359 -3.2351 -0.7815
 4692SOL    HW225710   1.326   0.084   5.297  0.1761  0.3577 -0.1548
 4693SOL     OW25711   1.789   0.069  10.230 -0.1750 -0.3837  0.4644
 4693SOL    HW125712   1.809   0.027  10.314  2.6715 -1.6134 -0.8565
 4693SOL    HW225713   1.763   0.158  10.257  0.0093  0.4804 -2.2826
 4694SOL     OW25714   2.434   3.183   8.601  0.4816  0.1618  0.3595
 4694SOL    HW125715   2.431   3.202   8.694 -3.1248 -1.4932  0.5947
 4694SOL    HW225716   2.365   3.244   8.572  2.5590  1.4434 -1.9107
 4695SOL     OW25717   1.293   3.346  16.037 -0.4137 -0.4700 -0.0345
 4695SOL    HW125718   1.300   3.259  15.996 -1.6925  0.4334 -2.2067
 4695SOL    HW225719   1.372   3.391  16.007 -1.7344  1.9811  0.1717
 4696SOL     OW25720   4.107   0.713   2.168  1.0696 -0.0135  0.2135
 4696SOL    HW125721   4.126   0.682   2.257 -2.8606  2.0531  1.7726
 4696SOL    HW225722   4.131   0.806   2.165 -0.1710  0.3123  0.4772
 4697SOL     OW25723   3.565   0.240   6.479  0.3084 -0.1530  0.5177
 4697SOL    HW125724   3.657   0.217   6.465 -0.1822 -2.1394  0.5897
 4697SOL    HW225725   3.541   0.183   6.553 -0.7331  1.5587  1.4877
 4698SOL     OW25726   1.043   4.578   2.047  0.4142  0.3459  0.7195
 4698SOL    HW125727   1.084   4.620   2.122  0.1659  0.0759  1.0114
 4698SOL    HW225728   0.975   4.643   2.029 -0.3080 -0.3457  0.9168
 4699SOL     OW25729   4.145   3.296   2.317  0.3334  0.4717  0.0362
 4699SOL    HW125730   4.114   3.218   2.363  1.3093  0.2405  0.3029
 4699SOL    HW225731   4.208   3.339   2.375 -0.5806 -0.5818  1.8110
 4700SOL     OW25732   3.184   1.663   3.594  0.1315 -0.2259 -0.3423
 4700SOL    HW125733   3.136   1.707   3.664  0.8473  0.4854 -0.2871
 4700SOL    HW225734   3.232   1.738   3.558  1.1451 -0.5297  0.3457
 4701SOL     OW25735   4.146   1.045   7.974  0.5457  0.2571 -0.2360
 4701SOL    HW125736   4.120   0.953   7.982  0.1030  0.2775 -1.5539
 4701SOL    HW225737   4.221   1.037   7.915  0.7859 -0.3552  0.1389
 4702SOL     OW25738   3.071   0.558   6.935 -0.2241  0.7524 -0.7408
 4702SOL    HW125739   3.056   0.481   6.989 -1.2857  1.5174  0.0674
 4702SOL    HW225740   3.019   0.623   6.982 -2.3222 -2.3219  1.1685
 4703SOL     OW25741   4.581   0.011   4.219  0.3191  0.1043 -0.4829
 4703SOL    HW125742   4.546   0.099   4.227 -2.7074 -0.9784 -1.8022
 4703SOL    HW225743   4.521   4.697   4.273  2.3722 -0.3939  1.3570
 4704SOL     OW25744   0.884   3.507   6.125  0.5488  0.2040  0.0188
 4704SOL    HW125745   0.873   3.531   6.217  2.9427  0.4522  0.2447
 4704SOL    HW225746   0.824   3.433   6.120  1.8480 -0.7523 -1.7575
 4705SOL     OW25747   1.223   1.210  12.032  0.3823  0.2480  0.3122
 4705SOL    HW125748   1.287   1.187  12.098  2.1445  0.1657 -1.4272
 4705SOL    HW225749   1.214   1.305  12.037 -0.4721  0.0669  2.0611
 4706SOL     OW25750   2.178   2.791   9.856  0.1841  0.1504  0.4598
 4706SOL    HW125751   2.108   2.853   9.837  0.1460 -0.2256 -0.6006
 4706SOL    HW225752   2.146   2.727   9.920  3.8197 -1.4158  0.7007
 4707SOL     OW25753   3.336   1.755  16.032 -1.2695  0.5929  0.5903
 4707SOL    HW125754   3.392   1.794  16.100 -0.1281  3.6529 -2.0964
 4707SOL    HW225755   3.272   1.706  16.084 -1.4955 -0.9039 -1.1131
 4708SOL     OW25756   1.330   3.910   7.624 -0.3339 -0.0182 -0.3987
 4708SOL    HW125757   1.358   4.002   7.630 -0.9970  0.0767  1.3388
 4708SOL    HW225758   1.236   3.920   7.637 -0.7045 -2.1218 -1.5031
 4709SOL     OW25759   0.399   1.534   4.255 -0.2317  0.9260 -0.0656
 4709SOL    HW125760   0.432   1.503   4.339 -1.8026  0.8517  0.5183
 4709SOL    HW225761   0.313   1.495   4.269  0.3681 -0.1066  0.7965
 4710SOL     OW25762   1.966   1.993   8.477 -0.1447 -0.0954  0.2539
 4710SOL    HW125763   1.890   1.935   8.489  0.3440 -0.5327  1.1993
 4710SOL    HW225764   1.932   2.027   8.394  0.4846  0.4175  0.2078
 4711SOL     OW25765   3.841   0.001   7.078  0.3101  0.1681 -0.3770
 4711SOL    HW125766   3.917   4.695   7.118 -1.0421 -0.6779  1.2918
 4711SOL    HW225767   3.842   0.091   7.110 -0.8876  0.0820 -0.0976
 4712SOL     OW25768   2.307   3.955   5.844 -0.4467  0.3691  0.1474
 4712SOL    HW125769   2.223   3.927   5.879 -0.7125  0.2824 -0.5629
 4712SOL    HW225770   2.324   3.909   5.762  1.1881  1.9605 -0.4001
 4713SOL     OW25771   1.574   2.998   8.015 -0.0255 -0.2394 -0.1042
 4713SOL    HW125772   1.534   3.019   7.930  0.6071  1.4799  0.0298
 4713SOL    HW225773   1.515   2.929   8.048 -2.0754  1.1481 -0.8481
 4714SOL     OW25774   4.540   2.238  12.627 -0.1955 -0.1650  0.0844
 4714SOL    HW125775   4.595   2.198  12.560 -2.5824 -2.4920 -0.4531
 4714SOL    HW225776   4.497   2.307  12.577 -0.9488 -0.1622  0.7368
 4715SOL     OW25777   3.046   1.591   5.314  0.3439  0.1730  0.8397
 4715SOL    HW125778   3.041   1.496   5.326 -0.0263  0.3050  1.7049
 4715SOL    HW225779   3.122   1.604   5.371  0.4127  1.5630  0.4351
 4716SOL     OW25780   0.818   2.432   7.871 -0.3207  0.0384  0.4300
 4716SOL    HW125781   0.766   2.432   7.791  0.4956  1.5839 -0.1039
 4716SOL    HW225782   0.796   2.517   7.908  0.6862  0.3703  0.2767
 4717SOL     OW25783   2.545   4.293   0.072 -0.3858 -0.0916  0.3880
 4717SOL    HW125784   2.639   4.312   0.068 -0.9467  2.5504 -0.6590
 4717SOL    HW225785   2.544   4.203   0.039  0.6618  0.4842 -1.2314
 4718SOL     OW25786   0.928   2.861   4.554  0.0504  0.2374 -0.1934
 4718SOL    HW125787   1.020   2.835   4.557 -0.3537 -1.2403 -0.4387
 4718SOL    HW225788   0.932   2.956   4.567  0.7892  0.1978 -0.1132
 4719SOL     OW25789   0.055   3.289  17.373 -0.2861  0.0101 -0.3423
 4719SOL    HW125790   0.123   3.243  17.423  0.7669  1.9035 -0.0233
 4719SOL    HW225791   0.110   3.344  17.317  0.0615 -0.4827 -0.4912
 4720SOL     OW25792   1.112   2.182   3.591  0.1948 -0.4832  0.9868
 4720SOL    HW125793   1.140   2.163   3.501  1.3960  0.4912  1.1428
 4720SOL    HW225794   1.087   2.092   3.611 -0.4775  0.0797  2.6701
 4721SOL     OW25795   3.335   2.017  17.615  0.0031 -0.4987 -0.4311
 4721SOL    HW125796   3.250   2.046  17.648  0.0436 -1.1927  0.3015
 4721SOL    HW225797   3.373   1.959  17.681 -1.3366  1.8819  2.4288
 4722SOL     OW25798   4.412   3.066   7.945 -0.4674  0.4150 -0.8946
 4722SOL    HW125799   4.473   3.031   8.010 -0.7350  1.2396 -0.1975
 4722SOL    HW225800   4.458   3.047   7.863 -2.1869  0.4845 -1.8668
 4723SOL     OW25801   1.578   1.458   3.976  0.1739 -0.2215  0.0895
 4723SOL    HW125802   1.603   1.365   3.975 -1.7734 -0.7447 -0.1000
 4723SOL    HW225803   1.520   1.446   4.051  0.4578 -1.8307  0.0526
 4724SOL     OW25804   1.577   0.864   2.253  0.0894 -0.4327  0.2398
 4724SOL    HW125805   1.506   0.835   2.196  3.1318 -0.4907 -3.6091
 4724SOL    HW225806   1.531   0.876   2.336 -1.3200 -1.0007 -0.4646
 4725SOL     OW25807   3.530   1.866   9.346  0.0005 -0.1605  0.2779
 4725SOL    HW125808   3.489   1.951   9.332 -0.4021 -0.4534 -0.3491
 4725SOL    HW225809   3.459   1.809   9.316 -0.0432  0.0480 -0.0076
 4726SOL     OW25810   3.176   2.057   1.159 -0.5377 -0.9564  0.0417
 4726SOL    HW125811   3.160   2.123   1.091  1.6548  0.2365  0.6890
 4726SOL    HW225812   3.148   2.105   1.238  3.2328  0.2603  0.6275
 4727SOL     OW25813   0.409   0.882   3.428 -0.4688 -0.1305  1.0243
 4727SOL    HW125814   0.466   0.872   3.505  0.8865 -1.5619 -0.1672
 4727SOL    HW225815   0.367   0.796   3.424  1.5040 -1.1754  2.4723
 4728SOL     OW25816   1.335   4.720  15.430  0.4142 -0.2701 -0.1722
 4728SOL    HW125817   1.298   4.657  15.369  1.7809  0.7889 -2.1037
 4728SOL    HW225818   1.344   0.054  15.366 -1.2065  0.6806  0.6516
 4729SOL     OW25819   4.572   0.676   4.856 -0.2532 -0.3635 -0.3479
 4729SOL    HW125820   4.522   0.614   4.803 -0.0023  0.4165 -1.5133
 4729SOL    HW225821   4.559   0.641   4.944  1.5620  2.1020  0.9080
 4730SOL     OW25822   4.603   0.560   3.378  0.2528 -0.0314 -0.0247
 4730SOL    HW125823   4.643   0.568   3.465  0.7977 -1.8429 -0.0960
 4730SOL    HW225824   4.568   0.471   3.381  3.4915 -1.2876  0.7812
 4731SOL     OW25825   2.733   1.060   5.250  0.0296  0.3476 -0.2267
 4731SOL    HW125826   2.816   1.103   5.230  0.2363 -0.3059 -0.7873
 4731SOL    HW225827   2.679   1.134   5.222  2.5213  1.9564 -0.7828
 4732SOL     OW25828   3.101   4.585   1.441  0.0942 -0.0502 -0.3581
 4732SOL    HW125829   3.115   4.541   1.525 -0.0317 -0.9783 -0.8181
 4732SOL    HW225830   3.144   4.524   1.381  1.3188  0.9022 -0.4505
 4733SOL     OW25831   1.510   3.557   4.827 -0.3056  0.0852 -0.2412
 4733SOL    HW125832   1.463   3.489   4.876  1.4327  0.8229  2.4085
 4733SOL    HW225833   1.596   3.545   4.868 -0.9372 -0.5612  0.9008
 4734SOL     OW25834   3.682   2.680   2.794  0.1478 -0.3236 -0.0196
 4734SOL    HW125835   3.720   2.729   2.721 -0.8580 -0.0713 -0.3690
 4734SOL    HW225836   3.588   2.697   2.785 -0.0855 -0.4540  2.1323
 4735SOL     OW25837   1.090   4.318   9.489 -0.5960  0.0033  0.7613
 4735SOL    HW125838   1.068   4.378   9.560  1.1225 -1.6197  2.6492
 4735SOL    HW225839   1.180   4.288   9.505 -0.9405 -0.1943  2.2931
 4736SOL     OW25840   4.554   4.659  13.163 -0.0976 -0.4338  0.2139
 4736SOL    HW125841   4.462   4.663  13.137 -0.6196  1.3266  2.3819
 4736SOL    HW225842   4.544   4.711  13.243 -0.4601 -1.2346  0.6975
 4737SOL     OW25843   3.140   3.608   3.297 -0.1810  0.7247  0.2404
 4737SOL    HW125844   3.204   3.676   3.315 -0.8927  1.9326 -1.7868
 4737SOL    HW225845   3.084   3.628   3.372  2.0953  0.3126  2.0482
 4738SOL     OW25846   3.600   3.431   7.798 -0.3704  0.4020 -0.5603
 4738SOL    HW125847   3.675   3.454   7.854 -0.0895 -1.0211 -0.3556
 4738SOL    HW225848   3.530   3.488   7.831  0.5264  0.8553  0.5613
 4739SOL     OW25849   3.068   1.167  16.962 -0.2434 -0.0888  0.2358
 4739SOL    HW125850   3.126   1.191  17.034  1.7540 -1.7704 -0.8161
 4739SOL    HW225851   3.064   1.246  16.909  0.0086 -0.9443 -1.0532
 4740SOL     OW25852   1.094   3.692   0.305  0.1525  0.8067  0.0896
 4740SOL    HW125853   1.178   3.681   0.349  0.3325  0.8615 -0.2421
 4740SOL    HW225854   1.077   3.601   0.284  0.0706  0.7098  0.5805
 4741SOL     OW25855   3.039   3.580   7.622 -0.8227 -0.4434 -0.3443
 4741SOL    HW125856   2.988   3.500   7.637 -1.3500  0.1658  1.1319
 4741SOL    HW225857   3.011   3.620   7.705  0.1210  1.2955 -0.8572
 4742SOL     OW25858   1.033   1.607   7.501 -0.1318  0.1610 -0.4989
 4742SOL    HW125859   0.937   1.610   7.499 -0.2923 -3.4846  1.9760
 4742SOL    HW225860   1.051   1.700   7.511 -0.9128 -0.2394  4.4896
 4743SOL     OW25861   3.378   4.547  12.101  0.6798 -0.3374 -0.1196
 4743SOL    HW125862   3.373   4.488  12.176 -0.5958  1.4005  1.1814
 4743SOL    HW225863   3.378   4.628  12.152  1.3453 -1.1788  1.2158
 4744SOL     OW25864   3.521   0.485   2.659  0.0274  0.3392 -0.1731
 4744SOL    HW125865   3.460   0.424   2.701  1.5727  1.0872  3.1513
 4744SOL    HW225866   3.475   0.549   2.604  0.6838  0.5479 -0.4870
 4745SOL     OW25867   1.436   1.947   1.503  0.2474 -0.5871  0.5295
 4745SOL    HW125868   1.491   1.982   1.574  2.5724  0.1046 -1.6040
 4745SOL    HW225869   1.429   1.856   1.530 -1.6701 -0.3454  0.8427
 4746SOL     OW25870   2.496   2.777   8.636  0.0094 -0.5573  0.5410
 4746SOL    HW125871   2.588   2.755   8.626 -0.2132 -1.5912  0.7739
 4746SOL    HW225872   2.469   2.724   8.711 -2.9106  3.3039  2.1821
 4747SOL     OW25873   3.847   4.278  16.246  0.6904 -0.3601 -0.8977
 4747SOL    HW125874   3.859   4.365  16.282 -1.0846 -0.8090  0.7843
 4747SOL    HW225875   3.839   4.299  16.153  0.6398 -1.6683 -1.1911
 4748SOL     OW25876   2.554   0.819   3.558  0.1018 -0.0457 -0.4707
 4748SOL    HW125877   2.564   0.771   3.640  1.8719 -0.2417 -0.8050
 4748SOL    HW225878   2.474   0.867   3.576  0.0414 -0.4349  0.2799
 4749SOL     OW25879   3.163   0.917  15.285  0.2244 -0.2136  0.4931
 4749SOL    HW125880   3.080   0.937  15.241 -0.6644 -0.9589  1.8385
 4749SOL    HW225881   3.215   0.997  15.288  1.9066 -1.2593 -0.1514
 4750SOL     OW25882   3.350   0.395   3.248 -0.4229  0.5603 -0.7470
 4750SOL    HW125883   3.281   0.461   3.260  0.6548  1.4808  0.4222
 4750SOL    HW225884   3.309   0.319   3.206  0.5455  0.1388 -0.9251
 4751SOL     OW25885   1.229   0.083   9.509 -0.1190 -0.1726  0.1513
 4751SOL    HW125886   1.139   0.107   9.529  0.0967 -0.4703  1.4857
 4751SOL    HW225887   1.246   0.020   9.579 -1.5613 -0.3283  0.3491
 4752SOL     OW25888   0.332   0.673   7.702 -0.7832  0.3961  0.1362
 4752SOL    HW125889   0.350   0.684   7.796 -0.0182  0.6478 -0.0473
 4752SOL    HW225890   0.404   0.617   7.675  0.2646  1.2721  1.0978
 4753SOL     OW25891   3.050   0.561   1.613  0.3117 -0.2415 -0.5134
 4753SOL    HW125892   3.013   0.474   1.626 -1.9979  0.8009 -0.0986
 4753SOL    HW225893   2.994   0.596   1.543  0.8800 -0.1997 -0.9470
 4754SOL     OW25894   1.458   1.244   6.046  0.2297  0.1561 -0.0931
 4754SOL    HW125895   1.529   1.308   6.043  1.0540 -0.7419  0.1232
 4754SOL    HW225896   1.515   1.167   6.058 -1.9765 -1.0922  2.4369
 4755SOL     OW25897   1.816   3.258   3.115 -0.3294 -0.1519  0.1794
 4755SOL    HW125898   1.747   3.299   3.063 -1.1859 -0.3753  1.1365
 4755SOL    HW225899   1.764   3.186   3.152 -0.0948  0.3676  1.5319
 4756SOL     OW25900   1.203   0.104  10.333 -0.6247 -0.0173  0.4034
 4756SOL    HW125901   1.179   0.181  10.386  0.1439 -0.2390  1.0790
 4756SOL    HW225902   1.186   0.036  10.398  0.8056 -1.6388 -0.9388
 4757SOL     OW25903   3.168   0.430   0.796  0.2879  0.1494  0.4502
 4757SOL    HW125904   3.152   0.525   0.789 -0.2180  0.0702  0.5636
 4757SOL    HW225905   3.248   0.416   0.847 -0.1872 -0.8344  0.9263
 4758SOL     OW25906   0.922   3.635   3.555  0.1733  0.1532  0.3492
 4758SOL    HW125907   0.948   3.561   3.500  0.1771  0.9428 -0.7168
 4758SOL    HW225908   0.828   3.622   3.546  0.4315 -1.0612 -0.4856
 4759SOL     OW25909   1.646   2.750   6.704  0.7288  0.1287 -0.5072
 4759SOL    HW125910   1.616   2.714   6.620  0.9357 -3.0519  0.8042
 4759SOL    HW225911   1.736   2.780   6.696  0.7733  0.3052  0.6854
 4760SOL     OW25912   1.644   1.483   3.484  0.2766 -0.6203 -0.3819
 4760SOL    HW125913   1.724   1.475   3.432  0.3637 -1.5693 -0.1113
 4760SOL    HW225914   1.590   1.476   3.405 -1.7100 -0.2160  0.9488
 4761SOL     OW25915   3.925   2.421   5.953  0.4366 -0.1939 -0.6636
 4761SOL    HW125916   3.836   2.399   5.982  1.2032 -1.4239  0.7583
 4761SOL    HW225917   3.957   2.461   6.033  1.7944 -0.6906 -0.9577
 4762SOL     OW25918   2.052   2.551   3.155  0.3369  0.3024  0.0376
 4762SOL    HW125919   1.976   2.503   3.187  0.0621 -1.3302 -2.9866
 4762SOL    HW225920   2.084   2.482   3.096  1.9419 -0.0836  1.3451
 4763SOL     OW25921   2.775   0.195   2.371  1.0282 -0.4374  0.7418
 4763SOL    HW125922   2.751   0.208   2.279 -0.9856 -3.1931  0.9070
 4763SOL    HW225923   2.867   0.220   2.356  0.6106  1.2791  1.0227
 4764SOL     OW25924   3.766   1.761   8.610 -0.8114  0.0029  0.4141
 4764SOL    HW125925   3.703   1.759   8.537 -0.1328 -1.2379 -0.1287
 4764SOL    HW225926   3.776   1.667   8.624 -2.3909 -0.4520 -1.4244
 4765SOL     OW25927   0.361   1.971   7.100  0.7821  0.0219  0.5978
 4765SOL    HW125928   0.429   2.037   7.090  0.8408 -0.0814  0.3257
 4765SOL    HW225929   0.360   1.942   7.009 -1.6385 -3.3111  1.6650
 4766SOL     OW25930   1.784   3.318  13.075 -0.0961 -0.3651 -0.1969
 4766SOL    HW125931   1.778   3.222  13.075  0.2843 -0.3906  1.9668
 4766SOL    HW225932   1.753   3.354  12.992 -1.9778 -2.4894 -0.4359
 4767SOL     OW25933   0.993   2.259   5.054 -0.1218  0.4729 -0.2844
 4767SOL    HW125934   0.970   2.174   5.092 -2.5204  0.9217 -0.7060
 4767SOL    HW225935   1.088   2.257   5.062 -0.1335 -0.1327 -0.2964
 4768SOL     OW25936   0.772   2.657   4.914  0.4153 -0.5609 -0.6376
 4768SOL    HW125937   0.745   2.690   5.000  0.6964 -2.3495  0.1461
 4768SOL    HW225938   0.850   2.610   4.942  0.1855 -1.5526 -1.6756
 4769SOL     OW25939   4.135   3.420   2.075  0.6615 -0.1623  0.0337
 4769SOL    HW125940   4.058   3.475   2.088 -0.7546 -1.9637 -0.5950
 4769SOL    HW225941   4.121   3.364   2.151 -0.0333 -0.0449 -0.0074
 4770SOL     OW25942   1.733   0.526   3.678 -0.6626 -0.9020  0.1583
 4770SOL    HW125943   1.777   0.482   3.606 -0.5726  0.5684 -0.6806
 4770SOL    HW225944   1.645   0.531   3.641 -0.1897 -0.1170 -0.8418
 4771SOL     OW25945   3.007   0.961   9.663  0.2039 -0.4780  1.0798
 4771SOL    HW125946   2.974   0.872   9.680 -1.4003  0.2548  1.8672
 4771SOL    HW225947   2.920   1.002   9.657  0.4173 -0.0276  1.0899
 4772SOL     OW25948   0.122   3.668   0.297  0.0808  0.1852 -0.3215
 4772SOL    HW125949   0.078   3.594   0.338 -1.1057  1.8992  1.4742
 4772SOL    HW225950   0.167   3.714   0.367  0.4116 -1.1720  0.3670
 4773SOL     OW25951   4.588   4.434   8.197  0.0635  0.0703  0.4478
 4773SOL    HW125952   4.633   4.418   8.114 -1.2119 -3.0590  0.3454
 4773SOL    HW225953   4.595   4.529   8.198 -0.4651  0.0980  1.2599
 4774SOL     OW25954   4.345   1.871   5.106  0.1149 -0.6767 -0.0117
 4774SOL    HW125955   4.290   1.793   5.105  0.6797 -1.0692 -0.4820
 4774SOL    HW225956   4.423   1.834   5.063 -0.9096 -3.0337  0.1902
 4775SOL     OW25957   0.444   3.286   2.550  0.2433  0.1411 -0.6695
 4775SOL    HW125958   0.537   3.263   2.557  0.4509  1.1875  0.0146
 4775SOL    HW225959   0.417   3.238   2.472  0.3148 -0.7861 -0.1301
 4776SOL     OW25960   0.454   2.020   6.624  0.2298 -0.0737  0.2248
 4776SOL    HW125961   0.532   2.036   6.676  0.4463  0.1051 -0.1520
 4776SOL    HW225962   0.423   2.105   6.656 -0.7154 -1.0463  1.9194
 4777SOL     OW25963   1.116   1.526   9.862  0.3209 -0.8612  0.3392
 4777SOL    HW125964   1.111   1.572   9.778 -1.9742 -0.1099  0.8789
 4777SOL    HW225965   1.027   1.529   9.897  0.1287 -1.6890 -0.0927
 4778SOL     OW25966   3.267   2.639   4.830  0.3375 -0.1747 -0.3551
 4778SOL    HW125967   3.176   2.667   4.823  0.0931 -0.8150  0.2572
 4778SOL    HW225968   3.312   2.713   4.873  1.9714 -1.1352 -0.4073
 4779SOL     OW25969   1.806   1.974  12.014  0.3117  0.3881  0.6793
 4779SOL    HW125970   1.836   2.044  12.072 -0.1209  0.4039  0.8833
 4779SOL    HW225971   1.866   1.997  11.942  0.4949 -1.6787  0.1643
 4780SOL     OW25972   3.280   1.349   7.222  0.2970 -0.1272  0.0697
 4780SOL    HW125973   3.279   1.331   7.129 -1.5400  0.1651  0.0390
 4780SOL    HW225974   3.293   1.257   7.243 -0.8390 -0.2540  0.2231
 4781SOL     OW25975   1.074   1.264   8.917  0.0424 -0.5634  0.2143
 4781SOL    HW125976   1.133   1.247   8.843 -0.4735 -2.0020  0.1420
 4781SOL    HW225977   1.100   1.199   8.982 -0.6765 -1.9405 -0.8726
 4782SOL     OW25978   1.078   2.900   9.147  0.2584 -0.8970  0.2802
 4782SOL    HW125979   1.148   2.957   9.179  1.4989 -1.3224 -1.6702
 4782SOL    HW225980   1.045   2.864   9.230 -2.3267  2.5110  0.7488
 4783SOL     OW25981   0.209   3.660   4.948  0.4888  0.1882  0.2015
 4783SOL    HW125982   0.185   3.746   4.914  1.3387  1.5754  3.0586
 4783SOL    HW225983   0.140   3.610   4.905  1.0746 -2.1408  1.9927
 4784SOL     OW25984   2.964   4.356   7.827  0.2726  0.1879 -0.3260
 4784SOL    HW125985   2.963   4.437   7.878  0.5967  0.7508 -1.1941
 4784SOL    HW225986   2.983   4.375   7.735 -1.1544  3.1416 -0.0221
 4785SOL     OW25987   0.868   1.275   8.414 -0.7852 -0.2926  0.4688
 4785SOL    HW125988   0.806   1.340   8.446 -0.0936 -0.5032  2.2904
 4785SOL    HW225989   0.944   1.333   8.410 -1.5156  0.6421  0.2802
 4786SOL     OW25990   2.485   1.659   2.273  0.2467  0.1115 -0.1796
 4786SOL    HW125991   2.469   1.735   2.217  2.3213  0.2284 -0.6210
 4786SOL    HW225992   2.404   1.668   2.323 -0.2691 -0.9141 -0.8448
 4787SOL     OW25993   1.827   2.621   5.805 -0.4864 -0.5829  0.1942
 4787SOL    HW125994   1.750   2.566   5.790  0.3138 -1.1388 -1.8157
 4787SOL    HW225995   1.787   2.706   5.788  0.6005 -0.1124 -0.0147
 4788SOL     OW25996   0.682   0.521   2.191 -0.2863 -0.1162  0.1072
 4788SOL    HW125997   0.743   0.495   2.260 -0.2860  0.8936  0.4818
 4788SOL    HW225998   0.611   0.466   2.224  0.1296 -0.9586 -0.3945
 4789SOL     OW25999   3.804   4.344   4.117  0.0417  0.0848  0.4875
 4789SOL    HW126000   3.806   4.433   4.151  0.3919 -0.0177  0.7396
 4789SOL    HW226001   3.770   4.299   4.194  1.9787 -2.7854 -0.3251
 4790SOL     OW26002   0.115   1.187   7.121  0.5357  0.4482  0.3678
 4790SOL    HW126003   0.093   1.093   7.125  0.3022  0.5082  0.4907
 4790SOL    HW226004   0.142   1.210   7.210  0.2435  2.2767 -0.0235
 4791SOL     OW26005   1.313   0.487   6.101 -0.3059  0.6357 -0.2170
 4791SOL    HW126006   1.317   0.471   6.007  0.1927 -0.1738 -0.0566
 4791SOL    HW226007   1.404   0.514   6.113 -0.1849  0.9228 -1.7851
 4792SOL     OW26008   2.092   1.869   8.108 -0.1288 -0.2994 -0.1529
 4792SOL    HW126009   2.009   1.891   8.065  1.5515  0.8403 -2.8438
 4792SOL    HW226010   2.109   1.949   8.158 -0.5634 -0.6851  0.6085
 4793SOL     OW26011   4.671   0.705   3.158 -0.2948 -0.1233  0.1316
 4793SOL    HW126012   4.626   0.659   3.229  1.0579  1.6862  2.1720
 4793SOL    HW226013   4.665   0.642   3.086  0.3113  0.7877 -0.7081
 4794SOL     OW26014   3.533   1.279   3.729  0.4457 -0.0309 -0.1171
 4794SOL    HW126015   3.451   1.329   3.732 -0.5919 -1.9293  3.3149
 4794SOL    HW226016   3.566   1.284   3.639  0.8057  0.4243  0.0400
 4795SOL     OW26017   0.221   2.166   5.721 -0.1265  0.7036 -0.1911
 4795SOL    HW126018   0.252   2.204   5.639  0.3935  1.8773  0.5494
 4795SOL    HW226019   0.139   2.121   5.699 -1.3922  1.5949  2.6411
 4796SOL     OW26020   0.648   3.052  16.453  0.3707 -0.4107 -0.5478
 4796SOL    HW126021   0.574   3.100  16.490 -1.1037 -4.0419  1.1519
 4796SOL    HW226022   0.696   3.033  16.533  1.2328  0.5125 -0.8461
 4797SOL     OW26023   4.110   0.958   7.015 -0.3978 -0.0028 -0.4411
 4797SOL    HW126024   4.081   0.991   7.101 -0.3077 -0.8894 -0.0710
 4797SOL    HW226025   4.205   0.967   7.023 -0.2013 -1.2020 -1.5504
 4798SOL     OW26026   3.135   4.560   0.706 -0.0796 -0.7103 -0.4916
 4798SOL    HW126027   3.111   4.475   0.669  0.0380  0.3756 -3.0697
 4798SOL    HW226028   3.066   4.573   0.771 -0.2185 -0.0509 -0.7665
 4799SOL     OW26029   1.260   0.411   8.103 -0.0426 -0.0983 -0.1248
 4799SOL    HW126030   1.342   0.438   8.062  0.9046  0.8448  2.3809
 4799SOL    HW226031   1.270   0.444   8.193  0.6522  2.1792 -1.0223
 4800SOL     OW26032   0.112   2.265   0.567 -0.0814 -0.7558  0.1732
 4800SOL    HW126033   0.198   2.305   0.578 -1.0653  0.9430  1.7853
 4800SOL    HW226034   0.049   2.337   0.580 -0.8154 -1.1754 -1.0432
 4801SOL     OW26035   4.252   4.477   9.083 -0.2067 -0.1593 -0.0582
 4801SOL    HW126036   4.192   4.499   9.155 -1.1163  2.3454 -1.5914
 4801SOL    HW226037   4.200   4.454   9.006  0.9406 -0.0847 -0.8539
 4802SOL     OW26038   2.454   2.652   8.305 -0.4563 -0.2321  0.2500
 4802SOL    HW126039   2.462   2.604   8.223  1.6856 -0.3664  0.5455
 4802SOL    HW226040   2.496   2.601   8.374 -0.4370  1.4987  1.5457
 4803SOL     OW26041   1.103   1.913   6.881 -0.0308 -0.4048  0.2526
 4803SOL    HW126042   1.100   1.939   6.973  0.8402  1.2951 -0.1965
 4803SOL    HW226043   1.139   1.825   6.890 -0.9793 -0.5646  2.4596
 4804SOL     OW26044   0.976   4.407   2.989  0.2243  0.1369  0.9990
 4804SOL    HW126045   1.002   4.360   2.910  0.5005 -1.3291  1.9621
 4804SOL    HW226046   1.055   4.462   2.987  0.1583  0.0754 -4.3602
 4805SOL     OW26047   2.650   2.375   1.223 -0.5049 -0.5648  0.3941
 4805SOL    HW126048   2.585   2.312   1.193 -0.7559 -0.6030  1.0190
 4805SOL    HW226049   2.728   2.321   1.231  0.3862  0.9850  2.3122
 4806SOL     OW26050   0.315   3.799   3.651  0.1377 -0.3464 -0.1698
 4806SOL    HW126051   0.252   3.852   3.602 -0.4407 -0.8956 -0.0153
 4806SOL    HW226052   0.376   3.860   3.692 -0.4576  1.3829 -1.8541
 4807SOL     OW26053   0.680   4.655  16.214 -0.1996 -0.0265 -0.1980
 4807SOL    HW126054   0.597   4.702  16.226 -0.5507 -1.0358  1.3242
 4807SOL    HW226055   0.658   4.602  16.137  0.9436  2.3412 -2.1874
 4808SOL     OW26056   3.177   3.919   0.701 -0.1733  0.1013  0.4402
 4808SOL    HW126057   3.222   3.970   0.634 -1.5811  1.8226  0.7786
 4808SOL    HW226058   3.092   3.962   0.689  1.3121  2.5021 -1.4385
 4809SOL     OW26059   1.810   1.794   8.865  0.6167 -0.7286 -0.0257
 4809SOL    HW126060   1.766   1.874   8.838  2.4083  1.1493  2.6151
 4809SOL    HW226061   1.900   1.821   8.849 -0.0639  2.1177  0.9899
 4810SOL     OW26062   1.072   3.048   5.473  0.0119  0.2207  0.5016
 4810SOL    HW126063   1.152   3.014   5.513 -0.7298 -2.1082 -0.0021
 4810SOL    HW226064   1.016   3.055   5.550  0.7926 -0.4726  1.1347
 4811SOL     OW26065   4.692   0.994   9.853 -0.2339 -0.3809 -0.4515
 4811SOL    HW126066   4.724   1.008   9.942 -0.9635 -0.1987 -0.2215
 4811SOL    HW226067   4.604   1.031   9.852  0.0156  0.2418  1.4182
 4812SOL     OW26068   3.192   2.156   9.530  0.3492  0.0786  0.2299
 4812SOL    HW126069   3.152   2.108   9.603  1.9888  0.7550  1.5834
 4812SOL    HW226070   3.127   2.226   9.524  1.1181  0.5645 -2.4353
 4813SOL     OW26071   2.686   4.385   1.746  0.0958 -0.3206 -0.4327
 4813SOL    HW126072   2.738   4.463   1.726  1.8565 -1.3858  0.0579
 4813SOL    HW226073   2.745   4.352   1.814 -3.7005 -1.6917  2.1649
 4814SOL     OW26074   0.329   2.724  13.241  0.0344 -0.1487  0.1415
 4814SOL    HW126075   0.285   2.741  13.157  1.3220  2.9806  0.1220
 4814SOL    HW226076   0.266   2.751  13.308  0.0884 -1.1027  0.5732
 4815SOL     OW26077   2.677   0.062   3.745  0.2648  0.4086 -0.3627
 4815SOL    HW126078   2.757   0.089   3.701  0.7501  1.0277  0.9107
 4815SOL    HW226079   2.617   0.128   3.709 -0.2746 -0.3067 -0.7783
 4816SOL     OW26080   3.012   2.916  10.201  0.1517 -0.3580  0.0150
 4816SOL    HW126081   3.067   2.979  10.248 -0.1025 -0.3286  0.2777
 4816SOL    HW226082   2.986   2.872  10.282 -1.1024  0.4397  0.0493
 4817SOL     OW26083   1.452   1.888   0.162  1.0218 -0.0834  0.4813
 4817SOL    HW126084   1.389   1.852   0.099 -2.1013  0.7164  3.1461
 4817SOL    HW226085   1.415   1.976   0.156  2.2338  0.3724 -0.3224
 4818SOL     OW26086   3.418   2.353   6.122  0.3459 -0.2943 -0.2379
 4818SOL    HW126087   3.485   2.374   6.057  1.1824  0.7606  0.9515
 4818SOL    HW226088   3.422   2.257   6.122 -0.1683 -0.3213  0.5514
 4819SOL     OW26089   2.555   0.659   8.426  0.4032  0.6903  0.1032
 4819SOL    HW126090   2.575   0.566   8.418 -0.2064  0.7944 -2.6624
 4819SOL    HW226091   2.476   0.647   8.373  0.9334 -0.3496 -0.4622
 4820SOL     OW26092   0.771   4.455   1.943 -0.3943  0.0600  0.3035
 4820SOL    HW126093   0.862   4.464   1.972 -0.1186  0.2038 -0.6178
 4820SOL    HW226094   0.725   4.523   1.992 -1.0479 -0.3920  0.3135
 4821SOL     OW26095   2.595   4.063   3.557 -0.6562  0.6938 -0.3445
 4821SOL    HW126096   2.543   4.088   3.634  0.0642 -0.7617  0.6133
 4821SOL    HW226097   2.589   4.145   3.508 -0.7968  1.2752  0.6493
 4822SOL     OW26098   1.043   1.969   7.136  0.2492  0.4286  0.2784
 4822SOL    HW126099   0.969   1.927   7.180  0.7836 -0.9818 -0.1638
 4822SOL    HW226100   1.117   1.943   7.191  1.7109  1.5813 -1.1565
 4823SOL     OW26101   4.363   2.641   3.330  0.0541 -0.6028  0.2942
 4823SOL    HW126102   4.338   2.655   3.238  1.8891 -1.7556 -0.3831
 4823SOL    HW226103   4.457   2.638   3.313  0.0135  1.7566 -0.3130
 4824SOL     OW26104   2.644   3.906   1.303  0.3496 -0.7031  0.0730
 4824SOL    HW126105   2.573   3.923   1.364  1.0636 -1.9203  1.2357
 4824SOL    HW226106   2.678   3.991   1.275  2.6988 -2.4792 -2.4555
 4825SOL     OW26107   1.740   1.465   2.225  0.2719 -0.3710 -0.4745
 4825SOL    HW126108   1.773   1.400   2.163  0.7879 -0.5514 -0.0033
 4825SOL    HW226109   1.770   1.441   2.312 -2.0035 -1.0756  0.1186
 4826SOL     OW26110   1.423   0.232   7.712  0.0604  0.4535  0.2526
 4826SOL    HW126111   1.440   0.167   7.644  0.8937  0.1766  0.7183
 4826SOL    HW226112   1.388   0.184   7.787 -0.4636  0.8586  0.2626
 4827SOL     OW26113   4.669   2.838   8.129  0.1174  0.4236  0.0870
 4827SOL    HW126114   4.730   2.904   8.097 -1.3108  2.7068  2.0773
 4827SOL    HW226115   4.732   2.781   8.172 -0.6866  1.1709  2.2798
 4828SOL     OW26116   0.672   0.556  12.874  0.1772  0.0080 -0.3528
 4828SOL    HW126117   0.703   0.524  12.959  0.1891 -2.5730 -1.3201
 4828SOL    HW226118   0.754   0.580  12.831 -1.2987  2.5169 -1.7877
 4829SOL     OW26119   0.256   0.023   8.876 -0.3384 -0.3325  0.8589
 4829SOL    HW126120   0.278   4.684   8.822 -0.0731  1.9200 -2.1679
 4829SOL    HW226121   0.317   0.005   8.947 -0.8438 -0.9895  1.1369
 4830SOL     OW26122   3.242   0.185  10.679 -0.1859 -0.0778  0.3910
 4830SOL    HW126123   3.298   0.236  10.621  0.1039 -0.3906  0.3977
 4830SOL    HW226124   3.160   0.205  10.633  1.9114  2.3973 -2.2546
 4831SOL     OW26125   1.812   1.326   7.672  0.1956 -0.7314 -0.4378
 4831SOL    HW126126   1.736   1.281   7.637 -0.0185 -0.7962  0.1263
 4831SOL    HW226127   1.808   1.407   7.620  0.4526  0.0473  0.7489
 4832SOL     OW26128   0.855   0.470   0.976  0.1124  0.0932 -0.1707
 4832SOL    HW126129   0.788   0.403   0.962  1.1385 -0.5856 -1.8023
 4832SOL    HW226130   0.844   0.525   0.898 -1.0726 -1.0201 -0.7845
 4833SOL     OW26131   2.562   2.541   5.329 -0.7370 -0.1089  0.4085
 4833SOL    HW126132   2.609   2.592   5.264  0.2243  0.4238  1.5396
 4833SOL    HW226133   2.484   2.514   5.280 -1.0530 -2.0247  1.9501
 4834SOL     OW26134   3.154   4.040   1.194 -0.6101  0.5042  0.2794
 4834SOL    HW126135   3.192   4.016   1.110  2.2239  0.7327  1.4852
 4834SOL    HW226136   3.079   4.086   1.158 -0.1950  1.3428  0.4859
 4835SOL     OW26137   2.520   0.071  10.783  0.4161 -0.3327 -0.0312
 4835SOL    HW126138   2.508   0.145  10.724 -1.3087 -1.3167 -0.9136
 4835SOL    HW226139   2.433   0.065  10.822  0.3099 -0.4103 -0.2785
 4836SOL     OW26140   1.985   1.342   1.350  0.0100 -0.1588 -0.4895
 4836SOL    HW126141   1.961   1.307   1.264  0.3258 -0.0831 -0.6087
 4836SOL    HW226142   1.967   1.434   1.329  0.9713  0.4422  1.3931
 4837SOL     OW26143   0.028   0.127   3.062  0.4560  0.6319 -0.2657
 4837SOL    HW126144   4.714   0.058   3.019 -0.8071  0.1550  1.9760
 4837SOL    HW226145   4.701   0.163   3.123 -1.3416 -1.5410 -0.8432
 4838SOL     OW26146   2.361   3.974   3.343 -0.5131  0.1658 -0.5239
 4838SOL    HW126147   2.403   3.927   3.415 -0.2000 -0.9793 -1.4562
 4838SOL    HW226148   2.405   4.059   3.348 -0.7505  0.1458  1.6905
 4839SOL     OW26149   2.269   0.916   5.935 -0.8603 -0.0989 -0.1051
 4839SOL    HW126150   2.363   0.918   5.952 -0.7343 -0.6750 -0.7329
 4839SOL    HW226151   2.256   0.853   5.864 -1.1100  0.3064 -0.4174
 4840SOL     OW26152   4.649   4.210   4.536  0.0425  0.1196 -0.2447
 4840SOL    HW126153   4.694   4.142   4.485 -1.9537 -2.7925  1.9241
 4840SOL    HW226154   4.724   4.260   4.567 -0.3952  1.6760 -1.7270
 4841SOL     OW26155   0.572   2.943   7.852  0.3589  0.3084  0.1421
 4841SOL    HW126156   0.546   2.870   7.907  1.2577 -0.0367  0.1079
 4841SOL    HW226157   0.546   3.020   7.902 -2.5650 -1.1340  0.8127
 4842SOL     OW26158   1.976   3.535   8.199 -0.8642  0.2182 -0.0267
 4842SOL    HW126159   2.026   3.454   8.209 -0.9587  0.2459  0.6958
 4842SOL    HW226160   1.905   3.510   8.258  0.7255 -0.5868  1.5564
 4843SOL     OW26161   0.360   2.955   7.288 -0.3117  0.8286 -0.3504
 4843SOL    HW126162   0.358   3.031   7.347 -1.4764  0.7876 -0.3421
 4843SOL    HW226163   0.454   2.960   7.270  0.2184  0.1536  2.1741
 4844SOL     OW26164   0.398   4.668   2.665 -0.2775  0.0752  0.0932
 4844SOL    HW126165   0.464   4.678   2.596 -1.3104 -0.9409 -1.0490
 4844SOL    HW226166   0.378   4.576   2.649 -0.2735  0.1055 -0.0874
 4845SOL     OW26167   0.838   4.048   2.479 -0.1704 -0.0629 -0.5680
 4845SOL    HW126168   0.753   4.048   2.435 -1.5472 -1.8387  2.0326
 4845SOL    HW226169   0.848   3.955   2.500  0.6595 -0.3575 -2.3000
 4846SOL     OW26170   3.054   0.644  16.380  0.3813  0.8484 -0.3843
 4846SOL    HW126171   2.984   0.694  16.338 -0.2835 -0.3049 -0.6539
 4846SOL    HW226172   3.111   0.715  16.409  1.1138  1.4006 -3.1373
 4847SOL     OW26173   1.208   3.893   1.153 -0.5063 -0.1977  0.3244
 4847SOL    HW126174   1.123   3.902   1.112 -1.4254 -1.9589  1.8559
 4847SOL    HW226175   1.206   3.803   1.186 -1.7361  0.5004  2.1553
 4848SOL     OW26176   1.498   0.249  16.818 -0.0214 -0.0247 -0.0538
 4848SOL    HW126177   1.544   0.174  16.856 -0.9668  0.3634  1.8863
 4848SOL    HW226178   1.520   0.323  16.875  0.3559  1.1944 -1.8038
 4849SOL     OW26179   1.447   0.938   3.057 -0.0635  0.4717  0.5785
 4849SOL    HW126180   1.371   0.985   3.092 -0.1032  0.2189  0.8274
 4849SOL    HW226181   1.510   0.960   3.126  0.1179  0.7969  0.3055
 4850SOL     OW26182   2.056   0.292  15.736 -0.3277  0.6031  0.1134
 4850SOL    HW126183   1.967   0.311  15.767 -0.8720 -1.9249  0.0827
 4850SOL    HW226184   2.044   0.312  15.643  0.7207 -0.3025 -0.2142
 4851SOL     OW26185   2.495   1.587  14.085 -0.0854 -0.7239 -0.7518
 4851SOL    HW126186   2.458   1.540  14.010  1.8336 -1.1243 -1.4556
 4851SOL    HW226187   2.443   1.549  14.156  1.9847  0.0275  1.1512
 4852SOL     OW26188   2.357   1.315  11.120 -0.6343  0.7573  0.1311
 4852SOL    HW126189   2.426   1.382  11.123 -1.1543  1.3551 -1.8106
 4852SOL    HW226190   2.403   1.231  11.117 -0.8120  0.6343  0.8337
 4853SOL     OW26191   4.362   3.668   6.351  0.2473  0.4331 -0.4556
 4853SOL    HW126192   4.306   3.594   6.376  1.4271 -1.2778 -2.9099
 4853SOL    HW226193   4.360   3.654   6.257  0.0469  0.2540 -0.4242
 4854SOL     OW26194   0.459   1.910  16.468 -0.5894  0.7415  0.2737
 4854SOL    HW126195   0.461   1.962  16.547 -3.3302 -0.0670  0.8722
 4854SOL    HW226196   0.485   1.822  16.494 -0.5351  0.5647 -0.3764
 4855SOL     OW26197   1.444   0.543   4.040  0.1608 -0.4031 -0.1560
 4855SOL    HW126198   1.520   0.490   4.065 -1.0425 -2.7955 -1.5247
 4855SOL    HW226199   1.441   0.610   4.108  2.4435 -1.2973  0.8283
 4856SOL     OW26200   2.553   0.601   6.885  0.3207  0.4460 -0.3624
 4856SOL    HW126201   2.595   0.635   6.806  0.0463  0.3731 -0.5375
 4856SOL    HW226202   2.492   0.543   6.840  0.9812  0.1332 -0.8548
 4857SOL     OW26203   2.900   3.128   5.856  0.3789  0.8208  0.0863
 4857SOL    HW126204   2.913   3.059   5.921 -0.0707  1.2006  0.5805
 4857SOL    HW226205   2.844   3.075   5.799 -1.6164  1.1062  1.7538
 4858SOL     OW26206   1.794   0.603  14.347 -0.2352 -0.1302 -0.2156
 4858SOL    HW126207   1.858   0.671  14.324  1.7189 -1.5199  1.2197
 4858SOL    HW226208   1.716   0.659  14.339 -0.0047 -0.0258 -1.7514
 4859SOL     OW26209   1.868   2.338   1.572 -0.0303  0.2662 -0.1321
 4859SOL    HW126210   1.909   2.252   1.578  3.1838  1.8051  0.2610
 4859SOL    HW226211   1.858   2.362   1.664  0.6179  1.5976 -0.4087
 4860SOL     OW26212   4.007   0.051  11.137  0.3897  0.3087  0.7242
 4860SOL    HW126213   3.995   0.001  11.056 -0.3348  0.5827  0.6628
 4860SOL    HW226214   3.926   0.029  11.182  0.0898 -2.6688 -1.2889
 4861SOL     OW26215   0.867   2.392   9.802 -0.1316  0.3844 -0.1906
 4861SOL    HW126216   0.834   2.399   9.712 -1.6987 -0.1713  0.3453
 4861SOL    HW226217   0.947   2.442   9.785  0.4137 -0.0723  1.1303
 4862SOL     OW26218   1.082   1.665   5.029 -0.1548  0.2259  0.1570
 4862SOL    HW126219   1.148   1.629   4.970 -0.7605 -0.8439  0.1359
 4862SOL    HW226220   1.048   1.580   5.059 -1.9890  1.1231  0.5758
 4863SOL     OW26221   3.887   0.162  12.576 -0.0639  0.3046  0.2782
 4863SOL    HW126222   3.882   0.255  12.555  2.1639  0.4719  0.5107
 4863SOL    HW226223   3.910   0.165  12.669  1.1186  0.1975 -0.0068
 4864SOL     OW26224   4.305   0.179   2.167  0.1492  0.1066  0.1372
 4864SOL    HW126225   4.266   0.233   2.098  0.6437  0.3770  0.0781
 4864SOL    HW226226   4.281   0.089   2.144  2.2829  0.2012 -2.4286
 4865SOL     OW26227   1.979   2.075   9.199  0.2491  0.6986  0.6191
 4865SOL    HW126228   1.890   2.058   9.167  0.9346 -0.1287 -0.8220
 4865SOL    HW226229   2.025   2.063   9.116  1.4150  1.7804  1.1027
 4866SOL     OW26230   3.366   4.136   4.506  0.7144  0.2802 -0.6033
 4866SOL    HW126231   3.376   4.211   4.447 -3.0475  0.4273 -1.0085
 4866SOL    HW226232   3.414   4.068   4.458  0.4969  0.5028 -1.1330
 4867SOL     OW26233   2.178   2.694   5.530  0.2414 -0.3123  0.2626
 4867SOL    HW126234   2.141   2.710   5.617  0.5201 -1.9293  0.6965
 4867SOL    HW226235   2.109   2.645   5.486  0.6577 -0.7427  0.0945
 4868SOL     OW26236   2.275   0.167   4.645  0.3146  0.1003 -0.0516
 4868SOL    HW126237   2.321   0.096   4.599  0.0028  2.1650 -3.5506
 4868SOL    HW226238   2.227   0.104   4.698 -0.6745  1.6689  0.9022
 4869SOL     OW26239   1.175   4.144   5.172  0.7828 -0.0577  0.3223
 4869SOL    HW126240   1.262   4.119   5.202  0.3953 -0.7922  0.8326
 4869SOL    HW226241   1.187   4.107   5.085  1.5584  0.3214  0.2656
 4870SOL     OW26242   2.446   2.613  11.029 -0.3049  0.0405 -0.1339
 4870SOL    HW126243   2.398   2.621  11.112  0.1749 -1.6956  0.2998
 4870SOL    HW226244   2.534   2.629  11.063  1.2505 -0.8352 -3.7796
 4871SOL     OW26245   1.855   3.986   3.048 -0.0260  0.2103 -0.0596
 4871SOL    HW126246   1.808   3.925   3.106 -1.7128  0.8118 -0.7925
 4871SOL    HW226247   1.892   3.915   2.996  1.1963  0.3275  0.6589
 4872SOL     OW26248   0.384   3.671   4.203 -0.4765  0.4545 -0.5584
 4872SOL    HW126249   0.344   3.734   4.143  0.5955  1.4056 -0.2625
 4872SOL    HW226250   0.465   3.657   4.154 -0.8095 -0.1979 -0.9260
 4873SOL     OW26251   0.886   1.632   8.997 -0.2644  0.3629  0.2872
 4873SOL    HW126252   0.976   1.652   9.020 -0.5835  1.4040  0.6089
 4873SOL    HW226253   0.857   1.584   9.075 -1.1751  0.7801  0.2049
 4874SOL     OW26254   3.005   3.655   4.382  0.1903 -0.4064 -0.1617
 4874SOL    HW126255   2.999   3.575   4.330 -2.2313  0.8821 -1.8791
 4874SOL    HW226256   3.030   3.716   4.313 -3.9858  1.3477 -0.1560
 4875SOL     OW26257   0.556   2.611   3.829 -0.2830 -0.5123  0.1441
 4875SOL    HW126258   0.487   2.614   3.895  0.6957  3.3510  0.9743
 4875SOL    HW226259   0.538   2.691   3.781  1.6689 -0.7693 -1.0433
 4876SOL     OW26260   2.149   0.844   6.926 -0.2190  0.2713 -0.2265
 4876SOL    HW126261   2.180   0.934   6.937  1.0341  0.2406 -3.4346
 4876SOL    HW226262   2.113   0.861   6.839  1.1299  3.0415 -0.2583
 4877SOL     OW26263   2.429   3.971  11.792 -0.3068  0.0805  0.2710
 4877SOL    HW126264   2.413   3.877  11.787 -2.1067  0.3235  1.4397
 4877SOL    HW226265   2.521   3.977  11.818 -0.4387  0.1697  0.7255
 4878SOL     OW26266   3.140   3.348   3.218 -0.8498 -0.0522  0.7987
 4878SOL    HW126267   3.156   3.441   3.236 -0.5387 -0.0523  0.5309
 4878SOL    HW226268   3.167   3.349   3.126 -0.3475 -0.3632  0.9457
 4879SOL     OW26269   2.433   3.226   3.114  0.0373 -0.1830 -0.4628
 4879SOL    HW126270   2.352   3.273   3.095 -0.6962 -1.8916 -1.5353
 4879SOL    HW226271   2.496   3.287   3.076  0.8097  0.1782  1.4128
 4880SOL     OW26272   4.163   1.978   3.396 -0.2825 -0.2306 -0.4224
 4880SOL    HW126273   4.248   1.974   3.440 -0.2221 -2.1181 -0.6910
 4880SOL    HW226274   4.188   1.924   3.321 -1.3472  1.0370 -1.6832
 4881SOL     OW26275   3.822   2.620   9.344 -0.5311 -0.3175  0.6102
 4881SOL    HW126276   3.887   2.582   9.403  0.5185 -0.0271 -0.3514
 4881SOL    HW226277   3.786   2.545   9.297  1.4205 -0.1827 -1.1395
 4882SOL     OW26278   2.052   3.947  15.517 -0.0637 -0.6037  0.3705
 4882SOL    HW126279   2.030   3.866  15.564  0.7906 -1.1268 -0.1219
 4882SOL    HW226280   2.098   3.991  15.588 -1.3605  1.5813 -0.1638
 4883SOL     OW26281   3.059   1.398   3.426  0.5149  0.5128 -0.0589
 4883SOL    HW126282   3.097   1.483   3.448 -0.6133  1.0977 -0.3874
 4883SOL    HW226283   2.966   1.394   3.448  0.8357  1.4046  1.5264
 4884SOL     OW26284   1.952   0.654   8.759  0.3638  0.0464  0.1517
 4884SOL    HW126285   2.035   0.663   8.806  0.7010 -2.2050 -0.0179
 4884SOL    HW226286   1.930   0.561   8.764 -2.8788  0.7598 -0.7490
 4885SOL     OW26287   0.761   1.503   8.479 -0.0960 -0.8527 -0.3542
 4885SOL    HW126288   0.812   1.552   8.543  1.1322 -0.5732 -1.5398
 4885SOL    HW226289   0.691   1.569   8.478  2.2198  1.5977 -0.9467
 4886SOL     OW26290   3.102   2.326  13.647 -0.0919 -0.0789  0.9328
 4886SOL    HW126291   3.100   2.231  13.655 -0.5219 -0.1119  0.4755
 4886SOL    HW226292   3.019   2.357  13.609  0.0415 -1.5932 -0.6076
 4887SOL     OW26293   4.217   3.294   7.968 -0.3318 -0.1444 -0.3757
 4887SOL    HW126294   4.224   3.311   8.062 -1.6147  0.4973 -0.4025
 4887SOL    HW226295   4.273   3.218   7.950  0.2986  0.3846 -0.6871
 4888SOL     OW26296   3.557   0.218   4.974 -0.0142 -0.1618 -0.1304
 4888SOL    HW126297   3.503   0.256   5.043  0.1669  0.8546 -0.5449
 4888SOL    HW226298   3.592   0.140   5.018 -1.0908 -0.2808  0.5057
 4889SOL     OW26299   4.646   1.463   8.532  0.4914 -0.1800  0.2021
 4889SOL    HW126300   4.673   1.408   8.605  0.7927  0.0960  0.2979
 4889SOL    HW226301   4.662   1.396   8.465 -0.3381  1.4806 -1.6756
 4890SOL     OW26302   3.195   1.242   8.155 -0.0920  0.4111  0.1098
 4890SOL    HW126303   3.197   1.258   8.250  1.3488  2.0276 -0.1950
 4890SOL    HW226304   3.265   1.179   8.142  0.3303  0.8155  0.4080
 4891SOL     OW26305   4.096   0.106   4.535  0.0518 -0.1797 -0.8086
 4891SOL    HW126306   4.041   0.036   4.572  0.4656 -1.7567 -3.1987
 4891SOL    HW226307   4.103   0.166   4.609 -1.2329  0.5579 -1.2890
 4892SOL     OW26308   3.158   2.895   3.303 -0.1211 -0.0441  0.3671
 4892SOL    HW126309   3.245   2.883   3.266 -0.9765 -0.8557 -1.4062
 4892SOL    HW226310   3.156   2.822   3.365 -0.6544  0.8740  1.4398
 4893SOL     OW26311   2.165   1.140  11.021 -0.3655  0.4656 -0.1059
 4893SOL    HW126312   2.220   1.195  11.076 -1.3800  1.6737 -0.2887
 4893SOL    HW226313   2.169   1.189  10.939 -0.7878  0.8759  0.1144
 4894SOL     OW26314   1.552   1.081   8.071 -0.3140 -0.6798  0.2161
 4894SOL    HW126315   1.584   1.144   8.136  1.2081 -0.6819 -0.5223
 4894SOL    HW226316   1.573   0.992   8.100  2.2162  0.1711  1.0161
 4895SOL     OW26317   3.518   4.432   6.271 -0.1982  0.3592 -0.0919
 4895SOL    HW126318   3.544   4.376   6.198 -0.5576  1.9734 -1.4364
 4895SOL    HW226319   3.445   4.379   6.305  0.1385  0.1226  0.2599
 4896SOL     OW26320   3.847   3.722  15.010  0.1185 -0.3336 -0.2675
 4896SOL    HW126321   3.836   3.672  15.091 -2.1844 -0.1916 -0.4939
 4896SOL    HW226322   3.875   3.657  14.945  2.3217 -0.7222  1.0680
 4897SOL     OW26323   3.111   2.046  13.609  0.3458 -0.5350 -0.1501
 4897SOL    HW126324   3.165   1.968  13.620 -1.0061 -1.2393  1.5470
 4897SOL    HW226325   3.081   2.016  13.524 -0.4858  0.9524 -0.3821
 4898SOL     OW26326   3.495   1.165   8.500 -0.2078 -0.2937 -0.3495
 4898SOL    HW126327   3.525   1.206   8.581  1.3648 -0.7626 -0.7017
 4898SOL    HW226328   3.566   1.103   8.485  0.6904  0.3143  1.4906
 4899SOL     OW26329   4.085   3.040   0.033  0.7084  0.4726  0.4771
 4899SOL    HW126330   4.022   3.082   0.090  0.9651  1.5364 -0.0144
 4899SOL    HW226331   4.039   2.963  17.747  1.3942  1.1472 -2.0740
 4900SOL     OW26332   4.698   2.874   2.918 -0.4087 -0.6684  0.1418
 4900SOL    HW126333   4.622   2.877   2.859  2.4261 -0.6498 -3.5219
 4900SOL    HW226334   0.029   2.917   2.866 -0.0366 -0.0289  1.1611
 4901SOL     OW26335   3.161   0.701   5.207 -0.0752  0.3010  0.4041
 4901SOL    HW126336   3.187   0.792   5.188 -0.6960  0.0939 -1.4284
 4901SOL    HW226337   3.173   0.690   5.301 -1.0885 -1.1473  0.3523
 4902SOL     OW26338   3.018   0.124  12.149  0.1002 -0.2202  0.0700
 4902SOL    HW126339   3.042   0.134  12.057 -0.7298  1.7625  0.0846
 4902SOL    HW226340   3.054   0.041  12.181  0.4077 -1.0575 -2.4902
 4903SOL     OW26341   3.397   3.269   3.887  0.0776  0.0617  0.2207
 4903SOL    HW126342   3.380   3.364   3.887 -0.1373  0.0226  0.6956
 4903SOL    HW226343   3.413   3.253   3.794 -1.8317 -1.5434  0.1642
 4904SOL     OW26344   3.433   2.223   3.230 -0.1617 -0.1708 -0.4722
 4904SOL    HW126345   3.388   2.214   3.313 -0.7056 -0.6604 -0.8163
 4904SOL    HW226346   3.406   2.139   3.193  1.5262  0.0400 -2.1780
 4905SOL     OW26347   1.580   1.435   7.878 -0.2689 -0.3904 -0.2477
 4905SOL    HW126348   1.533   1.463   7.956 -1.4056 -0.6483 -0.8380
 4905SOL    HW226349   1.629   1.359   7.908 -1.9026 -1.0450  0.7565
 4906SOL     OW26350   4.237   0.892   5.066  0.2135  0.1898 -0.5469
 4906SOL    HW126351   4.281   0.914   4.983 -0.3023  0.7587 -0.6689
 4906SOL    HW226352   4.312   0.911   5.123 -2.3777  1.5162  2.4400
 4907SOL     OW26353   4.053   2.396  10.171 -0.1878 -0.3659  0.0390
 4907SOL    HW126354   4.072   2.449  10.249  0.3495 -1.8875  0.9458
 4907SOL    HW226355   3.989   2.453  10.128 -1.2092 -0.0119  2.0136
 4908SOL     OW26356   0.105   4.096   6.738  0.1648  0.1859  0.4022
 4908SOL    HW126357   0.125   4.118   6.647  0.3506 -4.5091 -0.6509
 4908SOL    HW226358   0.049   4.170   6.765 -1.4936  0.4566 -3.7517
 4909SOL     OW26359   1.843   3.294   9.097  0.6764 -0.1822 -0.4351
 4909SOL    HW126360   1.913   3.230   9.114  1.2234  0.2226 -1.1724
 4909SOL    HW226361   1.871   3.368   9.151 -0.9478  1.3100 -1.6696
 4910SOL     OW26362   0.085   0.854   6.308  0.6020 -0.0304 -0.1332
 4910SOL    HW126363   0.019   0.889   6.249  1.4046 -2.3614 -2.4290
 4910SOL    HW226364   0.091   0.764   6.275  0.4224 -0.8348  2.0552
 4911SOL     OW26365   2.853   1.909  10.852 -0.3469  0.6275  0.3895
 4911SOL    HW126366   2.872   1.995  10.890 -2.8397  1.0816  0.5887
 4911SOL    HW226367   2.757   1.907  10.849 -0.3154  1.1809 -1.1340
 4912SOL     OW26368   1.496   0.240   4.117  0.0801 -0.1466  0.2793
 4912SOL    HW126369   1.459   0.212   4.201 -0.4631  1.5506  0.6247
 4912SOL    HW226370   1.563   0.299   4.152 -0.2421  0.9035 -0.8429
 4913SOL     OW26371   1.849   0.589   5.051  0.0138  0.4307  0.3860
 4913SOL    HW126372   1.922   0.549   5.099 -2.0391 -1.5850  1.8343
 4913SOL    HW226373   1.792   0.626   5.118  0.4124  1.3614  0.2003
 4914SOL     OW26374   3.946   4.139   3.155 -0.4448 -0.3774 -0.5934
 4914SOL    HW126375   3.937   4.043   3.156 -0.6157 -0.3456  1.7504
 4914SOL    HW226376   3.985   4.147   3.068  1.6342 -1.4780  0.2283
 4915SOL     OW26377   4.303   1.791   2.074 -0.4758 -0.2443  0.0299
 4915SOL    HW126378   4.254   1.824   2.149  1.1917  0.1380  0.9400
 4915SOL    HW226379   4.244   1.731   2.028 -3.4597  2.1863  0.7129
 4916SOL     OW26380   0.220   2.184   3.111 -0.3551  0.1039 -0.2309
 4916SOL    HW126381   0.308   2.221   3.123  0.2435 -0.6920 -2.1581
 4916SOL    HW226382   0.218   2.132   3.191 -0.4732  0.1779 -0.1863
 4917SOL     OW26383   2.090   1.337   7.143 -0.0655  0.2386 -0.2062
 4917SOL    HW126384   2.122   1.426   7.129  2.3957 -0.3415  1.6597
 4917SOL    HW226385   1.999   1.339   7.114 -1.1267 -0.6502  2.9998
 4918SOL     OW26386   2.018   1.678   2.142  0.5004 -0.1391 -0.0032
 4918SOL    HW126387   2.079   1.605   2.153 -0.6092 -0.9427  0.7774
 4918SOL    HW226388   2.067   1.735   2.082 -1.8426  1.3090 -0.5692
 4919SOL     OW26389   0.148   0.561   4.342 -0.0411  0.3743  0.5212
 4919SOL    HW126390   0.069   0.575   4.394  0.1007 -1.2883  1.1654
 4919SOL    HW226391   0.139   0.473   4.306  0.1815  0.0812  1.1793
 4920SOL     OW26392   4.470   0.871  11.309 -0.3991 -0.4908 -0.3756
 4920SOL    HW126393   4.536   0.879  11.241 -0.8206  1.3805 -0.5764
 4920SOL    HW226394   4.391   0.857  11.256 -2.0104  0.3186  1.8113
 4921SOL     OW26395   2.300   3.100   0.766 -0.1898 -0.2038  0.1699
 4921SOL    HW126396   2.335   3.180   0.807 -0.7422 -0.1879  0.6085
 4921SOL    HW226397   2.382   3.050   0.763  0.3672  0.7344 -0.2621
 4922SOL     OW26398   4.072   1.832   6.030  0.4428  0.1530  0.1632
 4922SOL    HW126399   4.156   1.841   5.985  0.8250  0.4642  0.9416
 4922SOL    HW226400   4.008   1.863   5.965 -3.5249 -1.2258  3.4185
 4923SOL     OW26401   3.182   4.158   5.938 -0.3252  0.0922  0.6744
 4923SOL    HW126402   3.227   4.240   5.918 -1.1226  0.1880 -0.7332
 4923SOL    HW226403   3.131   4.186   6.014 -0.1523 -1.5485  1.3940
 4924SOL     OW26404   0.327   0.463   8.912 -0.1166  0.5759  0.1894
 4924SOL    HW126405   0.394   0.397   8.894 -1.2148 -0.3496 -0.4885
 4924SOL    HW226406   0.388   0.536   8.899 -0.6475  0.9664 -0.1203
 4925SOL     OW26407   4.672   0.267  13.626 -0.0268 -0.0313 -0.2687
 4925SOL    HW126408   4.658   0.256  13.720 -0.9508 -2.6459 -0.7343
 4925SOL    HW226409   0.020   0.225  13.615  1.0670  1.8237  1.0290
 4926SOL     OW26410   4.218   0.622   6.477 -0.2355  0.5667  0.2779
 4926SOL    HW126411   4.160   0.686   6.518 -2.1439 -1.8605  1.3751
 4926SOL    HW226412   4.285   0.608   6.544  0.6371  1.5025 -0.4146
 4927SOL     OW26413   2.044   3.859  12.621  0.2020 -0.3151 -0.1834
 4927SOL    HW126414   2.015   3.769  12.637 -1.6985  0.6322  1.7262
 4927SOL    HW226415   2.137   3.839  12.621  0.1135 -0.7800 -2.6364
 4928SOL     OW26416   2.453   4.334   7.847  0.2319  0.1643 -0.3105
 4928SOL    HW126417   2.520   4.267   7.864  1.0424  0.5390 -1.9494
 4928SOL    HW226418   2.515   4.390   7.800 -0.4183  0.5554 -0.6883
 4929SOL     OW26419   1.433   0.031   9.923 -0.0108  0.1579 -0.0588
 4929SOL    HW126420   1.519   4.727   9.919  0.4896  0.9856  2.1925
 4929SOL    HW226421   1.439   0.060  10.015  2.2025 -1.6230  0.3476
 4930SOL     OW26422   1.995   3.548   2.466  0.1906 -0.3027  0.3318
 4930SOL    HW126423   2.051   3.582   2.397  1.2436 -0.2182  1.2376
 4930SOL    HW226424   1.955   3.472   2.422 -0.6947  0.7172 -0.6258
 4931SOL     OW26425   1.044   1.398   3.679 -0.2765  0.0496 -0.1346
 4931SOL    HW126426   0.979   1.380   3.611 -1.4838  0.8730  0.8276
 4931SOL    HW226427   1.122   1.371   3.629 -0.0880  1.0839 -0.3902
 4932SOL     OW26428   0.392   0.520   6.604 -0.0677  0.3244  0.0957
 4932SOL    HW126429   0.328   0.564   6.548  1.5657 -0.7182 -2.5743
 4932SOL    HW226430   0.420   0.473   6.525  0.0723 -0.1201  0.4088
 4933SOL     OW26431   1.533   3.362   6.102 -0.1099  0.5851  0.0122
 4933SOL    HW126432   1.471   3.425   6.139  1.4298  0.6142  2.5474
 4933SOL    HW226433   1.598   3.365   6.172  0.9198  0.1443 -0.9247
 4934SOL     OW26434   3.133   4.049   8.449  0.4730  0.0427 -0.0697
 4934SOL    HW126435   3.085   4.123   8.413 -0.7523 -0.4467  0.5447
 4934SOL    HW226436   3.183   4.086   8.522 -0.2867  2.5419 -0.8080
 4935SOL     OW26437   4.060   4.678   2.415  0.0979  0.3196 -0.0280
 4935SOL    HW126438   4.139   4.731   2.405  0.8676 -0.7333  0.5083
 4935SOL    HW226439   4.024   4.727   2.488 -1.2523 -0.9131  0.1262
 4936SOL     OW26440   0.748   0.750  14.050  0.7766 -0.3223 -0.8414
 4936SOL    HW126441   0.792   0.812  13.992  0.5956 -0.1911 -0.8392
 4936SOL    HW226442   0.819   0.709  14.099  0.5767 -0.2463 -0.4845
 4937SOL     OW26443   0.309   2.961   3.676  0.1097  0.1209 -0.6130
 4937SOL    HW126444   0.277   3.037   3.723  1.9426  1.0157 -0.8069
 4937SOL    HW226445   0.333   2.918   3.758  1.3823  0.7930 -0.6330
 4938SOL     OW26446   0.102   1.569   5.168 -0.2869 -0.1317 -0.1045
 4938SOL    HW126447   0.074   1.480   5.147  2.4483 -0.5814 -1.7605
 4938SOL    HW226448   0.025   1.623   5.147 -0.4014  0.0873  0.8688
 4939SOL     OW26449   2.899   3.357   7.639  0.0665  0.1635 -0.7393
 4939SOL    HW126450   2.868   3.299   7.570  1.2426  3.0409 -3.6764
 4939SOL    HW226451   2.845   3.335   7.715  0.6269 -1.4420 -0.7924
 4940SOL     OW26452   1.664   1.879   1.820  0.0508 -0.0564 -0.2443
 4940SOL    HW126453   1.669   1.787   1.794  0.0465 -0.8844  2.6511
 4940SOL    HW226454   1.630   1.922   1.742 -2.3314 -3.0649 -0.8729
 4941SOL     OW26455   1.540   2.811   7.544 -0.0464  0.6354 -0.3239
 4941SOL    HW126456   1.527   2.726   7.586 -1.0369  0.8549 -0.1975
 4941SOL    HW226457   1.468   2.862   7.580  1.0915  2.5095 -0.6994
 4942SOL     OW26458   2.985   1.892  11.212 -0.1185 -0.5008  0.2159
 4942SOL    HW126459   3.059   1.939  11.251  1.3343 -0.8400 -2.1486
 4942SOL    HW226460   2.989   1.944  11.131  0.4015 -2.3028 -0.9044
 4943SOL     OW26461   0.201   0.591   9.605  0.0765 -0.6044  0.7358
 4943SOL    HW126462   0.200   0.673   9.555 -0.3642 -1.1247 -0.1173
 4943SOL    HW226463   0.163   0.534   9.538 -1.1277  1.9489 -0.7242
 4944SOL     OW26464   2.292   3.435   5.512 -0.5947  0.2220 -0.1375
 4944SOL    HW126465   2.282   3.514   5.459  2.4040  0.2118 -0.7018
 4944SOL    HW226466   2.385   3.449   5.530 -0.5809  1.1436 -0.9407
 4945SOL     OW26467   2.102   1.706   6.672  0.4741 -0.4923  0.1415
 4945SOL    HW126468   2.079   1.744   6.588 -0.3757 -2.0560 -0.3228
 4945SOL    HW226469   2.170   1.639   6.662  1.7985  0.8310  0.1451
 4946SOL     OW26470   2.683   1.620   6.638  0.3606  0.1986 -0.1709
 4946SOL    HW126471   2.638   1.659   6.562 -0.1468 -0.9226 -0.4419
 4946SOL    HW226472   2.752   1.687   6.644  1.0718 -0.5112 -0.3948
 4947SOL     OW26473   0.291   2.410   7.651 -0.2897  0.3593 -0.2201
 4947SOL    HW126474   0.213   2.452   7.614 -0.6992 -1.0017 -0.9008
 4947SOL    HW226475   0.261   2.323   7.677  0.0330  0.1827 -0.4402
 4948SOL     OW26476   1.436   2.042  12.661  0.0700  0.3125 -0.0522
 4948SOL    HW126477   1.417   2.135  12.652 -2.0991 -0.2327 -1.4062
 4948SOL    HW226478   1.469   2.050  12.750 -0.5768 -2.4980  0.4732
 4949SOL     OW26479   1.240   3.453  12.192  0.2175 -0.1147  0.2912
 4949SOL    HW126480   1.281   3.376  12.230  3.3448  0.6891 -1.4449
 4949SOL    HW226481   1.155   3.419  12.164 -0.5058  2.7081 -1.0183
 4950SOL     OW26482   1.501   0.374   7.265  0.7107  0.5040  0.4307
 4950SOL    HW126483   1.443   0.338   7.198  0.4671  1.8315 -0.0729
 4950SOL    HW226484   1.474   0.465   7.259 -0.4932  0.0875 -0.4232
 4951SOL     OW26485   2.206   0.707   4.436 -0.9623 -0.5116  0.0591
 4951SOL    HW126486   2.147   0.728   4.509  0.6952  1.7897  0.7692
 4951SOL    HW226487   2.166   0.625   4.409 -1.2926 -0.6779  1.0357
 4952SOL     OW26488   1.163   0.488   1.442  0.5294 -0.2542  0.6346
 4952SOL    HW126489   1.077   0.525   1.463  1.1627  1.3184  0.4560
 4952SOL    HW226490   1.204   0.548   1.380 -0.4579  3.6313  3.7165
 4953SOL     OW26491   1.479   0.910   8.575  0.7371  0.3078 -0.3539
 4953SOL    HW126492   1.508   1.000   8.586  0.0494  0.5340 -0.4001
 4953SOL    HW226493   1.453   0.884   8.664 -1.8132  2.3286 -0.5081
 4954SOL     OW26494   1.791   3.132   1.074  0.4890 -0.2483 -0.2376
 4954SOL    HW126495   1.852   3.063   1.102  1.4971  0.8782  0.3779
 4954SOL    HW226496   1.830   3.210   1.115 -0.6853 -0.0499  0.5083
 4955SOL     OW26497   4.049   3.217  12.821  0.6590  0.2874 -0.4113
 4955SOL    HW126498   4.078   3.148  12.880  0.4291  0.6978  0.1798
 4955SOL    HW226499   4.130   3.241  12.776  0.7332  0.4260 -0.1995
 4956SOL     OW26500   3.161   2.693   3.922  0.3363 -0.6041 -0.3680
 4956SOL    HW126501   3.067   2.705   3.909  0.5756  0.6014 -1.0199
 4956SOL    HW226502   3.179   2.784   3.947  2.2636 -1.1530  0.2064
 4957SOL     OW26503   1.047   3.752  12.858  0.2206  0.0608  0.6732
 4957SOL    HW126504   1.131   3.746  12.902 -0.0053  3.1908  1.5244
 4957SOL    HW226505   1.050   3.848  12.854 -0.1776  0.0696  0.5928
 4958SOL     OW26506   2.606   3.440   8.865  0.1678 -0.8317 -0.2251
 4958SOL    HW126507   2.623   3.403   8.778  1.3773 -2.0128  0.5245
 4958SOL    HW226508   2.617   3.362   8.919 -1.1018 -1.8741 -1.4448
 4959SOL     OW26509   1.416   2.087   5.337  0.0903 -0.1956 -0.1417
 4959SOL    HW126510   1.408   1.998   5.371 -0.1968 -0.6629 -1.4242
 4959SOL    HW226511   1.389   2.136   5.414 -0.7271 -0.3799 -0.3153
 4960SOL     OW26512   1.611   1.729   9.763 -0.0431 -0.4123 -0.4633
 4960SOL    HW126513   1.637   1.783   9.837  0.3637 -0.7156 -0.3810
 4960SOL    HW226514   1.517   1.738   9.751 -0.0647 -0.2996 -0.1988
 4961SOL     OW26515   3.835   2.851   4.763  0.1127 -0.4146 -0.1043
 4961SOL    HW126516   3.761   2.838   4.823 -0.2696  0.7752 -0.3201
 4961SOL    HW226517   3.885   2.916   4.813  1.1901 -0.1272 -1.5241
 4962SOL     OW26518   3.577   1.455   7.746  0.2717 -0.4024 -0.2641
 4962SOL    HW126519   3.534   1.391   7.802  0.9410 -0.0070  0.6983
 4962SOL    HW226520   3.570   1.421   7.657  2.9492  0.7055 -0.8872
 4963SOL     OW26521   1.789   3.711   7.727  0.4346 -0.1792 -0.3205
 4963SOL    HW126522   1.756   3.627   7.760  2.5158 -0.7111  0.4167
 4963SOL    HW226523   1.881   3.703   7.753  0.3469 -2.8771 -0.8776
 4964SOL     OW26524   2.119   0.677   1.486  0.1005 -0.1677  0.4944
 4964SOL    HW126525   2.149   0.591   1.515  1.1842  0.0561  0.0575
 4964SOL    HW226526   2.190   0.733   1.517 -0.2754  1.3817 -1.4278
 4965SOL     OW26527   2.067   3.833  15.208  0.7873  0.0632 -0.0820
 4965SOL    HW126528   2.099   3.813  15.120 -1.5738 -0.3777 -0.8401
 4965SOL    HW226529   2.121   3.776  15.262 -2.7899 -3.5032 -0.2989
 4966SOL     OW26530   2.127   3.104   6.822 -0.7884  0.5435  0.4149
 4966SOL    HW126531   2.160   3.176   6.875  0.0621  0.2291  0.3204
 4966SOL    HW226532   2.047   3.075   6.867 -2.8891  3.0444 -1.7385
 4967SOL     OW26533   2.679   4.623   5.368  0.0564 -0.0966  0.4901
 4967SOL    HW126534   2.722   4.577   5.440 -0.3650 -1.1313  0.0710
 4967SOL    HW226535   2.727   4.706   5.376 -1.1733  0.7070 -0.3176
 4968SOL     OW26536   2.425   1.532   6.401 -0.0315 -0.4357  0.3884
 4968SOL    HW126537   2.373   1.475   6.344  0.2870 -1.4091  1.0597
 4968SOL    HW226538   2.374   1.526   6.482  2.5689  0.5917  2.0937
 4969SOL     OW26539   2.270   3.955  13.655 -0.3259 -0.3284  0.5697
 4969SOL    HW126540   2.205   3.895  13.618  0.5702 -1.8987  1.5545
 4969SOL    HW226541   2.247   3.946  13.747 -2.5919  0.8734  0.1383
 4970SOL     OW26542   1.125   1.381   2.172  0.6568 -0.1817 -1.0576
 4970SOL    HW126543   1.033   1.360   2.188  0.7221  1.9116  2.1071
 4970SOL    HW226544   1.111   1.472   2.148 -0.0522  0.1291  0.5535
 4971SOL     OW26545   3.856   2.822  11.351 -0.3130 -0.3428 -0.3318
 4971SOL    HW126546   3.948   2.797  11.361 -0.0869 -0.0297 -1.6970
 4971SOL    HW226547   3.819   2.743  11.389  0.8441  0.6760  2.9680
 4972SOL     OW26548   3.632   2.414   3.254 -0.5526  0.1181  0.0437
 4972SOL    HW126549   3.550   2.461   3.267 -1.2664 -1.2999  0.6979
 4972SOL    HW226550   3.605   2.322   3.261  2.4107 -0.8195 -0.6883
 4973SOL     OW26551   1.595   0.928   6.481 -0.3819 -0.1628 -0.0151
 4973SOL    HW126552   1.553   1.013   6.493 -0.1838  0.2063 -2.0129
 4973SOL    HW226553   1.509   0.889   6.471 -1.0577  0.9097  1.5093
 4974SOL     OW26554   2.419   1.422   1.669 -0.5355 -0.1387  0.0784
 4974SOL    HW126555   2.378   1.342   1.636 -0.9746  0.2880 -0.4278
 4974SOL    HW226556   2.412   1.478   1.591  0.0049 -0.6392 -0.3268
 4975SOL     OW26557   4.142   3.943   7.291  0.1275  0.0962 -0.1887
 4975SOL    HW126558   4.235   3.956   7.313 -0.0372  3.4759 -1.4796
 4975SOL    HW226559   4.109   3.938   7.380  0.6635 -1.9338 -0.1213
 4976SOL     OW26560   3.684   1.507   4.688  0.6332 -0.3815  0.2479
 4976SOL    HW126561   3.731   1.440   4.638  2.0530 -0.5811  1.8673
 4976SOL    HW226562   3.752   1.548   4.741  1.2944  2.1407 -2.5213
 4977SOL     OW26563   3.660   4.255   4.312 -0.0365 -0.1685 -0.2114
 4977SOL    HW126564   3.644   4.234   4.403  0.6220  1.4113  0.2772
 4977SOL    HW226565   3.594   4.324   4.298  0.1644 -0.2108 -1.3813
 4978SOL     OW26566   2.661   3.231   9.008  0.4898 -0.4707  0.5900
 4978SOL    HW126567   2.638   3.192   9.092  0.1088 -1.5317 -0.0031
 4978SOL    HW226568   2.680   3.149   8.964  0.3430  0.6282 -1.5459
 4979SOL     OW26569   4.535   1.418   5.903 -0.5123  0.5255 -0.0660
 4979SOL    HW126570   4.471   1.430   5.973  1.9903  0.5104  2.2024
 4979SOL    HW226571   4.608   1.398   5.961 -0.5298 -3.2012 -1.3184
 4980SOL     OW26572   3.088   0.107  14.210 -0.2014 -0.0428  0.6211
 4980SOL    HW126573   3.170   0.111  14.160 -0.9065  0.6766 -0.4952
 4980SOL    HW226574   3.080   0.013  14.224  0.7102 -0.0485  1.1294
 4981SOL     OW26575   2.482   0.378   9.362 -0.5013  0.6232 -0.5833
 4981SOL    HW126576   2.536   0.305   9.393  0.2490  1.8734  1.0840
 4981SOL    HW226577   2.397   0.334   9.358  0.7067 -1.8150  0.2937
 4982SOL     OW26578   1.880   0.445   0.389 -0.0293 -0.4577 -0.0517
 4982SOL    HW126579   1.957   0.473   0.340 -1.0047 -1.7076 -2.2903
 4982SOL    HW226580   1.825   0.522   0.375 -0.4044 -1.0622 -1.9132
 4983SOL     OW26581   0.686   3.130  13.233 -1.1894  0.3250 -0.0842
 4983SOL    HW126582   0.697   3.153  13.141 -0.5435  0.6564  0.0771
 4983SOL    HW226583   0.711   3.217  13.265 -0.7333  0.6947 -1.4611
 4984SOL     OW26584   2.580   3.346   2.608 -0.2160  0.4043 -0.0566
 4984SOL    HW126585   2.574   3.427   2.558 -1.4308  0.5657  0.3519
 4984SOL    HW226586   2.508   3.294   2.573  1.3931 -0.9576 -1.3650
 4985SOL     OW26587   1.195   4.432   5.802  0.1427 -0.5125 -0.8816
 4985SOL    HW126588   1.104   4.438   5.774 -0.8759 -0.3388  2.4395
 4985SOL    HW226589   1.242   4.486   5.738  0.1783  0.3716 -0.1187
 4986SOL     OW26590   2.450   4.216   8.893 -0.4032  0.1973  0.3391
 4986SOL    HW126591   2.530   4.176   8.928 -1.0004 -0.7710  0.5893
 4986SOL    HW226592   2.401   4.232   8.974  0.5777  0.6888  0.8364
 4987SOL     OW26593   3.991   4.001   3.920  0.7604  0.2372  0.0551
 4987SOL    HW126594   3.937   4.072   3.886  0.5337 -0.7727 -1.7253
 4987SOL    HW226595   3.940   3.982   3.998  3.0060 -1.6948  1.0444
 4988SOL     OW26596   0.742   0.245   8.084  0.3914 -0.1724  0.2132
 4988SOL    HW126597   0.797   0.318   8.054  0.1557  0.1494  0.5580
 4988SOL    HW226598   0.772   0.238   8.174  0.2898 -0.9223  0.1822
 4989SOL     OW26599   0.826   4.725   5.251 -0.6906  0.1846 -0.5423
 4989SOL    HW126600   0.823   0.079   5.221  1.1124  1.3892  2.8795
 4989SOL    HW226601   0.892   4.685   5.195 -0.5492 -0.6570  0.2196
 4990SOL     OW26602   2.018   3.327  13.622 -0.2269  0.6867  0.1078
 4990SOL    HW126603   2.043   3.341  13.714  0.3150  2.0481 -0.2508
 4990SOL    HW226604   1.973   3.243  13.631  2.1751 -0.4458  1.6757
 4991SOL     OW26605   1.733   0.242   1.913 -0.1739 -0.3583  0.2041
 4991SOL    HW126606   1.818   0.269   1.877 -0.2054  0.8513  1.0245
 4991SOL    HW226607   1.755   0.180   1.983 -1.5305 -1.4715 -0.3558
 4992SOL     OW26608   3.212   1.432   6.162 -0.1285 -0.4635 -0.2439
 4992SOL    HW126609   3.127   1.412   6.200 -0.9470  0.2361 -1.7222
 4992SOL    HW226610   3.213   1.377   6.084 -1.0368  0.0945 -0.6513
 4993SOL     OW26611   4.100   3.543   1.014 -0.0280 -0.3267  0.1124
 4993SOL    HW126612   4.078   3.560   1.106  0.6220  0.0622  0.2028
 4993SOL    HW226613   4.063   3.455   1.016 -0.5892 -0.0777  0.8147
 4994SOL     OW26614   3.708   0.091   9.493  0.2020 -0.2968 -0.6499
 4994SOL    HW126615   3.721   0.152   9.420  2.6737  1.9389  1.6894
 4994SOL    HW226616   3.784   0.114   9.546 -0.4745  0.2741  0.0734
 4995SOL     OW26617   1.748   0.007   8.341  0.4394 -0.1223  0.5187
 4995SOL    HW126618   1.740   4.736   8.246  1.8077  1.2466  0.2993
 4995SOL    HW226619   1.843   0.002   8.348  0.5067 -0.4217 -0.5858
 4996SOL     OW26620   2.648   0.919   5.781  0.0221 -0.6768 -0.1849
 4996SOL    HW126621   2.626   0.999   5.733  1.3406  0.4455  1.0886
 4996SOL    HW226622   2.617   0.941   5.869  1.9337 -0.1240  0.3521
 4997SOL     OW26623   0.206   0.050   4.071  0.1013 -0.0258 -0.2845
 4997SOL    HW126624   0.204   0.093   3.985 -0.0785  0.8047  0.1335
 4997SOL    HW226625   0.120   0.009   4.072 -0.7363  1.6733 -1.2975
 4998SOL     OW26626   0.583   3.147   3.878 -0.6281 -0.0536  0.0236
 4998SOL    HW126627   0.495   3.115   3.860 -0.7123  0.2885 -0.1687
 4998SOL    HW226628   0.570   3.198   3.958  3.7332  2.2141 -0.6773
 4999SOL     OW26629   1.105   1.735  16.707  0.0724 -0.1630  0.0085
 4999SOL    HW126630   1.059   1.768  16.785  1.5220  3.8925 -0.8471
 4999SOL    HW226631   1.090   1.795  16.635 -1.6039  0.8624  1.2281
 5000SOL     OW26632   2.595   4.266   3.854 -0.6008 -0.1788  0.0247
 5000SOL    HW126633   2.540   4.344   3.850 -1.3472 -0.8963 -3.6969
 5000SOL    HW226634   2.594   4.245   3.948  2.2849  0.1176  0.1170
 5001SOL     OW26635   2.367   3.559   7.110  0.5429 -0.9031  0.3454
 5001SOL    HW126636   2.390   3.473   7.145  2.1111 -0.3407  0.6999
 5001SOL    HW226637   2.376   3.608   7.192  1.3455  0.0294 -0.2864
 5002SOL     OW26638   0.108   1.131   2.043  0.1822  0.0845 -0.3812
 5002SOL    HW126639   0.034   1.132   1.982  0.4263 -1.0617 -0.7029
 5002SOL    HW226640   0.152   1.209   2.010 -3.6540  1.7889 -1.4747
 5003SOL     OW26641   1.541   2.899   1.419 -0.0195  0.6723 -0.1658
 5003SOL    HW126642   1.598   2.834   1.378 -1.7337 -0.5291 -0.6433
 5003SOL    HW226643   1.602   2.939   1.481 -0.2870 -0.1624  0.6346
 5004SOL     OW26644   0.714   3.557   5.659  0.1675 -0.8062 -0.3225
 5004SOL    HW126645   0.639   3.611   5.637  1.6678  1.4426  0.1508
 5004SOL    HW226646   0.769   3.609   5.717 -0.6674 -1.2678  0.8678
 5005SOL     OW26647   2.905   1.774   7.948  0.2891 -0.6244  0.6714
 5005SOL    HW126648   2.966   1.847   7.937 -0.6383 -0.2033 -1.6563
 5005SOL    HW226649   2.958   1.710   7.899  0.5184 -0.8899  1.2656
 5006SOL     OW26650   3.014   4.369   2.119 -0.2013 -0.6006  0.3121
 5006SOL    HW126651   3.094   4.399   2.077  0.0277 -1.3761  0.2060
 5006SOL    HW226652   3.051   4.372   2.207  0.7173 -2.1895 -0.0202
 5007SOL     OW26653   2.336   1.788   7.688  0.2412  0.3039 -0.3168
 5007SOL    HW126654   2.376   1.875   7.689 -1.7565  1.2161 -0.0446
 5007SOL    HW226655   2.387   1.758   7.763 -1.7226 -2.3832 -0.0685
 5008SOL     OW26656   0.903   3.111   5.010  0.0929  0.6800 -0.5835
 5008SOL    HW126657   0.844   3.049   5.053  1.0467  0.2485  0.1123
 5008SOL    HW226658   0.954   3.144   5.084  0.6108 -1.1523 -0.1324
 5009SOL     OW26659   3.747   2.218   8.850  0.5396 -0.4516 -0.5040
 5009SOL    HW126660   3.760   2.124   8.837 -0.7117 -0.6554 -0.2408
 5009SOL    HW226661   3.698   2.224   8.932  1.4583 -2.0025  0.1612
 5010SOL     OW26662   2.405   0.097   6.265  0.1240 -0.1069 -0.1234
 5010SOL    HW126663   2.408   0.078   6.359  0.3355  0.5214 -0.0002
 5010SOL    HW226664   2.454   0.028   6.221  1.0805  1.0802 -0.8882
 5011SOL     OW26665   0.519   0.078   8.438 -0.1405  0.2550 -0.3141
 5011SOL    HW126666   0.533   0.173   8.437  0.8189  0.1054 -0.7853
 5011SOL    HW226667   0.591   0.048   8.493 -1.4137  0.7474  1.6276
 5012SOL     OW26668   1.101   1.570   4.292  0.2875 -0.5099  0.0735
 5012SOL    HW126669   1.095   1.655   4.249 -1.0236 -0.5564  0.1650
 5012SOL    HW226670   1.128   1.592   4.381 -2.4145  0.7502  0.5723
 5013SOL     OW26671   1.924   3.855   9.876 -0.6753 -0.2432  0.1353
 5013SOL    HW126672   1.850   3.852   9.815 -0.6289  1.4832 -0.0138
 5013SOL    HW226673   1.881   3.840   9.960 -0.2877  1.5101  0.6545
 5014SOL     OW26674   2.052   2.095  17.094  0.0420  0.3320  0.3630
 5014SOL    HW126675   2.117   2.164  17.105  0.9427 -0.5127  0.3360
 5014SOL    HW226676   2.085   2.056  17.013 -2.4887  0.4993 -0.7429
 5015SOL     OW26677   0.861   2.356   6.779  0.1687 -0.1690 -0.0840
 5015SOL    HW126678   0.936   2.308   6.814  0.3807 -1.2277 -2.0083
 5015SOL    HW226679   0.856   2.437   6.831  3.1643 -0.1397  0.1548
 5016SOL     OW26680   3.711   1.150   7.956 -0.9187  0.3330  0.5030
 5016SOL    HW126681   3.685   1.130   7.866 -0.5176  1.3671  0.1544
 5016SOL    HW226682   3.662   1.082   8.002  0.0540 -1.3423 -0.9225
 5017SOL     OW26683   3.344   0.283   6.991  0.4731  0.3599  0.1814
 5017SOL    HW126684   3.313   0.333   7.067 -0.0211 -1.6952  1.3436
 5017SOL    HW226685   3.385   0.350   6.937  0.7881 -0.5413 -0.7005
 5018SOL     OW26686   2.680   3.010   4.892  0.7377 -0.5120  0.0397
 5018SOL    HW126687   2.608   2.972   4.942  2.0380  0.2727  2.5015
 5018SOL    HW226688   2.679   2.955   4.814  1.5859 -1.2864  0.5599
 5019SOL     OW26689   1.599   4.128   3.359 -0.4663 -0.3307  0.3768
 5019SOL    HW126690   1.573   4.194   3.294 -1.6052 -0.1449  1.0230
 5019SOL    HW226691   1.694   4.136   3.352 -0.6985  0.4047 -1.9414
 5020SOL     OW26692   3.979   0.042   5.722  0.3658  0.3154 -0.2308
 5020SOL    HW126693   3.965   4.705   5.664 -1.0333  0.5797 -0.2431
 5020SOL    HW226694   3.937   0.000   5.797 -2.6165  0.1690 -1.9965
 5021SOL     OW26695   2.905   3.928  13.160  0.2455  0.8288  0.0663
 5021SOL    HW126696   2.899   3.852  13.218 -1.2515  1.6657  1.0090
 5021SOL    HW226697   2.967   3.896  13.095  0.1345 -0.2428  0.4847
 5022SOL     OW26698   0.136   0.489   9.379  0.4206  0.1313  0.6320
 5022SOL    HW126699   0.209   0.429   9.364  0.0401 -0.3134  0.5609
 5022SOL    HW226700   0.111   0.507   9.288 -0.5427 -3.2350  0.2046
 5023SOL     OW26701   3.618   2.581   5.144  0.2946  0.2493  0.2293
 5023SOL    HW126702   3.608   2.495   5.186 -0.5661  1.5578  2.7084
 5023SOL    HW226703   3.550   2.580   5.078 -0.3571 -0.6053  0.9070
 5024SOL     OW26704   4.331   4.266  11.834 -0.6151  1.4020  1.0176
 5024SOL    HW126705   4.406   4.313  11.871 -0.0900  1.3127  0.0474
 5024SOL    HW226706   4.294   4.236  11.917  1.0293 -1.9825  0.5329
 5025SOL     OW26707   1.103   1.068   7.570 -0.4025  0.0936 -0.0949
 5025SOL    HW126708   1.183   1.111   7.599 -0.6496  1.0667 -0.8895
 5025SOL    HW226709   1.064   1.132   7.511 -1.9338 -1.8413 -1.2031
 5026SOL     OW26710   4.690   4.726  12.383 -0.5373  0.2509 -0.2618
 5026SOL    HW126711   4.705   0.074  12.424 -4.3448  0.6516  0.3290
 5026SOL    HW226712   4.596   4.705  12.390 -0.2759 -0.4553  1.1966
 5027SOL     OW26713   1.568   3.314   9.055  0.3194  0.2159 -0.6571
 5027SOL    HW126714   1.587   3.373   8.982  0.9071  0.5384 -0.2436
 5027SOL    HW226715   1.655   3.288   9.085  0.6620  0.7132 -1.2301
 5028SOL     OW26716   4.053   0.742   9.896  0.0241  0.2580 -0.8147
 5028SOL    HW126717   4.121   0.804   9.924  0.1454  0.8684 -2.5082
 5028SOL    HW226718   3.984   0.761   9.960 -0.5327  0.6220 -1.5327
 5029SOL     OW26719   2.891   0.969   0.072 -0.3694  0.3942 -0.7304
 5029SOL    HW126720   2.909   0.904   0.004 -0.0560  0.0025 -0.2733
 5029SOL    HW226721   2.798   0.991   0.060  0.0106  2.0918 -0.4830
 5030SOL     OW26722   3.858   4.437   6.150 -0.2844 -0.2591 -0.0044
 5030SOL    HW126723   3.879   4.344   6.160 -0.1900 -0.3768 -1.3822
 5030SOL    HW226724   3.803   4.454   6.227 -0.6754  0.9010 -0.5399
 5031SOL     OW26725   4.700   0.243   9.243  0.1922  0.5411  0.6224
 5031SOL    HW126726   0.004   0.315   9.195  0.1949  0.3500  0.3394
 5031SOL    HW226727   0.017   0.240   9.322 -1.1807 -2.4961  1.4638
 5032SOL     OW26728   2.432   2.872   9.745  0.1211 -0.0253  0.3899
 5032SOL    HW126729   2.354   2.906   9.789 -1.1778 -2.7271  0.1672
 5032SOL    HW226730   2.492   2.832   9.808  0.8260  1.3132  0.5603
 5033SOL     OW26731   0.191   2.905   3.340 -0.7548 -0.1598 -0.2960
 5033SOL    HW126732   0.123   2.934   3.278 -1.2038  0.5378  0.5203
 5033SOL    HW226733   0.206   2.817   3.306 -1.3542 -1.2798  2.3665
 5034SOL     OW26734   2.802   0.789   2.658  0.0103  0.4827  0.3389
 5034SOL    HW126735   2.748   0.736   2.599 -1.7918  1.8449  0.8043
 5034SOL    HW226736   2.774   0.877   2.634  1.3904  0.8211 -0.0263
 5035SOL     OW26737   2.217   2.089   5.118  0.6051  0.2789 -0.2301
 5035SOL    HW126738   2.153   2.125   5.057 -1.3111  0.0916  1.6518
 5035SOL    HW226739   2.296   2.138   5.095  3.1075 -3.7394 -0.2339
 5036SOL     OW26740   4.371   2.591   8.220 -0.3749 -0.0566  0.0210
 5036SOL    HW126741   4.299   2.614   8.279  1.1382  2.3908  0.9065
 5036SOL    HW226742   4.398   2.507   8.256  0.9785 -0.4087 -1.8184
 5037SOL     OW26743   2.119   3.852   8.622  0.2104 -0.2340  0.1257
 5037SOL    HW126744   2.164   3.872   8.703  1.6397  1.9054 -1.1930
 5037SOL    HW226745   2.027   3.856   8.647 -0.1435 -1.5423 -0.9015
 5038SOL     OW26746   4.547   1.995   9.029 -0.0670  0.2226  0.2558
 5038SOL    HW126747   4.537   1.922   8.968  0.0802  0.2368  0.2153
 5038SOL    HW226748   4.536   1.944   9.110 -1.2342  0.8392  0.4858
 5039SOL     OW26749   4.670   2.727   3.974 -0.1938  0.1741 -0.1082
 5039SOL    HW126750   4.649   2.742   3.882 -0.9896  0.1486  0.0616
 5039SOL    HW226751   4.578   2.733   4.003  0.9208  1.5901  3.1548
 5040SOL     OW26752   1.372   2.712   3.263  0.5772 -0.1890  0.4781
 5040SOL    HW126753   1.392   2.621   3.243 -0.5222 -0.1944 -0.6014
 5040SOL    HW226754   1.441   2.728   3.328  1.1145  0.0915 -0.1599
 5041SOL     OW26755   0.402   4.351   9.301  0.3043 -0.0197  0.1586
 5041SOL    HW126756   0.312   4.372   9.326  1.0584  0.4476  2.5137
 5041SOL    HW226757   0.385   4.304   9.219 -1.1810 -0.6800  0.8529
 5042SOL     OW26758   2.835   4.394   1.155  0.0447  0.2467 -0.2820
 5042SOL    HW126759   2.925   4.412   1.183 -1.1227  0.7274  3.2137
 5042SOL    HW226760   2.832   4.463   1.089  0.5232  1.6446  1.1512
 5043SOL     OW26761   2.733   4.460   0.720 -0.0595  0.3423 -0.0151
 5043SOL    HW126762   2.736   4.364   0.725 -1.9693  0.3736  1.5863
 5043SOL    HW226763   2.640   4.480   0.716  0.0322  0.6602 -0.6945
 5044SOL     OW26764   0.825   0.352   7.344 -0.4426 -0.1570  0.2726
 5044SOL    HW126765   0.912   0.385   7.367  0.4131 -1.5165 -0.9755
 5044SOL    HW226766   0.809   0.426   7.286  2.3466 -1.3666 -2.0384
 5045SOL     OW26767   1.352   2.057   9.177  0.3126 -0.1220  0.1752
 5045SOL    HW126768   1.305   2.087   9.255  0.8698 -1.1467  0.9105
 5045SOL    HW226769   1.444   2.059   9.202 -0.1954  1.0913  1.9582
 5046SOL     OW26770   1.496   1.708   5.203 -0.5799 -0.2867  0.1972
 5046SOL    HW126771   1.424   1.645   5.212 -1.3650  0.5362 -0.2729
 5046SOL    HW226772   1.554   1.687   5.275  0.3336 -0.3435 -0.5603
 5047SOL     OW26773   3.428   2.690   5.912 -0.3294  0.0646  0.0801
 5047SOL    HW126774   3.416   2.710   6.004 -2.8403  1.1491 -0.4772
 5047SOL    HW226775   3.351   2.721   5.864 -0.4276 -3.1982 -1.8492
 5048SOL     OW26776   0.509   3.288  15.730 -0.4308 -0.1953  0.3273
 5048SOL    HW126777   0.546   3.220  15.786  1.5908  0.6550  0.0053
 5048SOL    HW226778   0.449   3.336  15.788 -3.6827 -2.2037 -1.3601
 5049SOL     OW26779   3.634   0.026   4.441 -0.5594  0.4660  0.0240
 5049SOL    HW126780   3.555   0.038   4.493 -1.0910 -1.5227 -0.3548
 5049SOL    HW226781   3.674   0.113   4.453  0.3749 -0.0258  0.4257
 5050SOL     OW26782   0.001   1.756   7.362 -0.4169  0.1605 -0.4336
 5050SOL    HW126783   0.034   1.796   7.282 -1.6256  0.4855 -0.7723
 5050SOL    HW226784   0.076   1.698   7.377 -0.5498  0.4135  1.2191
 5051SOL     OW26785   1.968   4.016   2.196 -0.0544  0.1614  0.1702
 5051SOL    HW126786   1.894   4.057   2.152 -0.2550 -1.8308 -1.3359
 5051SOL    HW226787   2.040   4.023   2.134 -1.1473 -1.0398 -1.2144
 5052SOL     OW26788   4.627   3.058   1.994  0.1624 -0.2206  0.4192
 5052SOL    HW126789   4.650   3.149   2.012  0.2084  0.0313 -0.8994
 5052SOL    HW226790   4.710   3.010   1.988 -0.5084 -1.7785  3.7576
 5053SOL     OW26791   0.590   2.176  16.947  0.4208  0.1004 -0.1567
 5053SOL    HW126792   0.534   2.225  17.006  0.4564 -0.2552  0.1719
 5053SOL    HW226793   0.654   2.152  17.014  0.7062  0.6301 -0.2408
 5054SOL     OW26794   0.373   1.592   6.121 -0.1699  1.1792  0.2213
 5054SOL    HW126795   0.298   1.536   6.139  1.0271 -0.8475 -1.0155
 5054SOL    HW226796   0.377   1.654   6.193 -0.8790  0.4152  0.9185
 5055SOL     OW26797   4.351   3.110   6.755 -0.1105 -0.7602  0.4169
 5055SOL    HW126798   4.367   3.023   6.718 -1.4519 -1.0100  0.4241
 5055SOL    HW226799   4.283   3.135   6.692  2.9297 -0.5079 -2.7325
 5056SOL     OW26800   1.501   3.337   9.758 -0.0923 -0.0978 -0.3673
 5056SOL    HW126801   1.477   3.247   9.779  1.2122 -0.8154 -1.9330
 5056SOL    HW226802   1.433   3.383   9.808  1.2952  0.1111  1.3257
 5057SOL     OW26803   2.924   3.098   9.967 -0.2402 -0.2309 -0.2370
 5057SOL    HW126804   2.979   3.079  10.043  1.4617  0.4929 -1.2595
 5057SOL    HW226805   2.916   3.010   9.930  1.0060  0.6299 -2.5673
 5058SOL     OW26806   4.271   2.257  13.618 -0.1835  0.6702  0.3975
 5058SOL    HW126807   4.343   2.278  13.677 -1.9663 -1.2161  3.2392
 5058SOL    HW226808   4.266   2.340  13.570  1.3770  1.4095  1.5037
 5059SOL     OW26809   0.090   2.684   7.883  0.4646  0.2974 -0.0721
 5059SOL    HW126810   0.047   2.760   7.922 -0.9944  0.4120 -1.9000
 5059SOL    HW226811   0.173   2.712   7.846  0.4975 -0.2913 -0.4456
 5060SOL     OW26812   2.480   3.966   6.365 -0.5616  0.2140 -0.6007
 5060SOL    HW126813   2.469   3.929   6.453  2.7918  0.1451 -0.1999
 5060SOL    HW226814   2.537   4.038   6.391  1.1642 -0.8593 -1.4473
 5061SOL     OW26815   0.526   4.297   3.897 -0.1327 -0.4493 -0.0754
 5061SOL    HW126816   0.523   4.216   3.948  0.2191 -1.1306 -1.1239
 5061SOL    HW226817   0.570   4.268   3.817  1.1907  0.1507  0.4331
 5062SOL     OW26818   2.891   3.207   1.775  0.1215  0.1055 -0.4398
 5062SOL    HW126819   2.817   3.157   1.809  1.8277 -1.3171  1.1525
 5062SOL    HW226820   2.910   3.278   1.837 -1.1295  1.6090 -1.7626
 5063SOL     OW26821   1.117   1.663   3.669 -0.3473  0.1042 -0.3984
 5063SOL    HW126822   1.107   1.569   3.685 -0.9370 -0.4728 -4.2035
 5063SOL    HW226823   1.057   1.675   3.596 -0.5127 -1.6408 -0.5586
 5064SOL     OW26824   3.553   2.553   8.547  0.1431 -0.4355 -0.3510
 5064SOL    HW126825   3.561   2.563   8.642 -1.4039 -0.9187 -0.1681
 5064SOL    HW226826   3.612   2.478   8.536 -0.1224 -0.8025  0.6648
 5065SOL     OW26827   1.178   2.157  16.604 -0.6394  0.0117  0.0675
 5065SOL    HW126828   1.148   2.066  16.602 -1.4783  0.2556  1.6506
 5065SOL    HW226829   1.257   2.157  16.549 -0.1744 -0.6960  0.7341
 5066SOL     OW26830   3.941   3.297   1.342  0.0351 -0.5038 -0.0086
 5066SOL    HW126831   3.876   3.367   1.338  1.0732  0.5236  1.6532
 5066SOL    HW226832   3.886   3.232   1.386 -0.7771  0.7073  0.7497
 5067SOL     OW26833   1.317   4.096   0.992 -0.3728 -0.2798  0.0348
 5067SOL    HW126834   1.298   4.169   1.052  1.1264 -0.5143  0.7834
 5067SOL    HW226835   1.262   4.026   1.027 -2.0460  1.8118  1.6404
 5068SOL     OW26836   2.663   2.051   1.348 -0.4142  0.2631 -0.1037
 5068SOL    HW126837   2.687   2.039   1.257  0.0920 -0.0681  0.0757
 5068SOL    HW226838   2.577   2.090   1.332 -0.2688  1.3440  1.7189
 5069SOL     OW26839   4.403   3.701  12.042  0.0687 -0.4283 -0.2154
 5069SOL    HW126840   4.382   3.622  11.992  1.8584 -0.1187 -1.4440
 5069SOL    HW226841   4.334   3.764  12.019  0.9946  0.0409 -1.6515
 5070SOL     OW26842   4.488   2.409   4.844 -0.1359 -0.4549  0.1110
 5070SOL    HW126843   4.507   2.465   4.768 -1.0336 -0.4678 -0.1347
 5070SOL    HW226844   4.443   2.479   4.891 -0.1348 -0.6561  0.4125
 5071SOL     OW26845   2.424   0.042  17.744 -0.0655 -0.1554  0.4465
 5071SOL    HW126846   2.381   0.052  17.659  0.1506 -0.2247  0.3270
 5071SOL    HW226847   2.504   4.731  17.721  0.1929  1.2802 -1.7241
 5072SOL     OW26848   0.192   1.169   5.245  0.7929 -0.2301  0.2024
 5072SOL    HW126849   0.218   1.083   5.213  0.8605  0.1436 -0.7704
 5072SOL    HW226850   0.251   1.200   5.313  0.4922 -2.9581  1.7108
 5073SOL     OW26851   1.268   3.067  13.958 -0.3017 -0.1081  0.4566
 5073SOL    HW126852   1.267   2.987  14.011 -1.2935  0.2315  0.9407
 5073SOL    HW226853   1.186   3.109  13.983  0.9315  1.4703  1.9030
 5074SOL     OW26854   1.306   4.231   5.477  0.2651 -0.2905 -0.6869
 5074SOL    HW126855   1.391   4.276   5.480  1.2378 -2.1843 -0.1615
 5074SOL    HW226856   1.338   4.168   5.412 -1.8856 -1.9509 -0.1095
 5075SOL     OW26857   2.704   2.310   5.126 -0.3379  0.1495  0.1616
 5075SOL    HW126858   2.700   2.254   5.203  2.9761 -0.2074  0.0892
 5075SOL    HW226859   2.619   2.290   5.088 -0.7180 -3.5691  2.9490
 5076SOL     OW26860   0.164   2.462  15.776  0.2565 -0.3080 -0.2390
 5076SOL    HW126861   0.160   2.433  15.867  0.7673 -0.7654 -0.3625
 5076SOL    HW226862   0.079   2.431  15.747  0.4739 -1.0723 -0.0467
 5077SOL     OW26863   2.058   3.453   9.556 -0.5253  0.0849 -0.3284
 5077SOL    HW126864   2.051   3.372   9.607  1.2705 -0.9526 -1.7188
 5077SOL    HW226865   2.023   3.511   9.624 -1.9516 -0.1455 -0.8679
 5078SOL     OW26866   4.266   0.057  16.517  0.4350 -0.1000  0.1934
 5078SOL    HW126867   4.338   0.028  16.461 -0.3978  1.2259 -1.5969
 5078SOL    HW226868   4.244   4.711  16.559 -0.9151 -1.6567 -3.5984
 5079SOL     OW26869   2.603   2.434   9.549  0.0452 -0.1926  0.0203
 5079SOL    HW126870   2.534   2.420   9.484  0.1657  0.8838 -0.3348
 5079SOL    HW226871   2.553   2.438   9.630  3.6818  1.6872  2.1438
 5080SOL     OW26872   2.651   2.671   9.419 -0.1901  0.0542  0.1778
 5080SOL    HW126873   2.658   2.588   9.466 -0.9336  0.5986  1.2557
 5080SOL    HW226874   2.701   2.660   9.338 -1.4798 -1.3474 -0.4320
 5081SOL     OW26875   1.232   1.260   7.061 -0.0272 -0.2466  0.1414
 5081SOL    HW126876   1.165   1.196   7.039  0.3622 -0.3246 -0.8170
 5081SOL    HW226877   1.240   1.300   6.975  1.7714 -0.3845  0.2471
 5082SOL     OW26878   3.714   2.809   2.564 -0.2321  0.6129  0.6391
 5082SOL    HW126879   3.760   2.828   2.483  1.3662  1.4497  1.7521
 5082SOL    HW226880   3.620   2.815   2.545 -0.0730  1.1702  0.0616
 5083SOL     OW26881   3.930   2.137   2.485  0.1102  0.4916  0.1145
 5083SOL    HW126882   3.940   2.042   2.495  0.7561  0.6208  0.6842
 5083SOL    HW226883   3.834   2.140   2.481  0.0617 -1.8786 -0.9985
 5084SOL     OW26884   4.490   0.471   9.495  0.4764 -0.0957 -0.8635
 5084SOL    HW126885   4.514   0.536   9.429  0.6593  0.8640  0.1343
 5084SOL    HW226886   4.572   0.423   9.508 -1.2558 -2.6023  0.7694
 5085SOL     OW26887   2.349   3.937   8.102 -0.4242 -0.1785 -0.0993
 5085SOL    HW126888   2.414   4.005   8.117 -0.5544  0.3106 -1.6563
 5085SOL    HW226889   2.279   3.950   8.166  0.7830 -0.7190  1.3294
 5086SOL     OW26890   1.811   2.730   3.357 -0.3488  0.1371 -0.1665
 5086SOL    HW126891   1.842   2.740   3.267  2.7520 -3.0855  0.5600
 5086SOL    HW226892   1.873   2.662   3.384 -0.5417  0.3558  0.8107
 5087SOL     OW26893   2.465   0.780   1.831 -0.2463  0.5308  0.1466
 5087SOL    HW126894   2.522   0.704   1.838 -0.0900  0.5333 -1.0110
 5087SOL    HW226895   2.530   0.850   1.840 -0.3368  0.7874 -1.1209
 5088SOL     OW26896   3.218   0.420  16.575 -0.0761 -0.2773  0.1433
 5088SOL    HW126897   3.167   0.376  16.507 -0.4169 -0.6284  0.6261
 5088SOL    HW226898   3.293   0.360  16.586 -1.0041 -1.6105 -0.8264
 5089SOL     OW26899   3.144   4.230  14.718  0.3393 -0.0763 -0.3051
 5089SOL    HW126900   3.225   4.253  14.764  0.2938 -0.6441  0.0674
 5089SOL    HW226901   3.077   4.297  14.732 -0.0065 -0.6808  0.9771
 5090SOL     OW26902   0.228   4.081   2.223  0.0858 -0.0618  0.6689
 5090SOL    HW126903   0.251   4.151   2.161  0.4733  0.6810  1.6574
 5090SOL    HW226904   0.316   4.070   2.258  0.3302  1.5804  0.5473
 5091SOL     OW26905   0.056   3.257  10.787  0.3691  0.6224 -0.0844
 5091SOL    HW126906   0.129   3.309  10.821  0.4325  0.4973 -0.0295
 5091SOL    HW226907   0.050   3.299  10.701 -0.3711  0.0801 -0.3026
 5092SOL     OW26908   2.011   2.349   0.348  0.0771  0.5045 -0.3254
 5092SOL    HW126909   1.957   2.382   0.276  0.0129 -2.5439 -1.6449
 5092SOL    HW226910   1.952   2.309   0.412  0.1763  1.1102  0.1468
 5093SOL     OW26911   1.672   0.668   1.258 -0.2174  0.1225  0.4245
 5093SOL    HW126912   1.636   0.608   1.193 -2.4405  1.6499  0.2716
 5093SOL    HW226913   1.762   0.678   1.227 -0.4498  3.3109  0.7826
 5094SOL     OW26914   1.494   0.212  11.247  0.2245  0.7099 -0.2974
 5094SOL    HW126915   1.553   0.159  11.300  0.7825  2.0118  0.4043
 5094SOL    HW226916   1.471   0.278  11.313  2.0526  1.7822 -0.7370
 5095SOL     OW26917   3.137   0.969   5.234 -0.0369  1.0496 -0.5899
 5095SOL    HW126918   3.204   1.028   5.270  1.2242 -1.2369  0.8133
 5095SOL    HW226919   3.061   1.027   5.229 -0.6217  0.3357 -0.0771
 5096SOL     OW26920   1.446   3.908   4.010  0.0984 -0.1475  0.2961
 5096SOL    HW126921   1.526   3.883   4.055  1.0555  0.0817 -1.2622
 5096SOL    HW226922   1.480   3.930   3.923 -1.1542  0.9753  0.0782
 5097SOL     OW26923   4.192   1.433   8.216  0.6120 -0.1233 -0.2999
 5097SOL    HW126924   4.140   1.410   8.139  0.8929 -0.7584 -0.2944
 5097SOL    HW226925   4.178   1.358   8.274  2.9021 -1.3856 -1.3923
 5098SOL     OW26926   4.473   3.231   2.404  0.2114 -0.6669  0.1388
 5098SOL    HW126927   4.413   3.188   2.466  0.2791 -1.3599 -0.2747
 5098SOL    HW226928   4.545   3.169   2.391  0.9394  0.0335  0.8336
 5099SOL     OW26929   4.246   4.002   5.024 -0.2098 -0.4833  0.3408
 5099SOL    HW126930   4.153   4.014   5.003 -0.2137  1.7963  1.6344
 5099SOL    HW226931   4.296   4.043   4.954 -3.2304  3.4805  0.4849
 5100SOL     OW26932   2.388   1.437  13.555  1.1768  0.4510  0.0745
 5100SOL    HW126933   2.309   1.415  13.506  0.8282 -1.6709  1.5888
 5100SOL    HW226934   2.440   1.462  13.479 -0.7225  2.2210 -0.6585
 5101SOL     OW26935   3.667   1.973   8.189 -0.1225  0.2519  0.2139
 5101SOL    HW126936   3.633   1.940   8.106 -0.3925  0.1788  0.3553
 5101SOL    HW226937   3.763   1.967   8.184 -0.0403 -0.4643  2.8634
 5102SOL     OW26938   1.189   1.471  12.034  0.0722  0.2418 -0.0999
 5102SOL    HW126939   1.107   1.516  12.011  0.3424  1.0524  0.4989
 5102SOL    HW226940   1.255   1.515  11.980 -1.0157  0.3357 -1.3710
 5103SOL     OW26941   0.702   3.632   5.307  0.4237  0.6263  0.2305
 5103SOL    HW126942   0.795   3.609   5.304  0.1748 -0.2670 -0.6247
 5103SOL    HW226943   0.708   3.714   5.355  2.3604 -1.5945  3.7393
 5104SOL     OW26944   1.260   0.859   6.489  0.4480  0.5159 -0.1305
 5104SOL    HW126945   1.244   0.781   6.436 -0.5541  1.5021 -1.2918
 5104SOL    HW226946   1.250   0.915   6.412  0.5386  0.7743  0.0430
 5105SOL     OW26947   1.979   4.553  15.223  0.2303  0.2780  0.5742
 5105SOL    HW126948   1.920   4.484  15.250  1.2273 -0.4064  0.9849
 5105SOL    HW226949   2.065   4.513  15.237  0.7963  1.0676 -0.6260
 5106SOL     OW26950   0.089   1.032  12.804 -0.3541  0.6016  0.4711
 5106SOL    HW126951   0.093   1.122  12.771 -0.2129  0.7556  0.9068
 5106SOL    HW226952   0.005   1.003  12.768  0.0852 -2.1931  1.6686
 5107SOL     OW26953   4.604   3.182   7.139  0.8051 -0.2182 -0.6522
 5107SOL    HW126954   4.537   3.156   7.075 -1.1811 -0.2157  1.3999
 5107SOL    HW226955   4.689   3.170   7.099  0.9809 -1.5294  0.1128
 5108SOL     OW26956   0.449   2.957   5.686  0.3257  0.5498 -0.2021
 5108SOL    HW126957   0.430   2.951   5.592  3.1853 -0.9459 -0.6904
 5108SOL    HW226958   0.478   2.866   5.695 -0.4297  0.4316  0.9902
 5109SOL     OW26959   2.926   3.072   1.557  0.9767 -0.0505 -0.3243
 5109SOL    HW126960   2.842   3.027   1.567  0.4654  0.3654 -2.7168
 5109SOL    HW226961   2.933   3.111   1.644  0.0455  2.9083 -1.5728
 5110SOL     OW26962   1.625   3.134   7.407  0.7396  0.1827  0.1758
 5110SOL    HW126963   1.558   3.196   7.380 -2.9807 -3.7487  0.4160
 5110SOL    HW226964   1.619   3.062   7.344  2.5810 -0.4222  0.6703
 5111SOL     OW26965   4.530   3.133   8.636  0.3894  0.4617  0.0147
 5111SOL    HW126966   4.495   3.089   8.714 -1.9868  2.0335 -0.1662
 5111SOL    HW226967   4.456   3.181   8.598  0.6138  1.2623  0.5815
 5112SOL     OW26968   3.368   0.991   8.843  0.6156 -0.3972 -0.4457
 5112SOL    HW126969   3.371   0.947   8.758  3.3006  1.5679 -1.3613
 5112SOL    HW226970   3.295   0.950   8.889 -0.4899  2.0721 -0.0294
 5113SOL     OW26971   1.045   2.343   1.469  0.0900 -0.1601 -0.2158
 5113SOL    HW126972   1.093   2.265   1.495  3.8869  2.9360  2.0155
 5113SOL    HW226973   0.970   2.347   1.528  1.0481 -3.5193  1.2402
 5114SOL     OW26974   0.685   3.393  16.383  0.4442 -0.2548  0.5956
 5114SOL    HW126975   0.693   3.306  16.422 -0.0868  0.2959  1.9350
 5114SOL    HW226976   0.754   3.449  16.419 -0.3203  0.3812  1.0518
 5115SOL     OW26977   2.607   0.785   4.290 -0.4274  0.4633 -0.4790
 5115SOL    HW126978   2.513   0.803   4.290 -0.9928 -2.4386 -1.8056
 5115SOL    HW226979   2.627   0.737   4.209 -0.7442 -1.0643  0.3355
 5116SOL     OW26980   1.512   1.327   6.467 -0.4065  0.2387  0.4204
 5116SOL    HW126981   1.464   1.298   6.389  0.1358  0.8866 -0.1457
 5116SOL    HW226982   1.522   1.421   6.456  1.1099  0.3081  2.4545
 5117SOL     OW26983   4.236   0.351   0.299 -0.0104 -0.0292  0.1547
 5117SOL    HW126984   4.215   0.345   0.206 -0.4427  1.2902  0.1657
 5117SOL    HW226985   4.210   0.442   0.311 -2.4097 -0.6904  0.1926
 5118SOL     OW26986   1.995   1.425  16.502 -0.6049 -0.2084 -0.4132
 5118SOL    HW126987   1.997   1.329  16.495 -0.1848 -0.1562 -1.0265
 5118SOL    HW226988   2.024   1.429  16.593 -1.3231 -1.9129 -0.1141
 5119SOL     OW26989   0.649   2.390   2.447 -0.4644 -0.3264  0.0042
 5119SOL    HW126990   0.653   2.424   2.536 -0.8493  0.1027 -0.1424
 5119SOL    HW226991   0.559   2.411   2.421 -0.3050 -1.7293 -1.6687
 5120SOL     OW26992   3.742   0.749  12.472 -0.0678 -0.0291 -0.4478
 5120SOL    HW126993   3.734   0.823  12.412 -0.9174  1.1047  1.0490
 5120SOL    HW226994   3.650   0.728  12.482  0.0030 -0.4750 -0.7321
 5121SOL     OW26995   2.523   3.752  13.903 -0.3531 -0.8946 -0.3884
 5121SOL    HW126996   2.452   3.780  13.960  0.0883  0.8895 -0.7100
 5121SOL    HW226997   2.486   3.668  13.877 -1.8990 -1.0107  2.1724
 5122SOL     OW26998   3.250   1.951   5.673 -0.2935  0.3465  0.1838
 5122SOL    HW126999   3.286   2.033   5.708 -2.9733  0.5414  2.5002
 5122SOL    HW227000   3.221   1.983   5.588  0.7409 -2.5975 -1.2651
 5123SOL     OW27001   0.604   1.132   7.359 -0.1015  0.0472 -0.2396
 5123SOL    HW127002   0.539   1.203   7.362 -0.2433 -0.1028  0.1869
 5123SOL    HW227003   0.599   1.095   7.447 -1.8196  1.6498  0.3532
 5124SOL     OW27004   4.139   2.219   3.203  0.3502  0.2462  0.6718
 5124SOL    HW127005   4.222   2.183   3.236  0.7636 -0.5340 -1.1913
 5124SOL    HW227006   4.158   2.304   3.164  0.6059 -0.9044 -1.7014
 5125SOL     OW27007   0.237   1.059   9.836  0.0455 -0.1766 -0.4342
 5125SOL    HW127008   0.253   0.983   9.891  0.2193 -0.6339 -1.1119
 5125SOL    HW227009   0.142   1.064   9.837  0.0776 -0.0595  1.2714
 5126SOL     OW27010   4.117   2.655  17.223  0.1235  0.1266 -0.1593
 5126SOL    HW127011   4.069   2.736  17.243  0.3319  0.1051  0.4048
 5126SOL    HW227012   4.071   2.636  17.141  0.6221 -2.3843  0.1308
 5127SOL     OW27013   2.802   0.907   9.448 -0.6139  0.2412 -0.6501
 5127SOL    HW127014   2.858   0.977   9.415 -0.4803  0.9069  0.9978
 5127SOL    HW227015   2.764   0.951   9.524  0.8033  1.8758 -0.8918
 5128SOL     OW27016   2.508   3.009   7.716  0.1233 -0.0744 -0.6549
 5128SOL    HW127017   2.530   3.096   7.748 -0.4074  0.0298 -0.5728
 5128SOL    HW227018   2.575   2.960   7.762 -0.5305 -0.3376  0.0178
 5129SOL     OW27019   2.808   3.192   6.608 -0.1875  0.2853  0.5029
 5129SOL    HW127020   2.897   3.221   6.628 -0.4734  0.5319  1.4266
 5129SOL    HW227021   2.757   3.272   6.620 -0.7404  0.4420 -2.9417
 5130SOL     OW27022   4.105   0.595   5.949 -0.5258  0.1060  0.3436
 5130SOL    HW127023   4.024   0.585   5.899 -0.7712 -1.3056  1.0256
 5130SOL    HW227024   4.132   0.503   5.956 -0.8522  0.1354  1.8609
 5131SOL     OW27025   2.071   0.752   7.175  0.3474  0.4499 -0.1359
 5131SOL    HW127026   1.985   0.713   7.164  0.6657 -0.8829  2.0619
 5131SOL    HW227027   2.085   0.785   7.087 -0.1300 -1.7046 -1.0240
 5132SOL     OW27028   1.681   1.058  11.900  0.1911  0.0974  0.0649
 5132SOL    HW127029   1.612   1.001  11.866  0.9180 -0.3989 -0.5877
 5132SOL    HW227030   1.688   1.019  11.988 -0.2694 -0.7106 -0.2561
 5133SOL     OW27031   1.934   4.182   3.623 -0.1024 -0.0156 -0.3049
 5133SOL    HW127032   2.030   4.182   3.625 -0.0686  1.5967 -1.4824
 5133SOL    HW227033   1.924   4.205   3.530  1.2545 -0.0391 -0.4606
 5134SOL     OW27034   0.698   2.546   2.104 -0.2028 -0.0815 -0.4765
 5134SOL    HW127035   0.630   2.518   2.166 -1.3330 -0.0971 -1.7103
 5134SOL    HW227036   0.660   2.508   2.025 -2.9623 -0.9603  1.2573
 5135SOL     OW27037   4.207   2.030   4.513 -0.3923 -0.1029 -0.0777
 5135SOL    HW127038   4.233   2.073   4.432 -1.6586  1.2707  0.2460
 5135SOL    HW227039   4.289   1.992   4.547 -0.3413 -0.6842 -0.8429
 5136SOL     OW27040   2.755   4.236   3.141  0.0249 -0.0817 -0.0220
 5136SOL    HW127041   2.666   4.270   3.134 -1.2606 -3.4333 -0.2597
 5136SOL    HW227042   2.780   4.265   3.228 -4.0424  0.8153  0.8073
 5137SOL     OW27043   2.064   0.050   1.307 -0.5449  0.2384  0.3669
 5137SOL    HW127044   2.024   0.013   1.386  1.7572 -1.3662  0.8026
 5137SOL    HW227045   2.144   4.734   1.306  0.7576  2.1632  2.2276
 5138SOL     OW27046   4.408   2.114  15.565 -0.4507  0.3454 -0.2326
 5138SOL    HW127047   4.394   2.069  15.648  0.8099 -0.3005 -0.3692
 5138SOL    HW227048   4.410   2.205  15.597  3.5147  0.4386 -0.7120
 5139SOL     OW27049   2.001   2.080  13.767  0.7025  0.0713  0.1874
 5139SOL    HW127050   1.979   2.030  13.845 -0.3848 -0.1064 -0.2351
 5139SOL    HW227051   1.985   2.009  13.705  0.2105 -0.8108  1.3151
 5140SOL     OW27052   2.899   1.960   3.474 -0.1069 -0.2901  0.0266
 5140SOL    HW127053   2.857   1.876   3.495 -0.5633  0.1852  1.0071
 5140SOL    HW227054   2.857   1.982   3.392 -0.1318 -2.4823 -0.5404
 5141SOL     OW27055   0.591   1.720   8.470  0.2381 -0.4512  0.2965
 5141SOL    HW127056   0.600   1.788   8.537 -1.7123 -1.2626  1.3923
 5141SOL    HW227057   0.495   1.714   8.468  0.1545  0.4657  2.1291
 5142SOL     OW27058   0.674   4.648   4.475  0.2222  0.5801  0.0317
 5142SOL    HW127059   0.736   4.580   4.502 -1.4187 -1.1747 -0.6414
 5142SOL    HW227060   0.593   4.623   4.519  0.6508 -1.4296 -0.3113
 5143SOL     OW27061   2.649   4.560   0.357  0.6633 -0.2004 -0.0117
 5143SOL    HW127062   2.729   4.578   0.406  1.2851 -0.3621 -0.9688
 5143SOL    HW227063   2.644   4.467   0.378  3.3904 -0.0507  1.2397
 5144SOL     OW27064   4.713   2.450   3.120  0.0215 -0.7721 -0.3505
 5144SOL    HW127065   4.683   2.483   3.036 -2.4409 -1.9799  0.0724
 5144SOL    HW227066   0.069   2.473   3.121  0.6297 -3.0417 -3.2559
 5145SOL     OW27067   3.886   1.810  10.422  0.4239 -0.0785  0.1027
 5145SOL    HW127068   3.941   1.798  10.345  2.9983 -1.7047  2.1455
 5145SOL    HW227069   3.818   1.744  10.407  1.0013 -1.2430  2.4852
 5146SOL     OW27070   0.771   2.764   2.732 -0.4274 -0.6893 -0.4983
 5146SOL    HW127071   0.849   2.791   2.781 -3.0355 -0.3313  3.4543
 5146SOL    HW227072   0.777   2.815   2.651 -0.8370 -2.5586 -1.6995
 5147SOL     OW27073   0.034   1.958  14.604 -0.0913 -0.4772 -0.3163
 5147SOL    HW127074   0.089   1.906  14.662 -1.9676  0.3068  2.1589
 5147SOL    HW227075   0.111   2.001  14.568 -1.9490  3.5685  0.5793
 5148SOL     OW27076   3.926   1.086   2.221 -0.1511 -0.3491  0.5426
 5148SOL    HW127077   3.864   1.115   2.154  1.4649 -0.1624 -0.8700
 5148SOL    HW227078   4.008   1.090   2.171 -0.6546  1.7205 -0.1330
 5149SOL     OW27079   4.659   4.238   7.749 -0.0648 -0.5843 -0.3663
 5149SOL    HW127080   4.662   4.145   7.726 -1.8902 -0.8185  0.3476
 5149SOL    HW227081   4.696   4.271   7.667 -2.5970  0.5848 -1.0361
 5150SOL     OW27082   1.708   3.795   9.325  0.1425 -0.2877  0.1785
 5150SOL    HW127083   1.764   3.725   9.291  1.7820  1.9016 -1.6305
 5150SOL    HW227084   1.623   3.753   9.332  1.3141 -2.5799  0.8157
 5151SOL     OW27085   3.371   2.200  16.499  0.3261 -0.2384 -1.1880
 5151SOL    HW127086   3.365   2.187  16.404 -1.1487 -0.8698 -1.0121
 5151SOL    HW227087   3.283   2.220  16.531  0.3993 -1.1032 -0.4567
 5152SOL     OW27088   0.014   0.078   5.365 -0.1828 -0.0526  0.3300
 5152SOL    HW127089   0.066   0.024   5.306 -0.3717 -1.3644  1.3787
 5152SOL    HW227090   0.010   0.015   5.437 -1.4596  1.8144  1.9015
 5153SOL     OW27091   4.616   1.171   2.883  0.4318 -0.3808  0.3528
 5153SOL    HW127092   4.623   1.076   2.889 -2.0965 -0.5905 -0.2755
 5153SOL    HW227093   4.709   1.196   2.877  1.2535 -3.4723  0.4909
 5154SOL     OW27094   2.484   2.184   8.334  0.6744 -0.0396 -0.2888
 5154SOL    HW127095   2.563   2.131   8.346  0.5660 -0.3081 -0.7787
 5154SOL    HW227096   2.505   2.258   8.392 -1.4531  0.4173 -0.1080
 5155SOL     OW27097   1.210   1.285   1.462 -0.0591  0.0461 -0.0775
 5155SOL    HW127098   1.142   1.223   1.489  0.4361 -0.8782 -0.9127
 5155SOL    HW227099   1.277   1.220   1.438  0.2764 -0.2614  1.7325
 5156SOL     OW27100   0.606   1.449   6.417  0.5903  0.0528  0.1833
 5156SOL    HW127101   0.631   1.356   6.415 -0.7338 -0.3232  0.9803
 5156SOL    HW227102   0.512   1.453   6.400  0.7253 -0.3802 -0.6741
 5157SOL     OW27103   0.281   0.840   8.771  0.2249 -0.7829 -0.3357
 5157SOL    HW127104   0.294   0.805   8.683  1.0661  3.7442 -2.0194
 5157SOL    HW227105   0.284   0.934   8.751  0.3640 -0.9032 -0.8809
 5158SOL     OW27106   3.049   4.709  10.035  0.2836 -0.5038  0.1690
 5158SOL    HW127107   3.016   0.026  10.107 -0.7342 -0.4468 -0.3324
 5158SOL    HW227108   2.995   4.630  10.025 -0.6069  0.1127  0.0525
 5159SOL     OW27109   1.834   4.604   5.806 -0.1258  0.6498 -0.2289
 5159SOL    HW127110   1.859   4.621   5.897 -0.4133  0.9419 -0.2039
 5159SOL    HW227111   1.741   4.585   5.817  0.3200 -0.1736  2.0596
 5160SOL     OW27112   2.933   4.112  13.875  0.6995  0.3846  0.1750
 5160SOL    HW127113   2.875   4.036  13.878  0.3073  0.6460 -1.0976
 5160SOL    HW227114   2.960   4.104  13.784  2.0502 -0.3359  0.6332
 5161SOL     OW27115   3.962   3.183  10.974 -0.2604  0.0985 -0.0056
 5161SOL    HW127116   3.994   3.100  11.011 -0.8034  1.2460  3.0132
 5161SOL    HW227117   4.041   3.231  10.949 -1.3009  2.2367  0.8365
 5162SOL     OW27118   4.217   4.671  14.144  0.7414 -0.2199  0.0955
 5162SOL    HW127119   4.294   4.633  14.102  1.1696  0.3897  0.3283
 5162SOL    HW227120   4.156   4.668  14.070  0.9737 -1.5721 -0.0319
 5163SOL     OW27121   2.907   0.858   7.695  0.4391  0.2111 -0.5148
 5163SOL    HW127122   2.858   0.904   7.627 -2.4516 -0.7253  0.8940
 5163SOL    HW227123   2.968   0.929   7.714 -0.1643 -0.1606  2.8257
 5164SOL     OW27124   1.976   0.179   0.381 -0.1394  0.2712 -0.4133
 5164SOL    HW127125   2.055   0.232   0.371 -0.1470  1.0079  3.4780
 5164SOL    HW227126   1.917   0.251   0.403 -0.3478  1.0342 -3.4328
 5165SOL     OW27127   1.404   3.615   5.771 -0.0312 -0.0062  0.5624
 5165SOL    HW127128   1.404   3.521   5.789 -1.1137 -0.1007  0.0311
 5165SOL    HW227129   1.498   3.632   5.769 -0.2006  0.8744  0.1224
 5166SOL     OW27130   0.797   0.448  13.083 -0.3946 -0.4187 -0.5241
 5166SOL    HW127131   0.795   0.406  13.169  0.2874  2.3200  0.8354
 5166SOL    HW227132   0.863   0.515  13.101  0.1718 -0.8078 -1.1489
 5167SOL     OW27133   2.791   3.081  16.249  0.2787  0.1123 -0.0242
 5167SOL    HW127134   2.700   3.092  16.278  0.6980 -0.3035  1.4759
 5167SOL    HW227135   2.809   2.988  16.264 -1.0674 -0.1444 -0.0445
 5168SOL     OW27136   3.001   2.688   2.101  0.0873  0.5873 -0.3176
 5168SOL    HW127137   2.926   2.701   2.159 -0.5713 -0.1732 -0.9989
 5168SOL    HW227138   3.062   2.656   2.167 -0.2247  0.1978 -0.2176
 5169SOL     OW27139   0.416   3.514   4.603  0.8820  0.0076 -0.1430
 5169SOL    HW127140   0.376   3.591   4.563  1.3333  0.2816 -0.0641
 5169SOL    HW227141   0.380   3.446   4.545  0.0050 -1.9788  2.7386
 5170SOL     OW27142   3.766   4.588   2.561  0.0905  0.3199 -0.3902
 5170SOL    HW127143   3.812   4.671   2.569 -1.6491  1.3470 -0.8441
 5170SOL    HW227144   3.836   4.538   2.602  0.3231  0.0600 -1.1114
 5171SOL     OW27145   0.695   1.717   3.553 -0.3940 -0.2571 -0.3620
 5171SOL    HW127146   0.637   1.696   3.480  0.6714 -0.5754 -1.1188
 5171SOL    HW227147   0.650   1.678   3.629  0.0099  0.0497  0.0358
 5172SOL     OW27148   1.267   1.180   4.883 -0.3854  0.0773 -0.4911
 5172SOL    HW127149   1.259   1.085   4.878  3.2045 -0.3428  1.3525
 5172SOL    HW227150   1.348   1.192   4.933 -1.0051  3.2246 -0.2302
 5173SOL     OW27151   3.220   0.797   5.936 -0.0354  0.0200 -0.8283
 5173SOL    HW127152   3.131   0.822   5.913 -0.6667 -0.6001  0.9096
 5173SOL    HW227153   3.253   0.885   5.955 -1.2038 -0.3931  3.2570
 5174SOL     OW27154   3.935   2.382   5.227 -0.1876  0.8431 -0.0505
 5174SOL    HW127155   3.998   2.452   5.207 -0.6065  0.5347 -2.4695
 5174SOL    HW227156   3.902   2.378   5.137 -0.7104  2.0476  0.0792
 5175SOL     OW27157   1.216   1.814   3.364 -0.1166 -0.2224  0.3399
 5175SOL    HW127158   1.196   1.905   3.342 -1.4913 -0.4449  0.6662
 5175SOL    HW227159   1.148   1.802   3.430 -2.2105  0.1134 -1.7440
 5176SOL     OW27160   2.271   2.124   2.084 -0.1230  0.0191  0.1519
 5176SOL    HW127161   2.327   2.201   2.079  0.1112 -0.2440 -1.2375
 5176SOL    HW227162   2.223   2.137   2.002  0.5400  1.6657  0.0283
 5177SOL     OW27163   2.613   3.266   5.326  0.3022  0.3330 -0.1297
 5177SOL    HW127164   2.551   3.194   5.314  0.5304  0.0412  0.4291
 5177SOL    HW227165   2.689   3.237   5.276  0.0197 -0.2206 -0.2344
 5178SOL     OW27166   3.979   0.067  13.246 -0.1829 -0.2619  0.0279
 5178SOL    HW127167   4.015   0.071  13.158  0.5133  1.0603  0.3639
 5178SOL    HW227168   4.017   0.147  13.282 -0.5853 -0.4406  0.8720
 5179SOL     OW27169   4.542   0.678   2.356  0.7454 -0.2024  0.8079
 5179SOL    HW127170   4.496   0.594   2.359 -1.6541  1.1302  1.0924
 5179SOL    HW227171   4.469   0.740   2.357 -1.2622 -2.4672 -3.1615
 5180SOL     OW27172   2.046   1.647  14.196  0.0062  0.1149  0.8148
 5180SOL    HW127173   2.059   1.604  14.111  0.0736  2.4740 -0.3511
 5180SOL    HW227174   2.103   1.721  14.178  1.6994 -1.5367 -0.7316
 5181SOL     OW27175   0.782   0.534   5.208  0.2738 -0.2288  0.4415
 5181SOL    HW127176   0.696   0.572   5.226  0.4959  1.8355 -2.8464
 5181SOL    HW227177   0.836   0.608   5.234 -0.9296 -0.1685  2.7352
 5182SOL     OW27178   1.114   3.260   8.371 -0.4009 -0.0398 -1.3577
 5182SOL    HW127179   1.020   3.277   8.375  0.0887  2.4172 -0.2784
 5182SOL    HW227180   1.124   3.274   8.277 -0.1673  2.2983 -0.9879
 5183SOL     OW27181   0.168   1.432   3.048  0.1684  0.0809 -0.0352
 5183SOL    HW127182   0.150   1.400   2.960  1.2823 -1.5470  0.3267
 5183SOL    HW227183   0.171   1.349   3.096  0.7073  0.4287  0.5248
 5184SOL     OW27184   3.555   3.141   8.321 -0.7207 -0.3226  0.0540
 5184SOL    HW127185   3.515   3.184   8.396 -0.6523  0.4179 -0.3345
 5184SOL    HW227186   3.594   3.069   8.370 -0.4765 -0.3448 -0.1740
 5185SOL     OW27187   1.997   1.628   8.215  0.2842 -0.5667  0.4453
 5185SOL    HW127188   2.050   1.632   8.294 -0.8549 -1.1593  1.2408
 5185SOL    HW227189   2.021   1.706   8.165  0.7647 -0.9053  0.1468
 5186SOL     OW27190   1.971   2.947   9.840 -0.5722  0.0095  0.6985
 5186SOL    HW127191   1.909   3.006   9.882  0.0432  0.0318  1.5641
 5186SOL    HW227192   1.916   2.894   9.783 -0.9649  1.2960 -0.1364
 5187SOL     OW27193   2.481   2.596   1.899 -0.1695  0.3201 -0.2892
 5187SOL    HW127194   2.484   2.586   1.994  0.5100 -1.5762 -0.5074
 5187SOL    HW227195   2.457   2.688   1.892 -1.6183 -0.2499 -2.7542
 5188SOL     OW27196   2.831   0.610  12.540 -0.0505 -0.0725 -0.4507
 5188SOL    HW127197   2.905   0.620  12.480 -0.5820 -1.2213 -1.3193
 5188SOL    HW227198   2.790   0.536  12.493 -0.9054  0.2323 -0.1792
 5189SOL     OW27199   3.811   0.494   4.096 -0.3626  0.0738  0.0424
 5189SOL    HW127200   3.850   0.529   4.176 -0.3763  2.1954 -0.8805
 5189SOL    HW227201   3.858   0.412   4.083 -0.8082 -0.0264 -0.9152
 5190SOL     OW27202   2.641   1.237  17.060  0.0266  0.3271  0.1427
 5190SOL    HW127203   2.628   1.215  17.153 -0.2247 -2.9783 -0.6784
 5190SOL    HW227204   2.633   1.333  17.058  0.2500  0.2951 -2.0375
 5191SOL     OW27205   0.783   3.094  17.005  0.2500 -0.7022 -0.1154
 5191SOL    HW127206   0.801   3.002  16.985  1.3240 -0.5594  0.2229
 5191SOL    HW227207   0.786   3.124  16.914  0.3023  1.3007  0.5496
 5192SOL     OW27208   2.626   2.569  16.069  0.2293 -0.1631 -0.2389
 5192SOL    HW127209   2.591   2.657  16.078  1.1823  0.0619  1.1650
 5192SOL    HW227210   2.718   2.588  16.050  0.3290 -0.1450  0.2558
 5193SOL     OW27211   3.251   1.255   5.561  0.2384  0.6667 -0.4060
 5193SOL    HW127212   3.224   1.345   5.580 -1.0485  0.1751  0.0780
 5193SOL    HW227213   3.318   1.247   5.629 -0.9446  2.1022  0.9333
 5194SOL     OW27214   3.481   2.897   1.743 -0.3400 -0.2154  0.5516
 5194SOL    HW127215   3.428   2.876   1.666 -0.4279  0.3029  0.4718
 5194SOL    HW227216   3.549   2.833   1.722  1.1798  1.7724 -0.4646
 5195SOL     OW27217   2.639   3.402   3.082  0.3920  0.6925  0.0559
 5195SOL    HW127218   2.621   3.450   3.002  0.4411  1.8597  0.7556
 5195SOL    HW227219   2.732   3.384   3.064  0.0610  0.7187 -1.6208
 5196SOL     OW27220   1.837   4.573   6.115 -0.6044  0.5743 -0.2227
 5196SOL    HW127221   1.796   4.549   6.198  0.3898  1.4896  0.5270
 5196SOL    HW227222   1.891   4.497   6.096 -0.3794  0.7425 -0.2511
 5197SOL     OW27223   2.310   3.494   1.644 -0.4628 -0.2963 -0.3708
 5197SOL    HW127224   2.395   3.480   1.602 -0.0809  1.3973 -0.1825
 5197SOL    HW227225   2.337   3.558   1.709  0.6149 -0.7405 -0.3755
 5198SOL     OW27226   0.232   3.309   8.391 -0.0592 -0.2169  0.2198
 5198SOL    HW127227   0.183   3.391   8.384  1.1644  0.6484  1.4968
 5198SOL    HW227228   0.167   3.241   8.402  0.4403 -0.9695 -1.4571
 5199SOL     OW27229   1.400   1.708   2.969 -0.4840 -0.1898 -0.4366
 5199SOL    HW127230   1.413   1.616   2.994 -1.0486  0.0818  0.8412
 5199SOL    HW227231   1.416   1.714   2.875  1.4909  0.8601 -0.0346
 5200SOL     OW27232   3.176   1.259   4.320  0.2850  0.0367 -0.1035
 5200SOL    HW127233   3.166   1.247   4.225 -1.1650 -1.9795  0.2881
 5200SOL    HW227234   3.159   1.169   4.347 -1.7597  0.5730  0.4425
 5201SOL     OW27235   1.454   1.333   8.574  0.2318 -0.1929  0.3282
 5201SOL    HW127236   1.472   1.380   8.655  0.5752 -1.3246  0.9040
 5201SOL    HW227237   1.531   1.278   8.564 -0.3109 -0.4855 -2.2936
 5202SOL     OW27238   3.726   2.504   7.829 -0.3024  0.0534  0.2352
 5202SOL    HW127239   3.759   2.422   7.865  0.5905  0.2328 -0.1717
 5202SOL    HW227240   3.632   2.488   7.827 -0.7095  2.6718 -1.0557
 5203SOL     OW27241   2.312   1.399   0.414 -0.0809  0.1063 -0.1633
 5203SOL    HW127242   2.227   1.441   0.424 -0.0601  0.4981 -1.6874
 5203SOL    HW227243   2.282   1.316   0.376 -1.5466  0.0679  1.1102
 5204SOL     OW27244   3.374   2.033   8.028  0.1614 -0.5901  0.1988
 5204SOL    HW127245   3.440   2.091   8.068  0.4594 -0.2215 -0.8347
 5204SOL    HW227246   3.428   1.963   7.993  0.0190 -1.8195  2.4430
 5205SOL     OW27247   4.703   4.434   7.945  0.2795 -0.9626  0.0814
 5205SOL    HW127248   4.702   4.368   7.876 -2.3204 -0.1351 -0.6351
 5205SOL    HW227249   0.051   4.474   7.928  0.2094 -0.6745  0.4123
 5206SOL     OW27250   0.916   2.239   2.054  0.3889 -0.2210  0.7200
 5206SOL    HW127251   0.879   2.303   2.115  0.0781 -0.4714  0.7947
 5206SOL    HW227252   0.837   2.185   2.046 -0.5068  1.3677 -1.2395
 5207SOL     OW27253   4.049   2.236  17.557  0.6260 -0.2873  0.0785
 5207SOL    HW127254   4.002   2.222  17.639 -0.1567 -4.5275 -1.0719
 5207SOL    HW227255   4.026   2.326  17.537  1.5885  0.0792  0.6537
 5208SOL     OW27256   0.354   2.128   7.720  0.5555 -0.9466  0.0465
 5208SOL    HW127257   0.440   2.157   7.689  0.5641 -0.3095  0.6562
 5208SOL    HW227258   0.306   2.120   7.638 -1.9664 -1.4445  1.5838
 5209SOL     OW27259   1.061   1.393   5.070  0.6262  0.6274 -0.5924
 5209SOL    HW127260   0.972   1.368   5.042  0.3269  0.2415  0.7257
 5209SOL    HW227261   1.106   1.396   4.985  2.5245  0.2725  0.4151
 5210SOL     OW27262   0.076   1.202   8.703 -0.2315  0.7858  0.6680
 5210SOL    HW127263   0.089   1.143   8.629  0.3000  2.1445 -0.3344
 5210SOL    HW227264   0.147   1.266   8.702  0.8555 -0.4196  1.0609
 5211SOL     OW27265   3.225   0.016  11.387 -0.0810  0.2817  0.4796
 5211SOL    HW127266   3.231   4.675  11.333  2.9136  1.0877 -0.3119
 5211SOL    HW227267   3.133   0.019  11.413 -0.7323  2.7738 -2.1209
 5212SOL     OW27268   4.722   2.424   4.346 -0.0379  0.6425  0.2300
 5212SOL    HW127269   0.020   2.346   4.390  0.3642  0.7843  0.1582
 5212SOL    HW227270   0.067   2.468   4.324  0.5849 -1.1469 -1.0625
 5213SOL     OW27271   0.209   3.166   6.658 -0.1700  0.0058 -0.0076
 5213SOL    HW127272   0.144   3.144   6.591  0.5611 -0.5751 -0.5267
 5213SOL    HW227273   0.194   3.258   6.678  1.0533  0.5866 -1.7898
 5214SOL     OW27274   0.868   1.069   8.773  0.1746 -0.0863  0.0063
 5214SOL    HW127275   0.949   1.019   8.781  1.7026  2.0974 -1.8295
 5214SOL    HW227276   0.852   1.049   8.681  1.3325 -1.0683  0.0140
 5215SOL     OW27277   1.638   4.370   1.252 -0.3049  0.1708  0.1671
 5215SOL    HW127278   1.687   4.424   1.314  0.2227 -1.3322  1.0633
 5215SOL    HW227279   1.555   4.377   1.300 -0.2632 -0.6169  0.3528
 5216SOL     OW27280   0.569   0.652  13.876 -0.2186 -0.8074 -0.4381
 5216SOL    HW127281   0.503   0.721  13.882 -2.4893 -2.9924 -0.1650
 5216SOL    HW227282   0.636   0.681  13.937  1.0409 -1.7884 -1.3486
 5217SOL     OW27283   1.306   4.524  12.220 -0.2016 -0.0655 -0.2216
 5217SOL    HW127284   1.212   4.535  12.231 -0.4404  0.4382 -2.7088
 5217SOL    HW227285   1.315   4.462  12.293 -1.8944  0.7701  0.6891
 5218SOL     OW27286   0.871   3.206   6.080  0.4947  0.1446  0.0870
 5218SOL    HW127287   0.935   3.159   6.027 -2.3253 -1.6879 -1.6885
 5218SOL    HW227288   0.903   3.188   6.168 -0.5445 -1.6788  0.0944
 5219SOL     OW27289   4.326   2.667   1.664  0.2509 -0.1517  0.5721
 5219SOL    HW127290   4.368   2.585   1.636 -1.8024 -0.8183 -0.6131
 5219SOL    HW227291   4.358   2.726   1.596 -2.7949 -0.2859 -1.0099
 5220SOL     OW27292   1.867   0.297   8.547 -0.0696  0.5457  0.1303
 5220SOL    HW127293   1.952   0.334   8.569 -1.4277  2.0261  2.9082
 5220SOL    HW227294   1.899   0.224   8.494 -2.1594 -0.8841  0.8365
 5221SOL     OW27295   2.753   4.576   9.521 -0.3538 -0.1632 -0.6921
 5221SOL    HW127296   2.791   4.570   9.609  0.2627 -2.4316 -1.1262
 5221SOL    HW227297   2.835   4.545   9.481  0.0747  2.5870 -1.9651
 5222SOL     OW27298   3.826   2.969   7.277  0.2957 -0.3178  0.8410
 5222SOL    HW127299   3.909   2.927   7.297  0.9053  0.6427  0.3391
 5222SOL    HW227300   3.806   2.993   7.368 -0.2178  1.2362  0.3187
 5223SOL     OW27301   0.328   2.556   1.416 -0.1266  0.3428  0.0567
 5223SOL    HW127302   0.302   2.470   1.384 -2.3709  0.4710  1.5344
 5223SOL    HW227303   0.298   2.543   1.506  3.8441 -2.5406  0.9433
 5224SOL     OW27304   2.047   1.024   5.819  0.2859  0.5395 -0.3149
 5224SOL    HW127305   2.047   0.946   5.764 -0.1373  1.0375 -1.0212
 5224SOL    HW227306   2.123   1.012   5.876  0.5417  3.3765 -0.0181
 5225SOL     OW27307   3.305   0.264   6.387  0.7263 -0.1486  0.0467
 5225SOL    HW127308   3.290   0.294   6.476  0.6692 -1.4088  0.4506
 5225SOL    HW227309   3.395   0.232   6.392  0.3889 -1.0475  0.2548
 5226SOL     OW27310   4.212   0.302  12.288  0.4270 -0.2691 -0.0598
 5226SOL    HW127311   4.292   0.281  12.336 -2.3803 -2.4163  3.7475
 5226SOL    HW227312   4.151   0.322  12.360  2.1133 -0.0655  1.3018
 5227SOL     OW27313   0.234   4.576  16.908  0.4454 -0.1159  0.7578
 5227SOL    HW127314   0.294   4.543  16.841 -2.4873  0.0932 -1.9740
 5227SOL    HW227315   0.202   4.658  16.871  0.2608 -0.2711  0.5752
 5228SOL     OW27316   1.472   2.519  10.678  0.6505  0.4788 -0.1087
 5228SOL    HW127317   1.402   2.536  10.740  1.3926 -1.9306  1.3994
 5228SOL    HW227318   1.508   2.608  10.674 -0.1584  0.9083  2.2800
 5229SOL     OW27319   3.090   2.113   1.415  0.5412  0.1893 -0.0874
 5229SOL    HW127320   3.117   2.036   1.466  0.6910 -0.4274 -1.0788
 5229SOL    HW227321   3.141   2.183   1.455  1.1647 -0.1193 -0.3330
 5230SOL     OW27322   1.146   4.490  10.084  0.0111 -0.3509  0.6454
 5230SOL    HW127323   1.223   4.450  10.043  0.2043  2.2434 -1.5419
 5230SOL    HW227324   1.173   4.490  10.176  0.8856 -1.0745  0.3949
 5231SOL     OW27325   3.104   2.893   5.267 -0.4616 -0.0462  0.2252
 5231SOL    HW127326   3.134   2.945   5.193  0.6368 -2.1216 -0.7701
 5231SOL    HW227327   3.072   2.813   5.225  0.0327 -0.7533  1.1928
 5232SOL     OW27328   3.900   2.171   4.267 -0.3631 -0.1669 -0.3034
 5232SOL    HW127329   3.807   2.164   4.287 -0.5957  1.1089 -0.9315
 5232SOL    HW227330   3.905   2.087   4.220 -0.6759 -0.5084  0.2753
 5233SOL     OW27331   1.249   3.625   2.739  0.4699 -0.5505  0.4343
 5233SOL    HW127332   1.214   3.590   2.657 -2.4881 -0.7814  1.7817
 5233SOL    HW227333   1.315   3.688   2.711 -0.2132  0.5479  1.2631
 5234SOL     OW27334   1.348   4.337   6.989 -0.2977 -0.2486  0.4633
 5234SOL    HW127335   1.301   4.342   6.906  1.7045 -3.6242 -0.8667
 5234SOL    HW227336   1.276   4.338   7.052  0.1851 -0.0898  1.0100
 5235SOL     OW27337   0.049   2.228   8.171 -0.1349 -0.5976 -0.6295
 5235SOL    HW127338   0.080   2.315   8.148  1.3991 -0.8182  0.6306
 5235SOL    HW227339   4.729   2.241   8.246  1.6348  2.0078  0.2569
 5236SOL     OW27340   2.225   0.332   8.221 -0.0861 -0.1155  0.2042
 5236SOL    HW127341   2.245   0.361   8.132  0.0848  4.1032  1.6085
 5236SOL    HW227342   2.208   0.240   8.200 -1.7857  0.3686 -0.5051
 5237SOL     OW27343   0.113   2.947   6.203  0.1081  0.1981 -0.0356
 5237SOL    HW127344   0.190   2.985   6.160  0.3548  1.0000  1.1051
 5237SOL    HW227345   0.161   2.878   6.249 -0.2938  1.2009  1.8913
 5238SOL     OW27346   3.016   0.679   9.357 -0.0951  0.0664  0.2487
 5238SOL    HW127347   2.960   0.603   9.340  0.3273 -0.1308 -0.2505
 5238SOL    HW227348   2.955   0.747   9.387  0.3091  1.3741 -1.9003
 5239SOL     OW27349   3.101   4.548   9.005  0.0027  0.4090 -0.1495
 5239SOL    HW127350   3.093   4.638   8.974  2.1675  0.9585  0.8726
 5239SOL    HW227351   3.195   4.536   8.994  0.0028  3.1185 -3.0169
 5240SOL     OW27352   3.440   1.871   1.350 -0.4800  0.3974 -0.2990
 5240SOL    HW127353   3.389   1.851   1.271  1.2383 -1.0787 -1.0104
 5240SOL    HW227354   3.368   1.892   1.410  0.3050  0.6692  0.5434
 5241SOL     OW27355   1.843   4.367   9.257 -0.1895 -0.3282  0.3642
 5241SOL    HW127356   1.923   4.364   9.309 -0.7573 -3.3163  1.1018
 5241SOL    HW227357   1.861   4.414   9.176 -0.4093 -0.6954  0.1032
 5242SOL     OW27358   2.900   1.810   2.357 -0.6784 -0.2454 -0.4499
 5242SOL    HW127359   2.854   1.727   2.370 -1.1237 -0.2221 -1.8502
 5242SOL    HW227360   2.990   1.778   2.355 -0.7772 -0.6044  0.8514
 5243SOL     OW27361   0.851   1.361   9.866  0.1107  0.0257 -0.0629
 5243SOL    HW127362   0.853   1.379   9.960  4.6451 -0.5598 -0.0598
 5243SOL    HW227363   0.819   1.445   9.831  0.5498  0.1946 -0.0586
 5244SOL     OW27364   2.552   4.599   6.130 -0.3713 -0.4618 -0.6054
 5244SOL    HW127365   2.540   4.505   6.116  1.8368 -0.7779 -0.4422
 5244SOL    HW227366   2.579   4.611   6.221  2.4225 -2.8542 -1.0900
 5245SOL     OW27367   1.848   3.577   9.258  0.6530 -0.0193 -0.4011
 5245SOL    HW127368   1.941   3.560   9.239  0.4677 -0.0890 -1.2472
 5245SOL    HW227369   1.824   3.570   9.166 -0.8244 -1.1161  0.0816
 5246SOL     OW27370   0.047   2.394  16.503  0.2260  0.1536 -0.0540
 5246SOL    HW127371   4.711   2.379  16.563  1.3026 -0.9322  0.9914
 5246SOL    HW227372   0.095   2.312  16.512  0.0936  0.4232  3.0376
 5247SOL     OW27373   0.943   0.162   3.507  0.2009  0.0288 -0.3941
 5247SOL    HW127374   0.942   0.249   3.469 -2.2546 -0.7145 -2.0682
 5247SOL    HW227375   0.933   0.179   3.600 -0.1652 -2.1131 -0.0392
 5248SOL     OW27376   1.685   2.201  12.710  0.2953  0.0773 -0.4203
 5248SOL    HW127377   1.695   2.109  12.684 -3.2697 -0.0801 -1.2372
 5248SOL    HW227378   1.776   2.215  12.738 -0.2988  1.2596  0.8941
 5249SOL     OW27379   0.863   2.753  11.222 -0.5100 -0.0976 -0.3892
 5249SOL    HW127380   0.902   2.680  11.174  1.8329 -0.0406  1.3812
 5249SOL    HW227381   0.920   2.825  11.195  1.2810 -1.4711 -0.3038
 5250SOL     OW27382   2.568   0.970   2.931 -0.0735  0.5198 -0.2839
 5250SOL    HW127383   2.655   0.945   2.962  1.7195  2.5730 -3.5250
 5250SOL    HW227384   2.511   0.933   2.997  0.7376  1.5576  0.9861
 5251SOL     OW27385   2.335   1.566  15.693 -0.3263 -0.2819 -0.2143
 5251SOL    HW127386   2.262   1.619  15.724 -0.2330  0.6863 -1.6337
 5251SOL    HW227387   2.386   1.637  15.655 -0.4646 -0.0566  0.0253
 5252SOL     OW27388   1.657   2.991  17.365 -0.5510 -0.1790  0.6769
 5252SOL    HW127389   1.707   3.070  17.389 -1.7506  0.1910  1.9377
 5252SOL    HW227390   1.568   3.023  17.379 -0.4368  0.3657  0.1697
 5253SOL     OW27391   1.575   0.146   3.871 -0.1848  0.2667 -0.3906
 5253SOL    HW127392   1.505   0.177   3.813 -1.6370 -1.9047  0.2249
 5253SOL    HW227393   1.538   0.163   3.957 -1.6007  0.4956 -1.0423
 5254SOL     OW27394   0.347   0.493   6.033 -0.3965 -0.8361 -0.2777
 5254SOL    HW127395   0.426   0.528   5.992  1.2501 -0.7551  3.0352
 5254SOL    HW227396   0.291   0.520   5.960  1.4993 -0.1865 -1.4934
 5255SOL     OW27397   2.268   0.009   6.823  0.3429  0.3128  0.4351
 5255SOL    HW127398   2.312   4.665   6.798 -1.8808 -0.8645  0.4100
 5255SOL    HW227399   2.201   4.727   6.888  1.3864 -0.3151  1.3316
 5256SOL     OW27400   2.028   4.091  12.114 -0.7447  0.1423  0.4744
 5256SOL    HW127401   2.094   4.132  12.059  0.5270 -0.4512  1.5563
 5256SOL    HW227402   2.068   4.111  12.198  1.2625 -0.7453 -0.2856
 5257SOL     OW27403   1.365   1.736   7.996 -0.0135  0.3459 -0.3666
 5257SOL    HW127404   1.317   1.654   7.981  1.6640 -0.6271 -0.4088
 5257SOL    HW227405   1.394   1.716   8.084 -1.2654 -2.6577 -0.6322
 5258SOL     OW27406   1.139   3.517   6.545 -0.4361 -0.2671  0.6108
 5258SOL    HW127407   1.071   3.504   6.611 -2.1503  1.4795 -0.8244
 5258SOL    HW227408   1.099   3.590   6.498 -2.0603 -3.1104 -2.4173
 5259SOL     OW27409   0.526   1.491   7.816  0.0950 -0.3096  0.0346
 5259SOL    HW127410   0.517   1.584   7.837 -0.5240 -0.4933  0.5666
 5259SOL    HW227411   0.603   1.487   7.758 -0.5047  0.9166 -0.8476
 5260SOL     OW27412   2.319   4.639   2.004  0.0495 -0.9569  0.6069
 5260SOL    HW127413   2.387   4.667   1.943 -1.1401 -0.2644 -0.4033
 5260SOL    HW227414   2.293   4.554   1.970 -0.5683 -0.3342 -0.4785
 5261SOL     OW27415   0.644   3.763   3.342 -0.0490  0.2372 -0.3284
 5261SOL    HW127416   0.591   3.737   3.267  1.5819 -1.7123 -0.8078
 5261SOL    HW227417   0.682   3.678   3.364 -1.3394 -0.4397 -0.7043
 5262SOL     OW27418   0.360   1.644   2.115 -0.4725 -0.1796  0.1762
 5262SOL    HW127419   0.282   1.683   2.076 -0.3528  0.2588  0.3738
 5262SOL    HW227420   0.318   1.569   2.156 -1.1245  1.5508  2.7136
 5263SOL     OW27421   0.379   1.381  16.737  0.0941 -0.3309  0.8063
 5263SOL    HW127422   0.444   1.319  16.706  0.0244 -0.0716  0.1493
 5263SOL    HW227423   0.300   1.329  16.722  0.0817 -0.0503 -0.0758
 5264SOL     OW27424   1.001   0.005  10.861  0.5563  0.4643  0.3850
 5264SOL    HW127425   1.008   0.091  10.819  2.6380  0.1182  0.0152
 5264SOL    HW227426   0.936   0.013  10.931  0.1919  0.2867  0.0668
 5265SOL     OW27427   2.308   3.559  10.516 -0.7206 -0.0065 -0.1199
 5265SOL    HW127428   2.339   3.479  10.558 -0.2529  2.7824  4.8838
 5265SOL    HW227429   2.336   3.629  10.575  0.0364 -0.3178 -0.1058
 5266SOL     OW27430   2.052   3.740   1.116 -0.0458 -0.1545 -0.3010
 5266SOL    HW127431   2.040   3.824   1.071  0.9422 -0.1229 -0.5194
 5266SOL    HW227432   2.095   3.686   1.050  2.9015 -0.1385  1.5724
 5267SOL     OW27433   4.485   1.589   3.207 -0.4558  0.0720  0.5550
 5267SOL    HW127434   4.488   1.549   3.294 -0.9902  2.0717  1.5088
 5267SOL    HW227435   4.449   1.521   3.150  1.3133  0.8702 -1.5012
 5268SOL     OW27436   4.612   4.057   4.197  0.4804 -0.0060 -0.1936
 5268SOL    HW127437   4.590   3.974   4.240  0.6244 -1.2350 -2.4768
 5268SOL    HW227438   4.575   4.046   4.109 -0.2948  4.5312 -0.4147
 5269SOL     OW27439   3.810   0.470   7.659  0.0814 -0.3150 -0.0478
 5269SOL    HW127440   3.771   0.524   7.590 -2.0520 -1.5670  0.1625
 5269SOL    HW227441   3.902   0.492   7.648  0.2396 -1.3640 -0.7982
 5270SOL     OW27442   0.410   0.238   0.833  0.2996  0.6712 -0.1686
 5270SOL    HW127443   0.431   0.173   0.900 -1.1337  1.1770  0.7529
 5270SOL    HW227444   0.483   0.300   0.837  0.5995  0.2121  1.4841
 5271SOL     OW27445   3.627   1.570   9.296  0.0792 -0.8151 -0.2005
 5271SOL    HW127446   3.539   1.588   9.330 -0.7669 -0.5724 -2.4552
 5271SOL    HW227447   3.665   1.512   9.362  2.3939 -1.0426 -1.7388
 5272SOL     OW27448   1.112   2.243   5.561 -0.1850 -0.4069 -0.2268
 5272SOL    HW127449   1.115   2.157   5.520 -0.1733  0.2756 -1.6439
 5272SOL    HW227450   1.018   2.249   5.577  0.1362  0.0843  1.5099
 5273SOL     OW27451   0.100   2.839   5.468 -0.8031  0.3081 -0.2144
 5273SOL    HW127452   0.088   2.933   5.478  1.1390  0.4904  0.5658
 5273SOL    HW227453   0.085   2.830   5.374 -1.1253 -2.1621  0.0875
 5274SOL     OW27454   3.386   1.229  13.370  0.3593  0.3992 -0.0903
 5274SOL    HW127455   3.432   1.147  13.389 -0.7461 -0.6710 -2.0105
 5274SOL    HW227456   3.359   1.219  13.278 -1.8228 -0.0518  0.6100
 5275SOL     OW27457   0.744   1.559   3.017  0.1058 -0.1705  0.4727
 5275SOL    HW127458   0.771   1.470   3.038  1.3349  0.2507  0.6664
 5275SOL    HW227459   0.656   1.556   2.979  0.7473  3.0456 -1.2450
 5276SOL     OW27460   1.895   2.714  15.734 -0.2819 -0.9552 -0.2560
 5276SOL    HW127461   1.824   2.778  15.732  1.8615  1.5124  2.8754
 5276SOL    HW227462   1.964   2.779  15.726 -0.2928 -0.9792 -0.5406
 5277SOL     OW27463   1.726   3.974   9.516  0.1873  0.0984 -0.0823
 5277SOL    HW127464   1.812   4.016   9.509  0.0169  0.3223 -0.8264
 5277SOL    HW227465   1.724   3.925   9.434 -0.3671  2.2940 -1.3782
 5278SOL     OW27466   3.281   1.035   4.874 -0.0470 -0.1522 -0.1692
 5278SOL    HW127467   3.352   1.016   4.936  1.0288 -0.2207 -1.4118
 5278SOL    HW227468   3.302   1.122   4.840 -0.6514  0.3572  0.7863
 5279SOL     OW27469   0.825   3.360   4.828  0.5899 -0.5010 -0.0410
 5279SOL    HW127470   0.866   3.292   4.881 -1.0133 -1.7248 -0.3785
 5279SOL    HW227471   0.905   3.393   4.788  0.6361  0.8007  1.1328
 5280SOL     OW27472   0.958   0.524  13.924 -0.0341 -0.2545 -0.1315
 5280SOL    HW127473   0.911   0.455  13.970  2.2267 -2.2906 -0.8474
 5280SOL    HW227474   0.968   0.588  13.994  1.3172  1.5416 -1.9390
 5281SOL     OW27475   3.562   2.911   2.999  0.2926  0.2909 -0.9069
 5281SOL    HW127476   3.491   2.887   2.939 -0.5878 -0.2510  0.3441
 5281SOL    HW227477   3.509   2.918   3.079  1.1962 -0.9268 -0.2115
 5282SOL     OW27478   3.214   3.433   6.167  0.4256  0.2177 -0.3509
 5282SOL    HW127479   3.136   3.447   6.221 -0.2179 -0.9946 -0.9828
 5282SOL    HW227480   3.272   3.393   6.232  1.2647 -0.8122 -1.7535
 5283SOL     OW27481   4.396   4.210   4.848  0.1978  0.1134 -0.5474
 5283SOL    HW127482   4.482   4.169   4.857  0.9782  2.4403  2.8236
 5283SOL    HW227483   4.388   4.234   4.756 -0.9036  0.2543 -0.4216
 5284SOL     OW27484   3.146   0.704   9.113  0.7648  0.4024 -0.9642
 5284SOL    HW127485   3.155   0.616   9.076 -0.5832  0.7022 -2.0216
 5284SOL    HW227486   3.116   0.690   9.203 -0.6481 -3.1062 -1.9576
 5285SOL     OW27487   1.404   0.646   5.449 -0.6450  0.3107  0.2729
 5285SOL    HW127488   1.416   0.733   5.412 -0.8910 -0.2240 -1.0749
 5285SOL    HW227489   1.493   0.615   5.461 -1.1593 -1.0423  0.5406
 5286SOL     OW27490   4.270   3.614   2.759 -0.0060 -0.0054  0.5060
 5286SOL    HW127491   4.276   3.552   2.831 -1.9602 -0.1905  0.5185
 5286SOL    HW227492   4.357   3.621   2.722 -0.9274  0.2860 -1.6064
 5287SOL     OW27493   1.297   0.663  15.320  0.1337 -0.0395  0.3570
 5287SOL    HW127494   1.337   0.676  15.406  0.1824 -0.1380  0.3498
 5287SOL    HW227495   1.317   0.570  15.310 -0.9920  0.0635 -2.6606
 5288SOL     OW27496   2.033   3.201   2.963  0.8842  0.0444 -0.1100
 5288SOL    HW127497   2.101   3.267   2.978  0.1300  0.2591  2.4126
 5288SOL    HW227498   1.966   3.224   3.027  1.0630 -1.7802  0.7426
 5289SOL     OW27499   1.906   1.763   5.468 -0.6124 -0.0934 -0.1027
 5289SOL    HW127500   1.987   1.711   5.462 -1.1585 -1.0004  0.5484
 5289SOL    HW227501   1.916   1.808   5.552 -0.4045  2.4421 -1.4670
 5290SOL     OW27502   0.460   2.314   8.159 -1.0724  0.6259  0.1064
 5290SOL    HW127503   0.466   2.242   8.097 -0.8521  0.2836  0.5251
 5290SOL    HW227504   0.437   2.384   8.097 -0.6588 -0.9607 -1.8333
 5291SOL     OW27505   4.650   0.476  14.246 -0.6105  0.2685 -0.1801
 5291SOL    HW127506   4.591   0.418  14.295  0.4858 -0.1624  0.6303
 5291SOL    HW227507   4.606   0.558  14.266 -2.0329 -0.2440 -1.1904
 5292SOL     OW27508   2.504   0.303   8.341 -0.6462 -0.3787  0.0021
 5292SOL    HW127509   2.588   0.308   8.296 -0.3765 -0.9953  0.4521
 5292SOL    HW227510   2.461   0.383   8.311  2.0045  0.8155 -0.6349
 5293SOL     OW27511   4.527   2.746  16.993 -0.3087 -0.6457  0.0943
 5293SOL    HW127512   4.583   2.819  17.018 -0.1141 -0.8562  0.2812
 5293SOL    HW227513   4.470   2.738  17.069  0.7426  1.6325  1.0833
 5294SOL     OW27514   0.055   1.852   8.189 -0.4634  0.3216 -0.2345
 5294SOL    HW127515   0.067   1.918   8.121 -0.7057  1.9800  1.3578
 5294SOL    HW227516   0.045   1.904   8.268 -0.5018 -0.4218  0.2445
 5295SOL     OW27517   0.664   4.678   8.201  0.1661  0.3839 -0.1807
 5295SOL    HW127518   0.734   0.005   8.189  1.0837 -0.4210  0.8323
 5295SOL    HW227519   0.681   4.664   8.294 -4.0021 -3.4891 -0.0261
 5296SOL     OW27520   2.742   0.200   0.764  0.7040  0.2809  0.2177
 5296SOL    HW127521   2.713   0.164   0.680  0.8589  1.6212 -0.4049
 5296SOL    HW227522   2.836   0.210   0.751  0.8362  2.1782  2.7450
 5297SOL     OW27523   4.021   4.088   5.509 -0.2726 -0.2160  0.1545
 5297SOL    HW127524   4.003   4.154   5.442 -0.1265 -1.4840 -1.1575
 5297SOL    HW227525   3.932   4.084   5.543 -0.8366 -0.1468 -1.2810
 5298SOL     OW27526   4.051   2.005  11.423  0.1712  0.4610 -0.1142
 5298SOL    HW127527   4.038   1.914  11.395  1.8068  0.1107  0.2556
 5298SOL    HW227528   4.043   1.999  11.518  0.9040 -0.3629 -0.1049
 5299SOL     OW27529   1.727   3.958   2.498 -0.2226  0.6112  0.0384
 5299SOL    HW127530   1.783   3.884   2.521  1.3122  1.8825  0.3725
 5299SOL    HW227531   1.696   3.923   2.415 -1.3832  0.7754  0.4005
 5300SOL     OW27532   2.892   3.301   1.269 -0.0619  0.0635 -0.1439
 5300SOL    HW127533   2.925   3.213   1.248 -2.9107 -0.7206 -1.3726
 5300SOL    HW227534   2.961   3.347   1.221  1.0478 -2.2888 -0.8187
 5301SOL     OW27535   1.424   0.843  14.648  0.0295  0.1455 -0.4745
 5301SOL    HW127536   1.513   0.811  14.637  0.0866 -0.4489  1.5882
 5301SOL    HW227537   1.392   0.763  14.689  1.1421  0.5372  1.1597
 5302SOL     OW27538   0.210   3.192   3.830 -0.2668 -0.4729  0.6294
 5302SOL    HW127539   0.159   3.137   3.890  0.2231 -1.1390  0.4272
 5302SOL    HW227540   0.138   3.239   3.787  1.1838 -1.5157 -2.9563
 5303SOL     OW27541   0.317   2.911  17.093  0.3667 -0.2006 -0.2667
 5303SOL    HW127542   0.351   2.902  17.004 -0.0766  0.1754 -0.4757
 5303SOL    HW227543   0.380   2.971  17.133  0.6826  1.0289 -2.6135
 5304SOL     OW27544   4.619   1.431   7.262  0.3881  0.0229  0.3600
 5304SOL    HW127545   4.562   1.455   7.189 -0.6291 -0.8876  0.8348
 5304SOL    HW227546   4.697   1.475   7.229 -0.1577  1.6928  1.3155
 5305SOL     OW27547   0.746   4.200   8.440  0.6074 -0.0700 -0.2681
 5305SOL    HW127548   0.776   4.267   8.379  0.0774  0.8250  0.4493
 5305SOL    HW227549   0.782   4.124   8.394  0.3529 -0.5600  0.3351
 5306SOL     OW27550   1.373   2.499  11.022 -0.1832  0.2170  0.0360
 5306SOL    HW127551   1.440   2.544  11.074 -0.7364 -0.8767  1.6808
 5306SOL    HW227552   1.411   2.414  11.045  2.7427  1.4996 -0.0049
 5307SOL     OW27553   0.963   3.081   4.732 -0.4909  0.3730 -0.2763
 5307SOL    HW127554   1.059   3.089   4.736 -0.5436  1.4330 -1.3706
 5307SOL    HW227555   0.940   3.073   4.825  0.0731  0.7248 -0.1079
 5308SOL     OW27556   2.042   4.559   0.117  0.3532  0.5686  0.3457
 5308SOL    HW127557   2.116   4.611   0.146  1.7265 -1.2492  0.0825
 5308SOL    HW227558   1.981   4.608   0.173 -2.1593 -2.5289  0.3273
 5309SOL     OW27559   0.909   2.094   1.767 -0.1255  0.2999  0.5774
 5309SOL    HW127560   0.992   2.074   1.724 -0.7375  0.3365 -0.6108
 5309SOL    HW227561   0.949   2.080   1.853  0.2411 -2.2339 -0.0140
 5310SOL     OW27562   4.346   0.260   8.841  0.1060  0.8319 -0.3808
 5310SOL    HW127563   4.440   0.244   8.847  0.0231  0.5851  0.3014
 5310SOL    HW227564   4.318   0.234   8.929 -0.6412  0.9056 -0.5970
 5311SOL     OW27565   4.638   4.337   8.663  0.0316 -0.2408  0.1606
 5311SOL    HW127566   4.716   4.356   8.609  0.3997  1.7614  1.4040
 5311SOL    HW227567   4.684   4.326   8.746  0.9018 -0.0004 -0.2880
 5312SOL     OW27568   3.173   0.107   2.394  0.3117 -0.3771  0.0972
 5312SOL    HW127569   3.124   0.028   2.420 -3.3807  1.7562 -0.3905
 5312SOL    HW227570   3.099   0.154   2.355  0.0705  0.4439  1.5474
 5313SOL     OW27571   4.636   2.537   2.020 -0.0585  0.3349  0.6297
 5313SOL    HW127572   4.702   2.573   1.960 -1.0990  1.3788  0.0920
 5313SOL    HW227573   4.566   2.603   2.019  0.4152  0.8407  1.0189
 5314SOL     OW27574   3.231   2.732   5.747 -0.6795 -0.7378 -0.1523
 5314SOL    HW127575   3.193   2.801   5.693  1.2012  1.5146  1.4384
 5314SOL    HW227576   3.224   2.658   5.687 -1.5257 -1.8934  1.3530
 5315SOL     OW27577   0.462   1.963   1.706 -0.0947 -0.1287 -0.0203
 5315SOL    HW127578   0.461   1.878   1.751  0.6970 -1.1619 -1.9453
 5315SOL    HW227579   0.550   1.960   1.667 -0.9409 -0.2134 -1.9290
 5316SOL     OW27580   1.139   3.680  12.337  0.0236  0.0696 -0.4803
 5316SOL    HW127581   1.183   3.603  12.303 -3.2887 -0.9270 -2.5717
 5316SOL    HW227582   1.133   3.739  12.262 -1.6998  0.8705  0.2756
 5317SOL     OW27583   0.856   0.902   0.561  0.4182  0.1572  0.2721
 5317SOL    HW127584   0.796   0.878   0.631 -1.2054 -0.9338 -1.4743
 5317SOL    HW227585   0.929   0.840   0.563  1.7862  1.8151  1.5065
 5318SOL     OW27586   3.364   3.532   3.873 -0.2332  1.0637  0.4172
 5318SOL    HW127587   3.341   3.614   3.917 -1.8406  0.4056  0.7989
 5318SOL    HW227588   3.454   3.523   3.903 -0.5342 -1.7326  0.4869
 5319SOL     OW27589   4.217   1.838   8.157  1.1349 -0.0507 -0.1480
 5319SOL    HW127590   4.143   1.780   8.139 -0.4218  1.5193  1.1359
 5319SOL    HW227591   4.282   1.770   8.175 -0.6107 -0.9624  2.7392
 5320SOL     OW27592   3.245   3.560  15.324 -0.4701  0.4862  0.1989
 5320SOL    HW127593   3.166   3.613  15.313 -0.8136  0.3537  2.0276
 5320SOL    HW227594   3.250   3.566  15.419 -0.0332  2.3547  0.0688
 5321SOL     OW27595   4.130   4.367   7.118 -0.8228 -0.5498  0.4638
 5321SOL    HW127596   4.166   4.331   7.199 -0.0571 -0.1101  0.3180
 5321SOL    HW227597   4.070   4.299   7.086 -2.5000  0.5049  1.4313
 5322SOL     OW27598   0.894   0.179   1.696 -0.2446 -0.3704 -0.1089
 5322SOL    HW127599   0.851   0.213   1.618 -1.8646  0.0805  0.9637
 5322SOL    HW227600   0.966   0.242   1.697 -0.5713  0.0012  0.1270
 5323SOL     OW27601   4.596   3.868   3.508 -0.1447  0.2383 -0.0633
 5323SOL    HW127602   4.549   3.889   3.427 -1.5451 -0.6365  0.5069
 5323SOL    HW227603   4.543   3.915   3.572  0.4251  0.9334 -0.1004
 5324SOL     OW27604   3.102   0.237   4.194  0.3565  0.1569  0.3644
 5324SOL    HW127605   3.061   0.308   4.245 -1.0046 -2.0691  2.3511
 5324SOL    HW227606   3.035   0.170   4.205 -1.5534  1.5737 -2.6275
 5325SOL     OW27607   3.597   3.124   7.180  0.0452  0.1800 -0.1420
 5325SOL    HW127608   3.691   3.141   7.190 -0.2788  2.5054 -0.9303
 5325SOL    HW227609   3.563   3.115   7.269  0.0544  0.2822 -0.1278
 5326SOL     OW27610   4.695   3.782   8.245 -0.0622 -0.0319  0.0727
 5326SOL    HW127611   0.024   3.834   8.290  0.8598 -0.2790 -0.9924
 5326SOL    HW227612   4.614   3.819   8.281 -0.5716 -1.7598  0.6807
 5327SOL     OW27613   1.619   1.820   4.235 -0.3633  0.0093 -0.6539
 5327SOL    HW127614   1.632   1.803   4.329 -1.5306 -1.3513 -0.7450
 5327SOL    HW227615   1.524   1.818   4.226 -0.5640 -0.7157  1.6260
 5328SOL     OW27616   0.853   1.475   4.452 -0.7235 -0.5073 -0.8765
 5328SOL    HW127617   0.918   1.507   4.389 -0.6800 -0.3555 -0.7554
 5328SOL    HW227618   0.861   1.381   4.438  0.1672 -0.5286 -0.2550
 5329SOL     OW27619   2.941   3.640   6.712  0.1320  0.1800  0.1142
 5329SOL    HW127620   2.855   3.605   6.731  0.3313  0.3717  1.3392
 5329SOL    HW227621   2.982   3.589   6.641 -0.1075  2.1016 -1.3881
 5330SOL     OW27622   0.562   2.443  14.051  0.2568 -0.4711 -0.1894
 5330SOL    HW127623   0.468   2.425  14.058  0.4874 -0.1282  3.6123
 5330SOL    HW227624   0.558   2.535  14.028 -1.3717 -0.0949  1.5883
 5331SOL     OW27625   3.226   3.863   6.114  0.0298  0.0432 -0.3710
 5331SOL    HW127626   3.210   3.907   6.031 -2.1162 -0.1180 -0.0449
 5331SOL    HW227627   3.283   3.789   6.092 -0.2987 -0.4313  0.3831
 5332SOL     OW27628   2.692   4.418   7.550  0.0242  0.3020 -0.0243
 5332SOL    HW127629   2.727   4.478   7.615 -0.2150  0.7834 -0.3424
 5332SOL    HW227630   2.602   4.445   7.529 -0.2516 -0.6120 -0.0244
 5333SOL     OW27631   3.339   0.949   7.014  0.3463  0.2492 -0.6344
 5333SOL    HW127632   3.331   0.939   6.919 -0.6931 -2.9119 -0.1980
 5333SOL    HW227633   3.247   0.938   7.039  0.7320 -1.7077 -0.1384
 5334SOL     OW27634   3.512   4.152   1.968 -0.0831  0.4988 -0.8144
 5334SOL    HW127635   3.520   4.152   2.064  1.2456  1.9649 -0.9203
 5334SOL    HW227636   3.597   4.122   1.936  0.2542  1.2285 -0.6257
 5335SOL     OW27637   0.505   2.622   2.538  0.2931  0.3498  0.2287
 5335SOL    HW127638   0.455   2.546   2.567  1.6299  0.2850  2.3488
 5335SOL    HW227639   0.436   2.687   2.549 -0.6326 -0.1761 -2.3970
 5336SOL     OW27640   3.243   2.349   1.393 -0.3806 -0.4499 -0.2573
 5336SOL    HW127641   3.227   2.432   1.438 -1.3645 -0.5703 -0.3906
 5336SOL    HW227642   3.265   2.374   1.303 -0.4151  1.6218  0.3158
 5337SOL     OW27643   2.131   1.051   1.392 -0.0062 -0.1954  0.1307
 5337SOL    HW127644   2.123   1.019   1.302 -1.2145  1.4537 -0.3527
 5337SOL    HW227645   2.219   1.090   1.389 -0.9025  1.7680 -1.0258
 5338SOL     OW27646   4.517   3.800   9.087 -0.0888  0.2356  0.0347
 5338SOL    HW127647   4.475   3.810   9.172  0.5430 -0.8904  0.4815
 5338SOL    HW227648   4.609   3.780   9.107  0.2785  1.3361 -0.5223
 5339SOL     OW27649   0.996   3.330   3.110 -0.5515  0.0929  0.7075
 5339SOL    HW127650   1.071   3.344   3.052 -1.5070  0.7024 -0.3651
 5339SOL    HW227651   0.997   3.235   3.097 -1.8721  0.3674 -1.3898
 5340SOL     OW27652   0.550   2.993   7.520 -0.7192 -0.7616 -0.2469
 5340SOL    HW127653   0.598   3.066   7.479 -0.8583  0.6890  2.1386
 5340SOL    HW227654   0.540   3.028   7.609 -1.4720  1.4608 -1.1939
 5341SOL     OW27655   3.480   3.442  13.562 -0.2269 -0.1131  0.0088
 5341SOL    HW127656   3.445   3.530  13.549  1.0061 -0.0278 -2.8789
 5341SOL    HW227657   3.443   3.421  13.647  0.4023 -0.4676  0.1924
 5342SOL     OW27658   1.712   1.216   1.444  0.2212  0.0637  0.4577
 5342SOL    HW127659   1.759   1.133   1.433 -1.9293 -0.7997 -2.3893
 5342SOL    HW227660   1.718   1.265   1.362  0.3704 -0.3142  0.2425
 5343SOL     OW27661   2.993   2.108   6.744  0.2609  0.1970 -0.0367
 5343SOL    HW127662   2.908   2.083   6.778  0.7505 -0.4537  0.7136
 5343SOL    HW227663   3.044   2.096   6.825  0.4122 -2.8949 -0.5826
 5344SOL     OW27664   0.782   1.073   9.041  0.5622  0.6657  1.0281
 5344SOL    HW127665   0.689   1.097   9.041  0.1242 -1.0258 -0.9653
 5344SOL    HW227666   0.796   1.077   8.946  0.2394 -2.7849  0.8172
 5345SOL     OW27667   4.096   1.665   0.961 -0.1359  0.5486 -0.2016
 5345SOL    HW127668   4.077   1.752   0.997  0.4552 -0.0864  1.6353
 5345SOL    HW227669   4.047   1.611   1.023 -0.6252 -0.6719 -1.6662
 5346SOL     OW27670   1.264   2.352   9.808 -0.2091  0.1863  0.5936
 5346SOL    HW127671   1.248   2.426   9.866  1.7605 -0.6616  2.2520
 5346SOL    HW227672   1.326   2.390   9.746 -1.8407 -0.5438 -1.4933
 5347SOL     OW27673   0.089   1.293  10.150 -0.2522 -0.3541 -0.5712
 5347SOL    HW127674   0.126   1.363  10.095 -0.7210 -1.0261 -1.7449
 5347SOL    HW227675   0.054   1.344  10.223 -0.9748  0.5335 -1.5267
 5348SOL     OW27676   1.095   1.931   3.685 -0.1861 -0.0345  0.2291
 5348SOL    HW127677   1.004   1.923   3.714 -0.7749  1.1388 -1.2933
 5348SOL    HW227678   1.115   1.838   3.674 -0.0443  0.2391 -1.8100
 5349SOL     OW27679   0.562   3.804   6.731 -0.2458 -0.2604 -0.0921
 5349SOL    HW127680   0.586   3.772   6.818  2.4497  0.1385 -0.6803
 5349SOL    HW227681   0.636   3.864   6.720  0.5584 -1.1653  0.3771
 5350SOL     OW27682   2.162   1.078  17.211  0.4397 -0.4689 -0.1167
 5350SOL    HW127683   2.188   0.986  17.209  0.8652 -0.3778  0.9969
 5350SOL    HW227684   2.189   1.098  17.301 -2.3819  2.7583  0.0032
 5351SOL     OW27685   2.860   1.957  10.447 -0.0940 -0.5857 -0.7144
 5351SOL    HW127686   2.856   1.870  10.408 -2.2936 -0.4787 -0.7365
 5351SOL    HW227687   2.769   1.978  10.428 -0.0089 -0.4057 -0.9175
 5352SOL     OW27688   4.066   2.101   7.537 -0.2750 -0.9049 -0.6063
 5352SOL    HW127689   4.005   2.055   7.479 -1.0762  0.2745 -0.7048
 5352SOL    HW227690   4.019   2.178   7.567  0.3369 -0.6349 -0.3468
 5353SOL     OW27691   2.926   2.436   6.174 -0.0023  0.9207 -0.5578
 5353SOL    HW127692   2.925   2.492   6.252  1.2291  0.2357 -0.0586
 5353SOL    HW227693   3.015   2.401   6.172 -1.3038 -2.3146 -2.2576
 5354SOL     OW27694   1.415   3.679   3.779  0.1668  0.1144 -0.2720
 5354SOL    HW127695   1.465   3.758   3.761 -1.4276  1.8520  3.0358
 5354SOL    HW227696   1.326   3.714   3.781  1.4366  3.1666  1.7175
 5355SOL     OW27697   1.654   0.761   2.977  0.0836  0.7077  0.7744
 5355SOL    HW127698   1.585   0.828   2.984 -0.8566  0.0594 -2.4064
 5355SOL    HW227699   1.715   0.797   3.042  2.4606 -1.8201 -0.0560
 5356SOL     OW27700   4.584   1.089   0.685  0.4780  0.4827 -0.3175
 5356SOL    HW127701   4.623   1.173   0.706  1.7427  0.6436 -3.3426
 5356SOL    HW227702   4.600   1.045   0.769  1.8815 -1.3433 -1.5222
 5357SOL     OW27703   3.663   2.902   8.435  0.2330 -0.1468  0.4319
 5357SOL    HW127704   3.653   2.886   8.529 -1.2719  0.3642  0.3537
 5357SOL    HW227705   3.662   2.812   8.400  0.3804 -0.2281  0.6376
 5358SOL     OW27706   0.300   0.188  10.032 -0.1952 -0.1387  0.5061
 5358SOL    HW127707   0.288   0.168   9.939 -0.1212  0.0595  0.4535
 5358SOL    HW227708   0.365   0.258  10.032 -3.2037  2.6665  0.3092
 5359SOL     OW27709   1.910   1.685   1.660  0.2457 -0.1932 -0.1839
 5359SOL    HW127710   1.964   1.619   1.617  1.9034  0.9648  0.1043
 5359SOL    HW227711   1.879   1.642   1.740  1.8576  0.0296  0.5527
 5360SOL     OW27712   3.787   1.500   8.699  0.0798  0.0169 -0.1152
 5360SOL    HW127713   3.735   1.421   8.689  1.0911 -0.8279  1.2688
 5360SOL    HW227714   3.826   1.486   8.786  0.1060  0.1419 -0.1062
 5361SOL     OW27715   0.686   0.802   9.276 -0.3443  0.2375 -0.1483
 5361SOL    HW127716   0.703   0.709   9.264 -0.9118  0.3337 -1.8117
 5361SOL    HW227717   0.752   0.825   9.341 -0.7648 -0.3863  0.5006
 5362SOL     OW27718   2.825   0.275   0.153 -0.0267  0.3674 -0.1765
 5362SOL    HW127719   2.792   0.245   0.069  1.0066  0.7023 -0.7045
 5362SOL    HW227720   2.790   0.364   0.160 -1.3492  0.0053 -2.4389
 5363SOL     OW27721   3.211   0.192   3.179  0.6346  0.0550  0.4657
 5363SOL    HW127722   3.282   0.132   3.201 -2.1721 -2.6260  2.0080
 5363SOL    HW227723   3.149   0.151   3.120 -1.1948  1.9996  1.0390
 5364SOL     OW27724   1.872   0.985   7.137 -0.8870  0.1907  0.1804
 5364SOL    HW127725   1.948   0.930   7.119 -2.2228 -1.5632 -0.1177
 5364SOL    HW227726   1.892   1.000   7.229 -0.0555  1.8401 -0.2634
 5365SOL     OW27727   2.704   3.210  13.478 -1.1146  0.2987  0.0213
 5365SOL    HW127728   2.625   3.172  13.442  0.3477 -2.6392 -0.1205
 5365SOL    HW227729   2.716   3.176  13.567  0.8368  1.4144  0.1862
 5366SOL     OW27730   0.601   3.432   8.548 -0.2054 -0.1086  0.1115
 5366SOL    HW127731   0.663   3.374   8.592  0.6508 -0.7675 -1.9559
 5366SOL    HW227732   0.593   3.398   8.459  0.6491  1.5783 -0.6070
 5367SOL     OW27733   3.116   3.536   9.082 -0.1374 -0.3411  0.8585
 5367SOL    HW127734   3.158   3.469   9.028 -1.0526 -0.0836 -0.1779
 5367SOL    HW227735   3.129   3.503   9.171 -0.0147  2.6532  1.9354
 5368SOL     OW27736   1.152   3.558   7.124 -0.8764 -0.7052  0.3170
 5368SOL    HW127737   1.110   3.472   7.131  0.7331 -1.4449  0.7855
 5368SOL    HW227738   1.181   3.565   7.033 -0.7805  0.4504  0.4388
 5369SOL     OW27739   4.547   1.859   5.518  0.5437  0.1057  0.8424
 5369SOL    HW127740   4.583   1.772   5.538  1.1117  0.5313  1.6848
 5369SOL    HW227741   4.459   1.847   5.481  1.1490  1.5522 -1.0694
 5370SOL     OW27742   4.359   0.407   7.024 -0.2365 -0.4866  0.0034
 5370SOL    HW127743   4.317   0.324   7.044 -2.1038  0.5578  0.4688
 5370SOL    HW227744   4.360   0.405   6.929  1.6390 -0.6075  0.0300
 5371SOL     OW27745   0.089   2.438   8.019 -1.0975  0.7065 -0.5342
 5371SOL    HW127746   0.063   2.517   7.971 -0.2200  1.9587  1.0799
 5371SOL    HW227747   0.183   2.428   8.002 -1.2936 -3.1820  0.5395
 5372SOL     OW27748   3.645   0.338   5.934  0.3289 -0.1537  0.1032
 5372SOL    HW127749   3.624   0.333   6.027 -1.0562  3.2367 -0.0190
 5372SOL    HW227750   3.573   0.395   5.907 -1.0685  0.4288  5.1029
 5373SOL     OW27751   0.161   0.988  16.594 -0.0472 -0.2428 -0.0317
 5373SOL    HW127752   0.103   1.018  16.664 -0.1360 -0.1662 -0.1364
 5373SOL    HW227753   0.243   0.971  16.640 -1.4626 -1.6702  1.9701
 5374SOL     OW27754   0.085   0.492   7.086  0.1711 -0.1255 -0.6409
 5374SOL    HW127755   0.030   0.543   7.027 -0.1609 -0.7752 -0.8835
 5374SOL    HW227756   0.140   0.564   7.116 -1.7794  0.7527  0.8224
 5375SOL     OW27757   3.744   4.629   3.433 -0.0166 -0.2322 -0.7693
 5375SOL    HW127758   3.710   4.541   3.450  0.3683  0.0228  1.3560
 5375SOL    HW227759   3.824   4.621   3.486 -0.0899  0.3023 -0.5768
 5376SOL     OW27760   0.861   4.017   5.888 -0.0587 -0.2158  0.3289
 5376SOL    HW127761   0.895   4.081   5.950  1.5400 -0.6031 -0.1465
 5376SOL    HW227762   0.794   3.978   5.944 -0.9596 -0.3177 -0.8271
 5377SOL     OW27763   0.098   4.609   0.764 -0.3162 -0.1195  0.0576
 5377SOL    HW127764   0.075   4.614   0.857  0.0779 -2.7451  0.2840
 5377SOL    HW227765   0.193   4.615   0.753 -0.4342 -1.7131 -1.8505
 5378SOL     OW27766   1.070   0.609  14.484  0.3292 -0.6767 -0.3202
 5378SOL    HW127767   1.134   0.666  14.440  0.6419  1.1626  2.5182
 5378SOL    HW227768   1.108   0.596  14.571  0.2900  0.8253 -0.0735
 5379SOL     OW27769   1.702   2.818   7.865 -0.0362 -0.3600 -0.1624
 5379SOL    HW127770   1.707   2.851   7.775 -0.4268 -3.7628 -1.4108
 5379SOL    HW227771   1.675   2.891   7.920  2.7446  0.1740  0.4621
 5380SOL     OW27772   3.042   3.014  17.346 -0.1585 -0.3809 -0.1439
 5380SOL    HW127773   3.069   2.925  17.322  2.2053  0.0057  1.1230
 5380SOL    HW227774   3.118   3.067  17.369 -1.5872  1.5057  0.2241
 5381SOL     OW27775   2.753   1.042   3.528 -0.1240  0.2434 -0.0955
 5381SOL    HW127776   2.706   1.068   3.607  0.3362 -0.0360  0.2716
 5381SOL    HW227777   2.684   0.980   3.510  0.5166 -0.0083 -1.6441
 5382SOL     OW27778   1.791   3.940   0.779  0.6428 -0.5937 -0.2827
 5382SOL    HW127779   1.702   3.966   0.753 -0.0999 -1.7639  1.0575
 5382SOL    HW227780   1.850   3.964   0.708 -1.4877 -1.1900 -2.2474
 5383SOL     OW27781   1.998   2.859  12.985 -0.2266 -0.0107  0.4227
 5383SOL    HW127782   1.947   2.807  12.924  1.1145 -2.1860  1.1344
 5383SOL    HW227783   1.935   2.909  13.038  0.7830  1.7412 -0.0064
 5384SOL     OW27784   3.274   2.796   1.930 -0.1853  0.1374  0.5623
 5384SOL    HW127785   3.299   2.838   2.012  1.1546  1.1634 -0.3859
 5384SOL    HW227786   3.317   2.854   1.868  0.5228  0.2097  1.1274
 5385SOL     OW27787   1.873   3.164   7.767  0.1506  0.4429  0.3495
 5385SOL    HW127788   1.850   3.222   7.695 -0.6596 -1.5980 -1.0296
 5385SOL    HW227789   1.875   3.219   7.846  0.1814  2.7702 -1.2928
 5386SOL     OW27790   3.928   1.933   5.811  0.1230 -0.0496  0.2990
 5386SOL    HW127791   3.915   1.985   5.731 -0.3798  0.6527  0.8442
 5386SOL    HW227792   3.944   1.848   5.770  2.2529  1.1405 -1.3834
 5387SOL     OW27793   1.956   0.339   3.577 -0.2318 -0.4081 -0.1426
 5387SOL    HW127794   1.913   0.292   3.648 -0.0992 -0.0508  0.1769
 5387SOL    HW227795   1.982   0.267   3.520 -0.2526 -2.0119  1.8716
 5388SOL     OW27796   3.789   3.944   8.336  0.1612 -0.0521 -0.4282
 5388SOL    HW127797   3.820   3.912   8.252 -3.1977 -0.1064 -1.6455
 5388SOL    HW227798   3.732   4.013   8.302  1.3811  1.4558  0.5644
 5389SOL     OW27799   3.458   3.046  16.668 -0.5923 -0.6457 -0.3455
 5389SOL    HW127800   3.480   3.133  16.634 -0.1719 -0.9295 -0.8008
 5389SOL    HW227801   3.528   3.040  16.733  0.7511 -0.7353 -1.7749
 5390SOL     OW27802   0.826   3.979   1.842  0.6693  0.1050 -0.3582
 5390SOL    HW127803   0.793   3.915   1.779 -0.6475 -1.5992  2.0579
 5390SOL    HW227804   0.915   3.979   1.809  0.1493  0.3724 -1.7659
 5391SOL     OW27805   0.830   1.658   5.477  0.2265  0.1038 -0.2221
 5391SOL    HW127806   0.853   1.748   5.453  3.1221 -0.7515 -0.6397
 5391SOL    HW227807   0.743   1.684   5.505  0.4005 -0.0271  0.4224
 5392SOL     OW27808   3.649   0.282  14.602  0.2439 -0.3688  0.1966
 5392SOL    HW127809   3.642   0.267  14.696  0.0922  1.3333  0.4489
 5392SOL    HW227810   3.556   0.284  14.577  0.1322  3.4952  1.0138
 5393SOL     OW27811   1.473   2.458   9.432 -0.2199 -0.4481  0.0389
 5393SOL    HW127812   1.483   2.515   9.355 -1.5877  1.2286  1.0978
 5393SOL    HW227813   1.503   2.377   9.391 -2.3707 -0.6101 -1.2281
 5394SOL     OW27814   3.660   3.545   3.638  0.0838  0.3307 -0.3461
 5394SOL    HW127815   3.601   3.618   3.621 -0.8412 -0.0524  1.1820
 5394SOL    HW227816   3.745   3.578   3.609  0.8040 -0.6192  0.6746
 5395SOL     OW27817   4.220   3.765   3.051 -0.1930  0.3150  0.6339
 5395SOL    HW127818   4.169   3.723   3.120  0.9678 -0.2945  1.1296
 5395SOL    HW227819   4.272   3.693   3.016 -0.6953  0.2026  0.1311
 5396SOL     OW27820   0.305   2.179  17.522 -0.1260 -0.6174 -0.4072
 5396SOL    HW127821   0.278   2.169  17.613  2.1259  0.0582  0.3481
 5396SOL    HW227822   0.228   2.230  17.499  0.3001  0.0165 -0.4469
 5397SOL     OW27823   2.740   0.435   6.503  0.2597 -0.2627 -0.0823
 5397SOL    HW127824   2.750   0.396   6.590  0.9204  2.0462  0.8789
 5397SOL    HW227825   2.678   0.503   6.528 -1.0562 -0.9444 -1.4868
 5398SOL     OW27826   2.908   0.898   2.127  0.0883 -0.2157  0.0979
 5398SOL    HW127827   2.909   0.910   2.032  0.1501  0.4143  0.1762
 5398SOL    HW227828   2.910   0.989   2.158 -0.4609  0.6499 -2.3689
 5399SOL     OW27829   2.651   3.830   2.217 -0.2507 -0.0467 -0.2180
 5399SOL    HW127830   2.570   3.781   2.235 -0.4932  0.2426 -0.5192
 5399SOL    HW227831   2.618   3.879   2.142  0.2045  0.5738 -0.0140
 5400SOL     OW27832   2.667   3.848   8.509 -0.5656  0.1073  0.0459
 5400SOL    HW127833   2.751   3.810   8.483  0.8160  2.1953  1.4837
 5400SOL    HW227834   2.663   3.823   8.602 -1.0804  2.7992  0.7559
 5401SOL     OW27835   0.489   0.463   2.429  0.1751 -0.5080  0.6368
 5401SOL    HW127836   0.480   0.445   2.523 -0.2854  0.7901  0.8425
 5401SOL    HW227837   0.459   0.381   2.392 -0.5088  0.8953 -1.9288
 5402SOL     OW27838   2.281   4.334   0.057 -0.2698 -0.2132 -0.0371
 5402SOL    HW127839   2.272   4.379   0.142  2.1772  2.9644 -1.4381
 5402SOL    HW227840   2.371   4.303   0.070  0.1237  0.5693 -0.9503
 5403SOL     OW27841   0.146   3.658  12.067 -0.2366 -0.2002 -0.1268
 5403SOL    HW127842   0.144   3.745  12.106 -0.6758  0.2495 -1.1809
 5403SOL    HW227843   0.077   3.676  12.003  0.2783 -0.2698 -0.6996
 5404SOL     OW27844   4.311   3.617   5.268 -0.0687  0.3819 -0.3986
 5404SOL    HW127845   4.391   3.614   5.215 -0.4868  1.9330 -1.1028
 5404SOL    HW227846   4.282   3.526   5.278  0.3188  0.3467  0.3796
 5405SOL     OW27847   4.126   2.279   1.806  0.5830 -0.3396  0.7261
 5405SOL    HW127848   4.160   2.281   1.895  0.6880  0.8299  0.6534
 5405SOL    HW227849   4.063   2.351   1.810  0.6213 -0.2308 -0.5771
 5406SOL     OW27850   1.925   1.361   5.385  0.3066  0.0812 -0.0614
 5406SOL    HW127851   1.995   1.345   5.321  1.0067  0.2759  0.6537
 5406SOL    HW227852   1.931   1.454   5.407 -0.9926  0.4993 -1.5378
 5407SOL     OW27853   3.101   4.095   4.568 -0.2745  0.1324  0.6103
 5407SOL    HW127854   3.096   3.999   4.566 -0.8283  0.2105 -1.6258
 5407SOL    HW227855   3.195   4.114   4.567 -0.6469  1.7085 -2.6556
 5408SOL     OW27856   2.090   0.825   2.538 -0.1040  0.4174  0.5309
 5408SOL    HW127857   2.034   0.824   2.461 -0.7165  3.4290  0.9412
 5408SOL    HW227858   2.166   0.872   2.505 -2.0334  1.3943 -2.5267
 5409SOL     OW27859   3.428   3.231   2.931  0.1754 -0.8125  0.2341
 5409SOL    HW127860   3.490   3.305   2.927 -1.8267  0.8997  0.6961
 5409SOL    HW227861   3.421   3.200   2.841  0.0170 -0.3319  0.0808
 5410SOL     OW27862   2.924   2.091   2.456  0.2182  0.8258 -0.6855
 5410SOL    HW127863   2.895   2.010   2.413 -0.9483  0.8361  0.0605
 5410SOL    HW227864   2.846   2.112   2.508 -0.0493 -0.3938 -0.5875
 5411SOL     OW27865   2.761   0.996   0.772  0.5105 -0.8244 -0.1539
 5411SOL    HW127866   2.827   0.971   0.836  1.1883 -0.8512 -0.8650
 5411SOL    HW227867   2.806   0.981   0.689  1.7887  3.7689 -0.3232
 5412SOL     OW27868   2.796   1.605   1.863 -0.2890  0.7085 -0.2802
 5412SOL    HW127869   2.792   1.677   1.800  0.0395  1.9297  1.1134
 5412SOL    HW227870   2.742   1.641   1.933  1.9292  0.1431  1.7098
 5413SOL     OW27871   1.041   1.596   5.645  0.1945 -0.1542  0.6244
 5413SOL    HW127872   0.988   1.622   5.569  0.4345  3.3689  1.7043
 5413SOL    HW227873   0.981   1.623   5.715  0.0572 -1.4717  1.0311
 5414SOL     OW27874   2.155   1.861   2.624 -0.1444  0.2632  0.4787
 5414SOL    HW127875   2.239   1.827   2.654 -0.8241 -1.3720  0.5648
 5414SOL    HW227876   2.091   1.802   2.664  1.1943 -1.3963  0.1756
 5415SOL     OW27877   1.847   1.249   6.613 -0.3159  0.0777  0.1426
 5415SOL    HW127878   1.814   1.299   6.688 -3.1674 -0.5698 -0.6690
 5415SOL    HW227879   1.799   1.291   6.542  0.6203  1.6452  0.4537
 5416SOL     OW27880   1.915   2.901   7.395 -0.2131  0.1543  0.2611
 5416SOL    HW127881   1.878   2.837   7.456 -1.3182  0.6883  0.1544
 5416SOL    HW227882   1.868   2.878   7.314 -1.5287 -1.4847  1.4886
 5417SOL     OW27883   3.506   0.265   7.789  0.4013  0.0420 -0.8360
 5417SOL    HW127884   3.508   0.360   7.798 -1.9036  0.1699 -1.7962
 5417SOL    HW227885   3.412   0.252   7.779  0.8627 -2.7073 -1.5879
 5418SOL     OW27886   0.923   1.278   1.897  0.0898 -0.1366 -0.0898
 5418SOL    HW127887   0.929   1.311   1.987 -0.3069 -0.4083  0.0325
 5418SOL    HW227888   1.001   1.222   1.896 -0.9450 -1.5314 -2.0712
 5419SOL     OW27889   1.562   3.565   8.846 -0.0150  0.2218 -0.4075
 5419SOL    HW127890   1.474   3.601   8.834 -0.1902 -0.5780 -1.4059
 5419SOL    HW227891   1.602   3.567   8.759  0.8868  0.7198  0.0112
 5420SOL     OW27892   1.076   2.823   7.866  0.2020  0.2925  0.7823
 5420SOL    HW127893   1.142   2.872   7.817 -0.3397 -1.0767 -1.3343
 5420SOL    HW227894   1.086   2.735   7.831 -1.3606  0.5227 -0.2581
 5421SOL     OW27895   2.958   2.059   2.811 -0.1196 -0.0585  0.3524
 5421SOL    HW127896   2.866   2.063   2.785 -0.6608 -2.2208  1.8756
 5421SOL    HW227897   2.981   1.968   2.792  0.4719  0.0276  0.6369
 5422SOL     OW27898   1.148   1.911   2.795 -0.4338  0.1434  0.0971
 5422SOL    HW127899   1.119   1.871   2.877 -0.4619  1.5939  0.7965
 5422SOL    HW227900   1.227   1.860   2.779 -0.3352 -0.0049  1.0734
 5423SOL     OW27901   3.510   1.390   7.495 -0.2473 -1.0743  0.1405
 5423SOL    HW127902   3.492   1.299   7.473  1.5183 -1.1990 -0.8339
 5423SOL    HW227903   3.467   1.442   7.427  0.0687 -1.5041 -0.3844
 5424SOL     OW27904   0.287   2.013   2.835  0.3489  0.1962  0.4214
 5424SOL    HW127905   0.369   2.060   2.853  1.6442 -1.2390 -1.6647
 5424SOL    HW227906   0.311   1.934   2.787  0.7909  0.7947 -0.3482
 5425SOL     OW27907   2.866   1.068   5.582  0.1618 -0.3103 -0.4306
 5425SOL    HW127908   2.832   1.156   5.567  0.3922 -0.0988  0.2842
 5425SOL    HW227909   2.935   1.092   5.644  0.4108 -0.5145 -0.6317
 5426SOL     OW27910   4.533   1.958   2.084  0.5770 -0.8289  0.3655
 5426SOL    HW127911   4.464   1.893   2.074 -2.0385  1.5689  2.8340
 5426SOL    HW227912   4.601   1.916   2.138 -0.1432  0.1526  2.0346
 5427SOL     OW27913   2.879   0.186   7.786 -0.1771 -0.3708  0.6440
 5427SOL    HW127914   2.921   0.252   7.732 -0.7692 -0.1508  0.4521
 5427SOL    HW227915   2.853   0.121   7.722  0.2926  0.1657 -0.0894
 5428SOL     OW27916   1.955   0.475   2.258  0.2083 -0.4291 -0.2026
 5428SOL    HW127917   1.926   0.388   2.231 -1.1798 -0.2684  0.7544
 5428SOL    HW227918   1.870   0.519   2.259  0.2376 -0.3827  0.2734
 5429SOL     OW27919   1.663   0.054   7.167  0.1064  0.6124  0.6060
 5429SOL    HW127920   1.582   0.050   7.117  0.8330 -0.0139 -0.5235
 5429SOL    HW227921   1.636   0.030   7.256  0.3431 -3.3476 -0.3711
 5430SOL     OW27922   4.035   1.344   2.751  0.0116 -0.3741 -0.0282
 5430SOL    HW127923   3.974   1.283   2.791  0.5508 -0.6287  0.4022
 5430SOL    HW227924   4.063   1.388   2.832  1.5474  1.7594 -1.6941
 5431SOL     OW27925   0.606   4.374   0.626  0.3083 -0.2193 -0.3165
 5431SOL    HW127926   0.680   4.395   0.570  0.4721 -0.1193 -0.0613
 5431SOL    HW227927   0.640   4.417   0.705 -0.1995  2.5352 -1.6146
 5432SOL     OW27928   1.627   2.661  16.745 -0.0156 -1.1142  0.4067
 5432SOL    HW127929   1.675   2.680  16.825 -1.7706 -0.6137  1.3258
 5432SOL    HW227930   1.702   2.643  16.688  0.5386  3.8280 -0.4039
 5433SOL     OW27931   0.973   0.131   9.585  0.4953  0.1840  0.3814
 5433SOL    HW127932   0.940   0.216   9.555  1.1531  0.6827  1.0727
 5433SOL    HW227933   0.999   0.148   9.676  1.0078  2.3287 -0.1684
 5434SOL     OW27934   1.174   2.547   6.922 -0.2711 -0.1482  0.2288
 5434SOL    HW127935   1.165   2.507   6.836 -0.8652  4.2343 -1.7345
 5434SOL    HW227936   1.233   2.622   6.912 -2.1738  1.5695  1.9010
 5435SOL     OW27937   3.685   2.083   8.448 -0.5166 -0.0190  0.1308
 5435SOL    HW127938   3.678   1.989   8.469  0.1588 -0.6879 -2.6292
 5435SOL    HW227939   3.681   2.072   8.353  2.4680  3.4607 -0.3596
 5436SOL     OW27940   1.434   4.527   7.600 -0.2048 -0.0940 -0.3194
 5436SOL    HW127941   1.363   4.585   7.628 -0.2270 -0.3708  0.1925
 5436SOL    HW227942   1.427   4.449   7.655 -1.3363  0.8952  0.9369
 5437SOL     OW27943   3.484   3.087   7.425  0.5395 -0.3689  0.1732
 5437SOL    HW127944   3.509   3.137   7.502 -1.5670 -0.1242  0.7113
 5437SOL    HW227945   3.388   3.096   7.421  0.7393  1.5343 -0.1041
 5438SOL     OW27946   3.243   3.421  17.207 -0.0393  0.5039 -0.6040
 5438SOL    HW127947   3.213   3.359  17.141  1.0207 -1.8192  1.0864
 5438SOL    HW227948   3.193   3.501  17.191  0.9286  1.2927  0.2648
 5439SOL     OW27949   1.039   4.019  12.861  0.2949  0.1582  0.1238
 5439SOL    HW127950   1.115   4.075  12.845  0.2321  0.4856  0.9940
 5439SOL    HW227951   0.963   4.064  12.825 -0.4089 -1.4762 -0.4499
 5440SOL     OW27952   4.102   3.787   4.874 -0.1416 -0.3847  0.1931
 5440SOL    HW127953   4.086   3.727   4.946 -2.8101  0.1200  0.0127
 5440SOL    HW227954   4.184   3.755   4.837 -0.9181 -0.8141 -1.1285
 5441SOL     OW27955   0.599   1.183  15.221 -0.3481 -0.2833 -0.4907
 5441SOL    HW127956   0.694   1.187  15.236 -0.0163 -2.2649 -2.0477
 5441SOL    HW227957   0.578   1.095  15.251  1.9987 -1.3206 -1.8359
 5442SOL     OW27958   0.548   1.783  14.593  0.3549  0.4287  0.0699
 5442SOL    HW127959   0.526   1.865  14.549 -1.7030 -2.1514 -3.6882
 5442SOL    HW227960   0.530   1.720  14.524 -0.1659  0.6554  0.0007
 5443SOL     OW27961   0.182   2.473   3.785 -0.1149  0.0004 -0.3736
 5443SOL    HW127962   0.257   2.447   3.731 -0.1785  0.8152 -0.8571
 5443SOL    HW227963   0.113   2.484   3.720 -1.8273 -0.0791  1.4303
 5444SOL     OW27964   2.501   1.646   0.002 -0.0895 -0.1332 -0.4683
 5444SOL    HW127965   2.485   1.608   0.088 -2.7350  1.0126 -0.4374
 5444SOL    HW227966   2.545   1.577  17.701  0.2819  0.5806 -1.1654
 5445SOL     OW27967   0.991   3.351   1.070  0.4395  0.5927  0.8420
 5445SOL    HW127968   0.968   3.285   1.136 -1.5963  1.6102  1.1412
 5445SOL    HW227969   1.074   3.314   1.041  1.0092  2.7599 -0.2998
 5446SOL     OW27970   3.445   4.498   8.633  0.0380 -0.1999 -0.0607
 5446SOL    HW127971   3.523   4.540   8.598  0.2002  0.2788  0.8907
 5446SOL    HW227972   3.382   4.570   8.621 -0.0565 -0.0686  1.2630
 5447SOL     OW27973   0.455   1.369  15.364  0.0575  0.7076  0.3654
 5447SOL    HW127974   0.536   1.420  15.369  0.2751  0.3361  0.5798
 5447SOL    HW227975   0.493   1.288  15.330 -0.2446  1.2955 -1.3538
 5448SOL     OW27976   2.688   1.836   4.498  0.0741 -0.7966 -0.0623
 5448SOL    HW127977   2.731   1.892   4.562 -0.8163  0.7215 -0.8045
 5448SOL    HW227978   2.689   1.754   4.547  3.4118 -0.0334  1.1139
 5449SOL     OW27979   0.938   0.103   2.444 -0.0014 -0.8217  0.0011
 5449SOL    HW127980   0.903   0.053   2.370 -0.6059 -0.6600  0.1801
 5449SOL    HW227981   1.031   0.080   2.440  0.0589 -0.5310 -0.1903
 5450SOL     OW27982   3.091   4.110   7.370 -0.1345  0.1027  0.1314
 5450SOL    HW127983   3.128   4.120   7.282  1.8264  0.6675  1.0359
 5450SOL    HW227984   3.111   4.018   7.385  0.2299  0.1733  0.0725
 5451SOL     OW27985   3.321   2.002   2.976 -0.0021  0.4936 -0.4707
 5451SOL    HW127986   3.288   1.930   3.029  0.2514 -0.0419 -1.0381
 5451SOL    HW227987   3.416   1.989   2.970 -0.2793 -0.6438 -2.4890
 5452SOL     OW27988   0.413   1.698  14.799 -0.0942  0.2100  0.0589
 5452SOL    HW127989   0.469   1.685  14.876 -2.8152  0.4712  2.1091
 5452SOL    HW227990   0.471   1.742  14.737  0.6529 -0.8638  0.0007
 5453SOL     OW27991   0.667   3.517  15.338 -0.5670 -0.0775  0.4570
 5453SOL    HW127992   0.622   3.476  15.412 -2.4993  1.1255 -0.0463
 5453SOL    HW227993   0.618   3.599  15.338  0.6397  0.6406 -0.6027
 5454SOL     OW27994   3.773   2.914   6.139  0.1246 -0.4201 -0.3642
 5454SOL    HW127995   3.829   2.972   6.190  1.1354 -1.1529 -0.6354
 5454SOL    HW227996   3.691   2.960   6.154  0.0573 -0.8782  0.6708
 5455SOL     OW27997   4.591   1.583   4.234 -0.1428  0.1799 -0.9171
 5455SOL    HW127998   4.546   1.513   4.187  3.0384 -3.3176  1.2535
 5455SOL    HW227999   4.601   1.645   4.162 -0.7198  0.6462 -0.5964
 5456SOL     OW28000   2.254   2.458   2.003  0.4448  0.1001 -0.2553
 5456SOL    HW128001   2.325   2.409   1.962 -0.6762 -1.4749 -0.3361
 5456SOL    HW228002   2.261   2.418   2.090  1.0560  0.3663 -0.1834
 5457SOL     OW28003   0.468   3.626   5.495 -0.1051 -0.7294  0.0193
 5457SOL    HW128004   0.494   3.637   5.403 -0.4974  0.2607  0.0203
 5457SOL    HW228005   0.424   3.707   5.520  0.7639 -0.4028  0.4832
 5458SOL     OW28006   2.028   1.363   5.700 -0.1581 -0.1471  0.3598
 5458SOL    HW128007   2.054   1.393   5.613 -2.6796 -0.3815 -0.4621
 5458SOL    HW228008   1.999   1.446   5.737  2.5992  1.5122 -1.2026
 5459SOL     OW28009   0.914   3.685   9.009 -0.2553  0.3662 -0.3993
 5459SOL    HW128010   0.864   3.723   9.081 -1.6574  0.5083 -1.4398
 5459SOL    HW228011   0.925   3.595   9.038 -1.4586 -0.0604 -1.2267
 5460SOL     OW28012   1.431   1.993   2.343 -0.3509  0.1013 -0.1684
 5460SOL    HW128013   1.482   2.074   2.346 -0.4769  0.1232  1.8168
 5460SOL    HW228014   1.464   1.946   2.267  1.2646  1.7261 -0.4742
 5461SOL     OW28015   3.833   1.170   5.350 -0.2767 -0.0338 -0.0457
 5461SOL    HW128016   3.862   1.261   5.349 -1.8816  0.4878  5.1732
 5461SOL    HW228017   3.901   1.139   5.289 -1.3413 -0.4535 -1.0135
 5462SOL     OW28018   4.317   3.710   4.724  0.4304 -0.1225  0.0558
 5462SOL    HW128019   4.380   3.774   4.692  1.4230 -0.7026  0.8302
 5462SOL    HW228020   4.366   3.647   4.778  0.1555 -2.0751 -1.9648
 5463SOL     OW28021   3.081   3.833   8.255 -0.0529 -0.3080  0.4254
 5463SOL    HW128022   3.075   3.925   8.280 -1.1458 -0.9837  2.6623
 5463SOL    HW228023   3.092   3.795   8.342 -1.0284  0.6231  0.9660
 5464SOL     OW28024   1.045   2.179   2.793 -0.2937 -0.1846 -0.0726
 5464SOL    HW128025   1.090   2.204   2.712 -1.2266 -0.9237 -0.8210
 5464SOL    HW228026   1.044   2.084   2.785  0.2177 -0.0804 -1.3179
 5465SOL     OW28027   4.486   3.291   3.603  0.2708  0.1154 -0.1396
 5465SOL    HW128028   4.502   3.288   3.508 -2.6657 -0.7944 -0.6115
 5465SOL    HW228029   4.398   3.328   3.614  0.3853  0.4786 -0.4426
 5466SOL     OW28030   1.636   4.017  15.738  0.0965  0.2756 -0.6646
 5466SOL    HW128031   1.698   4.067  15.686 -0.7546  1.9634 -0.0852
 5466SOL    HW228032   1.594   3.958  15.675 -1.2186  0.5086 -0.0155
 5467SOL     OW28033   0.069   0.797   4.919 -0.2088  0.6741  0.1767
 5467SOL    HW128034   4.733   0.753   4.874 -1.5369  0.4549  2.5176
 5467SOL    HW228035   0.141   0.751   4.876 -0.4764 -0.6017  1.0865
 5468SOL     OW28036   0.685   2.495   7.640 -0.0008  0.0087 -0.1526
 5468SOL    HW128037   0.593   2.494   7.616 -0.5797  1.3687  2.0393
 5468SOL    HW228038   0.716   2.564   7.581  1.0025  0.4422  0.8865
 5469SOL     OW28039   0.066   4.413  17.739  0.0997  0.0952  0.1366
 5469SOL    HW128040   0.026   4.419  17.652  0.4505  1.6083  0.0607
 5469SOL    HW228041   0.161   4.414  17.725  0.5263 -0.3281  2.9829
 5470SOL     OW28042   3.793   3.441  11.846  0.1886  0.4816 -1.0235
 5470SOL    HW128043   3.817   3.380  11.776 -1.7105  1.0589 -2.1864
 5470SOL    HW228044   3.771   3.376  11.913 -0.0324 -0.2084 -1.7601
 5471SOL     OW28045   1.338   0.804  17.045  0.1491  0.7104 -0.5620
 5471SOL    HW128046   1.371   0.775  16.960  2.4427 -0.3595  0.7141
 5471SOL    HW228047   1.338   0.724  17.097 -3.8168 -0.3108 -2.0835
 5472SOL     OW28048   4.364   3.065   2.608 -0.1748 -0.1370 -0.2286
 5472SOL    HW128049   4.387   3.106   2.691  0.7323 -1.1348  0.0116
 5472SOL    HW228050   4.370   2.975   2.640  0.7861  0.7593  2.0883
 5473SOL     OW28051   3.289   2.767   6.496  0.4341  0.5779  0.1694
 5473SOL    HW128052   3.243   2.755   6.579 -0.8074  0.1772 -0.5815
 5473SOL    HW228053   3.212   2.777   6.440  0.7688  1.7474 -0.0800
 5474SOL     OW28054   3.625   4.232   9.116  0.2074  0.0949  0.3829
 5474SOL    HW128055   3.683   4.276   9.054 -1.9834  0.7611 -1.1619
 5474SOL    HW228056   3.598   4.156   9.064 -0.1121 -0.9088  2.0034
 5475SOL     OW28057   4.288   3.116   3.346  0.0520  0.3611  0.0814
 5475SOL    HW128058   4.331   3.064   3.413 -0.0788 -1.1135 -0.9893
 5475SOL    HW228059   4.237   3.181   3.395 -0.2304 -0.5900  1.0446
 5476SOL     OW28060   3.727   3.549   8.124  0.3674  0.0269 -0.3153
 5476SOL    HW128061   3.656   3.485   8.138  0.9896 -0.6237 -0.1556
 5476SOL    HW228062   3.687   3.634   8.109 -1.4731 -0.7137  0.2635
 5477SOL     OW28063   1.395   2.166  16.449 -0.1788 -0.2889  0.2149
 5477SOL    HW128064   1.459   2.099  16.426  0.3089 -0.2877  1.6069
 5477SOL    HW228065   1.440   2.250  16.464  2.5177 -2.1434  2.3829
 5478SOL     OW28066   1.486   2.435  14.002 -0.0286 -0.4373  0.0207
 5478SOL    HW128067   1.545   2.509  14.010  0.2297 -0.8193  1.7846
 5478SOL    HW228068   1.460   2.431  13.910 -0.4005  1.5019  0.0508
 5479SOL     OW28069   4.560   1.282   3.800  0.0406  0.0209  0.2623
 5479SOL    HW128070   4.481   1.270   3.748  1.7153 -1.8953 -1.8770
 5479SOL    HW228071   4.580   1.373   3.778  0.8995 -0.0714  0.6675
 5480SOL     OW28072   2.606   1.330   8.690 -0.5372 -0.0832  0.5836
 5480SOL    HW128073   2.674   1.397   8.695 -1.9345  1.3889 -0.4359
 5480SOL    HW228074   2.620   1.286   8.774 -0.6877 -0.2286  0.5337
 5481SOL     OW28075   3.983   4.369  14.337 -0.1591 -0.4139 -0.0911
 5481SOL    HW128076   3.958   4.349  14.427  0.8551 -0.4804  0.1711
 5481SOL    HW228077   3.984   4.463  14.355  1.0176 -0.3847 -0.3141
 5482SOL     OW28078   3.015   3.291  11.109  0.0407  0.1976  0.7174
 5482SOL    HW128079   2.949   3.298  11.178  0.3487  0.5924  0.9663
 5482SOL    HW228080   3.018   3.196  11.099  1.8195  0.3687 -0.3373
 5483SOL     OW28081   2.962   3.387   8.327 -0.3783 -0.2401 -0.9529
 5483SOL    HW128082   2.984   3.363   8.417 -0.2177 -0.4864 -1.0567
 5483SOL    HW228083   2.884   3.440   8.342 -0.0062 -0.0928  0.4524
 5484SOL     OW28084   1.532   3.045   4.843  0.3226 -0.1565 -0.5954
 5484SOL    HW128085   1.526   3.108   4.770 -0.3196 -0.5734 -0.9003
 5484SOL    HW228086   1.578   3.090   4.914  2.5813  0.9017 -2.7033
 5485SOL     OW28087   1.794   1.981   3.545  0.4829 -0.0554 -0.7448
 5485SOL    HW128088   1.742   2.028   3.611 -0.0404  0.2910 -1.3986
 5485SOL    HW228089   1.782   1.891   3.578  1.0138  0.0942 -0.1477
 5486SOL     OW28090   0.921   2.921  13.466  0.1146  0.4891 -0.4352
 5486SOL    HW128091   0.830   2.901  13.446  0.2157 -3.4549  2.9802
 5486SOL    HW228092   0.925   2.873  13.549 -2.4609  0.8829 -0.0713
 5487SOL     OW28093   1.991   3.751   6.189  0.7953  0.0512  0.2144
 5487SOL    HW128094   2.070   3.784   6.146  0.6457 -2.7965 -2.1597
 5487SOL    HW228095   1.936   3.830   6.189  0.9593  0.1764  2.0815
 5488SOL     OW28096   2.918   4.562   0.885 -0.3974 -0.2457  0.3721
 5488SOL    HW128097   2.859   4.618   0.935  0.3950  0.1570  0.8584
 5488SOL    HW228098   2.871   4.529   0.809 -0.4603 -0.4924  0.5165
 5489SOL     OW28099   3.645   4.597   7.447 -0.5339 -0.4177 -0.3497
 5489SOL    HW128100   3.615   4.674   7.495  0.6053  0.2659 -0.7435
 5489SOL    HW228101   3.677   4.540   7.517  2.8824 -0.0931 -1.6470
 5490SOL     OW28102   4.011   0.339  13.309  0.3568 -0.3420 -0.5533
 5490SOL    HW128103   4.041   0.418  13.263  3.2601 -1.9402 -1.4105
 5490SOL    HW228104   3.920   0.331  13.282 -0.3271 -0.2144  1.7568
 5491SOL     OW28105   4.688   3.154   6.080 -0.0935 -0.2294  0.4238
 5491SOL    HW128106   4.681   3.059   6.069 -0.3287 -0.1252 -0.2743
 5491SOL    HW228107   0.015   3.179   6.014  0.0496  1.3096  1.1460
 5492SOL     OW28108   0.785   2.764   9.941 -0.3505 -0.2301 -0.0670
 5492SOL    HW128109   0.808   2.734  10.029 -3.5100  3.0601  1.8993
 5492SOL    HW228110   0.694   2.789   9.961  0.7320  2.5203  1.3851
 5493SOL     OW28111   4.034   1.849   4.038  0.1827  0.5138 -0.2909
 5493SOL    HW128112   3.994   1.769   4.004 -0.5174  1.4186 -1.5607
 5493SOL    HW228113   4.124   1.823   4.061  0.4937  2.0745  0.2394
 5494SOL     OW28114   2.940   1.031  15.692 -1.2610 -0.5020 -0.0604
 5494SOL    HW128115   2.995   0.990  15.625 -0.4110 -1.9812  1.5612
 5494SOL    HW228116   2.924   1.117  15.653 -0.4934 -0.2407  0.2037
 5495SOL     OW28117   2.934   0.568   8.858  0.3837  0.1481  0.1290
 5495SOL    HW128118   2.937   0.473   8.865  1.4123  0.1417 -0.4573
 5495SOL    HW228119   2.851   0.588   8.902  0.2723 -1.3680  0.6202
 5496SOL     OW28120   1.682   2.410  12.970 -0.2432 -0.1012  0.2286
 5496SOL    HW128121   1.619   2.348  12.933  0.8616 -1.1969  0.1907
 5496SOL    HW228122   1.755   2.390  12.911 -0.5320 -0.8169  0.1176
 5497SOL     OW28123   1.420   4.137  17.267  0.1201 -0.4822  0.0626
 5497SOL    HW128124   1.483   4.152  17.338  0.7775 -0.3569 -0.5433
 5497SOL    HW228125   1.340   4.115  17.315  0.0384 -1.8264 -0.6733
 5498SOL     OW28126   2.342   1.414   4.022 -0.2967  0.0758 -0.1626
 5498SOL    HW128127   2.277   1.484   4.024 -0.3284  0.0391  0.0168
 5498SOL    HW228128   2.317   1.357   4.095 -1.3044  0.2442 -0.3844
 5499SOL     OW28129   3.230   0.257  13.990 -0.2040 -0.4248 -0.1456
 5499SOL    HW128130   3.213   0.169  13.957 -0.9798  0.3546 -1.8367
 5499SOL    HW228131   3.242   0.301  13.905  0.7517 -1.4275 -0.5280
 5500SOL     OW28132   3.090   1.345   5.916 -1.2890  0.3048 -0.1046
 5500SOL    HW128133   3.003   1.382   5.926 -1.5734  0.1250 -1.8996
 5500SOL    HW228134   3.134   1.427   5.895 -2.3070  1.9329  4.1299
 5501SOL     OW28135   2.718   3.057   8.513 -0.4006 -0.3128 -0.8307
 5501SOL    HW128136   2.679   3.002   8.445  0.5169 -1.4593 -0.4403
 5501SOL    HW228137   2.732   2.996   8.585  0.0285 -0.0922 -0.7226
 5502SOL     OW28138   3.991   4.545   8.730 -0.5256 -0.2433 -0.4467
 5502SOL    HW128139   4.086   4.552   8.730 -0.5915  0.6428 -0.5941
 5502SOL    HW228140   3.977   4.566   8.638  0.0323  3.7831  0.3905
 5503SOL     OW28141   0.686   2.264   3.946  0.5854  0.1699  0.7390
 5503SOL    HW128142   0.728   2.228   3.868  1.1297  1.3816  0.4722
 5503SOL    HW228143   0.724   2.351   3.958  0.4739  0.2915  0.1757
 5504SOL     OW28144   1.800   4.520   4.756  0.1351  0.2919  0.4296
 5504SOL    HW128145   1.865   4.527   4.686 -0.9022  1.4508 -0.4246
 5504SOL    HW228146   1.849   4.455   4.806 -1.7011 -0.2227  1.5278
 5505SOL     OW28147   3.904   1.467   5.002  0.3340  0.4525  0.0722
 5505SOL    HW128148   3.818   1.504   5.025  1.1073  1.4166  1.4444
 5505SOL    HW228149   3.955   1.445   5.080  0.1415 -0.2615 -0.0048
 5506SOL     OW28150   2.453   4.061  14.788 -0.1934 -0.0884 -0.2766
 5506SOL    HW128151   2.386   4.004  14.750  0.5432 -1.9516  1.2657
 5506SOL    HW228152   2.424   4.081  14.877 -0.1641 -3.4680  0.5004
 5507SOL     OW28153   0.736   4.090   8.072 -0.6363 -1.0345  0.0884
 5507SOL    HW128154   0.669   4.132   8.018 -1.3025 -0.5722  1.2774
 5507SOL    HW228155   0.692   4.004   8.070 -1.8763 -0.3798 -0.8049
 5508SOL     OW28156   2.395   2.036   7.253 -0.1263 -0.2172 -0.5670
 5508SOL    HW128157   2.417   2.012   7.163  0.0882 -0.3349 -0.4835
 5508SOL    HW228158   2.481   2.020   7.293 -1.3056  0.0722  2.0396
 5509SOL     OW28159   4.484   0.015   3.732 -0.5105  0.2058  0.2214
 5509SOL    HW128160   4.535   4.672   3.727 -0.2138  0.3363  1.1799
 5509SOL    HW228161   4.542   0.073   3.683 -0.7667  1.4202  1.3598
 5510SOL     OW28162   2.724   2.419   2.353 -0.2957  0.1016 -0.1343
 5510SOL    HW128163   2.804   2.394   2.400 -1.9508 -2.3376  1.3544
 5510SOL    HW228164   2.754   2.421   2.262  0.7188  2.2318  0.2416
 5511SOL     OW28165   2.249   4.581   0.737 -0.7311  0.1856  0.1995
 5511SOL    HW128166   2.188   4.578   0.663 -0.5463  0.1253  0.0500
 5511SOL    HW228167   2.199   4.642   0.791  0.8126  0.4829  1.3020
 5512SOL     OW28168   3.391   2.570   9.430  0.0928 -0.0905 -0.2458
 5512SOL    HW128169   3.445   2.492   9.417 -1.7668 -0.8383 -3.6522
 5512SOL    HW228170   3.447   2.627   9.483  1.8507 -1.4204 -0.6689
 5513SOL     OW28171   1.456   4.065   4.644 -0.3986  0.3781  0.0162
 5513SOL    HW128172   1.445   4.051   4.549 -1.0183 -0.7390  0.2517
 5513SOL    HW228173   1.403   3.990   4.671 -0.7191  1.3669  2.0922
 5514SOL     OW28174   3.967   2.503  17.529  0.7393 -0.1559  0.6171
 5514SOL    HW128175   3.956   2.575  17.467 -1.2037 -1.5047 -0.5865
 5514SOL    HW228176   4.050   2.521  17.573  0.3899  2.7543  0.0610
 5515SOL     OW28177   3.501   1.579   3.399 -0.1447  0.0349 -0.1971
 5515SOL    HW128178   3.508   1.618   3.487 -1.9893 -2.1752  0.9342
 5515SOL    HW228179   3.419   1.616   3.368  0.6630  0.4872 -1.7766
 5516SOL     OW28180   3.649   1.962   4.037 -0.2822 -0.4251 -0.1100
 5516SOL    HW128181   3.576   2.008   4.079  1.1436  0.8534  0.9824
 5516SOL    HW228182   3.702   1.944   4.114 -0.6569 -0.7217  0.0754
 5517SOL     OW28183   3.558   4.407  13.145 -0.0578  0.0940  0.0494
 5517SOL    HW128184   3.604   4.383  13.226  0.3218  0.1768 -0.1429
 5517SOL    HW228185   3.605   4.486  13.117 -1.6255 -0.4371 -4.0708
 5518SOL     OW28186   4.035   2.015   3.041  0.0443  0.4344 -0.3541
 5518SOL    HW128187   4.045   2.055   3.127 -0.0965  1.7624 -0.9650
 5518SOL    HW228188   4.022   2.091   2.985 -0.1281 -0.1744 -1.1286
 5519SOL     OW28189   0.882   4.293  13.137  0.1312 -0.2818  0.4857
 5519SOL    HW128190   0.934   4.222  13.175  0.6557 -0.7939 -1.1685
 5519SOL    HW228191   0.921   4.373  13.173 -0.2836  0.8457 -1.5570
 5520SOL     OW28192   1.327   1.266  12.293 -0.0558  0.1174  0.0706
 5520SOL    HW128193   1.315   1.174  12.317  0.1836  0.1610  0.3667
 5520SOL    HW228194   1.316   1.304  12.381  0.6767 -0.4589  0.4075
 5521SOL     OW28195   0.034   3.458   5.191  0.8241  0.3437  0.1086
 5521SOL    HW128196   0.072   3.370   5.188  2.1621  0.9116  0.7072
 5521SOL    HW228197   0.115   3.508   5.199  0.6790  0.5512  0.2711
 5522SOL     OW28198   0.570   3.780   2.298  0.1453 -0.2950 -0.7242
 5522SOL    HW128199   0.612   3.815   2.219  2.7090 -1.5154  0.0890
 5522SOL    HW228200   0.543   3.853   2.354 -1.3080  0.3293 -2.2468
 5523SOL     OW28201   1.499   3.698   3.297 -0.2682 -0.2695  0.0490
 5523SOL    HW128202   1.408   3.673   3.286 -0.2416 -1.3269  2.2366
 5523SOL    HW228203   1.542   3.621   3.334 -0.6641 -0.2316  0.5889
 5524SOL     OW28204   1.870   3.913   6.823  0.7025  0.0083 -0.3792
 5524SOL    HW128205   1.896   3.998   6.860  1.7797 -0.6783  0.4224
 5524SOL    HW228206   1.778   3.903   6.848  0.8304  2.7195  1.1658
 5525SOL     OW28207   2.945   4.013   0.611 -0.4364 -0.1531  0.3697
 5525SOL    HW128208   2.861   3.971   0.594 -0.6120  0.4353 -0.2411
 5525SOL    HW228209   2.935   4.071   0.535 -0.9110  0.1865  0.6923
 5526SOL     OW28210   1.567   0.938   4.229  0.0456 -0.0524 -0.2979
 5526SOL    HW128211   1.504   0.874   4.262 -0.6531  1.0854  0.5475
 5526SOL    HW228212   1.514   0.966   4.155 -0.0072  1.3315  0.2522
 5527SOL     OW28213   0.942   0.135   0.175  0.2107  0.4637  0.2174
 5527SOL    HW128214   1.006   0.154   0.106  1.0381 -1.0977  0.5368
 5527SOL    HW228215   0.959   0.209   0.233  1.5314  0.7797 -0.5740
 5528SOL     OW28216   3.432   0.626  14.620  0.0127  0.4008 -0.2495
 5528SOL    HW128217   3.356   0.657  14.669  0.7608  0.3253  0.9614
 5528SOL    HW228218   3.482   0.707  14.621 -0.3903  0.6293  0.9863
 5529SOL     OW28219   0.773   4.413  15.181  0.2824  0.2686 -0.2169
 5529SOL    HW128220   0.867   4.417  15.162  0.8633 -0.6245  2.3646
 5529SOL    HW228221   0.758   4.507  15.177 -2.4976 -0.1736 -0.2026
 5530SOL     OW28222   0.703   2.443   3.261 -0.6785 -0.5307  0.1454
 5530SOL    HW128223   0.738   2.481   3.342 -0.4546  0.3886 -0.3925
 5530SOL    HW228224   0.706   2.354   3.297  0.5588 -0.0169  1.3262
 5531SOL     OW28225   4.707   4.611   4.644 -0.1329  0.2406 -0.2719
 5531SOL    HW128226   0.065   4.624   4.642 -0.3707  2.3089  1.6992
 5531SOL    HW228227   4.706   4.628   4.739 -5.3204 -0.5940 -0.1833
 5532SOL     OW28228   2.003   3.710  15.611  0.2713  0.2938 -0.0968
 5532SOL    HW128229   1.939   3.645  15.638 -1.0560  1.2156 -1.0688
 5532SOL    HW228230   2.087   3.667  15.630  0.5375  1.2585  0.9828
 5533SOL     OW28231   0.086   0.976  13.244 -0.4709 -0.3473 -0.5213
 5533SOL    HW128232   0.044   1.015  13.320 -1.8175 -1.6080 -0.6261
 5533SOL    HW228233   0.078   0.883  13.263 -0.9290  0.0560  1.2086
 5534SOL     OW28234   3.350   3.351   9.480 -0.3806  0.4408  0.3560
 5534SOL    HW128235   3.425   3.409   9.496  1.9991 -2.7248  0.5388
 5534SOL    HW228236   3.329   3.315   9.565 -1.3693 -2.1666 -1.0016
 5535SOL     OW28237   1.768   3.553  14.988  0.1240  0.3894  0.3531
 5535SOL    HW128238   1.746   3.634  15.033  0.3903  0.5394  0.2139
 5535SOL    HW228239   1.804   3.587  14.906  2.2528  0.1123  1.1743
 5536SOL     OW28240   1.132   1.447   9.344 -0.0646 -1.1008  0.0040
 5536SOL    HW128241   1.077   1.434   9.421 -0.9643 -0.8141 -0.5943
 5536SOL    HW228242   1.179   1.364   9.347 -0.1052 -1.1297 -0.2148
 5537SOL     OW28243   0.499   0.383  10.084  0.4521 -0.0121 -0.3928
 5537SOL    HW128244   0.571   0.364  10.024  0.5314  0.7100 -0.5265
 5537SOL    HW228245   0.519   0.474  10.104 -0.8334 -0.1345  1.3693
 5538SOL     OW28246   2.891   0.050   4.170 -0.4472 -0.1033 -0.6218
 5538SOL    HW128247   2.895   4.697   4.137 -0.8039 -0.5479  0.5555
 5538SOL    HW228248   2.811   0.087   4.134 -0.5530  0.2129 -0.0711
 5539SOL     OW28249   0.016   3.641  12.798 -0.4104 -0.0916  0.0748
 5539SOL    HW128250   0.077   3.672  12.865  0.3925 -0.3696 -0.5294
 5539SOL    HW228251   0.051   3.552  12.788 -1.7501 -0.8247  1.7592
 5540SOL     OW28252   1.066   0.314   7.669  0.4170 -0.6031  0.0150
 5540SOL    HW128253   1.089   0.318   7.762  0.9877 -1.2528 -0.0981
 5540SOL    HW228254   1.145   0.347   7.625 -0.6483 -1.5612 -2.6179
 5541SOL     OW28255   4.517   3.712   1.718  0.2178  0.7460 -0.1297
 5541SOL    HW128256   4.477   3.626   1.703 -0.6343  1.3315 -1.2179
 5541SOL    HW228257   4.524   3.729   1.812 -0.4570 -0.2805  0.1126
 5542SOL     OW28258   2.125   1.835   6.431 -0.7688 -0.0146 -0.0086
 5542SOL    HW128259   2.209   1.878   6.416 -0.8917 -0.0523 -0.7971
 5542SOL    HW228260   2.110   1.795   6.345  1.0424 -0.9360  0.1083
 5543SOL     OW28261   1.253   4.650   9.729 -0.3194  0.3216 -0.4067
 5543SOL    HW128262   1.295   4.568   9.704 -1.7259 -0.4289 -0.3384
 5543SOL    HW228263   1.305   4.686   9.801 -2.4798  1.3973  0.6217
 5544SOL     OW28264   4.003   0.838   2.960 -0.0049  0.1050 -0.1684
 5544SOL    HW128265   4.052   0.917   2.981 -0.4484  0.4238 -0.3356
 5544SOL    HW228266   3.975   0.803   3.044  1.0801  0.4542  0.3376
 5545SOL     OW28267   3.370   4.012  16.876 -0.3975  0.5674 -0.1680
 5545SOL    HW128268   3.419   4.093  16.893 -1.0490  0.7301  0.9356
 5545SOL    HW228269   3.345   3.986  16.965 -0.7024 -0.7080 -0.6221
 5546SOL     OW28270   2.873   3.551   3.689 -0.4077  0.1836 -0.3524
 5546SOL    HW128271   2.889   3.613   3.760 -0.5556  0.5628 -0.6506
 5546SOL    HW228272   2.908   3.485   3.749 -2.5875  0.6032  1.3950
 5547SOL     OW28273   1.073   2.313   4.082 -0.1858  0.2510 -0.4208
 5547SOL    HW128274   1.042   2.374   4.015  1.6409  0.8262 -0.7506
 5547SOL    HW228275   1.123   2.251   4.029 -0.4280 -0.9493  0.7533
 5548SOL     OW28276   2.540   1.726  17.098  0.4326 -0.6091 -0.0659
 5548SOL    HW128277   2.528   1.635  17.126 -1.2651 -0.0783  0.8803
 5548SOL    HW228278   2.547   1.779  17.177 -0.4909  1.3277 -1.2869
 5549SOL     OW28279   3.541   0.616   0.991  0.0626 -0.0099  0.3894
 5549SOL    HW128280   3.532   0.621   0.896  1.7702  1.5875  0.3234
 5549SOL    HW228281   3.560   0.522   0.995  0.0806 -0.1369 -2.3939
 5550SOL     OW28282   0.290   2.814   4.811  0.5248 -0.3502  0.1894
 5550SOL    HW128283   0.352   2.858   4.869 -0.5077  1.0471  0.2382
 5550SOL    HW228284   0.284   2.878   4.740 -0.2096 -1.5879 -0.8727
 5551SOL     OW28285   4.475   2.031   5.737 -0.0826  0.5769  0.1673
 5551SOL    HW128286   4.452   1.991   5.654 -3.5989  2.2781  0.3319
 5551SOL    HW228287   4.551   2.086   5.718 -1.3812  1.8601 -1.2641
 5552SOL     OW28288   2.205   3.232   7.367  0.0063 -0.8279 -0.1072
 5552SOL    HW128289   2.150   3.304   7.336 -2.2469 -3.1930 -1.6114
 5552SOL    HW228290   2.174   3.170   7.301 -0.4619 -2.9664  2.1269
 5553SOL     OW28291   1.855   2.321   4.278  0.5435 -0.0434  0.5517
 5553SOL    HW128292   1.792   2.248   4.274 -0.1396  0.6212 -0.6796
 5553SOL    HW228293   1.891   2.327   4.190  3.1130 -2.1829  1.4588
 5554SOL     OW28294   3.867   0.135   6.827 -0.2090  0.8645 -0.9006
 5554SOL    HW128295   3.847   0.093   6.743 -2.0105 -1.2583  0.5940
 5554SOL    HW228296   3.812   0.076   6.880  2.9137 -1.3537 -0.1351
 5555SOL     OW28297   4.036   2.366   4.082 -0.2894 -0.1525 -0.1169
 5555SOL    HW128298   3.959   2.338   4.130 -0.0787  1.2065  1.0543
 5555SOL    HW228299   4.060   2.281   4.047  0.3113 -0.8664  1.9920
 5556SOL     OW28300   2.388   3.647   1.902 -0.0462 -0.8382  0.4571
 5556SOL    HW128301   2.314   3.602   1.943 -1.1396  0.5922  0.0500
 5556SOL    HW228302   2.352   3.735   1.887  0.1605 -1.0921 -1.4538
 5557SOL     OW28303   0.532   1.745   4.967  0.0702  0.2983 -0.1227
 5557SOL    HW128304   0.462   1.711   4.910 -0.3461 -1.9526  1.7042
 5557SOL    HW228305   0.565   1.665   5.009  1.5286  1.1660  0.3554
 5558SOL     OW28306   1.152   3.372   5.527  0.7352 -0.0205  0.2654
 5558SOL    HW128307   1.057   3.384   5.518  0.7579 -1.5676 -2.1820
 5558SOL    HW228308   1.149   3.340   5.617 -1.0556 -0.4221  0.0700
 5559SOL     OW28309   3.206   3.160   7.438  0.8270 -0.4196 -0.6835
 5559SOL    HW128310   3.214   3.111   7.520  1.8117 -1.7547 -1.5710
 5559SOL    HW228311   3.227   3.248   7.471  2.7814 -0.9340 -0.5379
 5560SOL     OW28312   4.382   0.045   4.560 -0.0471 -0.0954 -0.8116
 5560SOL    HW128313   4.301   0.089   4.533 -1.1280 -1.4415  0.2841
 5560SOL    HW228314   4.382   0.041   4.656  1.4719 -1.3644 -0.8708
 5561SOL     OW28315   2.549   0.504   5.365  0.2274  0.2056 -0.0235
 5561SOL    HW128316   2.471   0.469   5.408  0.0490  1.0934  0.3749
 5561SOL    HW228317   2.563   0.571   5.431  2.1751  0.2449 -0.4832
 5562SOL     OW28318   3.956   1.009   0.936  0.3099  0.3918  0.0444
 5562SOL    HW128319   3.916   0.939   0.987  2.1886 -0.4209  0.4023
 5562SOL    HW228320   4.014   0.966   0.874  0.8401  1.3934 -0.1574
 5563SOL     OW28321   2.399   4.249   0.396  0.1136 -0.2715  0.0480
 5563SOL    HW128322   2.325   4.271   0.454 -0.1648 -0.8348 -0.0978
 5563SOL    HW228323   2.403   4.332   0.348  1.7102 -1.0739 -1.1927
 5564SOL     OW28324   4.296   0.127   9.085 -0.1900  0.1449  0.2924
 5564SOL    HW128325   4.332   0.040   9.098 -1.6729 -0.7008 -1.3452
 5564SOL    HW228326   4.337   0.169   9.161 -0.6841  0.9730  0.1010
 5565SOL     OW28327   4.161   2.962   5.129 -0.8448 -0.0099 -0.0210
 5565SOL    HW128328   4.246   2.917   5.126 -0.8581 -0.0597  0.3616
 5565SOL    HW228329   4.138   2.941   5.219  1.0624 -2.7099 -0.1481
 5566SOL     OW28330   1.653   1.670  11.803  0.5054  0.0653  0.1741
 5566SOL    HW128331   1.594   1.714  11.742 -1.0469 -1.6184  0.5038
 5566SOL    HW228332   1.725   1.642  11.746 -1.2017  0.0387 -1.9613
 5567SOL     OW28333   1.794   0.720   5.921  0.2949  0.2944 -0.2493
 5567SOL    HW128334   1.806   0.801   5.971  0.3761  0.2242 -0.1556
 5567SOL    HW228335   1.877   0.673   5.931  1.3667  2.4902  1.1768
 5568SOL     OW28336   4.187   3.983   5.692  1.1182 -0.2599 -0.4697
 5568SOL    HW128337   4.151   3.910   5.640 -0.3793  1.5511 -1.9486
 5568SOL    HW228338   4.151   4.045   5.629  3.3599 -0.4498 -1.9611
 5569SOL     OW28339   0.121   2.995   8.265  0.1101  0.0077  0.5917
 5569SOL    HW128340   0.060   3.046   8.318  1.0533 -0.7476  2.4165
 5569SOL    HW228341   0.167   2.963   8.343  0.4244 -0.5043  0.2017
 5570SOL     OW28342   2.144   0.728   7.885  0.1560 -0.3393 -0.2863
 5570SOL    HW128343   2.049   0.726   7.899 -0.0003  0.4393 -1.2334
 5570SOL    HW228344   2.167   0.819   7.902  2.8590 -0.2719 -4.4207
 5571SOL     OW28345   4.535   0.396  10.522  0.1066  0.1286 -0.0684
 5571SOL    HW128346   4.568   0.319  10.569 -0.0312  1.0480  1.5221
 5571SOL    HW228347   4.603   0.394  10.455  0.1135 -0.4920 -0.0499
 5572SOL     OW28348   0.332   3.601   7.918 -0.1716 -0.2248  0.2240
 5572SOL    HW128349   0.294   3.657   7.986 -0.4582  1.1073 -1.0343
 5572SOL    HW228350   0.353   3.661   7.846 -0.2943  0.0073  0.3812
 5573SOL     OW28351   1.926   3.348   1.138 -0.2563  0.4625  0.0816
 5573SOL    HW128352   1.889   3.432   1.167 -6.8123 -0.6923 -5.0176
 5573SOL    HW228353   2.013   3.359   1.177  0.8372 -2.8462 -1.4240
 5574SOL     OW28354   1.187   1.595   2.643  0.1921 -0.1973  0.4861
 5574SOL    HW128355   1.119   1.542   2.684 -1.5336  0.5605 -1.3859
 5574SOL    HW228356   1.139   1.672   2.614  1.4995  0.5372  0.2728
 5575SOL     OW28357   3.637   0.984   8.967 -0.4497 -0.1037  0.1974
 5575SOL    HW128358   3.672   0.973   8.879 -2.0843 -0.0288 -0.4609
 5575SOL    HW228359   3.545   0.963   8.951 -1.4860  2.6964  2.5259
 5576SOL     OW28360   0.440   3.208   7.858  0.4453 -0.2751  0.8080
 5576SOL    HW128361   0.370   3.268   7.882  0.6659 -0.8429  2.9185
 5576SOL    HW228362   0.520   3.259   7.874 -0.8879  2.0999 -0.2461
 5577SOL     OW28363   0.505   4.023   4.259  0.3175  0.0310  0.2417
 5577SOL    HW128364   0.415   4.023   4.226  0.2480 -0.3457  0.4315
 5577SOL    HW228365   0.509   4.074   4.340 -1.9860  1.4851 -0.5421
 5578SOL     OW28366   0.718   3.788   7.308  0.1818 -0.5216  0.2914
 5578SOL    HW128367   0.743   3.728   7.238 -1.2027 -1.3271  0.4898
 5578SOL    HW228368   0.665   3.727   7.358 -0.7269  1.2359  1.4944
 5579SOL     OW28369   2.213   0.801   5.316  0.1609 -0.1767 -0.0538
 5579SOL    HW128370   2.306   0.797   5.296 -0.0932 -1.9822 -0.9283
 5579SOL    HW228371   2.198   0.894   5.302  1.1057  0.0195  0.2982
 5580SOL     OW28372   1.618   4.668   1.858 -0.0893  0.5657 -0.1500
 5580SOL    HW128373   1.623   4.697   1.767  1.8808  2.3689  0.5241
 5580SOL    HW228374   1.706   4.698   1.880 -0.1564  1.5094 -1.1729
 5581SOL     OW28375   2.892   4.554   1.719 -0.6699 -0.2027 -0.5595
 5581SOL    HW128376   2.906   4.644   1.690 -1.9864 -0.1954 -1.1752
 5581SOL    HW228377   2.978   4.514   1.729 -0.1314  0.6697 -1.7455
 5582SOL     OW28378   2.741   0.383  12.423 -0.4142  0.6136  0.1585
 5582SOL    HW128379   2.680   0.441  12.377  1.4628  1.8448 -0.7752
 5582SOL    HW228380   2.745   0.310  12.361  2.0130  0.3913  0.6020
 5583SOL     OW28381   1.034   0.196   9.861  0.4016  0.1471  1.1433
 5583SOL    HW128382   1.043   0.135   9.934  4.0557 -0.2375  0.3964
 5583SOL    HW228383   0.940   0.212   9.853  0.3072 -0.8513  0.3113
 5584SOL     OW28384   1.492   2.369   3.779  0.0459  0.2868  0.0999
 5584SOL    HW128385   1.401   2.396   3.772  0.1776  0.5698 -0.5657
 5584SOL    HW228386   1.493   2.324   3.695  1.1143  1.3541 -0.4630
 5585SOL     OW28387   4.559   0.907   8.343 -0.2010  0.0260  0.2583
 5585SOL    HW128388   4.479   0.935   8.299  0.5481 -1.4362 -2.0434
 5585SOL    HW228389   4.527   0.918   8.432 -4.5401 -0.9457 -1.1712
 5586SOL     OW28390   2.803   4.213   9.182 -0.1997 -0.3542  0.9650
 5586SOL    HW128391   2.742   4.192   9.111  1.5871  3.4399 -1.7137
 5586SOL    HW228392   2.857   4.272   9.129 -0.5359 -2.0311 -1.2132
 5587SOL     OW28393   1.795   0.706   4.217  0.0428 -0.0775 -0.4028
 5587SOL    HW128394   1.740   0.733   4.143  0.1216  1.9547  0.2828
 5587SOL    HW228395   1.761   0.755   4.292 -0.5431 -0.1569 -0.6123
 5588SOL     OW28396   0.406   3.981   6.580  0.5597 -0.0656  0.0450
 5588SOL    HW128397   0.420   4.070   6.613 -2.7945  0.1878  0.7432
 5588SOL    HW228398   0.454   3.933   6.648  0.6820 -1.6907 -1.1875
 5589SOL     OW28399   3.308   4.679   5.198 -0.1299 -0.2325  0.8460
 5589SOL    HW128400   3.217   4.656   5.215 -0.4146 -0.5720 -1.0545
 5589SOL    HW228401   3.285   0.024   5.155 -2.5259 -0.9469  0.7561
 5590SOL     OW28402   3.576   3.637  11.850 -0.4176  0.2736 -0.4712
 5590SOL    HW128403   3.610   3.661  11.763 -1.8444  1.8391 -0.5897
 5590SOL    HW228404   3.630   3.558  11.856  0.8940  1.1519 -0.7868
 5591SOL     OW28405   3.289   0.121   8.810  0.6255  0.4745 -0.1567
 5591SOL    HW128406   3.356   0.097   8.874 -1.9398 -1.8986  1.6411
 5591SOL    HW228407   3.342   0.127   8.731  0.1968 -0.6551 -0.5162
 5592SOL     OW28408   2.374   2.454   4.654 -0.4573  0.3638  0.0008
 5592SOL    HW128409   2.378   2.514   4.580  1.4354 -1.4912 -1.3813
 5592SOL    HW228410   2.328   2.375   4.624  0.4369  0.0267 -0.4678
 5593SOL     OW28411   1.803   2.494   2.726  0.1845  0.0492  0.3878
 5593SOL    HW128412   1.848   2.432   2.782  0.9838  0.6355  0.3988
 5593SOL    HW228413   1.737   2.433   2.695 -0.8419  1.0037  0.7041
 5594SOL     OW28414   1.066   2.730   8.585 -0.5208 -0.0869 -0.2119
 5594SOL    HW128415   1.084   2.787   8.660  1.5346  0.1990 -0.9412
 5594SOL    HW228416   1.028   2.791   8.521 -2.2651 -0.5974  0.3411
 5595SOL     OW28417   2.674   0.264   1.609 -0.1115 -0.2861 -0.5397
 5595SOL    HW128418   2.610   0.321   1.567 -1.6351 -3.0876 -2.0488
 5595SOL    HW228419   2.690   0.193   1.547 -0.4797  0.1411 -1.1156
 5596SOL     OW28420   3.998   2.647   4.482 -0.1163 -0.3219 -0.3341
 5596SOL    HW128421   3.951   2.568   4.508 -0.2718 -0.2486 -0.3917
 5596SOL    HW228422   4.082   2.613   4.452  0.0068 -2.5013  2.5830
 5597SOL     OW28423   0.281   3.838   6.098  0.3465 -0.2138 -0.2063
 5597SOL    HW128424   0.320   3.851   6.184  0.7846 -0.4519 -0.3742
 5597SOL    HW228425   0.299   3.748   6.072 -2.8955 -0.5122 -1.4977
 5598SOL     OW28426   2.377   4.031   7.032  0.6798 -0.7581  0.6762
 5598SOL    HW128427   2.289   3.995   7.026 -0.5075  2.1162  0.9177
 5598SOL    HW228428   2.367   4.092   7.105 -0.5832  0.8537 -0.8480
 5599SOL     OW28429   3.552   4.650   4.193 -0.2895  0.0763 -0.2906
 5599SOL    HW128430   3.459   4.634   4.210  0.3562 -1.8812  1.4390
 5599SOL    HW228431   3.578   4.710   4.263 -2.6581  2.2465 -1.2471
 5600SOL     OW28432   4.067   2.308   7.945  0.3880  0.0048 -0.6118
 5600SOL    HW128433   4.113   2.390   7.962 -1.3977  0.6718  1.0771
 5600SOL    HW228434   4.133   2.246   7.975 -0.0489 -0.1035  0.1218
 5601SOL     OW28435   4.041   1.187  13.456 -0.1706 -0.4598 -0.4270
 5601SOL    HW128436   4.088   1.135  13.390 -2.8925 -2.0390 -1.1375
 5601SOL    HW228437   4.093   1.267  13.461  1.1327 -1.2295 -1.5826
 5602SOL     OW28438   1.589   0.572   0.980 -0.5168 -0.4414  0.2773
 5602SOL    HW128439   1.594   0.564   0.885  0.6569 -2.3376  0.5054
 5602SOL    HW228440   1.619   0.488   1.014  2.1919 -0.7148 -2.8013
 5603SOL     OW28441   0.154   3.547   2.758 -0.5681  0.1660 -0.4933
 5603SOL    HW128442   0.077   3.490   2.752 -2.0555  1.8577  2.8187
 5603SOL    HW228443   0.207   3.507   2.827  1.6423 -0.0015 -2.3058
 5604SOL     OW28444   4.211   2.950  15.343 -0.1667 -0.1972 -0.1807
 5604SOL    HW128445   4.205   3.029  15.289  1.0056 -0.8967 -1.3230
 5604SOL    HW228446   4.149   2.979  15.410 -1.8114 -0.5505 -1.5452
 5605SOL     OW28447   0.429   3.904   9.145 -0.0963 -0.7092 -0.1717
 5605SOL    HW128448   0.454   3.979   9.198 -1.2533  0.4559 -1.2798
 5605SOL    HW228449   0.364   3.871   9.207  0.2066  0.0777  0.5629
 5606SOL     OW28450   1.390   2.577   1.229  0.2893 -0.3280 -0.6639
 5606SOL    HW128451   1.295   2.581   1.235  0.4109 -0.1745  1.0315
 5606SOL    HW228452   1.417   2.663   1.261 -1.8022  0.4722 -1.0627
 5607SOL     OW28453   4.299   2.240   5.409  0.5385 -0.0247  0.0592
 5607SOL    HW128454   4.210   2.259   5.437  1.4627 -0.3211  3.1686
 5607SOL    HW228455   4.308   2.300   5.335  0.1087 -0.0881 -0.0433
 5608SOL     OW28456   3.323   2.139  10.971  0.1221 -0.2554  0.0553
 5608SOL    HW128457   3.303   2.130  11.064  0.5570  1.4127  0.3055
 5608SOL    HW228458   3.267   2.075  10.926  0.7215 -0.6868 -0.0826
 5609SOL     OW28459   3.928   1.671  16.518  0.4168 -0.0457  0.3577
 5609SOL    HW128460   3.891   1.671  16.430  1.1543 -0.1997  0.0485
 5609SOL    HW228461   4.022   1.673  16.498  0.2187  3.0663 -0.2615
 5610SOL     OW28462   3.150   4.259   3.630 -0.1389 -0.5670  0.0400
 5610SOL    HW128463   3.093   4.273   3.706  0.0172  2.2634 -0.3828
 5610SOL    HW228464   3.227   4.314   3.644 -1.1209  0.7783  0.0950
 5611SOL     OW28465   4.414   3.659   9.699  0.2443 -0.3317 -0.0897
 5611SOL    HW128466   4.383   3.743   9.665 -1.0792 -0.8621 -0.1649
 5611SOL    HW228467   4.507   3.658   9.676  0.2771 -0.7182  0.0604
 5612SOL     OW28468   4.128   2.879  10.390 -0.1324  0.1495  0.0652
 5612SOL    HW128469   4.042   2.848  10.360  0.0545 -0.3773  0.0730
 5612SOL    HW228470   4.110   2.973  10.401  1.4800  0.3986  0.5104
 5613SOL     OW28471   2.854   3.791   5.359  0.3645  0.3609  0.2957
 5613SOL    HW128472   2.915   3.731   5.402 -1.2512 -0.1139  1.9486
 5613SOL    HW228473   2.907   3.870   5.352  2.1206 -0.7448  1.0053
 5614SOL     OW28474   1.435   3.439   7.087  0.1772 -0.0125 -0.2879
 5614SOL    HW128475   1.435   3.479   7.000 -0.9122  1.6690  0.4749
 5614SOL    HW228476   1.529   3.452   7.100  0.3124 -0.8176 -0.5012
 5615SOL     OW28477   3.188   0.482   5.052 -0.0679  0.0169 -0.2058
 5615SOL    HW128478   3.176   0.544   5.124 -0.9680  0.0480 -0.3818
 5615SOL    HW228479   3.217   0.404   5.099 -1.0414 -0.2193  0.0175
 5616SOL     OW28480   3.063   3.022   2.153  0.2917 -0.0222 -0.2832
 5616SOL    HW128481   2.969   3.040   2.158  0.1078 -0.1645 -3.7042
 5616SOL    HW228482   3.066   2.952   2.219  0.0266 -0.7371 -1.0260
 5617SOL     OW28483   2.973   3.407   0.165  0.3035 -0.1764 -0.1779
 5617SOL    HW128484   2.988   3.428   0.073  0.1987  0.4869 -0.0438
 5617SOL    HW228485   2.938   3.318   0.161  0.4234 -0.1725 -1.1163
 5618SOL     OW28486   4.506   0.435   7.991  0.2836 -0.1465 -0.1125
 5618SOL    HW128487   4.522   0.340   7.994 -0.0776 -0.1157  2.8157
 5618SOL    HW228488   4.566   0.477   8.053  1.5193 -2.1825  0.0815
 5619SOL     OW28489   0.127   3.707   1.888 -0.1342 -0.2292 -0.2016
 5619SOL    HW128490   0.164   3.712   1.976 -1.0699  1.2841  0.0958
 5619SOL    HW228491   0.034   3.722   1.905 -0.2472  0.7934 -1.6715
 5620SOL     OW28492   3.808   3.603   9.250 -0.8799  0.1614  0.1808
 5620SOL    HW128493   3.753   3.681   9.253  0.0781  0.7709  1.7657
 5620SOL    HW228494   3.820   3.607   9.155 -0.8891 -1.4572  0.1131
 5621SOL     OW28495   3.385   0.195   1.692 -0.3936  0.9842 -0.4130
 5621SOL    HW128496   3.446   0.123   1.675  0.8468  1.4487  2.1765
 5621SOL    HW228497   3.340   0.151   1.764  1.4882 -1.5392 -0.7740
 5622SOL     OW28498   0.996   0.452   5.028  0.1061  0.4567  0.9400
 5622SOL    HW128499   0.927   0.467   5.092  0.6353  0.6742  1.4499
 5622SOL    HW228500   1.050   0.387   5.073  0.1832  1.7719  2.7323
 5623SOL     OW28501   0.472   4.033   8.275  1.2816  0.2008 -0.2503
 5623SOL    HW128502   0.436   3.950   8.245  1.8966 -0.6991  1.4960
 5623SOL    HW228503   0.471   4.075   8.189 -1.7151 -0.6645 -0.6444
 5624SOL     OW28504   4.173   0.832   4.666  1.2907  0.7592 -0.0308
 5624SOL    HW128505   4.221   0.852   4.747  1.9978 -1.2337  0.0388
 5624SOL    HW228506   4.094   0.886   4.667  0.2573 -0.7819  1.3515
 5625SOL     OW28507   3.417   0.527   5.371  0.1835 -0.3699  0.0532
 5625SOL    HW128508   3.460   0.557   5.291  0.3847  2.4125  1.2206
 5625SOL    HW228509   3.340   0.583   5.377  1.3943  1.4739 -1.4286
 5626SOL     OW28510   0.697   2.263   5.191 -0.6199  0.5260 -0.1862
 5626SOL    HW128511   0.657   2.194   5.244  1.1315  0.5546  1.1638
 5626SOL    HW228512   0.718   2.212   5.113  1.5534  1.7531 -0.3918
 5627SOL     OW28513   0.714   2.531   3.525  0.1684  0.2783  0.1193
 5627SOL    HW128514   0.654   2.463   3.557 -2.0611  2.5721  0.7763
 5627SOL    HW228515   0.657   2.603   3.499 -0.1805  1.3157  3.6524
 5628SOL     OW28516   2.576   1.086   7.124  0.6303 -0.2108 -0.9361
 5628SOL    HW128517   2.526   1.005   7.109  0.1238 -0.4625  2.1686
 5628SOL    HW228518   2.531   1.101   7.207  2.8479  0.6045  0.1204
 5629SOL     OW28519   1.243   0.702   6.276  0.1938  0.0626  0.2081
 5629SOL    HW128520   1.228   0.759   6.201 -0.9528 -3.0667 -1.9028
 5629SOL    HW228521   1.243   0.623   6.222 -1.5458  0.1765  0.0482
 5630SOL     OW28522   3.704   1.959   5.110 -0.5607  0.5522  0.1851
 5630SOL    HW128523   3.648   2.034   5.086  0.8660  1.5550 -0.0067
 5630SOL    HW228524   3.666   1.938   5.195  0.9317 -0.6616  0.5506
 5631SOL     OW28525   3.209   3.033   9.306  0.2794 -0.2693 -0.1780
 5631SOL    HW128526   3.283   3.007   9.361  1.3093  1.0385 -0.9319
 5631SOL    HW228527   3.143   2.969   9.331 -0.8266  1.2359  0.8038
 5632SOL     OW28528   1.447   3.940   2.802 -0.4820  0.1552  0.4734
 5632SOL    HW128529   1.428   3.865   2.858  1.0042 -1.0167 -0.6226
 5632SOL    HW228530   1.535   3.918   2.772 -0.6636  1.1136 -0.7495
 5633SOL     OW28531   0.430   1.912   3.202  1.1402  0.3191  0.6872
 5633SOL    HW128532   0.434   1.997   3.247 -2.0399  2.0168 -2.2140
 5633SOL    HW228533   0.494   1.919   3.131  0.4918 -4.6310 -0.3373
 5634SOL     OW28534   2.423   4.004  15.336 -0.6038 -0.7044 -0.5066
 5634SOL    HW128535   2.468   4.079  15.373  0.2772 -1.8246  0.7064
 5634SOL    HW228536   2.334   4.038  15.324 -0.5512 -0.7835 -1.1075
 5635SOL     OW28537   1.481   2.245   3.536  0.1317 -0.1537 -0.8365
 5635SOL    HW128538   1.567   2.236   3.494  0.0209  0.0774 -1.1180
 5635SOL    HW228539   1.447   2.157   3.517 -1.8347  0.3830  0.1775
 5636SOL     OW28540   2.236   2.886   3.072 -0.1125 -0.0677  0.5442
 5636SOL    HW128541   2.265   2.932   3.151 -1.1234 -0.5880  1.2254
 5636SOL    HW228542   2.141   2.885   3.082 -0.1767  2.4112  0.1369
 5637SOL     OW28543   4.394   0.230   7.641 -0.4701  0.1817 -0.3898
 5637SOL    HW128544   4.375   0.238   7.547  0.4917 -0.7016 -0.6573
 5637SOL    HW228545   4.480   0.189   7.630 -1.3967 -1.5537 -1.3449
 5638SOL     OW28546   0.822   0.635   4.901 -0.5338 -0.0292  0.6770
 5638SOL    HW128547   0.883   0.578   4.948  1.4092  2.7864  1.5606
 5638SOL    HW228548   0.773   0.563   4.860 -0.5893  0.4944 -0.1878
 5639SOL     OW28549   3.281   2.544  13.621 -0.4544  0.0394  0.4078
 5639SOL    HW128550   3.226   2.466  13.633 -3.2512  2.1836  1.4455
 5639SOL    HW228551   3.362   2.497  13.637 -0.1356  0.3690 -0.2469
 5640SOL     OW28552   2.843   1.365  16.500  0.2040  0.4514  0.0415
 5640SOL    HW128553   2.904   1.295  16.519  0.3033  0.0034 -1.9127
 5640SOL    HW228554   2.905   1.429  16.464  0.8255  0.8950  1.8944
 5641SOL     OW28555   0.247   3.053   5.203  0.4646 -0.2842 -0.3161
 5641SOL    HW128556   0.174   3.062   5.143  0.5063 -2.5892 -0.7245
 5641SOL    HW228557   0.269   3.141   5.233 -1.6859  0.0350  0.3283
 5642SOL     OW28558   4.118   2.933   5.674 -0.0726 -0.0739  0.3880
 5642SOL    HW128559   4.061   2.971   5.740  0.9114  0.0727  1.1578
 5642SOL    HW228560   4.165   2.859   5.713 -0.9095 -1.8865 -2.0605
 5643SOL     OW28561   1.221   2.383   6.138 -0.3342  0.0732  0.3009
 5643SOL    HW128562   1.277   2.460   6.138 -1.1547  0.6655 -0.4252
 5643SOL    HW228563   1.261   2.324   6.074 -0.1518  1.6706 -1.0457
 5644SOL     OW28564   0.712   3.820   3.705 -0.1191  0.4073  0.4860
 5644SOL    HW128565   0.752   3.844   3.621  0.1115 -0.7720  0.2535
 5644SOL    HW228566   0.618   3.832   3.685 -0.2006 -0.9724  0.0486
 5645SOL     OW28567   4.455   4.342   3.030 -0.3401  0.2420  0.0844
 5645SOL    HW128568   4.480   4.285   3.102  3.5517  1.9486  0.0802
 5645SOL    HW228569   4.362   4.360   3.043  0.0198  0.6829  2.0251
 5646SOL     OW28570   2.703   2.728  13.985 -0.0257 -0.3090 -0.0017
 5646SOL    HW128571   2.713   2.806  13.932  1.0401 -0.9514 -0.7375
 5646SOL    HW228572   2.745   2.660  13.932 -0.5229 -0.2512 -0.4760
 5647SOL     OW28573   4.681   3.167   5.534  0.3793  0.3725 -0.0680
 5647SOL    HW128574   4.603   3.211   5.568  0.7649  0.8389  0.2139
 5647SOL    HW228575   4.656   3.149   5.444  0.7789  0.7021 -0.2503
 5648SOL     OW28576   1.924   2.070   1.467  0.2399  0.4788 -0.5159
 5648SOL    HW128577   1.854   2.072   1.401 -0.4840  0.5250  0.2485
 5648SOL    HW228578   1.997   2.050   1.409  1.3795  1.0518  0.7285
 5649SOL     OW28579   1.495   2.263  10.676  0.1939 -0.1454 -0.1901
 5649SOL    HW128580   1.523   2.354  10.672 -0.8599  0.1561 -0.5260
 5649SOL    HW228581   1.424   2.280  10.736  0.2051 -0.8450  0.0292
 5650SOL     OW28582   1.559   4.134   7.864  0.3670  0.0232 -0.0568
 5650SOL    HW128583   1.527   4.048   7.836 -4.0384  1.5137  0.4555
 5650SOL    HW228584   1.583   4.111   7.954  1.1179 -0.1942 -0.3106
 5651SOL     OW28585   0.780   0.068  10.282  0.0272  0.3707  0.1134
 5651SOL    HW128586   0.852   0.132  10.275  0.0521  0.4268  0.8985
 5651SOL    HW228587   0.707   0.116  10.320  0.9505  2.1173 -0.2893
 5652SOL     OW28588   2.555   1.035  11.697 -0.1339  0.0492  0.1671
 5652SOL    HW128589   2.576   0.957  11.748  2.5585  0.6813  0.0116
 5652SOL    HW228590   2.533   1.095  11.768 -1.1912 -2.0064  1.5901
 5653SOL     OW28591   3.474   3.265  17.707  0.8053 -0.1171  0.6182
 5653SOL    HW128592   3.546   3.282   0.021  2.2545  0.5125 -1.2789
 5653SOL    HW228593   3.413   3.336  17.726  0.6782 -0.1134  0.2052
 5654SOL     OW28594   2.088   0.841  14.562  0.2941  0.1064 -0.3968
 5654SOL    HW128595   2.134   0.853  14.645  0.7777  0.1506 -0.6688
 5654SOL    HW228596   2.162   0.846  14.501  1.6786 -0.1275  1.2579
 5655SOL     OW28597   1.685   2.825   9.087 -0.3182  0.2614 -0.0617
 5655SOL    HW128598   1.655   2.915   9.099  0.2384  0.7663 -2.5722
 5655SOL    HW228599   1.724   2.835   9.000  1.2402 -2.1907  0.3560
 5656SOL     OW28600   3.297   1.524   4.167 -0.2429 -0.0782  0.6391
 5656SOL    HW128601   3.287   1.620   4.166  1.0460  0.0559 -0.1713
 5656SOL    HW228602   3.255   1.502   4.250 -0.4850 -0.2556  0.4685
 5657SOL     OW28603   1.347   2.289  16.798  0.0045 -0.5561  0.5525
 5657SOL    HW128604   1.415   2.316  16.735 -1.1452  0.9926 -0.0286
 5657SOL    HW228605   1.273   2.272  16.740  0.4099 -2.5334  0.6004
 5658SOL     OW28606   4.523   2.177  15.281  0.0667 -0.1442  0.0801
 5658SOL    HW128607   4.481   2.165  15.366 -0.7148 -3.0615 -0.7502
 5658SOL    HW228608   4.533   2.272  15.275 -2.4171  0.2189  1.8407
 5659SOL     OW28609   1.558   2.647   6.434 -0.5062  0.8935  0.3966
 5659SOL    HW128610   1.507   2.722   6.402 -0.8869 -0.1990 -1.5215
 5659SOL    HW228611   1.605   2.614   6.357 -0.5786  1.6583  0.0186
 5660SOL     OW28612   0.063   0.195   8.158 -0.0464 -0.1011 -0.1973
 5660SOL    HW128613   0.130   0.193   8.227 -1.8247  6.6126  1.7655
 5660SOL    HW228614   0.030   0.281   8.185  0.8074  0.4077 -0.7787
 5661SOL     OW28615   2.396   3.066   5.625  0.3781  0.3574  0.1985
 5661SOL    HW128616   2.389   3.080   5.720  1.8418  0.1890  0.3278
 5661SOL    HW228617   2.454   2.989   5.626  0.3478  0.3094 -2.4505
 5662SOL     OW28618   2.676   0.978   0.312 -0.6190  0.3207  0.0359
 5662SOL    HW128619   2.711   1.053   0.360  1.0856 -0.2723 -0.2886
 5662SOL    HW228620   2.758   0.940   0.283 -0.4694 -0.8166  1.9311
 5663SOL     OW28621   4.262   1.451   6.768 -0.0383  0.4172 -0.3185
 5663SOL    HW128622   4.349   1.420   6.793  0.2824  1.4256 -0.1879
 5663SOL    HW228623   4.274   1.546   6.762 -1.6559  0.6290 -0.2857
 5664SOL     OW28624   4.536   3.313   5.890  0.4823  0.5921  0.2368
 5664SOL    HW128625   4.536   3.224   5.856  0.1772 -0.0268  1.8466
 5664SOL    HW228626   4.588   3.304   5.970  2.4689 -0.1242 -1.1418
 5665SOL     OW28627   0.986   2.459  14.781 -0.0964  0.0635 -0.5444
 5665SOL    HW128628   1.045   2.413  14.721  1.0641  0.3644  0.3766
 5665SOL    HW228629   1.020   2.451  14.870 -0.1392  1.1584 -0.4240
 5666SOL     OW28630   3.990   0.843   5.185 -0.2889  0.7972 -0.3123
 5666SOL    HW128631   4.066   0.870   5.133 -1.5260  3.2228 -0.8411
 5666SOL    HW228632   4.014   0.879   5.270  1.4844 -0.6640 -0.1892
 5667SOL     OW28633   3.338   3.898   1.391  0.0770  0.2553 -0.5966
 5667SOL    HW128634   3.311   3.899   1.482  5.5344  3.3275  0.9908
 5667SOL    HW228635   3.269   3.948   1.348  0.2208 -0.6817 -1.9261
 5668SOL     OW28636   3.629   3.359   9.012 -0.5397  0.4788  0.7015
 5668SOL    HW128637   3.576   3.416   8.956  0.0973  1.3989  1.0300
 5668SOL    HW228638   3.708   3.414   9.009 -0.9751  1.0407 -0.5668
 5669SOL     OW28639   2.268   0.939   4.955  0.6496 -0.1672 -0.0107
 5669SOL    HW128640   2.300   0.970   5.040 -3.0076  0.5705  1.1371
 5669SOL    HW228641   2.344   0.906   4.909 -1.0156 -2.4067 -1.1559
 5670SOL     OW28642   1.989   1.943   1.729 -0.2447 -0.4442 -0.0014
 5670SOL    HW128643   1.950   1.863   1.695  0.6274 -1.1103  0.5850
 5670SOL    HW228644   1.956   2.004   1.663 -0.6210  0.8386  1.3605
 5671SOL     OW28645   4.424   0.137  12.368 -0.0118 -0.8087 -0.6304
 5671SOL    HW128646   4.401   0.047  12.343  0.4940 -1.0052 -0.3872
 5671SOL    HW228647   4.430   0.133  12.464  0.5630 -0.2049 -0.6398
 5672SOL     OW28648   4.139   2.819   6.034  0.6779  0.2561 -0.2343
 5672SOL    HW128649   4.134   2.866   6.118 -1.2540 -0.8815  0.2761
 5672SOL    HW228650   4.048   2.821   6.004  0.8525 -0.8505 -0.8367
 5673SOL     OW28651   1.870   3.751   8.446 -0.7639  0.3686  0.4561
 5673SOL    HW128652   1.955   3.707   8.445 -1.6485 -1.3616  1.2409
 5673SOL    HW228653   1.865   3.794   8.531  1.7386 -0.1857  0.8749
 5674SOL     OW28654   2.123   0.593  12.389 -0.6421  0.2071 -0.2925
 5674SOL    HW128655   2.064   0.520  12.373  0.4472 -0.2146 -2.4057
 5674SOL    HW228656   2.209   0.560  12.364 -0.1782  0.3686  1.0722
 5675SOL     OW28657   4.414   3.281   6.378  0.2314  0.3424  0.4300
 5675SOL    HW128658   4.404   3.225   6.301  0.7405  0.2155  0.4589
 5675SOL    HW228659   4.349   3.241   6.436 -0.2982  1.1678  0.4075
 5676SOL     OW28660   3.646   4.405   7.260  0.8251  0.0397 -0.3095
 5676SOL    HW128661   3.556   4.370   7.262  0.8573 -0.1160 -1.5426
 5676SOL    HW228662   3.651   4.472   7.328  0.6715 -2.3205  2.0188
 5677SOL     OW28663   2.136   0.108   8.080 -0.3193  0.4440 -0.3131
 5677SOL    HW128664   2.102   0.028   8.121  0.5705 -0.0056 -0.4633
 5677SOL    HW228665   2.169   0.061   8.003  0.1222 -1.4387  1.0279
 5678SOL     OW28666   0.162   1.815  14.793 -0.1994  0.1498 -0.6678
 5678SOL    HW128667   0.250   1.784  14.814 -0.7815 -0.6986  0.5424
 5678SOL    HW228668   0.131   1.738  14.746 -1.6090  1.7212 -2.3337
 5679SOL     OW28669   3.923   4.479   3.127  0.4286 -0.2061  0.2201
 5679SOL    HW128670   3.913   4.499   3.034 -0.7317  2.1597  0.8641
 5679SOL    HW228671   3.832   4.466   3.154  0.1779 -0.1318 -0.5915
 5680SOL     OW28672   3.741   2.261   5.555  0.0628  0.5471  0.4832
 5680SOL    HW128673   3.677   2.332   5.558  0.9072  1.3289  0.0178
 5680SOL    HW228674   3.716   2.211   5.633  0.3456 -0.6285 -0.1781
 5681SOL     OW28675   0.456   0.320   4.600 -0.4234  0.1301 -0.3697
 5681SOL    HW128676   0.432   0.371   4.523 -0.8625 -0.3346 -0.5431
 5681SOL    HW228677   0.542   0.290   4.572  0.4526  2.3069  0.0374
 5682SOL     OW28678   1.932   3.840   1.529  0.2121 -0.4134 -0.2704
 5682SOL    HW128679   1.885   3.900   1.472  0.6136  0.1270 -0.0329
 5682SOL    HW228680   1.943   3.765   1.470  0.3162 -0.5999 -0.0098
 5683SOL     OW28681   1.151   3.311   1.388  0.3362  0.1648 -0.3609
 5683SOL    HW128682   1.208   3.280   1.318  0.7206  0.6390 -0.2622
 5683SOL    HW228683   1.071   3.327   1.338  0.2469 -3.4828 -1.3540
 5684SOL     OW28684   2.669   4.232   4.950 -0.2594  0.2044 -0.2360
 5684SOL    HW128685   2.659   4.307   5.008 -1.0649  0.2984 -0.4965
 5684SOL    HW228686   2.720   4.169   5.001 -1.0746 -1.9797 -2.1317
 5685SOL     OW28687   3.949   3.112  14.920  0.2425  0.2845  0.0138
 5685SOL    HW128688   3.978   3.144  15.006 -1.3915 -1.4406  1.2123
 5685SOL    HW228689   4.024   3.147  14.872  1.1487 -2.0932 -0.2824
 5686SOL     OW28690   0.554   0.907   2.145 -0.1821  0.2278  0.4676
 5686SOL    HW128691   0.561   0.978   2.081  0.1933 -0.3108 -0.0923
 5686SOL    HW228692   0.459   0.894   2.140 -0.0909 -0.2643  0.0359
 5687SOL     OW28693   0.882   2.808   8.991  0.0649 -0.2617  0.0115
 5687SOL    HW128694   0.949   2.829   9.056 -0.5738  0.9819  0.2678
 5687SOL    HW228695   0.883   2.712   8.987 -2.6585 -0.3019  0.2829
 5688SOL     OW28696   4.629   1.340   8.962 -0.0893 -0.5635 -0.3197
 5688SOL    HW128697   4.610   1.427   8.998 -1.3035 -1.5585  1.4557
 5688SOL    HW228698   4.716   1.316   8.993 -0.0740  1.8634  1.4898
 5689SOL     OW28699   3.659   2.256   7.363 -0.1040 -0.2403  0.2112
 5689SOL    HW128700   3.698   2.317   7.425  1.5031 -0.0355 -0.9963
 5689SOL    HW228701   3.717   2.282   7.292  0.6496 -1.3351  0.4253
 5690SOL     OW28702   3.620   2.807   8.115  0.5082  0.0747  0.3745
 5690SOL    HW128703   3.704   2.790   8.072  0.5227 -1.4887  1.0400
 5690SOL    HW228704   3.629   2.748   8.190  2.5817  1.6854  1.4014
 5691SOL     OW28705   1.423   3.184   8.375 -0.0373  0.1028 -0.5257
 5691SOL    HW128706   1.422   3.089   8.373 -3.3721  0.1273  0.5930
 5691SOL    HW228707   1.488   3.208   8.441 -0.2682  2.8455 -1.2784
 5692SOL     OW28708   3.259   3.533   5.778  0.3666 -0.5741 -0.1141
 5692SOL    HW128709   3.240   3.584   5.699 -2.5426  2.0726  2.2880
 5692SOL    HW228710   3.293   3.453   5.737  1.9245  0.1231 -0.1775
 5693SOL     OW28711   2.650   0.368   7.023 -0.0869  0.5832  0.2759
 5693SOL    HW128712   2.648   0.456   6.985 -0.4987  0.5152  0.1453
 5693SOL    HW228713   2.605   0.320   6.954 -0.2685 -1.1593  1.6334
 5694SOL     OW28714   1.409   2.943  12.082  0.0451  0.4725 -0.0704
 5694SOL    HW128715   1.476   3.007  12.103  0.8655 -0.9688  1.7348
 5694SOL    HW228716   1.376   2.924  12.170 -1.0074 -0.3310 -0.6324
 5695SOL     OW28717   2.491   4.488   7.216  0.0226  0.1514  0.6057
 5695SOL    HW128718   2.407   4.449   7.190 -0.0535 -0.0154  1.0978
 5695SOL    HW228719   2.545   4.482   7.138  0.6479 -2.2064  1.2200
 5696SOL     OW28720   2.890   1.420   8.388  0.3077 -0.2258  0.0246
 5696SOL    HW128721   2.967   1.475   8.388 -0.0201  0.2245  1.2438
 5696SOL    HW228722   2.849   1.456   8.309  1.3579 -0.1590 -0.4827
 5697SOL     OW28723   4.346   2.704   4.059  0.7708  0.3164  0.3826
 5697SOL    HW128724   4.271   2.667   4.106 -0.4362 -1.0644 -2.6132
 5697SOL    HW228725   4.310   2.766   3.996  1.3396  1.0040  0.7403
 5698SOL     OW28726   3.840   0.037  14.191  0.7314  0.0078 -0.5367
 5698SOL    HW128727   3.780   0.056  14.120  0.7373  1.5632 -0.1359
 5698SOL    HW228728   3.815   0.115  14.241  0.3244 -0.8796  0.6337
 5699SOL     OW28729   2.111   1.689   6.191 -0.7228  0.5575  0.1217
 5699SOL    HW128730   2.113   1.599   6.223 -0.6797  0.0263 -1.3771
 5699SOL    HW228731   2.189   1.696   6.135 -0.0913  2.2509  1.1801
 5700SOL     OW28732   0.155   0.189   3.401  0.5070  0.5249 -0.3202
 5700SOL    HW128733   0.216   0.115   3.397 -0.0071  0.0455  0.5761
 5700SOL    HW228734   0.223   0.256   3.407 -0.0170  1.0000  0.3153
 5701SOL     OW28735   2.272   3.918   2.489 -0.3181  0.2122 -0.3188
 5701SOL    HW128736   2.331   3.986   2.458 -1.0709  0.9507 -0.1246
 5701SOL    HW228737   2.188   3.950   2.455  0.6199  1.4009 -1.4907
 5702SOL     OW28738   3.638   1.480  12.446  0.0853  0.1693  0.0598
 5702SOL    HW128739   3.591   1.563  12.433 -0.5275 -0.3053 -0.7072
 5702SOL    HW228740   3.663   1.481  12.538  0.2745  1.0373 -0.0015
 5703SOL     OW28741   2.273   2.299   1.688  0.1493  0.2098  0.2009
 5703SOL    HW128742   2.269   2.208   1.658  1.2138  0.3962 -0.5073
 5703SOL    HW228743   2.368   2.303   1.699  0.2350  0.1891 -0.5698
 5704SOL     OW28744   2.063   1.848  13.973 -0.3848 -0.4092 -0.2935
 5704SOL    HW128745   1.970   1.845  13.994 -0.5989 -1.8452 -1.4450
 5704SOL    HW228746   2.102   1.877  14.055  0.7646  0.0668 -0.9955
 5705SOL     OW28747   3.904   3.707   3.608 -0.0772  0.4776  0.3443
 5705SOL    HW128748   3.846   3.781   3.629 -0.6145 -0.4734  2.2568
 5705SOL    HW228749   3.978   3.720   3.667  0.1701  0.4393  0.0353
 5706SOL     OW28750   2.376   1.337   5.229 -0.1117  0.0826 -0.1362
 5706SOL    HW128751   2.391   1.287   5.149  0.3956 -1.1338  0.7088
 5706SOL    HW228752   2.401   1.422   5.194 -1.0645  0.1666 -0.5976
 5707SOL     OW28753   2.438   0.674   2.247 -0.5302  0.1074 -0.3965
 5707SOL    HW128754   2.401   0.586   2.260  0.2830 -0.0281  0.9171
 5707SOL    HW228755   2.387   0.731   2.304  1.1233  2.1948 -1.0121
 5708SOL     OW28756   3.948   4.361   8.096  0.0025 -0.6274  0.6844
 5708SOL    HW128757   3.930   4.416   8.173  0.2752  0.2584  0.1204
 5708SOL    HW228758   3.870   4.381   8.045  0.3803  0.6107  0.5868
 5709SOL     OW28759   3.352   1.666   8.396  0.2306  0.0690  0.3171
 5709SOL    HW128760   3.387   1.658   8.307 -2.7840  0.8143 -0.9307
 5709SOL    HW228761   3.408   1.610   8.449 -0.6181 -1.1308 -0.0382
 5710SOL     OW28762   2.101   2.103  16.424 -0.0185 -0.5346  0.3519
 5710SOL    HW128763   2.164   2.173  16.405 -0.6705 -0.0251  0.0469
 5710SOL    HW228764   2.161   2.030  16.409 -0.0321 -0.2467 -1.1199
 5711SOL     OW28765   2.217   4.631   7.908  0.2728  0.1011  0.3528
 5711SOL    HW128766   2.207   4.562   7.973  0.0785 -0.1855  0.0216
 5711SOL    HW228767   2.148   4.604   7.848 -0.3218  0.6225  0.8031
 5712SOL     OW28768   2.350   1.718   2.722  0.1928  0.3016 -0.4244
 5712SOL    HW128769   2.332   1.699   2.814  0.3116  0.1132 -0.4407
 5712SOL    HW228770   2.430   1.670   2.700  0.9238  1.4772 -0.3448
 5713SOL     OW28771   4.478   0.157  11.346 -0.3684 -0.6744 -0.1528
 5713SOL    HW128772   4.415   0.147  11.275 -2.3456  1.7472  1.2864
 5713SOL    HW228773   4.420   0.215  11.395  1.3773  0.7096  0.2750
 5714SOL     OW28774   0.949   0.183   8.674  0.0452 -0.0661  0.3107
 5714SOL    HW128775   0.867   0.225   8.647  0.3019 -0.2550 -0.7581
 5714SOL    HW228776   0.991   0.258   8.715 -1.2653  0.2357  1.1018
 5715SOL     OW28777   4.350   2.376   2.466 -0.1803  0.4497 -0.2615
 5715SOL    HW128778   4.262   2.361   2.501  0.5545 -1.0296  0.9576
 5715SOL    HW228779   4.321   2.367   2.375  0.1967 -1.9568 -0.1528
 5716SOL     OW28780   4.556   2.180   2.964 -0.1311 -0.4249 -0.3537
 5716SOL    HW128781   4.502   2.257   2.943  0.1906  0.6704  2.8572
 5716SOL    HW228782   4.490   2.120   2.999 -1.0963 -0.4121 -2.1139
 5717SOL     OW28783   3.274   1.194  13.618  0.4604 -0.0161  0.0650
 5717SOL    HW128784   3.187   1.230  13.599  0.1922 -0.6433  0.0667
 5717SOL    HW228785   3.314   1.199  13.532  0.0600  0.6425 -0.0832
 5718SOL     OW28786   3.356   2.088   6.065 -0.3488 -1.2183  0.1600
 5718SOL    HW128787   3.275   2.048   6.095 -1.2405  0.1280 -0.4668
 5718SOL    HW228788   3.367   2.029   5.991  0.2430 -2.1030  0.9546
 5719SOL     OW28789   0.190   3.761   8.862  0.1479  0.5563 -0.1720
 5719SOL    HW128790   0.134   3.739   8.788  0.5045  2.0359 -0.8752
 5719SOL    HW228791   0.173   3.855   8.870  1.1192  0.5840  1.4782
 5720SOL     OW28792   0.844   0.054   6.383  0.0158  0.2238 -0.9449
 5720SOL    HW128793   0.898   4.719   6.416 -1.8519 -0.2139  1.1660
 5720SOL    HW228794   0.854   0.117   6.455 -0.0648  0.3894 -1.0812
 5721SOL     OW28795   3.124   3.771   8.017  0.1507 -0.0344  0.5012
 5721SOL    HW128796   3.101   3.855   7.978  2.7671  1.1060  1.4121
 5721SOL    HW228797   3.115   3.795   8.109  0.6695  2.1817 -0.0193
 5722SOL     OW28798   1.152   2.734   2.858 -0.0606 -0.3865  0.2611
 5722SOL    HW128799   1.159   2.829   2.864 -0.1580 -0.4126  0.7804
 5722SOL    HW228800   1.140   2.702   2.948  2.3658 -1.8628  0.0488
 5723SOL     OW28801   2.814   2.819   9.572 -0.1705  0.1628 -0.3255
 5723SOL    HW128802   2.790   2.903   9.533  0.4424  0.6683  0.3886
 5723SOL    HW228803   2.755   2.765   9.519 -0.0096 -2.3530  2.0706
 5724SOL     OW28804   4.011   0.757   8.014  0.0033  0.2327 -0.6350
 5724SOL    HW128805   3.924   0.717   8.015 -0.4011  1.1436  0.7297
 5724SOL    HW228806   4.049   0.718   7.935 -1.0348 -2.4066  0.1549
 5725SOL     OW28807   2.500   1.302   9.237 -0.7790 -0.6437 -0.2265
 5725SOL    HW128808   2.513   1.319   9.144 -1.7415 -1.8125 -0.5717
 5725SOL    HW228809   2.511   1.207   9.241  0.1895 -0.4947  0.5544
 5726SOL     OW28810   0.665   2.209   2.225  0.3192 -0.1066 -0.6140
 5726SOL    HW128811   0.659   2.250   2.312 -0.8066  1.1590 -1.2865
 5726SOL    HW228812   0.579   2.166   2.230  1.1836 -2.0549 -2.8522
 5727SOL     OW28813   0.419   3.155   8.252 -0.6050 -0.4720  0.1854
 5727SOL    HW128814   0.370   3.115   8.180  1.1859 -0.6076 -0.9561
 5727SOL    HW228815   0.355   3.208   8.299 -1.8920 -0.6675 -1.3717
 5728SOL     OW28816   3.628   1.964   6.173 -0.0349  0.3175  0.3775
 5728SOL    HW128817   3.547   1.965   6.224 -0.6922  1.3177 -0.6854
 5728SOL    HW228818   3.613   1.884   6.122  1.5500  0.2803 -0.0317
 5729SOL     OW28819   2.322   1.854   2.154 -0.4090 -0.2087  0.0847
 5729SOL    HW128820   2.271   1.858   2.073 -0.9246 -1.3784  0.3528
 5729SOL    HW228821   2.308   1.944   2.182  0.7218  0.5339 -1.7103
 5730SOL     OW28822   3.796   3.826   5.134  0.2935 -0.1313  0.4347
 5730SOL    HW128823   3.772   3.765   5.064  0.6684  0.7162 -0.4486
 5730SOL    HW228824   3.888   3.804   5.151  0.3440  1.7810  2.6301
 5731SOL     OW28825   4.306   2.552   2.052 -0.6126 -0.2144  0.3462
 5731SOL    HW128826   4.313   2.495   2.128  1.7543 -0.5239 -0.0781
 5731SOL    HW228827   4.229   2.517   2.008  0.2515 -1.5748 -0.0892
 5732SOL     OW28828   2.629   1.522  16.566  0.2812  0.4366 -0.3279
 5732SOL    HW128829   2.672   1.442  16.538  0.6901  0.4539  0.2628
 5732SOL    HW228830   2.694   1.592  16.560  0.0669  0.7728  1.3518
 5733SOL     OW28831   2.666   0.386   4.271  0.5066 -0.3232 -0.0983
 5733SOL    HW128832   2.582   0.355   4.304  0.3242  0.7137  0.4144
 5733SOL    HW228833   2.644   0.462   4.218  1.4475  0.0415  0.0394
 5734SOL     OW28834   3.624   2.767   3.752 -0.1998 -0.0690 -0.1255
 5734SOL    HW128835   3.624   2.726   3.839 -1.4094 -0.9194 -0.5147
 5734SOL    HW228836   3.580   2.849   3.772  2.2143  0.6904  2.1043
 5735SOL     OW28837   4.159   3.331   5.305  0.2160  0.0941 -0.1034
 5735SOL    HW128838   4.149   3.324   5.400  1.8862 -0.2498  0.0342
 5735SOL    HW228839   4.196   3.244   5.294  0.6968  0.3984 -0.8753
 5736SOL     OW28840   3.519   2.513   1.510 -0.3501  0.6028 -0.2679
 5736SOL    HW128841   3.446   2.453   1.529 -0.2174  0.8090  0.9165
 5736SOL    HW228842   3.582   2.465   1.457 -1.3766 -2.8703  1.6333
 5737SOL     OW28843   0.898   3.580   9.410  0.4204  0.2912  0.0714
 5737SOL    HW128844   0.882   3.629   9.491 -0.3247 -1.4381  0.9767
 5737SOL    HW228845   0.810   3.576   9.372  0.7333  1.3829 -0.7634
 5738SOL     OW28846   0.710   3.767   1.043  0.6877  0.3448  0.0117
 5738SOL    HW128847   0.662   3.839   1.083  1.9511  0.4073  1.4267
 5738SOL    HW228848   0.733   3.724   1.126 -1.3366  1.6847  1.2600
 5739SOL     OW28849   3.633   1.737   5.620 -0.1802  0.2651 -0.4405
 5739SOL    HW128850   3.728   1.740   5.610 -0.3228  1.4783 -1.4466
 5739SOL    HW228851   3.622   1.787   5.701 -0.2209 -0.7327  0.1730
 5740SOL     OW28852   2.553   3.580   7.804  0.4157  0.6958 -0.5941
 5740SOL    HW128853   2.498   3.503   7.820  4.8245 -2.1199  1.1049
 5740SOL    HW228854   2.566   3.601   7.897 -1.0213 -0.2483 -0.1798
 5741SOL     OW28855   2.262   1.297  16.157 -0.0693 -0.3132 -0.6121
 5741SOL    HW128856   2.353   1.272  16.175  0.0580 -0.5047 -1.5172
 5741SOL    HW228857   2.272   1.335  16.070  0.2421 -1.9763 -1.2971
 5742SOL     OW28858   4.654   1.370  15.494  0.6094 -0.4194  1.3492
 5742SOL    HW128859   4.578   1.338  15.445 -0.6649  2.2673  1.5555
 5742SOL    HW228860   4.733   1.347  15.446  1.2184 -0.4926  2.3880
 5743SOL     OW28861   1.981   4.031   4.706 -0.5131  0.3900  0.7002
 5743SOL    HW128862   1.890   4.024   4.677  0.0707  0.8023 -1.2289
 5743SOL    HW228863   1.989   4.098   4.773  2.7371 -0.0304  0.7637
 5744SOL     OW28864   2.310   4.559  10.665 -0.3865 -0.1993 -0.2715
 5744SOL    HW128865   2.237   4.611  10.632  0.5723  0.7264 -0.9396
 5744SOL    HW228866   2.292   4.544  10.758 -1.8323 -1.4728 -0.7650
 5745SOL     OW28867   2.227   4.732   0.173 -0.3022  0.6850  0.1996
 5745SOL    HW128868   2.261   0.047   0.245  1.7739  1.0304 -1.0060
 5745SOL    HW228869   2.303   4.727   0.115 -0.6891  1.3727 -0.3697
 5746SOL     OW28870   1.468   0.444  15.050 -0.0421 -0.3613  0.2479
 5746SOL    HW128871   1.515   0.407  15.125 -0.0132 -0.4672  0.1777
 5746SOL    HW228872   1.379   0.417  15.072  0.5058  0.1091  3.0754
 5747SOL     OW28873   0.269   4.196   3.039 -0.2743 -0.2011  0.4574
 5747SOL    HW128874   0.290   4.104   3.020  0.5371 -0.0402  0.5875
 5747SOL    HW228875   0.334   4.237   2.981 -3.0156 -0.3883 -2.7551
 5748SOL     OW28876   0.016   3.941  16.070  0.3248  0.4268 -0.0055
 5748SOL    HW128877   0.028   3.863  16.017 -0.0852  0.2782  0.1187
 5748SOL    HW228878   4.662   3.932  16.100  0.6234 -0.3497  0.6482
 5749SOL     OW28879   4.144   1.602  12.969 -0.0650  0.2323 -0.5242
 5749SOL    HW128880   4.083   1.544  13.015 -0.0750  1.6403  1.2508
 5749SOL    HW228881   4.116   1.589  12.879  0.7716 -1.6731 -0.5178
 5750SOL     OW28882   1.796   1.905   6.412 -0.1994  0.0439 -0.5608
 5750SOL    HW128883   1.775   1.860   6.494 -2.5182 -1.1942 -1.8384
 5750SOL    HW228884   1.858   1.972   6.439 -1.1856  0.5607  0.4096
 5751SOL     OW28885   1.499   1.248   6.819  0.4028  0.0202  0.2987
 5751SOL    HW128886   1.531   1.183   6.882  0.3406 -0.7394 -0.4470
 5751SOL    HW228887   1.512   1.203   6.735  0.5610  0.0189  0.3253
 5752SOL     OW28888   1.951   0.221   5.798 -0.0989  0.6732  0.0624
 5752SOL    HW128889   1.896   0.158   5.844  1.8355 -0.8237  0.3364
 5752SOL    HW228890   2.039   0.217   5.835 -0.1463  0.6131  0.1705
 5753SOL     OW28891   0.020   4.305   7.510 -0.2092 -0.2997  0.3027
 5753SOL    HW128892   0.049   4.244   7.442  0.7149 -0.3121  0.7203
 5753SOL    HW228893   0.007   4.378   7.449 -1.1255  1.3730  2.4939
 5754SOL     OW28894   2.578   2.604  12.353 -0.5034  0.6341  0.2570
 5754SOL    HW128895   2.642   2.565  12.413 -1.9631  0.0242  1.3960
 5754SOL    HW228896   2.622   2.687  12.333 -0.8854  0.6182 -0.6375
 5755SOL     OW28897   3.476   0.542   6.599  0.4586  0.2476  0.1747
 5755SOL    HW128898   3.489   0.515   6.508 -2.1122  1.3817 -0.5064
 5755SOL    HW228899   3.396   0.497   6.627  1.3990 -1.7969 -0.4015
 5756SOL     OW28900   4.672   4.319   2.684  0.4654 -0.4956 -0.5841
 5756SOL    HW128901   4.577   4.316   2.700  0.7216 -0.0228  1.0724
 5756SOL    HW228902   4.710   4.237   2.715 -1.2944 -0.5241  1.5645
 5757SOL     OW28903   2.836   0.262  13.022 -0.0779  0.2388 -0.4823
 5757SOL    HW128904   2.758   0.312  13.043  0.5455  0.3715  1.4748
 5757SOL    HW228905   2.878   0.314  12.953 -1.1180  1.4405 -0.2035
 5758SOL     OW28906   1.016   4.041   4.353 -0.4155  0.2259 -0.2472
 5758SOL    HW128907   1.092   4.015   4.301 -0.0225  0.3866  0.2402
 5758SOL    HW228908   0.978   4.117   4.309  0.2618  1.3452  1.0913
 5759SOL     OW28909   0.530   3.292   4.107 -0.3678 -0.3199  0.2603
 5759SOL    HW128910   0.534   3.269   4.200 -0.7449  1.4736  0.7284
 5759SOL    HW228911   0.575   3.376   4.114  0.7044 -1.0179  1.7913
 5760SOL     OW28912   4.704   1.474  15.751 -0.0512 -0.0566 -0.1952
 5760SOL    HW128913   4.690   1.565  15.727 -2.0063  0.0260  1.1977
 5760SOL    HW228914   4.696   1.442  15.661  0.5326  1.3676 -0.7475
 5761SOL     OW28915   1.407   4.357   4.997  0.3271  0.3895 -0.2404
 5761SOL    HW128916   1.486   4.391   5.039  1.1185 -3.3760  1.3707
 5761SOL    HW228917   1.333   4.369   5.057  0.6960 -0.2159  0.3365
 5762SOL     OW28918   0.657   1.634   2.120  0.1579 -0.2551 -0.2667
 5762SOL    HW128919   0.635   1.590   2.038 -0.6716 -0.1732 -0.0853
 5762SOL    HW228920   0.676   1.724   2.092  1.3804 -0.5790 -0.4781
 5763SOL     OW28921   3.544   4.735  16.238  0.6500  0.1489  0.1605
 5763SOL    HW128922   3.457   4.719  16.202  0.8074 -1.9604  0.7550
 5763SOL    HW228923   3.540   0.090  16.266  1.0334  0.5784 -1.2229
 5764SOL     OW28924   0.083   2.796   7.083  0.1047 -0.0165  0.5120
 5764SOL    HW128925   0.065   2.850   7.160 -0.3024  0.9461 -0.2592
 5764SOL    HW228926   0.045   2.851   7.014 -0.2746  0.1140  0.8254
 5765SOL     OW28927   0.927   1.278   7.737  0.1925 -0.1242 -0.1210
 5765SOL    HW128928   1.018   1.275   7.764  0.3973 -0.7050 -0.8993
 5765SOL    HW228929   0.883   1.329   7.806  0.4540  0.9583 -0.7553
 5766SOL     OW28930   3.596   1.699   9.995 -0.1053  0.5394 -0.0678
 5766SOL    HW128931   3.562   1.735  10.077  1.9814  2.0704  0.1015
 5766SOL    HW228932   3.511   1.691   9.951  0.5501 -1.0726 -1.0506
 5767SOL     OW28933   0.088   0.873   3.314  0.1208  0.0169  0.1337
 5767SOL    HW128934   0.049   0.938   3.372  0.2669  0.5984 -0.4175
 5767SOL    HW228935   0.010   0.824   3.287  1.1190 -1.0277 -0.8592
 5768SOL     OW28936   4.349   0.941   4.494  0.1476 -0.3405  0.3889
 5768SOL    HW128937   4.288   0.887   4.544  0.5270  1.5237  2.8933
 5768SOL    HW228938   4.430   0.922   4.541  0.1739 -2.0302 -0.3582
 5769SOL     OW28939   1.424   1.783   4.889  0.3170 -0.1680  0.3746
 5769SOL    HW128940   1.423   1.762   4.982  2.1028 -2.7532 -0.2035
 5769SOL    HW228941   1.393   1.873   4.897  0.6246  0.2081 -2.5841
 5770SOL     OW28942   2.865   4.577   9.771 -0.1800  0.5764  0.6123
 5770SOL    HW128943   2.872   4.509   9.838  0.0194  0.4291  0.4412
 5770SOL    HW228944   2.957   4.579   9.744 -0.4062 -1.8111 -0.3255
 5771SOL     OW28945   4.266   2.529   9.688 -0.8955 -0.1521  0.2613
 5771SOL    HW128946   4.302   2.547   9.601 -1.8040 -0.6356 -0.2201
 5771SOL    HW228947   4.341   2.547   9.744 -1.1826 -0.4516  0.7459
 5772SOL     OW28948   1.607   3.184  11.552  0.5701  0.2828  0.2171
 5772SOL    HW128949   1.657   3.102  11.557 -1.2200 -0.7650  0.8819
 5772SOL    HW228950   1.542   3.153  11.614 -0.7458  1.9778 -0.3110
 5773SOL     OW28951   0.417   1.132   9.483  0.0708  0.4654 -0.4295
 5773SOL    HW128952   0.419   1.051   9.534  1.6031 -1.3785 -3.4334
 5773SOL    HW228953   0.328   1.162   9.500 -1.0500 -2.5886 -1.0720
 5774SOL     OW28954   4.614   0.224   4.510 -0.0160 -0.0767 -0.3059
 5774SOL    HW128955   4.551   0.171   4.560  0.0144 -0.4988 -0.7191
 5774SOL    HW228956   4.691   0.167   4.517  1.0428  1.4822  0.6247
 5775SOL     OW28957   4.237   0.552   9.274  0.3646  0.5098  0.4589
 5775SOL    HW128958   4.243   0.457   9.283  0.1978  0.2610 -2.2255
 5775SOL    HW228959   4.241   0.569   9.180 -1.0149  2.1130  0.7008
 5776SOL     OW28960   2.388   1.652  10.996 -0.5071 -0.0570 -0.4878
 5776SOL    HW128961   2.444   1.575  11.004 -0.0893  0.2882 -0.1021
 5776SOL    HW228962   2.321   1.612  10.941 -1.0125 -1.0422  0.8467
 5777SOL     OW28963   3.195   3.164   1.468 -0.4893 -0.0004  0.3642
 5777SOL    HW128964   3.119   3.113   1.497  0.9046 -3.4575 -2.2654
 5777SOL    HW228965   3.170   3.246   1.511  1.5616  1.4323 -1.2007
 5778SOL     OW28966   0.001   3.140   1.515  0.1325  0.6202 -0.8161
 5778SOL    HW128967   0.008   3.124   1.421 -0.0916  2.1330 -1.0984
 5778SOL    HW228968   0.051   3.222   1.522  1.6433 -0.1818 -2.1390
 5779SOL     OW28969   0.905   2.791   6.073  0.2873 -0.2430  0.2668
 5779SOL    HW128970   0.939   2.799   6.162  0.6851  2.5985 -0.1436
 5779SOL    HW228971   0.926   2.698   6.068  1.1238 -0.2816  4.1752
 5780SOL     OW28972   4.648   2.148   7.324 -0.3271 -0.0092 -0.2020
 5780SOL    HW128973   4.698   2.166   7.245 -1.2843  2.2674 -0.2673
 5780SOL    HW228974   4.607   2.232   7.341  1.5227  0.5620  1.5228
 5781SOL     OW28975   2.966   2.172   3.997 -0.1302  0.0635 -0.2044
 5781SOL    HW128976   2.970   2.128   3.912 -0.7458  1.4006 -0.9338
 5781SOL    HW228977   3.016   2.253   3.990  1.0770 -0.5587  1.2347
 5782SOL     OW28978   3.317   3.821   3.441 -0.3185  0.1577  0.0976
 5782SOL    HW128979   3.314   3.915   3.424 -0.5132 -0.1059 -1.2936
 5782SOL    HW228980   3.254   3.810   3.513 -1.6719  1.2005 -0.9284
 5783SOL     OW28981   1.453   2.796   5.927 -0.3484 -0.0603  0.1388
 5783SOL    HW128982   1.528   2.778   5.983  0.6853  0.5610 -1.0163
 5783SOL    HW228983   1.452   2.730   5.857  0.6569 -0.4858  0.5345
 5784SOL     OW28984   4.410   1.635   5.820 -0.2848 -0.3123  0.2094
 5784SOL    HW128985   4.470   1.676   5.882 -0.3103  2.7218 -1.7822
 5784SOL    HW228986   4.459   1.553   5.810  0.1520  0.0301 -0.4083
 5785SOL     OW28987   3.541   0.566   5.604  0.1580  1.1094  0.2034
 5785SOL    HW128988   3.476   0.624   5.644  0.0964  2.0227 -1.1956
 5785SOL    HW228989   3.505   0.535   5.521  0.3566  1.0232  0.1492
 5786SOL     OW28990   2.934   1.236   2.609 -0.3048  0.6942 -0.0305
 5786SOL    HW128991   2.921   1.235   2.704 -0.1731  1.3736 -0.0036
 5786SOL    HW228992   2.988   1.157   2.597  2.3853  2.1664  2.2613
 5787SOL     OW28993   0.812   0.626  14.395  0.6277  0.1977  0.3799
 5787SOL    HW128994   0.793   0.552  14.337 -2.7312  1.1218  0.3601
 5787SOL    HW228995   0.904   0.605  14.415  0.8623  1.8161  1.0398
 5788SOL     OW28996   0.081   0.267   2.649 -0.9717 -0.7301 -0.0859
 5788SOL    HW128997   0.010   0.286   2.589 -0.2343  0.1735 -0.6633
 5788SOL    HW228998   0.096   0.177   2.619 -0.5015  0.6731 -3.9503
 5789SOL     OW28999   2.134   1.145   4.741  0.2192 -0.3997 -0.5631
 5789SOL    HW129000   2.179   1.159   4.658  1.5823  1.0006  0.4160
 5789SOL    HW229001   2.216   1.133   4.790  0.7269  1.1637 -1.0459
 5790SOL     OW29002   2.789   0.907   8.129  0.3885 -0.7324 -0.0034
 5790SOL    HW129003   2.840   0.846   8.184 -1.7910 -1.2669  1.4117
 5790SOL    HW229004   2.861   0.952   8.084 -1.3743  0.4311 -1.6483
 5791SOL     OW29005   1.633   3.174  11.284  0.0842 -0.1767 -0.2134
 5791SOL    HW129006   1.635   3.156  11.378  3.0180 -0.9433 -0.4021
 5791SOL    HW229007   1.550   3.130  11.270 -0.8036  1.4993 -0.2816
 5792SOL     OW29008   3.232   3.105   3.078 -0.0304 -0.1764  0.6738
 5792SOL    HW129009   3.311   3.135   3.034 -0.7033 -0.1096 -0.4748
 5792SOL    HW229010   3.249   3.129   3.169 -0.3756 -2.6237  1.3934
 5793SOL     OW29011   3.939   3.100   6.453  0.0674 -0.2869 -0.7397
 5793SOL    HW129012   3.906   3.111   6.542  0.8813 -0.6371 -0.3894
 5793SOL    HW229013   3.879   3.155   6.403 -1.1804 -0.1602  0.9156
 5794SOL     OW29014   0.422   1.499   3.129 -0.5298  0.2889  0.1742
 5794SOL    HW129015   0.327   1.509   3.125 -0.6191 -0.2050  0.9569
 5794SOL    HW229016   0.457   1.494   3.041  0.3563 -2.8422  0.7033
 5795SOL     OW29017   2.008   2.918   5.665  0.1629  0.5210  0.3437
 5795SOL    HW129018   2.100   2.943   5.664  0.1854  0.4658  1.1087
 5795SOL    HW229019   2.012   2.838   5.719  1.7743  0.2071 -0.2523
 5796SOL     OW29020   2.899   0.985   3.305 -0.4793 -0.2353 -0.0089
 5796SOL    HW129021   2.857   1.021   3.383  0.8550 -0.3082  0.7488
 5796SOL    HW229022   2.872   0.893   3.315 -2.6260  0.3373 -0.5625
 5797SOL     OW29023   2.614   0.478   3.649 -0.2579 -0.2196  0.2562
 5797SOL    HW129024   2.609   0.392   3.608  1.6404 -1.0790  1.8414
 5797SOL    HW229025   2.695   0.506   3.606 -0.1954  1.3056  1.3762
 5798SOL     OW29026   0.480   2.083   4.944  0.1144  0.1703  0.7094
 5798SOL    HW129027   0.453   2.153   5.004  2.1304  0.7839  0.8789
 5798SOL    HW229028   0.437   2.009   4.987  0.4402 -0.3618  0.1268
 5799SOL     OW29029   2.444   1.100  16.927 -0.2561  0.2692  0.7491
 5799SOL    HW129030   2.439   1.161  17.000  0.9058  0.4155  0.6951
 5799SOL    HW229031   2.534   1.111  16.897 -0.5553  0.6768 -0.0039
 5800SOL     OW29032   3.632   0.885  10.099 -0.0877  0.0971  0.1834
 5800SOL    HW129033   3.608   0.944  10.026  2.6368  1.1251  0.1151
 5800SOL    HW229034   3.720   0.917  10.117 -0.3246  2.2113 -2.2778
 5801SOL     OW29035   3.060   2.264   6.988  0.0417 -0.3290  0.1896
 5801SOL    HW129036   3.103   2.289   7.070 -0.6554  0.0725  0.4312
 5801SOL    HW229037   3.131   2.214   6.949 -1.1852 -1.1148 -1.0089
 5802SOL     OW29038   2.264   1.786   3.755  0.6520  0.1459  0.0046
 5802SOL    HW129039   2.209   1.854   3.717  0.8909  1.0253  1.2391
 5802SOL    HW229040   2.208   1.733   3.812 -1.4167 -0.9113 -3.0198
 5803SOL     OW29041   4.018   3.706   6.486  0.1917  0.0057 -0.2986
 5803SOL    HW129042   4.045   3.614   6.477  2.2060  0.5519  0.2020
 5803SOL    HW229043   3.947   3.695   6.549 -0.5838  0.7721 -1.0435
 5804SOL     OW29044   4.411   4.374   2.346 -0.5113 -0.7106 -0.7596
 5804SOL    HW129045   4.358   4.354   2.269 -1.3692 -0.3730 -0.2652
 5804SOL    HW229046   4.353   4.342   2.416 -1.6754  0.2249 -1.2906
 5805SOL     OW29047   4.120   3.043   2.452 -0.7036 -0.3154  0.0687
 5805SOL    HW129048   4.111   3.036   2.547  2.9470 -2.5260  0.2354
 5805SOL    HW229049   4.182   2.972   2.437 -0.9226 -0.7254  1.0755
 5806SOL     OW29050   0.310   4.281   8.672  0.4278 -0.4654 -0.2928
 5806SOL    HW129051   0.325   4.222   8.746  0.4497 -0.4819 -0.3100
 5806SOL    HW229052   0.363   4.225   8.614  1.3874 -0.4573  0.5912
 5807SOL     OW29053   2.903   0.043   1.546 -0.8159  0.2396 -0.3760
 5807SOL    HW129054   2.835   0.041   1.479  0.3914 -1.8115 -1.5438
 5807SOL    HW229055   2.953   4.705   1.513 -1.6981 -0.1733 -0.7667
 5808SOL     OW29056   3.366   2.355  13.902 -0.4649 -0.8722  0.8309
 5808SOL    HW129057   3.283   2.389  13.934  0.7126  0.4855  2.4118
 5808SOL    HW229058   3.354   2.260  13.904  2.4730 -1.2814 -0.1608
 5809SOL     OW29059   4.118   3.836  14.915  0.1997  0.0885  0.8943
 5809SOL    HW129060   4.166   3.906  14.870 -2.5185  1.9149  0.8319
 5809SOL    HW229061   4.059   3.800  14.848  0.8878  2.1215 -0.7841
 5810SOL     OW29062   2.230   4.245   7.708 -0.4927  0.0730  0.0233
 5810SOL    HW129063   2.273   4.160   7.700 -1.2042 -0.3333  0.5383
 5810SOL    HW229064   2.304   4.285   7.754 -0.5130 -0.8952  0.9046
 5811SOL     OW29065   0.746   1.620   6.575 -0.2802 -0.0248  0.2043
 5811SOL    HW129066   0.703   1.549   6.527  0.8437 -0.2694 -0.4452
 5811SOL    HW229067   0.768   1.677   6.502 -0.6168  0.4545  0.4790
 5812SOL     OW29068   0.546   3.403   5.288  0.0764 -0.3738  0.5240
 5812SOL    HW129069   0.591   3.482   5.318  1.1543 -1.8803  2.8468
 5812SOL    HW229070   0.564   3.342   5.359 -2.0617 -1.5192  0.0986
 5813SOL     OW29071   3.080   1.677   8.391 -0.7341 -0.2127 -0.4311
 5813SOL    HW129072   3.176   1.675   8.397 -0.7443  1.1026  0.3017
 5813SOL    HW229073   3.076   1.689   8.296  1.4584  0.8905 -0.3988
 5814SOL     OW29074   4.676   2.417   8.431 -0.1549 -0.5164 -0.1564
 5814SOL    HW129075   4.595   2.384   8.393 -1.2673  0.6106  1.2630
 5814SOL    HW229076   4.647   2.398   8.520 -0.1063  1.9125  0.3713
 5815SOL     OW29077   0.945   1.238   6.439  0.4283  0.3818  0.1448
 5815SOL    HW129078   0.855   1.211   6.422  0.2740  0.6133  0.6085
 5815SOL    HW229079   0.950   1.288   6.358  0.8108  0.1382  0.0184
 5816SOL     OW29080   0.827   0.270   5.297 -1.0559  0.4130 -0.0344
 5816SOL    HW129081   0.800   0.358   5.272  0.2824  0.1412 -2.4107
 5816SOL    HW229082   0.885   0.292   5.370 -1.5402  1.7646 -0.0610
 5817SOL     OW29083   1.946   4.237  15.180 -0.1524  0.2918  0.0187
 5817SOL    HW129084   1.861   4.274  15.155 -0.8159 -0.3806  1.2902
 5817SOL    HW229085   1.979   4.213  15.094 -2.2647 -1.1674 -0.3911
 5818SOL     OW29086   1.814   3.017   2.331 -0.6559 -0.1391  0.3561
 5818SOL    HW129087   1.787   2.947   2.271  1.5621 -0.1991 -0.5705
 5818SOL    HW229088   1.739   3.023   2.390 -0.6109  0.4646  0.3481
 5819SOL     OW29089   4.221   2.484   7.741 -0.3284  0.3274 -0.0545
 5819SOL    HW129090   4.204   2.563   7.792 -0.3957 -0.3492  0.9917
 5819SOL    HW229091   4.283   2.435   7.796 -0.3325 -0.9690 -1.2000
 5820SOL     OW29092   4.112   3.613   3.829 -0.5823 -0.5675 -0.7469
 5820SOL    HW129093   4.188   3.555   3.822 -1.2056 -1.6265  1.2140
 5820SOL    HW229094   4.036   3.558   3.848 -0.9947 -0.1350 -1.1367
 5821SOL     OW29095   4.525   1.856   8.502 -0.4561  0.7037  0.3791
 5821SOL    HW129096   4.572   1.800   8.565  0.5626 -0.1689 -1.1735
 5821SOL    HW229097   4.504   1.790   8.436  0.6905  0.9242 -0.2114
 5822SOL     OW29098   4.265   0.900   6.599  0.0949 -0.0830  0.1866
 5822SOL    HW129099   4.326   0.960   6.557 -1.3867 -1.0283 -3.3586
 5822SOL    HW229100   4.323   0.831   6.631  1.3180  1.3638  1.0525
 5823SOL     OW29101   0.924   1.863   9.241  0.3713  0.1010  0.1120
 5823SOL    HW129102   0.829   1.864   9.249  0.4516  0.3490  0.9565
 5823SOL    HW229103   0.941   1.794   9.176 -1.0994 -1.4213  1.3580
 5824SOL     OW29104   2.026   0.441   6.679  0.2825 -0.6535 -0.2643
 5824SOL    HW129105   2.066   0.509   6.733 -0.3716  0.6932 -1.4677
 5824SOL    HW229106   1.934   0.451   6.705  0.3026  0.2670 -0.5537
 5825SOL     OW29107   3.058   2.074  13.892 -0.3663 -0.2197 -0.1801
 5825SOL    HW129108   3.066   2.071  13.797  1.5688  1.6775 -0.0737
 5825SOL    HW229109   3.007   1.993  13.887  0.4259 -0.7197 -0.2036
 5826SOL     OW29110   1.133   4.111   7.040  0.3494  0.4725  0.5043
 5826SOL    HW129111   1.061   4.172   7.057  0.3208  1.1837 -2.1968
 5826SOL    HW229112   1.125   4.121   6.945 -3.1159 -3.9512  0.3118
 5827SOL     OW29113   1.735   1.229  13.765 -0.1526 -0.2342  0.3620
 5827SOL    HW129114   1.812   1.173  13.774  0.7326  1.1562  1.5253
 5827SOL    HW229115   1.774   1.312  13.739 -1.2473 -0.1197 -0.9429
 5828SOL     OW29116   1.147   1.996   1.877  0.7041 -0.3479 -0.1196
 5828SOL    HW129117   1.170   1.934   1.946  2.8322  2.6103  1.8658
 5828SOL    HW229118   1.211   2.064   1.901  1.6949 -2.0382  2.0839
 5829SOL     OW29119   3.022   2.873   2.562  0.2621  0.9598 -0.0877
 5829SOL    HW129120   2.969   2.798   2.587  0.6728 -0.2676 -2.9411
 5829SOL    HW229121   2.961   2.947   2.564  0.5126  1.1698 -0.1423
 5830SOL     OW29122   2.746   3.529   6.405  0.2824 -0.1184  0.0917
 5830SOL    HW129123   2.734   3.457   6.343 -0.1666 -2.1735  2.5723
 5830SOL    HW229124   2.652   3.548   6.406  0.3981  0.4672 -0.3296
 5831SOL     OW29125   1.841   3.966   6.145 -0.6221 -0.6594 -0.5119
 5831SOL    HW129126   1.794   4.009   6.216  2.9279  1.1260  0.7345
 5831SOL    HW229127   1.767   3.947   6.087 -1.6988  1.4663  0.1774
 5832SOL     OW29128   1.564   3.592  10.410  0.3983 -0.2602 -0.0813
 5832SOL    HW129129   1.570   3.650  10.335 -0.9544  1.6690  1.2869
 5832SOL    HW229130   1.480   3.623  10.444 -1.3180 -1.6260 -3.1559
 5833SOL     OW29131   0.148   3.651   7.350 -0.5850 -0.0857  0.0837
 5833SOL    HW129132   0.097   3.573   7.327 -0.1295  0.5656 -3.1494
 5833SOL    HW229133   0.174   3.694   7.268  0.0695 -0.7514 -0.0537
 5834SOL     OW29134   1.433   0.025  11.463  0.0920  0.4745 -0.0002
 5834SOL    HW129135   1.396   0.113  11.461  1.4411  1.0309  0.2873
 5834SOL    HW229136   1.401   4.733  11.377 -0.0648  1.2073 -0.1882
 5835SOL     OW29137   1.890   1.870   7.551 -0.3549 -0.2420 -0.1604
 5835SOL    HW129138   1.965   1.852   7.495 -0.7105  1.1806 -1.0916
 5835SOL    HW229139   1.941   1.859   7.631 -1.9196 -1.9935  0.5975
 5836SOL     OW29140   3.181   0.466   2.234 -0.9133  0.2968  0.2151
 5836SOL    HW129141   3.249   0.533   2.244 -2.6407  2.2708 -1.2274
 5836SOL    HW229142   3.099   0.504   2.268 -3.5409 -1.7150 -3.9153
 5837SOL     OW29143   1.677   3.723   4.685 -0.3034 -0.3952 -0.2876
 5837SOL    HW129144   1.687   3.689   4.596 -0.8459  2.2517 -1.3562
 5837SOL    HW229145   1.596   3.677   4.709  0.2166 -1.2780 -0.2232
 5838SOL     OW29146   4.658   3.433  14.546  0.4169 -0.0559 -0.0031
 5838SOL    HW129147   4.612   3.487  14.481  1.0657 -0.3035 -0.6724
 5838SOL    HW229148   4.717   3.498  14.585 -0.2519 -0.2500  1.3125
 5839SOL     OW29149   4.599   3.849   2.645 -0.1622  0.5155 -0.7570
 5839SOL    HW129150   4.664   3.919   2.653  0.0206  0.0899  1.5166
 5839SOL    HW229151   4.522   3.903   2.624 -0.6333  0.7823  1.6995
 5840SOL     OW29152   0.911   2.280   9.472  0.2905  0.4886  0.2320
 5840SOL    HW129153   0.855   2.318   9.404 -1.9864 -0.6438  1.4585
 5840SOL    HW229154   0.853   2.256   9.545 -0.2321  1.2547  0.0758
 5841SOL     OW29155   2.359   0.763  10.253 -0.2684  0.3329  0.4670
 5841SOL    HW129156   2.282   0.739  10.202 -0.2986  0.1872  0.5846
 5841SOL    HW229157   2.421   0.691  10.255 -0.3273  0.2886  0.6975
 5842SOL     OW29158   2.918   2.752   3.815 -0.2936 -0.8176 -0.3802
 5842SOL    HW129159   2.852   2.816   3.840  0.6968 -0.5956  1.6497
 5842SOL    HW229160   2.898   2.751   3.722  1.0494 -1.1896 -0.6777
 5843SOL     OW29161   2.406   4.466   3.516 -0.5477 -0.0681 -0.2648
 5843SOL    HW129162   2.341   4.434   3.579 -1.5750  1.1901 -0.6857
 5843SOL    HW229163   2.459   4.500   3.588 -0.9951 -0.6226  0.3314
 5844SOL     OW29164   1.901   3.060  13.636 -0.0068 -0.6588 -0.2196
 5844SOL    HW129165   1.956   3.032  13.563 -0.7053  1.3357 -1.5150
 5844SOL    HW229166   1.951   3.030  13.712  0.8685 -0.1117 -0.5898
 5845SOL     OW29167   1.798   2.143  17.073  0.5380  0.0810 -0.1581
 5845SOL    HW129168   1.811   2.237  17.058 -0.2738  0.3005  0.4814
 5845SOL    HW229169   1.885   2.107  17.058  0.6736  0.8450 -1.1810
 5846SOL     OW29170   0.041   2.091   3.672  0.3056  0.0196 -0.2082
 5846SOL    HW129171   0.056   2.046   3.589 -0.2948 -2.9833  1.3275
 5846SOL    HW229172   4.689   2.071   3.700  0.1577  0.3536 -0.4371
 5847SOL     OW29173   1.775   2.591  16.541  0.3274  0.8974  0.3182
 5847SOL    HW129174   1.858   2.543  16.540  0.4432  1.1046 -0.2644
 5847SOL    HW229175   1.744   2.604  16.452  0.9922  0.9052  0.0827
 5848SOL     OW29176   2.461   4.246   7.415 -0.6793 -0.0200  0.1929
 5848SOL    HW129177   2.373   4.272   7.388  0.0381  0.1739 -2.0176
 5848SOL    HW229178   2.519   4.316   7.384 -1.2227  0.7262  0.8524
 5849SOL     OW29179   0.152   1.032  12.459  0.0870 -0.8109  0.3189
 5849SOL    HW129180   0.126   1.092  12.529 -1.6068 -0.5026 -0.5710
 5849SOL    HW229181   0.089   1.046  12.388  2.4154  1.6941 -1.2030
 5850SOL     OW29182   3.966   4.564   4.669  0.6290 -0.5864 -0.3879
 5850SOL    HW129183   3.872   4.573   4.650  0.8272 -0.5075 -1.3553
 5850SOL    HW229184   4.002   4.553   4.581  0.4500  1.4908 -0.7218
 5851SOL     OW29185   1.029   3.816   7.141 -0.0104 -0.3654  0.3568
 5851SOL    HW129186   1.043   3.721   7.149 -1.1672 -0.4516  1.3801
 5851SOL    HW229187   1.092   3.845   7.076  0.9096  0.6435  1.7156
 5852SOL     OW29188   4.235   4.579   8.692 -0.5312  0.9004 -0.1914
 5852SOL    HW129189   4.326   4.566   8.717 -0.7710 -0.4744 -0.0300
 5852SOL    HW229190   4.235   4.666   8.652 -2.1648  0.3817 -1.3443
 5853SOL     OW29191   4.627   0.146   7.940 -0.5990 -0.0147  0.5037
 5853SOL    HW129192   4.683   0.157   8.017  0.1747  3.9619 -0.5996
 5853SOL    HW229193   4.694   0.184   7.883 -1.8392 -0.4139 -1.2098
 5854SOL     OW29194   2.695   2.488   8.692  0.6767  0.0204  0.1235
 5854SOL    HW129195   2.666   2.415   8.746  1.8687 -1.1768 -0.8640
 5854SOL    HW229196   2.788   2.472   8.680  0.4899 -1.1600  0.2754
 5855SOL     OW29197   2.575   4.563  10.641  0.3340 -0.0820  0.3225
 5855SOL    HW129198   2.574   4.656  10.665  0.7942 -0.2152  0.8390
 5855SOL    HW229199   2.482   4.545  10.630  0.5197  0.0956 -1.6429
 5856SOL     OW29200   1.891   4.448   6.953 -0.4549 -0.2716  0.4170
 5856SOL    HW129201   1.819   4.425   7.012  0.2863 -3.1384  0.1711
 5856SOL    HW229202   1.892   4.370   6.898  0.9746 -1.5883  2.3073
 5857SOL     OW29203   1.146   3.083   6.251 -0.0916 -0.2680  0.0630
 5857SOL    HW129204   1.132   3.107   6.342  0.0479 -1.3762  0.3753
 5857SOL    HW229205   1.151   2.987   6.254  0.0073 -0.3145 -1.4630
 5858SOL     OW29206   0.410   3.864   7.114  0.2183 -0.0257 -0.3595
 5858SOL    HW129207   0.403   3.786   7.170 -0.9820  0.6633  0.4592
 5858SOL    HW229208   0.496   3.851   7.074 -0.4891 -1.9428 -1.2732
 5859SOL     OW29209   4.334   4.635  11.072  0.0806  0.3420 -0.4622
 5859SOL    HW129210   4.359   4.696  11.003 -2.2033  2.6182  0.7613
 5859SOL    HW229211   4.298   4.700  11.131  2.4341 -1.5199  3.0523
 5860SOL     OW29212   0.585   0.082   2.493 -0.2349  0.3513 -0.0148
 5860SOL    HW129213   0.652   0.101   2.558  1.5086 -1.1150 -1.3602
 5860SOL    HW229214   0.534   0.156   2.525 -1.1909 -1.5354  2.7647
 5861SOL     OW29215   1.234   0.478   2.005 -0.9313  0.2152 -0.9968
 5861SOL    HW129216   1.229   0.458   1.911 -1.0571 -0.5079 -0.8347
 5861SOL    HW229217   1.151   0.525   2.009 -0.2008  1.4886 -0.7034
 5862SOL     OW29218   2.970   1.792   5.150  0.5548 -0.2805 -0.0274
 5862SOL    HW129219   3.007   1.731   5.214  0.2715 -1.8525 -1.3534
 5862SOL    HW229220   3.047   1.825   5.103  1.3068 -0.9978  0.7062
 5863SOL     OW29221   3.993   2.189   4.527  0.1137  0.1832  0.1183
 5863SOL    HW129222   3.971   2.184   4.435 -0.0751 -1.5948  0.2628
 5863SOL    HW229223   4.077   2.143   4.527 -0.1763 -0.3418  0.3558
 5864SOL     OW29224   0.466   1.796   4.495 -0.1260 -0.2897 -0.1943
 5864SOL    HW129225   0.449   1.886   4.523  0.8954 -0.7270  1.8166
 5864SOL    HW229226   0.505   1.806   4.408  2.4656 -3.1950  0.6492
 5865SOL     OW29227   4.079   1.325   7.062  0.2551  0.3067 -0.4800
 5865SOL    HW129228   4.150   1.364   7.113 -2.5949  2.9007  1.5196
 5865SOL    HW229229   4.034   1.402   7.027  1.1836  0.8622 -0.4728
 5866SOL     OW29230   2.188   2.258   3.326  0.3496  0.9801  0.1723
 5866SOL    HW129231   2.233   2.331   3.367  0.4967  0.0553  1.6606
 5866SOL    HW229232   2.240   2.230   3.251  0.6300  2.3591 -0.1421
 5867SOL     OW29233   1.681   2.554   4.715 -0.6296 -0.4087 -0.9078
 5867SOL    HW129234   1.613   2.551   4.648  0.8085 -3.2033 -2.2444
 5867SOL    HW229235   1.694   2.460   4.711  0.7859 -0.2044 -1.2506
 5868SOL     OW29236   0.326   1.466   9.325 -0.4141  1.0430 -0.1310
 5868SOL    HW129237   0.236   1.474   9.295 -1.1452  2.2346  2.3563
 5868SOL    HW229238   0.303   1.439   9.414 -0.8434 -4.5578 -1.9407
 5869SOL     OW29239   1.079   1.148  11.018  0.6406 -0.2778  0.8997
 5869SOL    HW129240   1.165   1.110  10.998  0.4768 -0.1251 -0.1006
 5869SOL    HW229241   1.088   1.148  11.113  1.4937 -0.0769  0.8250
 5870SOL     OW29242   4.243   2.813   0.072 -0.6298 -0.3128  0.6691
 5870SOL    HW129243   4.210   2.891   0.115 -0.0838  1.3037 -1.8565
 5870SOL    HW229244   4.338   2.815   0.084 -0.7641 -0.2450  1.6958
 5871SOL     OW29245   0.271   1.396   9.572 -0.0507  0.6393  0.1721
 5871SOL    HW129246   0.353   1.391   9.621  0.6435 -1.9883 -1.2562
 5871SOL    HW229247   0.214   1.360   9.640  0.7495  0.2253  0.6177
 5872SOL     OW29248   1.179   1.739   5.284  0.1329 -0.1070  0.5960
 5872SOL    HW129249   1.137   1.760   5.200  1.6086 -1.8972 -0.5749
 5872SOL    HW229250   1.207   1.649   5.270 -3.5474 -1.2645  0.5588
 5873SOL     OW29251   4.448   4.259   3.539 -0.2501 -0.6202  0.4250
 5873SOL    HW129252   4.415   4.332   3.590 -0.5579 -0.6345  0.2473
 5873SOL    HW229253   4.540   4.255   3.568  0.2206 -1.3097 -1.1540
 5874SOL     OW29254   4.008   3.100   7.109  0.5395  0.4686 -0.6516
 5874SOL    HW129255   4.076   3.033   7.101 -0.5393 -0.7133 -0.0197
 5874SOL    HW229256   3.947   3.049   7.162  1.0517  0.1075 -0.4104
 5875SOL     OW29257   1.810   2.433   0.151 -0.0952 -0.2083 -0.5325
 5875SOL    HW129258   1.794   2.340   0.133  0.5661 -0.3437 -0.4288
 5875SOL    HW229259   1.725   2.465   0.179  0.3483  0.4397  0.0967
 5876SOL     OW29260   4.662   0.652   8.993 -0.1546  0.1540  0.2301
 5876SOL    HW129261   4.626   0.587   8.933  0.0406  0.4837 -0.2442
 5876SOL    HW229262   4.583   0.666   9.045 -2.0088 -2.4785 -1.8801
 5877SOL     OW29263   1.868   3.702  10.263  0.1418  0.6483  0.5899
 5877SOL    HW129264   1.905   3.719  10.349 -0.0928 -3.4469  1.5137
 5877SOL    HW229265   1.930   3.732  10.197 -0.2048 -1.4661 -0.7167
 5878SOL     OW29266   1.718   3.346   0.757  0.0265 -0.1687 -0.1279
 5878SOL    HW129267   1.641   3.374   0.709  1.3508  1.2005 -1.4819
 5878SOL    HW229268   1.710   3.251   0.760 -0.0780 -0.1092  1.4441
 5879SOL     OW29269   3.318   1.286   4.822 -0.0320 -0.1136 -0.0492
 5879SOL    HW129270   3.357   1.373   4.827  0.9655 -0.5218 -0.5870
 5879SOL    HW229271   3.392   1.240   4.781 -1.5023 -0.2899 -2.5070
 5880SOL     OW29272   2.510   3.577   9.596  0.1124 -0.5027 -0.0699
 5880SOL    HW129273   2.423   3.595   9.562  0.3443  1.9241  0.6430
 5880SOL    HW229274   2.495   3.602   9.688 -0.5180 -2.3135  0.3161
 5881SOL     OW29275   2.105   3.913  13.145  0.0017  0.4206  0.0387
 5881SOL    HW129276   2.173   3.918  13.212 -0.0587 -0.9677  0.2049
 5881SOL    HW229277   2.100   4.002  13.109  0.6802  0.4542  0.0247
 5882SOL     OW29278   0.828   4.347   8.226  0.2172  0.4024 -0.4586
 5882SOL    HW129279   0.867   4.423   8.182  1.3402  0.3905  0.5037
 5882SOL    HW229280   0.789   4.300   8.153 -0.4231 -2.0482  1.4584
 5883SOL     OW29281   2.922   2.294   8.231 -0.5108  0.0917 -0.3704
 5883SOL    HW129282   2.916   2.203   8.259  0.8292 -0.2315 -1.1544
 5883SOL    HW229283   2.984   2.287   8.158  0.0924 -0.4399  0.1990
 5884SOL     OW29284   4.519   3.804  16.824 -0.1899  0.0247  0.4401
 5884SOL    HW129285   4.612   3.802  16.847 -0.2116  0.1242  0.5377
 5884SOL    HW229286   4.521   3.877  16.762 -2.6667 -1.6217 -1.5614
 5885SOL     OW29287   0.737   0.626   4.579  0.2512  0.0252 -0.5610
 5885SOL    HW129288   0.822   0.585   4.593  1.4238  2.3250 -0.8755
 5885SOL    HW229289   0.741   0.697   4.643 -1.7270 -1.8211  1.6032
 5886SOL     OW29290   0.042   1.182   8.088 -0.0107 -0.2192 -0.0833
 5886SOL    HW129291   0.043   1.269   8.049 -0.7416  0.3012  1.0385
 5886SOL    HW229292   0.133   1.156   8.101 -0.5294 -2.0529 -0.1238
 5887SOL     OW29293   1.257   4.003  16.205 -0.3097  0.1608  0.0636
 5887SOL    HW129294   1.212   4.046  16.132 -0.4118 -2.1451 -1.2521
 5887SOL    HW229295   1.295   4.075  16.255 -3.7003  0.7559  1.7591
 5888SOL     OW29296   4.204   1.105  14.404 -0.4147 -0.3246  0.1081
 5888SOL    HW129297   4.272   1.057  14.356  0.2997  1.5687 -0.7647
 5888SOL    HW229298   4.181   1.167  14.335  2.2786  2.5877  1.8228
 5889SOL     OW29299   3.430   1.909  16.290 -0.4976 -0.1100 -0.3706
 5889SOL    HW129300   3.509   1.947  16.328 -1.0917  1.8391 -1.0605
 5889SOL    HW229301   3.368   1.981  16.282  0.0041  0.2520 -1.0518
 5890SOL     OW29302   2.690   3.122   1.927 -0.3271  0.1445  0.0705
 5890SOL    HW129303   2.669   3.058   1.995  1.9807 -0.3390  0.3269
 5890SOL    HW229304   2.677   3.204   1.975 -2.1940 -0.1643  0.0935
 5891SOL     OW29305   1.656   3.848   1.425  0.1620 -0.0430  0.9419
 5891SOL    HW129306   1.608   3.873   1.347  1.4533  0.5879  0.3527
 5891SOL    HW229307   1.593   3.787   1.463 -0.4353  0.8684  1.4111
 5892SOL     OW29308   4.215   3.628   6.693 -0.4131 -0.4725  0.2137
 5892SOL    HW129309   4.159   3.691   6.648 -0.0620  0.1727  0.6889
 5892SOL    HW229310   4.149   3.593   6.752  0.1789 -1.7645  0.1049
 5893SOL     OW29311   3.659   2.595   3.981  0.6208 -0.3670 -0.2897
 5893SOL    HW129312   3.747   2.587   4.016 -0.4066 -1.2376  2.1106
 5893SOL    HW229313   3.621   2.633   4.060  1.5301 -2.9263  1.4037
 5894SOL     OW29314   1.039   0.036  10.096 -0.4005 -0.3495  0.4628
 5894SOL    HW129315   1.109   0.057  10.158 -2.2631 -1.3222  2.8886
 5894SOL    HW229316   1.053   4.680  10.080  0.1513 -0.2625  0.4349
 5895SOL     OW29317   4.449   2.998   1.266 -0.1822 -0.2321  0.2084
 5895SOL    HW129318   4.472   3.090   1.256 -1.1021  0.1363  1.3349
 5895SOL    HW229319   4.354   3.010   1.262 -0.0875  0.8270  1.0832
 5896SOL     OW29320   3.877   1.697   5.249  0.4686 -0.7592  0.2556
 5896SOL    HW129321   3.880   1.787   5.281  1.3197 -1.4990  2.2510
 5896SOL    HW229322   3.851   1.703   5.157  1.1666 -0.2259  0.0892
 5897SOL     OW29323   3.639   4.217   5.709 -0.1916 -0.2958  0.2711
 5897SOL    HW129324   3.567   4.217   5.646 -1.3679 -0.9890  1.5865
 5897SOL    HW229325   3.670   4.128   5.697 -0.8697 -0.5059  0.0516
 5898SOL     OW29326   3.132   3.370   4.610  0.0048 -0.2988 -0.7935
 5898SOL    HW129327   3.204   3.346   4.553  1.6898 -0.4913  1.4218
 5898SOL    HW229328   3.162   3.450   4.652 -0.8510 -0.3829 -0.0060
 5899SOL     OW29329   0.853   3.112   8.947  0.2523 -0.2122  0.1579
 5899SOL    HW129330   0.941   3.148   8.961  0.1599  0.0917 -0.0455
 5899SOL    HW229331   0.858   3.045   9.015 -1.1550 -1.7900 -1.3048
 5900SOL     OW29332   3.400   4.363  14.820 -0.0828  0.0337  0.0591
 5900SOL    HW129333   3.482   4.351  14.772  0.4380 -0.6050  1.1063
 5900SOL    HW229334   3.393   4.458  14.832  0.6837 -0.1794  2.1512
 5901SOL     OW29335   0.824   0.986   7.691  0.0538 -0.3801 -0.0350
 5901SOL    HW129336   0.832   1.076   7.659 -1.6563 -0.2183 -0.0170
 5901SOL    HW229337   0.916   0.971   7.712  0.2070  1.8839  0.9394
 5902SOL     OW29338   3.071   4.156   1.599 -0.2529 -0.2023 -0.4743
 5902SOL    HW129339   2.981   4.184   1.585 -0.6783 -2.1391 -1.6604
 5902SOL    HW229340   3.115   4.198   1.526 -0.9298 -0.8455 -1.2576
 5903SOL     OW29341   3.164   2.984   5.018 -0.2697  0.4260 -0.2764
 5903SOL    HW129342   3.077   2.948   5.002 -0.4003  1.0381 -0.9176
 5903SOL    HW229343   3.164   3.063   4.964 -1.3802 -0.7060 -1.9265
 5904SOL     OW29344   1.793   0.264   9.784  0.4972  0.0114  0.0569
 5904SOL    HW129345   1.788   0.290   9.876  0.0903 -0.9975  0.3118
 5904SOL    HW229346   1.761   0.349   9.754 -2.9852 -1.0841  0.6523
 5905SOL     OW29347   0.544   0.947   8.738  0.1284 -0.6548  0.6816
 5905SOL    HW129348   0.532   1.013   8.806 -0.9547 -1.5341  1.3572
 5905SOL    HW229349   0.541   1.006   8.663 -0.7197 -0.8975  0.5172
 5906SOL     OW29350   3.390   0.867   7.522 -0.2706 -0.5770 -0.0173
 5906SOL    HW129351   3.389   0.872   7.427 -0.9828  0.1244  0.0330
 5906SOL    HW229352   3.298   0.844   7.536 -1.3190  4.1128  0.6926
 5907SOL     OW29353   1.101   0.331   1.713  0.4717 -0.0827 -0.3822
 5907SOL    HW129354   1.132   0.416   1.681 -0.9966  0.9055  0.8485
 5907SOL    HW229355   1.184   0.284   1.720  0.6080 -0.1051 -2.1302
 5908SOL     OW29356   0.166   0.210  16.341  0.3633  0.0658  0.2410
 5908SOL    HW129357   0.144   0.244  16.255  2.7633 -1.1483 -0.8559
 5908SOL    HW229358   0.098   0.143  16.340 -0.6412  1.0541  3.0231
 5909SOL     OW29359   4.594   1.216   3.188 -0.3498  0.0675  0.2780
 5909SOL    HW129360   4.609   1.173   3.272  0.8769  0.2462  0.1554
 5909SOL    HW229361   4.684   1.218   3.155  0.2562 -1.1803  1.8440
 5910SOL     OW29362   4.725   3.936  14.689  0.0194  0.0471 -0.3825
 5910SOL    HW129363   4.634   3.957  14.671 -0.3940 -1.2844  0.1732
 5910SOL    HW229364   0.035   4.019  14.685  0.8767 -0.5571 -3.1504
 5911SOL     OW29365   1.640   2.757   3.039 -0.4976 -0.6633  0.3583
 5911SOL    HW129366   1.679   2.767   2.953  0.1042  0.0351  0.7239
 5911SOL    HW229367   1.626   2.662   3.045  1.3997 -0.9748 -0.3673
 5912SOL     OW29368   4.182   3.569   7.534  0.6082  0.7284  0.6325
 5912SOL    HW129369   4.127   3.638   7.571  0.6745  1.0705  0.0936
 5912SOL    HW229370   4.232   3.607   7.462  1.8710  0.3160  1.2952
 5913SOL     OW29371   0.815   1.628   9.811  0.2577  0.0282  0.4988
 5913SOL    HW129372   0.890   1.683   9.785  0.6039  0.4948  2.4921
 5913SOL    HW229373   0.773   1.679   9.880 -1.0129 -1.2272  0.6390
 5914SOL     OW29374   1.351   1.657   4.129  0.4777  0.0977  0.5901
 5914SOL    HW129375   1.383   1.576   4.169 -1.0114  0.0333  1.6622
 5914SOL    HW229376   1.343   1.713   4.206  0.2838  2.3062 -1.0639
 5915SOL     OW29377   2.376   3.450   2.265 -0.2351  0.0971  0.2683
 5915SOL    HW129378   2.357   3.400   2.186 -2.2845  2.0261 -0.4643
 5915SOL    HW229379   2.322   3.394   2.320  0.2443 -1.4387 -0.8263
 5916SOL     OW29380   2.276   1.457   6.662  0.1336  0.0367  0.3837
 5916SOL    HW129381   2.209   1.389   6.663 -0.6338  0.7817 -0.2846
 5916SOL    HW229382   2.337   1.440   6.734  1.1995  0.2469 -0.4803
 5917SOL     OW29383   3.929   0.569   0.866  0.5443  0.0564 -0.1484
 5917SOL    HW129384   3.913   0.546   0.775 -2.3704  1.5812 -0.0392
 5917SOL    HW229385   3.865   0.513   0.910 -0.5474  0.7633 -0.8220
 5918SOL     OW29386   3.577   3.750   7.203 -0.5067 -0.4441  0.3379
 5918SOL    HW129387   3.567   3.655   7.205  1.4699 -0.6112  3.5186
 5918SOL    HW229388   3.673   3.755   7.196 -0.8755  1.4540 -3.3855
 5919SOL     OW29389   4.564   1.879  11.231  0.2751 -0.7101  0.2231
 5919SOL    HW129390   4.609   1.962  11.247 -1.0026  0.2170 -0.9796
 5919SOL    HW229391   4.475   1.905  11.252  1.1728  3.3753 -1.0957
 5920SOL     OW29392   1.883   2.719  12.757  0.2627  0.1846 -0.0672
 5920SOL    HW129393   1.850   2.718  12.667  2.2340  0.4120 -0.8102
 5920SOL    HW229394   1.959   2.662  12.740  0.3809  0.7377 -1.3859
 5921SOL     OW29395   1.209   3.979   3.892 -0.2112 -0.4261  0.1921
 5921SOL    HW129396   1.186   3.894   3.856  4.0316 -1.5586  0.0957
 5921SOL    HW229397   1.263   3.952   3.967  0.5293  0.8554  0.1223
 5922SOL     OW29398   3.534   0.550   6.885  0.1533 -0.1777  0.0594
 5922SOL    HW129399   3.515   0.541   6.792  1.4875 -0.0491 -0.2152
 5922SOL    HW229400   3.609   0.492   6.895  0.7327  0.4883 -0.4286
 5923SOL     OW29401   0.939   1.244   0.101  0.4119  0.0042  0.1050
 5923SOL    HW129402   0.987   1.164   0.124  0.1269 -0.4845 -1.0341
 5923SOL    HW229403   1.013   1.300   0.077 -0.2510 -0.2575 -2.5568
 5924SOL     OW29404   3.863   0.679   6.841  0.1099 -0.3405  0.5142
 5924SOL    HW129405   3.800   0.745   6.871  0.0406 -0.9362  1.6547
 5924SOL    HW229406   3.842   0.656   6.751  1.1010 -1.4268  0.5696
 5925SOL     OW29407   0.885   2.434  14.522 -0.4900  0.4811 -0.1971
 5925SOL    HW129408   0.920   2.439  14.611 -0.2575  1.5484 -0.3423
 5925SOL    HW229409   0.955   2.473  14.470 -0.8806  0.2374 -0.8995
 5926SOL     OW29410   2.977   3.212   8.033 -0.4522  0.1201  0.3272
 5926SOL    HW129411   3.008   3.144   8.093  1.9345  0.5908 -0.3510
 5926SOL    HW229412   3.036   3.281   8.064  2.0326 -1.6095 -0.5024
 5927SOL     OW29413   4.548   0.829   1.886  0.5948  0.3357  0.3563
 5927SOL    HW129414   4.525   0.736   1.893  1.4582  0.2120  1.4758
 5927SOL    HW229415   4.595   0.846   1.967  0.2436  1.9316  0.2220
 5928SOL     OW29416   2.606   1.668   2.633 -0.7375  0.0101  0.4155
 5928SOL    HW129417   2.673   1.634   2.693 -0.3235  0.8475  0.4416
 5928SOL    HW229418   2.640   1.631   2.552 -1.8345 -2.3998  1.0823
 5929SOL     OW29419   1.423   1.636  15.995  0.4221  0.3379  0.0433
 5929SOL    HW129420   1.507   1.673  15.966  1.6500 -2.3627  0.1056
 5929SOL    HW229421   1.363   1.701  15.960  2.9583  1.5162 -2.1335
 5930SOL     OW29422   0.916   3.306   7.994  0.3007 -0.0065 -0.5459
 5930SOL    HW129423   0.954   3.349   8.070  0.5978 -0.1480 -0.6147
 5930SOL    HW229424   0.867   3.233   8.033 -1.9549  0.5776 -2.3011
 5931SOL     OW29425   1.079   2.546   9.662 -0.1531  0.3130  0.3268
 5931SOL    HW129426   1.135   2.571   9.736  1.9980 -0.5667 -0.9728
 5931SOL    HW229427   1.054   2.633   9.633 -0.4201  0.7050  1.7121
 5932SOL     OW29428   4.129   4.605   8.016 -0.3470 -0.0802 -0.6068
 5932SOL    HW129429   4.053   4.649   8.055  1.4381  0.2127  2.4812
 5932SOL    HW229430   4.109   4.614   7.923  0.6355 -1.1702 -0.9204
 5933SOL     OW29431   3.526   1.319   0.481 -1.2176 -0.4355 -0.4295
 5933SOL    HW129432   3.434   1.307   0.505 -0.8315 -2.2509  0.1634
 5933SOL    HW229433   3.536   1.231   0.444 -0.8384 -0.2853 -0.6856
 5934SOL     OW29434   4.015   2.232   2.867  0.1050 -0.5119  0.9073
 5934SOL    HW129435   3.951   2.284   2.818 -1.8558 -1.1547  2.8117
 5934SOL    HW229436   4.065   2.309   2.895 -0.9017  0.5617 -0.2237
 5935SOL     OW29437   3.523   4.305  12.074  0.0229 -0.1710 -0.3146
 5935SOL    HW129438   3.463   4.350  12.015 -3.8230 -2.5400  1.8279
 5935SOL    HW229439   3.586   4.376  12.087  0.8608 -0.7052 -1.3845
 5936SOL     OW29440   3.395   0.268  14.226  0.1967 -0.1656 -0.0840
 5936SOL    HW129441   3.354   0.274  14.140  1.8920  0.3677 -0.8434
 5936SOL    HW229442   3.341   0.329  14.275 -2.8012 -1.5494 -1.6320
 5937SOL     OW29443   1.242   1.431  12.837 -0.3994  0.2163 -0.0450
 5937SOL    HW129444   1.284   1.405  12.755 -0.4818 -0.0123 -0.0145
 5937SOL    HW229445   1.281   1.518  12.846  1.8085 -0.6340 -1.3549
 5938SOL     OW29446   4.389   2.023   1.640  0.0016  0.2133 -0.0649
 5938SOL    HW129447   4.457   2.075   1.682  0.0850  0.1692 -0.1439
 5938SOL    HW229448   4.328   2.014   1.713  0.8835  0.5158  0.6949
 5939SOL     OW29449   3.074   2.267   2.027  0.0781 -0.8140  0.1092
 5939SOL    HW129450   3.137   2.336   2.006  0.2676 -0.8284  0.6365
 5939SOL    HW229451   2.996   2.319   2.045  1.2056  1.0928 -0.5288
 5940SOL     OW29452   0.161   2.624   3.352 -0.5093  0.5054  0.5506
 5940SOL    HW129453   0.104   2.667   3.288 -0.0478  1.2439  0.6486
 5940SOL    HW229454   0.110   2.639   3.431 -0.1522  0.6055  0.7607
 5941SOL     OW29455   1.087   0.289   3.195  0.3003 -0.3792 -0.3712
 5941SOL    HW129456   1.118   0.377   3.215 -1.6642  0.3655 -0.6227
 5941SOL    HW229457   1.168   0.238   3.186  0.9255  0.9589 -2.4055
 5942SOL     OW29458   2.561   2.525   5.864 -0.4488 -0.7264  0.4010
 5942SOL    HW129459   2.656   2.540   5.864 -0.3735 -1.1729  0.4339
 5942SOL    HW229460   2.538   2.517   5.772  0.2026 -3.9044  0.5124
 5943SOL     OW29461   4.335   2.145   2.055 -0.1335 -0.8019 -0.1517
 5943SOL    HW129462   4.413   2.113   2.101  1.6109  0.6289 -2.1018
 5943SOL    HW229463   4.282   2.164   2.132 -1.3211 -0.1706 -1.1308
 5944SOL     OW29464   2.061   4.440   1.237  1.2532 -0.0184 -0.2172
 5944SOL    HW129465   2.062   4.366   1.176 -0.5077  2.4309 -3.2647
 5944SOL    HW229466   2.124   4.496   1.191 -0.5481  2.0878 -0.1274
 5945SOL     OW29467   3.703   1.586   2.259 -0.4124  0.1895  0.2661
 5945SOL    HW129468   3.759   1.548   2.191  0.1171 -0.4220  1.0429
 5945SOL    HW229469   3.676   1.504   2.302  2.0180  0.7737  2.8915
 5946SOL     OW29470   3.103   3.008   6.481  0.4228 -0.2966 -0.1674
 5946SOL    HW129471   3.067   2.920   6.482 -3.4471  1.2863 -1.0120
 5946SOL    HW229472   3.149   3.008   6.565 -1.4789 -0.0611  0.8778
 5947SOL     OW29473   4.340   0.921   2.419  0.3572  0.5126  0.4162
 5947SOL    HW129474   4.371   1.005   2.451  0.5715  1.1315 -1.3963
 5947SOL    HW229475   4.249   0.921   2.449  0.3792 -1.1379  0.4931
 5948SOL     OW29476   2.395   3.412   3.628 -0.6360  0.3032  0.6140
 5948SOL    HW129477   2.314   3.453   3.660 -1.1552 -1.1119  1.0921
 5948SOL    HW229478   2.456   3.486   3.623 -0.7229  0.3292 -0.1367
 5949SOL     OW29479   4.227   0.458  17.293  0.0286  0.0129 -0.1532
 5949SOL    HW129480   4.165   0.424  17.229  0.2988  2.2135 -1.5820
 5949SOL    HW229481   4.251   0.538  17.245  1.6830  0.0941  0.8114
 5950SOL     OW29482   0.401   3.581   6.725 -0.1170  0.2120  0.1070
 5950SOL    HW129483   0.448   3.665   6.722  1.0327 -0.4476 -0.3809
 5950SOL    HW229484   0.372   3.586   6.634  0.5894 -0.9735 -0.1876
 5951SOL     OW29485   0.571   2.995  13.456  0.3166  0.0093 -0.3205
 5951SOL    HW129486   0.587   3.031  13.369 -0.8094  0.2401 -0.4279
 5951SOL    HW229487   0.568   3.077  13.505 -2.3032 -0.0480 -0.4279
 5952SOL     OW29488   1.196   2.576   9.943 -0.1082 -0.0435  0.3596
 5952SOL    HW129489   1.114   2.610   9.978 -1.2913 -1.2341 -1.2834
 5952SOL    HW229490   1.262   2.632   9.984  1.2243 -2.0524  0.9569
 5953SOL     OW29491   1.874   3.417   2.751  0.3009  0.2821 -0.2193
 5953SOL    HW129492   1.964   3.442   2.773  0.7540 -0.6984 -0.9590
 5953SOL    HW229493   1.880   3.326   2.722  3.2558  0.0395  1.1831
 5954SOL     OW29494   1.878   3.435  11.409  0.1186  0.1683  0.0762
 5954SOL    HW129495   1.809   3.495  11.437  1.3044  0.8994  1.4599
 5954SOL    HW229496   1.848   3.346  11.426  1.0562  0.0579  1.1818
 5955SOL     OW29497   2.775   1.424  13.552  0.3713 -0.1270 -0.8301
 5955SOL    HW129498   2.736   1.424  13.464 -0.7433  2.1939 -0.3321
 5955SOL    HW229499   2.705   1.382  13.602  1.0717  0.1851  0.3948
 5956SOL     OW29500   4.150   0.267   0.056  0.2308 -0.2010  0.1894
 5956SOL    HW129501   4.227   0.285   0.003 -0.9916  1.0435 -1.1335
 5956SOL    HW229502   4.130   0.173   0.054  0.2159 -0.1669 -1.0429
 5957SOL     OW29503   4.506   3.500   0.837 -0.2477  0.1183  0.9330
 5957SOL    HW129504   4.591   3.512   0.879 -0.8323  0.4507  2.0288
 5957SOL    HW229505   4.533   3.503   0.745 -0.4295  1.1898  0.9216
 5958SOL     OW29506   3.810   1.940  17.643 -0.6965 -0.3287 -0.1410
 5958SOL    HW129507   3.851   1.871  17.592 -1.4352 -1.4681  0.8024
 5958SOL    HW229508   3.722   1.943  17.606  0.0776 -1.9360 -2.0745
 5959SOL     OW29509   0.814   3.694   3.038 -0.2371 -0.0673  0.4104
 5959SOL    HW129510   0.864   3.747   3.100  0.4835 -1.2517  0.8436
 5959SOL    HW229511   0.741   3.752   3.018 -0.0332 -0.0442 -0.2645
 5960SOL     OW29512   1.661   3.888   9.784 -0.0937 -0.3138 -0.1359
 5960SOL    HW129513   1.686   3.933   9.703  1.7851 -4.5447 -1.9150
 5960SOL    HW229514   1.593   3.949   9.812 -0.0949  0.1383 -1.1300
 5961SOL     OW29515   3.109   4.040   3.484 -0.0369 -0.5259  0.0818
 5961SOL    HW129516   3.013   4.040   3.477 -0.0275 -4.2651 -0.2434
 5961SOL    HW229517   3.129   4.120   3.533 -1.4437  1.2720 -2.2825
 5962SOL     OW29518   1.261   3.350   4.243 -0.2879  0.6766  0.1198
 5962SOL    HW129519   1.193   3.386   4.186  0.8158 -3.0439 -3.4779
 5962SOL    HW229520   1.270   3.259   4.215  0.2863  0.1289  2.0748
 5963SOL     OW29521   1.696   1.217   7.317  0.1596  0.3264  0.1175
 5963SOL    HW129522   1.621   1.209   7.259  0.8017  0.0280 -0.6821
 5963SOL    HW229523   1.671   1.298   7.362 -0.4561  1.3852 -2.1413
 5964SOL     OW29524   4.309   3.421   9.649  0.0181  0.6729  0.4839
 5964SOL    HW129525   4.333   3.512   9.665  0.1077  0.9653 -1.2876
 5964SOL    HW229526   4.217   3.442   9.630 -0.3849 -1.2678  0.2802
 5965SOL     OW29527   1.539   2.991  15.971 -0.1922  0.2517 -0.3773
 5965SOL    HW129528   1.444   2.984  15.984 -0.3116  2.2596 -0.2479
 5965SOL    HW229529   1.560   2.929  15.901 -2.0009 -0.3570 -0.3974
 5966SOL     OW29530   1.045   0.953   5.482 -0.0996 -0.3642 -0.3380
 5966SOL    HW129531   1.108   0.975   5.551 -0.0032 -0.1697 -0.4888
 5966SOL    HW229532   1.053   1.022   5.417  2.0018 -0.1484  0.1485
 5967SOL     OW29533   3.231   3.841   7.334  0.3031 -0.0521  0.2292
 5967SOL    HW129534   3.192   3.858   7.248  0.1739  1.0228  0.4946
 5967SOL    HW229535   3.255   3.749   7.330 -1.1686 -0.3293 -2.3079
 5968SOL     OW29536   0.858   1.878   2.040  0.2164 -0.0607  0.1733
 5968SOL    HW129537   0.818   1.958   2.006 -1.3592 -0.7883  0.2791
 5968SOL    HW229538   0.844   1.889   2.135 -0.1915 -0.8266  0.1974
 5969SOL     OW29539   4.026   2.649   9.566 -0.5205 -0.1069  0.2134
 5969SOL    HW129540   3.968   2.657   9.642  0.1159  0.9394  0.6018
 5969SOL    HW229541   4.010   2.559   9.540 -0.3196  0.5279 -2.1074
 5970SOL     OW29542   3.476   4.718  17.637 -0.2653  0.0640  0.4095
 5970SOL    HW129543   3.388   4.694  17.611 -0.2656  2.1024 -1.4435
 5970SOL    HW229544   3.477   4.688  17.728 -1.1397  0.5848  0.5914
 5971SOL     OW29545   0.575   1.045   6.136  0.5649 -0.3226  0.4342
 5971SOL    HW129546   0.644   1.085   6.083  2.0927 -2.5654  0.6853
 5971SOL    HW229547   0.526   0.986   6.079 -0.7508 -0.0981  1.3357
 5972SOL     OW29548   1.195   3.731   9.511  0.2383 -0.1306  0.2922
 5972SOL    HW129549   1.155   3.818   9.508 -0.3894 -0.3816  1.3342
 5972SOL    HW229550   1.164   3.704   9.597  1.3136  0.9155  0.9942
 5973SOL     OW29551   2.278   0.079  11.062 -0.5699 -0.7105 -0.2058
 5973SOL    HW129552   2.331   0.004  11.090  1.0308  0.4035 -0.2964
 5973SOL    HW229553   2.336   0.143  11.102 -0.4298  0.2286 -1.9328
 5974SOL     OW29554   4.463   3.946   8.857  0.0812 -0.3736 -0.0032
 5974SOL    HW129555   4.473   3.874   8.920  0.6479 -1.7246 -1.6369
 5974SOL    HW229556   4.485   4.018   8.917 -1.2444 -0.1111  0.1814
 5975SOL     OW29557   1.675   2.063   5.273 -0.0867  0.0844  0.2555
 5975SOL    HW129558   1.686   2.127   5.343 -0.2566  0.8202 -0.3768
 5975SOL    HW229559   1.579   2.057   5.275 -0.1273  0.8099  0.4383
 5976SOL     OW29560   4.100   1.431   4.545  0.0951 -0.2599 -0.0114
 5976SOL    HW129561   4.072   1.450   4.455 -1.5698 -1.6483  0.2109
 5976SOL    HW229562   4.070   1.499   4.604 -0.3336  0.4909 -1.0992
 5977SOL     OW29563   3.933   2.958   8.777 -0.2216  0.3048  0.2557
 5977SOL    HW129564   3.888   3.041   8.793 -2.2681 -1.2945  2.8550
 5977SOL    HW229565   4.017   2.987   8.743 -2.3937  3.6871 -2.2616
 5978SOL     OW29566   3.694   3.000   1.027  0.2239 -0.0228  0.2535
 5978SOL    HW129567   3.671   3.064   1.093 -3.2537  0.3298 -1.2863
 5978SOL    HW229568   3.638   3.039   0.960  2.8765  2.4272 -0.5362
 5979SOL     OW29569   2.104   2.088   5.379  0.3140 -1.1417 -0.2779
 5979SOL    HW129570   2.025   2.045   5.347  1.0642 -0.8493 -2.5590
 5979SOL    HW229571   2.151   2.098   5.296  1.5531  0.7297  0.6455
 5980SOL     OW29572   3.105   4.270   5.148 -0.3961  0.2252  0.3844
 5980SOL    HW129573   3.102   4.241   5.057 -2.1526 -0.8458  0.7845
 5980SOL    HW229574   3.143   4.188   5.183 -0.5932  0.2209  0.5886
 5981SOL     OW29575   4.710   0.640   3.610 -0.0630 -0.2593 -0.7516
 5981SOL    HW129576   4.694   0.692   3.688 -1.4925 -2.3142  0.3338
 5981SOL    HW229577   4.696   0.550   3.640  0.9302 -0.7001 -1.6229
 5982SOL     OW29578   2.466   4.019   9.315 -0.1169 -0.0479 -0.1680
 5982SOL    HW129579   2.562   4.019   9.322 -0.2776 -0.4454  2.1129
 5982SOL    HW229580   2.447   4.038   9.407  1.8427 -1.7637  0.6038
 5983SOL     OW29581   1.314   0.368   2.564 -0.0044  0.1773  0.2353
 5983SOL    HW129582   1.262   0.363   2.645  2.0629  3.0980  1.7640
 5983SOL    HW229583   1.399   0.362   2.606  0.6605 -3.6951 -1.6767
 5984SOL     OW29584   3.859   3.262  17.615 -0.1144 -0.1564  0.2445
 5984SOL    HW129585   3.828   3.199  17.680  0.8649 -0.2012  0.6638
 5984SOL    HW229586   3.896   3.335  17.664  1.1918 -0.9012  0.3546
 5985SOL     OW29587   0.796   0.762   5.799 -0.3425 -0.1039  0.3634
 5985SOL    HW129588   0.869   0.823   5.815 -0.3898  0.6744 -2.3913
 5985SOL    HW229589   0.730   0.828   5.779  1.8715  2.0038 -0.0451
 5986SOL     OW29590   1.451   0.294   8.481  0.3008 -0.1854  0.1430
 5986SOL    HW129591   1.404   0.365   8.524  2.2008  0.4064  1.2063
 5986SOL    HW229592   1.527   0.341   8.447 -1.4116  1.0942 -1.9400
 5987SOL     OW29593   1.304   0.680   3.841  0.1056 -0.0266  0.3221
 5987SOL    HW129594   1.360   0.757   3.840  0.5230 -0.3152  1.4529
 5987SOL    HW229595   1.341   0.623   3.908 -1.4787 -1.7381 -0.2601
 5988SOL     OW29596   3.691   0.205   0.799 -0.2976  0.2944 -0.1838
 5988SOL    HW129597   3.749   0.280   0.814  0.6740 -0.4889 -0.0731
 5988SOL    HW229598   3.613   0.226   0.850  0.9016  2.6187  0.6868
 5989SOL     OW29599   1.123   3.465   3.748 -0.0241 -0.0179 -0.3780
 5989SOL    HW129600   1.207   3.420   3.741  1.9163  3.4248  0.4141
 5989SOL    HW229601   1.061   3.414   3.697 -0.5800  1.6055 -1.3230
 5990SOL     OW29602   4.650   0.131   7.612  0.1920 -0.2854  0.1310
 5990SOL    HW129603   4.712   0.143   7.684  1.7154 -1.0429 -1.0520
 5990SOL    HW229604   4.696   0.063   7.564 -0.4851  0.0439 -0.9820
 5991SOL     OW29605   2.583   0.385   3.901 -0.0083 -0.2870  0.5910
 5991SOL    HW129606   2.497   0.354   3.871 -0.7942  1.9677  0.5104
 5991SOL    HW229607   2.609   0.433   3.823 -0.6097 -0.5253  0.2396
 5992SOL     OW29608   0.245   3.452   2.498 -0.0467 -0.0856 -0.3687
 5992SOL    HW129609   0.309   3.400   2.547 -0.2779  0.7612  0.8130
 5992SOL    HW229610   0.215   3.518   2.560  2.0752  1.5582 -1.1259
 5993SOL     OW29611   0.053   1.757   6.681 -0.2906  0.3936  0.3877
 5993SOL    HW129612   0.084   1.841   6.646 -1.6181  0.9826  0.6280
 5993SOL    HW229613   0.123   1.695   6.662 -0.5815  0.4196 -0.7594
 5994SOL     OW29614   4.614   2.234  15.969  0.3182  0.0138  0.5266
 5994SOL    HW129615   4.591   2.278  16.051 -0.8568  0.3758 -0.0031
 5994SOL    HW229616   4.642   2.150  16.004 -2.2683 -1.2931 -0.5400
 5995SOL     OW29617   4.327   3.092   9.550 -0.5855 -0.2601 -0.0257
 5995SOL    HW129618   4.256   3.037   9.583 -0.0871 -1.5838 -1.2074
 5995SOL    HW229619   4.292   3.174   9.515 -1.9717 -0.1752  1.5859
 5996SOL     OW29620   2.102   2.845  11.828  0.3701 -0.2079 -0.2696
 5996SOL    HW129621   2.148   2.848  11.744 -1.4182  2.8141 -1.1397
 5996SOL    HW229622   2.113   2.936  11.855  2.1143  0.0263 -1.7606
 5997SOL     OW29623   0.892   2.385   2.321  0.3254  0.2717  0.0675
 5997SOL    HW129624   0.901   2.479   2.304  0.6646  0.2988  0.3974
 5997SOL    HW229625   0.810   2.384   2.372 -1.2504  0.1428 -2.4764
 5998SOL     OW29626   1.507   2.061   6.993  0.2672  0.3705  0.1329
 5998SOL    HW129627   1.530   2.137   7.046  1.5587 -1.1833  1.8195
 5998SOL    HW229628   1.512   1.992   7.059  1.6836  0.7758  0.4527
 5999SOL     OW29629   2.776   4.607   5.617  0.1493  0.0093 -0.7092
 5999SOL    HW129630   2.784   4.598   5.712 -1.4312 -0.6842 -0.6365
 5999SOL    HW229631   2.790   4.701   5.620 -0.7335  0.1225 -0.2726
 6000SOL     OW29632   1.958   3.778   0.433 -0.2135  0.4105 -0.0326
 6000SOL    HW129633   1.904   3.700   0.441  0.6612 -0.1066  0.8862
 6000SOL    HW229634   1.957   3.786   0.338  2.5154 -2.0574 -0.2841
 6001SOL     OW29635   4.022   3.138   2.729 -0.4337 -0.0595 -0.6554
 6001SOL    HW129636   3.982   3.051   2.738 -2.6267  0.8879 -1.1616
 6001SOL    HW229637   3.980   3.184   2.656  0.7285  1.4303 -0.3683
 6002SOL     OW29638   4.059   1.014   2.567  0.6167 -0.3287 -0.3504
 6002SOL    HW129639   3.972   1.053   2.559  0.4933 -0.4183  0.5200
 6002SOL    HW229640   4.031   0.931   2.607 -0.6583 -0.2405 -1.0767
 6003SOL     OW29641   0.604   1.430  14.308  0.7602 -0.4659 -0.1006
 6003SOL    HW129642   0.692   1.447  14.274 -0.1499  1.4300 -1.5387
 6003SOL    HW229643   0.586   1.350  14.259 -0.3409 -0.8640  0.9710
 6004SOL     OW29644   3.621   1.775   3.579  0.6401 -0.3576 -0.0118
 6004SOL    HW129645   3.532   1.809   3.572  1.1253  1.4648  2.7219
 6004SOL    HW229646   3.631   1.763   3.674  1.8235 -0.7030 -0.1770
 6005SOL     OW29647   1.568   0.022   1.128  0.4712 -0.2217 -0.3891
 6005SOL    HW129648   1.532   0.022   1.216  0.3882  0.7781 -0.4270
 6005SOL    HW229649   1.498   0.067   1.081 -0.2518 -1.2842 -0.3508
 6006SOL     OW29650   1.275   1.295   3.597  0.1188 -0.8696 -0.5894
 6006SOL    HW129651   1.318   1.219   3.557 -1.2030 -2.6023  1.2641
 6006SOL    HW229652   1.357   1.345   3.598 -0.4297  0.0231 -0.6954
 6007SOL     OW29653   2.551   0.110   5.254  0.0291  0.0586 -0.5640
 6007SOL    HW129654   2.501   0.146   5.327  0.7341 -1.4328  0.6639
 6007SOL    HW229655   2.539   0.015   5.260 -0.5084  0.0049 -2.3080
 6008SOL     OW29656   0.583   0.776   7.209  0.0982 -0.1816  0.0132
 6008SOL    HW129657   0.582   0.833   7.287 -1.1418  0.0525 -0.1748
 6008SOL    HW229658   0.637   0.832   7.153  0.6727 -1.1177 -0.3574
 6009SOL     OW29659   3.113   2.609   3.073 -0.3406 -0.2799  0.3124
 6009SOL    HW129660   3.089   2.582   2.984  0.9744  1.3030 -0.5267
 6009SOL    HW229661   3.055   2.685   3.080  0.2389  0.1900 -0.0743
 6010SOL     OW29662   0.543   0.003   6.087  0.2016 -0.5302  0.3530
 6010SOL    HW129663   0.484   0.057   6.034 -1.2676  0.1916  2.7356
 6010SOL    HW229664   0.609   4.729   6.018  0.1153 -1.9328  0.4889
 6011SOL     OW29665   0.559   1.126   3.636  0.6593  0.4596 -0.1265
 6011SOL    HW129666   0.560   1.031   3.641  2.5146  0.4428 -1.0077
 6011SOL    HW229667   0.649   1.150   3.656  0.0382  1.7854  1.1061
 6012SOL     OW29668   3.273   2.887  12.153  0.0753  0.2695 -0.2889
 6012SOL    HW129669   3.247   2.977  12.136 -0.6936  0.5936  2.6441
 6012SOL    HW229670   3.323   2.864  12.074  0.0429 -2.0660  0.3551
 6013SOL     OW29671   3.814   3.030   1.582 -0.2600  0.1727  0.0772
 6013SOL    HW129672   3.888   2.986   1.625  0.4123  1.0484 -0.1852
 6013SOL    HW229673   3.783   3.091   1.649 -0.3335  1.0283 -0.7430
 6014SOL     OW29674   3.135   1.292   4.996  0.0284 -0.3326  0.4296
 6014SOL    HW129675   3.196   1.293   4.922 -0.9329  1.5270 -0.3321
 6014SOL    HW229676   3.180   1.347   5.060 -1.2948 -0.5188  1.5145
 6015SOL     OW29677   1.938   4.731  15.002 -0.6205  0.2696  0.5170
 6015SOL    HW129678   1.875   0.057  15.037  0.6728  1.8267  0.0274
 6015SOL    HW229679   1.981   4.692  15.078 -1.4776 -0.2893  0.7146
 6016SOL     OW29680   0.404   2.982   6.613  0.6329 -0.1426  1.0667
 6016SOL    HW129681   0.337   3.051   6.617  1.1457  0.4212 -0.3136
 6016SOL    HW229682   0.464   2.999   6.686  1.8297  0.0594  0.0309
 6017SOL     OW29683   0.979   4.545   6.423  0.8666  0.2776 -0.2441
 6017SOL    HW129684   0.995   4.524   6.515 -0.2910  0.1342 -0.0773
 6017SOL    HW229685   1.027   4.477   6.376  1.2128 -0.1743  0.7767
 6018SOL     OW29686   0.476   4.533  15.570  0.2302  0.1947 -0.0441
 6018SOL    HW129687   0.458   4.621  15.537 -0.8686  0.9103  2.4509
 6018SOL    HW229688   0.461   4.556  15.662  0.1510  2.1357 -0.5406
 6019SOL     OW29689   0.758   0.625   2.764  0.7490  1.0521  0.3199
 6019SOL    HW129690   0.785   0.561   2.830  3.3665  2.1044  0.2550
 6019SOL    HW229691   0.703   0.579   2.701  3.3345 -1.2939 -0.2101
 6020SOL     OW29692   4.180   3.609   4.199 -0.0164  0.0528  0.2623
 6020SOL    HW129693   4.238   3.550   4.246 -0.1131  0.3229  0.7231
 6020SOL    HW229694   4.229   3.612   4.117 -1.4154  3.6644 -0.4808
 6021SOL     OW29695   1.204   2.817  14.602  1.1523 -0.1263 -0.0381
 6021SOL    HW129696   1.113   2.799  14.626  0.7856 -0.9553 -2.1009
 6021SOL    HW229697   1.202   2.803  14.507 -1.5888 -2.6853  0.3945
 6022SOL     OW29698   2.592   3.883   7.624  0.3966  0.2890  0.8308
 6022SOL    HW129699   2.655   3.822   7.585 -0.2977 -0.2036  0.4818
 6022SOL    HW229700   2.596   3.875   7.720  1.5737  0.9600  0.8425
 6023SOL     OW29701   2.219   0.028   3.471 -0.4520 -0.0700 -0.1154
 6023SOL    HW129702   2.158   4.691   3.472  1.5514 -1.8003 -3.3640
 6023SOL    HW229703   2.227   0.031   3.566  0.1971  0.7106 -0.1997
 6024SOL     OW29704   1.629   1.011   6.041  0.3912  0.3646 -0.6114
 6024SOL    HW129705   1.606   0.935   6.095  1.4285 -2.0186 -3.4878
 6024SOL    HW229706   1.718   0.985   6.016  1.1646  3.1732 -0.7175
 6025SOL     OW29707   2.636   1.649   7.346 -0.1467  0.5458 -0.1803
 6025SOL    HW129708   2.710   1.670   7.289  0.4488 -1.0718  0.0072
 6025SOL    HW229709   2.645   1.718   7.411  0.0207  0.8251 -0.4981
 6026SOL     OW29710   1.713   1.359   1.186  0.0244  0.3208 -0.2340
 6026SOL    HW129711   1.796   1.405   1.172  0.9736 -0.4292  2.7890
 6026SOL    HW229712   1.668   1.381   1.105 -0.1302  0.6406 -0.0616
 6027SOL     OW29713   3.800   1.459  11.180 -0.0050 -0.2124 -0.3384
 6027SOL    HW129714   3.812   1.438  11.088 -2.4621  0.4015 -0.8079
 6027SOL    HW229715   3.845   1.387  11.226  1.4355  0.7063 -0.3158
 6028SOL     OW29716   0.019   0.842  11.464  0.1365  0.2507 -0.5139
 6028SOL    HW129717   0.108   0.864  11.492  1.0390 -0.4521 -2.8234
 6028SOL    HW229718   4.729   0.920  11.415  0.5117  1.5820  1.3955
 6029SOL     OW29719   1.770   1.839   7.185 -0.3081 -0.1542 -0.1851
 6029SOL    HW129720   1.791   1.854   7.092  3.3388  1.1533  0.8696
 6029SOL    HW229721   1.675   1.832   7.178 -0.3166  0.5664 -0.7546
 6030SOL     OW29722   3.952   1.800  17.457  0.1596  0.2239  0.0143
 6030SOL    HW129723   4.046   1.807  17.444  0.0298  1.5611 -0.2032
 6030SOL    HW229724   3.908   1.796  17.372  1.4909  1.9312 -0.7571
 6031SOL     OW29725   3.487   3.658   5.154 -0.2163 -0.5836 -0.4616
 6031SOL    HW129726   3.540   3.642   5.076  1.5786 -2.4578  1.1698
 6031SOL    HW229727   3.459   3.746   5.128 -1.3298 -0.7877  0.0319
 6032SOL     OW29728   3.850   2.886   6.866  0.2826 -0.2819  0.3398
 6032SOL    HW129729   3.803   2.870   6.948 -1.0181 -0.1621 -0.3898
 6032SOL    HW229730   3.791   2.863   6.794  0.8526 -0.7896  0.0356
 6033SOL     OW29731   1.608   3.241   8.544 -0.2137 -0.0297  0.2677
 6033SOL    HW129732   1.697   3.218   8.518 -0.8346 -0.8164 -1.1523
 6033SOL    HW229733   1.611   3.227   8.639  0.9346  0.0822  0.2421
 6034SOL     OW29734   3.005   0.229   2.227 -0.0394 -0.0151  0.3482
 6034SOL    HW129735   3.056   0.307   2.203  1.1477 -0.9885 -0.3274
 6034SOL    HW229736   3.037   0.168   2.160  1.3260 -1.4373  2.3045
 6035SOL     OW29737   0.286   1.856   5.660  0.1421  0.0322 -0.0734
 6035SOL    HW129738   0.257   1.764   5.658  0.8858 -0.1633 -1.9430
 6035SOL    HW229739   0.209   1.897   5.699  0.7595 -0.1564  1.3445
 6036SOL     OW29740   1.406   4.414   9.674 -0.0446 -0.1752  0.0317
 6036SOL    HW129741   1.450   4.335   9.644  1.5674  0.7909 -0.1281
 6036SOL    HW229742   1.470   4.438   9.741  0.3768  0.9416 -0.7819
 6037SOL     OW29743   1.089   4.080  16.005 -0.0711  0.4249 -0.0691
 6037SOL    HW129744   1.032   4.004  15.991 -0.8740  0.5836  2.3953
 6037SOL    HW229745   1.063   4.139  15.933  0.3583 -0.5514 -1.0290
 6038SOL     OW29746   0.518   2.768   3.584  0.1280 -0.1243  0.4662
 6038SOL    HW129747   0.423   2.771   3.597  0.3818 -1.0393  2.6592
 6038SOL    HW229748   0.534   2.860   3.603 -2.5329 -0.1167  2.8332
 6039SOL     OW29749   1.156   4.608   3.119 -0.1665  0.7008 -0.2301
 6039SOL    HW129750   1.210   4.539   3.157 -2.1753 -1.1917 -0.8633
 6039SOL    HW229751   1.195   4.690   3.149 -1.3490  1.4888 -0.8462
 6040SOL     OW29752   0.901   1.786  11.447  0.1554 -0.5384  0.0644
 6040SOL    HW129753   0.929   1.839  11.522  0.8975  1.7120 -1.8437
 6040SOL    HW229754   0.817   1.753  11.478 -0.4553  0.7203 -0.2627
 6041SOL     OW29755   0.939   4.320  13.442 -0.6443 -0.3575 -0.1935
 6041SOL    HW129756   0.989   4.238  13.442 -1.6213 -0.9607 -0.7605
 6041SOL    HW229757   1.002   4.368  13.387 -1.7158  0.0294 -1.0840
 6042SOL     OW29758   1.629   3.586   3.918 -0.6616  0.1895  0.2665
 6042SOL    HW129759   1.616   3.656   3.981  2.2563  0.6110  0.3824
 6042SOL    HW229760   1.542   3.594   3.878 -0.7119  1.4162  0.6136
 6043SOL     OW29761   1.601   2.388   1.502  0.2349  0.3712  0.7226
 6043SOL    HW129762   1.693   2.389   1.530  0.8108 -2.7432 -1.0575
 6043SOL    HW229763   1.571   2.479   1.506 -1.3935 -0.1503  0.2149
 6044SOL     OW29764   3.109   1.368   4.657  0.2786  0.3849 -0.0057
 6044SOL    HW129765   3.182   1.324   4.701 -1.1897 -0.4680  1.6032
 6044SOL    HW229766   3.063   1.408   4.732  0.1125  1.0643 -0.4722
 6045SOL     OW29767   1.170   3.706   6.102 -0.7803  0.3317 -0.5466
 6045SOL    HW129768   1.108   3.643   6.137  0.3281 -1.5596 -1.9496
 6045SOL    HW229769   1.166   3.668   6.014  0.8462  0.1758 -0.5562
 6046SOL     OW29770   0.074   2.870   7.576 -0.2440  0.0489 -0.0851
 6046SOL    HW129771   0.009   2.862   7.646  3.0148  1.8669  3.1286
 6046SOL    HW229772   0.143   2.904   7.633  2.0647 -2.9238 -1.1360
 6047SOL     OW29773   2.882   3.690   5.772 -0.0578  0.3005  0.1142
 6047SOL    HW129774   2.812   3.697   5.707  0.2317  0.2100 -0.2033
 6047SOL    HW229775   2.833   3.716   5.851  0.8835 -0.1856  0.8575
 6048SOL     OW29776   2.192   0.342   0.346 -0.2518  0.3745 -0.2443
 6048SOL    HW129777   2.232   0.428   0.360  1.6609 -0.6004  0.3023
 6048SOL    HW229778   2.239   0.312   0.268  1.5344 -1.4413  1.5308
 6049SOL     OW29779   4.017   0.252   1.981  0.2010  0.2628  0.2196
 6049SOL    HW129780   3.928   0.233   1.950  0.2754  1.0668 -0.4969
 6049SOL    HW229781   4.000   0.317   2.049 -1.9426 -0.6703  0.5902
 6050SOL     OW29782   4.685   0.389   8.300 -0.4198 -0.0654 -0.4725
 6050SOL    HW129783   4.703   0.351   8.386  0.2254  0.8644 -0.1993
 6050SOL    HW229784   4.734   0.471   8.303 -0.7658  0.0386  2.1751
 6051SOL     OW29785   0.642   1.239   9.628  0.4572 -0.2784 -0.2413
 6051SOL    HW129786   0.595   1.250   9.711  0.6639  0.3181 -0.1994
 6051SOL    HW229787   0.571   1.215   9.568 -0.0191  0.5820 -0.0244
 6052SOL     OW29788   4.138   4.065   6.577  0.3323  0.2465 -0.1036
 6052SOL    HW129789   4.195   4.011   6.633 -2.8924 -1.0774  1.8896
 6052SOL    HW229790   4.198   4.119   6.525  0.6542 -0.2311 -0.2290
 6053SOL     OW29791   2.377   0.769   1.529  0.1081  0.0116  0.0623
 6053SOL    HW129792   2.446   0.730   1.583 -0.3255  0.5704  1.0260
 6053SOL    HW229793   2.385   0.719   1.447 -0.9235 -1.9882  1.1735
 6054SOL     OW29794   2.804   4.280   8.431  0.1935  0.3374  0.0441
 6054SOL    HW129795   2.746   4.281   8.507 -2.3948 -0.1623 -1.9264
 6054SOL    HW229796   2.755   4.314   8.355 -0.4710  2.0114  1.2318
 6055SOL     OW29797   1.214   4.330   3.632  0.4625  0.1593 -0.4544
 6055SOL    HW129798   1.292   4.384   3.618  3.0822 -3.4755  0.0952
 6055SOL    HW229799   1.246   4.242   3.615  3.4839  1.4653 -1.5742
 6056SOL     OW29800   1.551   3.708  14.613  0.3307 -0.0103  0.8198
 6056SOL    HW129801   1.470   3.678  14.569  0.7781 -0.4536  0.2960
 6056SOL    HW229802   1.598   3.625  14.620  2.1141  0.8536 -0.8222
 6057SOL     OW29803   0.765   0.901   0.070 -0.2555  0.3441  0.0033
 6057SOL    HW129804   0.784   0.900  17.723  2.4956  1.0618  0.5518
 6057SOL    HW229805   0.850   0.931   0.103 -0.3735  0.3018  0.3469
 6058SOL     OW29806   0.823   3.194   3.415 -0.4261  0.7034 -0.1413
 6058SOL    HW129807   0.733   3.201   3.447 -1.2952  1.2698 -2.6814
 6058SOL    HW229808   0.812   3.110   3.370 -0.3769  1.5292 -1.7138
 6059SOL     OW29809   4.230   0.491   9.558  0.0424 -0.3104  0.0638
 6059SOL    HW129810   4.320   0.465   9.536 -0.0862  0.4855 -1.3277
 6059SOL    HW229811   4.208   0.536   9.477  0.9042 -0.9473 -0.5335
 6060SOL     OW29812   3.902   1.622   5.585  0.0809  0.1979  0.1883
 6060SOL    HW129813   3.903   1.549   5.523 -1.5677 -0.3435  0.8059
 6060SOL    HW229814   3.975   1.670   5.546  1.2053 -0.5954  1.3057
 6061SOL     OW29815   4.362   0.733  11.002  0.2198 -0.1205 -0.0715
 6061SOL    HW129816   4.306   0.731  11.080  1.8831  1.7584  1.1864
 6061SOL    HW229817   4.433   0.676  11.032  0.4526  0.9223  1.3679
 6062SOL     OW29818   3.698   4.490  12.164  0.0598 -0.5000 -0.1405
 6062SOL    HW129819   3.752   4.564  12.139  0.0166 -0.7000 -0.8209
 6062SOL    HW229820   3.655   4.522  12.244 -0.7005  0.6353 -1.0103
 6063SOL     OW29821   1.183   4.601   1.032 -0.4622  0.5178  0.0410
 6063SOL    HW129822   1.230   4.591   0.949  0.8704 -0.7598  0.9591
 6063SOL    HW229823   1.223   4.676   1.076 -2.3497  0.5080  1.7660
 6064SOL     OW29824   4.441   2.874   1.526  0.4503 -0.3266 -0.1027
 6064SOL    HW129825   4.467   2.894   1.436 -2.0793  2.4135 -0.1877
 6064SOL    HW229826   4.515   2.903   1.580  0.0929  0.8067 -0.2329
 6065SOL     OW29827   0.108   1.516   3.938 -0.0793 -0.0150  0.0257
 6065SOL    HW129828   0.195   1.545   3.965 -0.9228  2.3331  0.1710
 6065SOL    HW229829   0.065   1.598   3.917 -2.5778 -1.1814  0.5450
 6066SOL     OW29830   0.089   4.119   6.471  0.2864  0.3877 -0.3505
 6066SOL    HW129831   0.183   4.140   6.474  0.5054 -0.6400  0.0009
 6066SOL    HW229832   0.066   4.134   6.379 -0.8221 -1.2216 -0.3418
 6067SOL     OW29833   1.839   2.324   3.966  0.9972 -0.2557 -0.1813
 6067SOL    HW129834   1.912   2.375   3.930  2.1236  0.9355  3.7527
 6067SOL    HW229835   1.771   2.390   3.954  0.0805 -0.6308  2.8897
 6068SOL     OW29836   0.289   0.793   6.841  0.4416  0.0777  0.6845
 6068SOL    HW129837   0.381   0.794   6.814  0.4353 -0.8561  0.6355
 6068SOL    HW229838   0.293   0.759   6.930 -0.5632  0.6913  0.9691
 6069SOL     OW29839   4.664   4.084   9.468 -0.2785  0.0936  0.0106
 6069SOL    HW129840   4.618   4.104   9.387 -0.8533 -0.1465  0.2718
 6069SOL    HW229841   4.638   3.994   9.491  0.3380 -0.3185 -0.9108
 6070SOL     OW29842   1.496   0.017  13.274  1.3895  0.1775  0.1218
 6070SOL    HW129843   1.565   4.688  13.264 -1.1137 -2.6281  1.2199
 6070SOL    HW229844   1.444   4.708  13.340  0.6800  0.4293 -0.2638
 6071SOL     OW29845   4.629   3.159   0.487 -0.5824 -0.2068 -0.5326
 6071SOL    HW129846   4.603   3.076   0.445 -3.7006 -0.9218  2.7763
 6071SOL    HW229847   4.539   3.189   0.497 -0.5614 -0.6080  0.8815
 6072SOL     OW29848   1.720   4.354   7.783  0.2539  0.5527  0.0144
 6072SOL    HW129849   1.792   4.318   7.732  0.2794  1.9784 -0.9758
 6072SOL    HW229850   1.664   4.278   7.800 -2.0885  1.7066 -2.4999
 6073SOL     OW29851   2.435   1.197   7.334  0.4437 -0.5606 -0.5487
 6073SOL    HW129852   2.361   1.238   7.289  0.0395  0.8344  1.4158
 6073SOL    HW229853   2.408   1.222   7.422  1.6886  0.8614 -0.5675
 6074SOL     OW29854   2.775   1.247  17.525  0.0582  0.5696  0.5966
 6074SOL    HW129855   2.828   1.229  17.448 -1.2565 -0.9892  0.0590
 6074SOL    HW229856   2.840   1.222  17.591 -0.8260 -0.8794  0.9233
 6075SOL     OW29857   2.290   2.907   9.264 -0.3587  0.1107 -0.0708
 6075SOL    HW129858   2.333   2.834   9.308 -1.9784 -1.5964 -1.2886
 6075SOL    HW229859   2.224   2.941   9.324  0.4035  1.8713 -0.2396
 6076SOL     OW29860   3.596   2.847   2.079  0.5100 -0.0894  0.4437
 6076SOL    HW129861   3.504   2.843   2.053  0.1274  0.6168  1.7221
 6076SOL    HW229862   3.606   2.939   2.103 -0.7205  0.0860  0.2663
 6077SOL     OW29863   0.922   4.218   6.065 -0.0753 -0.0348  0.4186
 6077SOL    HW129864   0.862   4.292   6.053 -2.0432 -0.9812  4.4308
 6077SOL    HW229865   1.004   4.261   6.040  0.4161 -0.2107  1.7450
 6078SOL     OW29866   2.370   4.329   1.510  0.6184 -0.6198  0.5557
 6078SOL    HW129867   2.378   4.408   1.563 -2.5078 -1.1346  1.8054
 6078SOL    HW229868   2.276   4.310   1.505  0.7410 -1.2758  0.6469
 6079SOL     OW29869   0.609   2.044   5.335 -0.9754 -0.4302 -0.1344
 6079SOL    HW129870   0.523   2.021   5.372 -1.3655  1.4381  0.1079
 6079SOL    HW229871   0.627   1.978   5.268 -0.8147 -0.0218 -0.4887
 6080SOL     OW29872   1.806   0.578   6.841  0.0526 -0.1605  0.1913
 6080SOL    HW129873   1.881   0.581   6.901  0.5886  1.3035 -0.5346
 6080SOL    HW229874   1.749   0.605   6.913  0.2684 -0.9391  0.6558
 6081SOL     OW29875   3.553   0.282   5.636  0.3653 -0.3094 -0.0289
 6081SOL    HW129876   3.460   0.293   5.614  0.2510 -2.4990 -0.5716
 6081SOL    HW229877   3.583   0.371   5.615 -2.2447  0.1700 -1.6688
 6082SOL     OW29878   1.924   0.693   6.338 -0.1810  0.2587 -0.3641
 6082SOL    HW129879   2.001   0.717   6.287 -0.5836 -0.5315 -1.3321
 6082SOL    HW229880   1.963   0.694   6.426 -1.7003  2.5940  0.2907
 6083SOL     OW29881   4.484   1.155   6.194 -0.1586 -0.3147  0.2731
 6083SOL    HW129882   4.558   1.186   6.247 -0.7694 -0.4078  1.1756
 6083SOL    HW229883   4.507   1.069   6.160 -1.6922 -0.5254 -0.2455
 6084SOL     OW29884   3.260   3.030   2.429 -0.4871 -0.3397 -0.1656
 6084SOL    HW129885   3.239   3.101   2.368 -1.6249 -0.3623  0.1995
 6084SOL    HW229886   3.173   3.016   2.467 -1.6747  1.3900 -2.2761
 6085SOL     OW29887   4.136   0.631   1.015  0.9506  0.1285  0.3271
 6085SOL    HW129888   4.054   0.616   0.967  0.0808 -0.8595  2.1200
 6085SOL    HW229889   4.168   0.540   1.022 -2.5750 -1.2607 -1.8275
 6086SOL     OW29890   1.735   2.181  16.674  0.3044  0.4773 -0.0144
 6086SOL    HW129891   1.799   2.129  16.624  0.1606  0.5240 -0.2477
 6086SOL    HW229892   1.682   2.108  16.706 -0.4979  1.2325  0.3523
 6087SOL     OW29893   2.426   0.142   0.738  0.1271 -0.0705 -0.1262
 6087SOL    HW129894   2.389   0.119   0.823  0.3210  2.1657  0.5790
 6087SOL    HW229895   2.495   0.077   0.727  1.7227  1.6169 -0.0746
 6088SOL     OW29896   3.108   3.215   4.899  0.5007 -0.3124  0.3776
 6088SOL    HW129897   3.142   3.304   4.891  0.5875 -0.5000 -1.3152
 6088SOL    HW229898   3.020   3.230   4.933  0.6002  0.2752  0.3805
 6089SOL     OW29899   3.760   3.663  11.073 -0.0922 -0.0327  0.5112
 6089SOL    HW129900   3.690   3.706  11.024  2.1846 -1.2967 -3.8998
 6089SOL    HW229901   3.762   3.575  11.034 -0.2805  0.8414 -1.4970
 6090SOL     OW29902   3.008   2.703   4.759  0.0192  0.3615 -0.0709
 6090SOL    HW129903   2.923   2.712   4.715 -0.7093  0.1022  1.2813
 6090SOL    HW229904   3.061   2.740   4.688 -1.7449  0.9916 -1.0793
 6091SOL     OW29905   1.478   3.306   1.720 -0.4243 -0.0547 -0.2678
 6091SOL    HW129906   1.557   3.328   1.670 -1.6967  0.7318 -1.9522
 6091SOL    HW229907   1.520   3.237   1.771  0.0583 -0.0952 -0.7178
 6092SOL     OW29908   1.791   0.596   7.700  0.1762 -0.5326  0.0349
 6092SOL    HW129909   1.853   0.640   7.642  1.5729  1.8570  3.3681
 6092SOL    HW229910   1.846   0.585   7.777 -0.5853 -1.0852  0.5031
 6093SOL     OW29911   2.516   0.510   8.704 -0.1009  0.1379 -0.4802
 6093SOL    HW129912   2.475   0.452   8.768  0.4780  1.0298  0.6954
 6093SOL    HW229913   2.566   0.577   8.749  3.2309 -3.6182  1.2981
 6094SOL     OW29914   1.787   1.508   9.410 -0.0527  0.0340  0.6269
 6094SOL    HW129915   1.735   1.500   9.490  0.9822  0.8773  1.3949
 6094SOL    HW229916   1.734   1.462   9.345 -0.5493 -0.9408  1.7241
 6095SOL     OW29917   2.187   0.177   2.057  0.2588 -0.7740 -0.0327
 6095SOL    HW129918   2.168   0.160   2.149 -1.5480 -2.1146 -0.6495
 6095SOL    HW229919   2.217   0.087   2.044  0.2054 -0.3181 -3.1998
 6096SOL     OW29920   3.463   3.722   2.307 -0.3334  0.0033 -0.3683
 6096SOL    HW129921   3.532   3.667   2.344  0.8482  2.2138  0.7175
 6096SOL    HW229922   3.404   3.742   2.380  0.2446 -0.5219  0.2397
 6097SOL     OW29923   2.832   1.421   5.963  0.0237  0.4242 -0.2636
 6097SOL    HW129924   2.746   1.391   5.934 -0.0241  0.9932 -0.6911
 6097SOL    HW229925   2.797   1.501   6.003  0.8988  0.5669  0.2064
 6098SOL     OW29926   4.583   3.037   1.724  0.9718  0.1927 -0.5445
 6098SOL    HW129927   4.635   3.052   1.804  1.1314  0.7947 -0.7623
 6098SOL    HW229928   4.637   3.079   1.658  0.0157  0.9074 -0.8708
 6099SOL     OW29929   3.372   1.847   3.443 -0.0568  0.0100  0.1022
 6099SOL    HW129930   3.413   1.863   3.358 -0.7963 -0.7437 -0.3979
 6099SOL    HW229931   3.356   1.938   3.467 -1.5030 -0.4293  0.7804
 6100SOL     OW29932   3.321   4.506   6.984  0.3955 -0.8706  0.0397
 6100SOL    HW129933   3.327   4.595   6.950 -0.7505  0.0716  2.3117
 6100SOL    HW229934   3.286   4.513   7.073 -0.1890  0.1661 -0.2794
 6101SOL     OW29935   3.852   2.427   4.503  0.1899  0.2529 -0.0907
 6101SOL    HW129936   3.883   2.345   4.542  3.5513  0.4716 -2.3930
 6101SOL    HW229937   3.810   2.385   4.428 -1.1857  0.1632  0.7288
 6102SOL     OW29938   1.234   0.596   4.883 -0.0760  0.2970 -0.5871
 6102SOL    HW129939   1.166   0.658   4.857 -1.0796 -0.8273 -0.6584
 6102SOL    HW229940   1.183   0.536   4.938 -1.5537 -0.3404 -2.6865
 6103SOL     OW29941   1.430   3.214   2.862  0.1702  0.0603  0.0217
 6103SOL    HW129942   1.445   3.212   2.767 -0.3270  1.1079 -0.0781
 6103SOL    HW229943   1.420   3.122   2.883  1.5435  0.1878  1.2741
 6104SOL     OW29944   1.813   3.101  15.766  0.4786 -0.1141 -0.2272
 6104SOL    HW129945   1.855   3.174  15.812 -1.8321  1.1925 -0.2100
 6104SOL    HW229946   1.738   3.080  15.821  0.1687 -2.3128 -1.4691
 6105SOL     OW29947   0.825   0.856   6.375  0.0811  0.0781 -0.6797
 6105SOL    HW129948   0.879   0.933   6.388 -1.3051  0.7307  1.3116
 6105SOL    HW229949   0.855   0.829   6.288 -3.4088 -1.6260 -1.3684
 6106SOL     OW29950   2.826   3.503   8.091  0.4448  0.4073 -0.1270
 6106SOL    HW129951   2.776   3.446   8.032 -2.3385  0.8415  1.8509
 6106SOL    HW229952   2.877   3.448   8.150 -1.6048  0.5970  1.7993
 6107SOL     OW29953   1.208   0.005  10.596 -0.2503  0.2959 -0.1617
 6107SOL    HW129954   1.124   0.045  10.621 -2.1646 -2.4160 -2.2102
 6107SOL    HW229955   1.255   4.724  10.677 -0.0820  1.9971  0.1234
 6108SOL     OW29956   2.053   3.848  13.878 -0.2444 -0.0279 -0.0283
 6108SOL    HW129957   1.992   3.881  13.944  0.8378 -0.5714  1.2472
 6108SOL    HW229958   2.031   3.755  13.883  2.0401 -0.5747 -0.2775
 6109SOL     OW29959   4.359   0.083   5.409  0.1156 -0.5486  0.3211
 6109SOL    HW129960   4.329   0.170   5.384  1.7381  0.1608  0.8370
 6109SOL    HW229961   4.281   0.027   5.400 -1.1506  1.2140  0.4671
 6110SOL     OW29962   4.623   0.011   2.135  0.5985  0.3467 -0.1785
 6110SOL    HW129963   4.576   4.721   2.214 -0.0566  0.4801 -0.5230
 6110SOL    HW229964   4.559   4.727   2.067  2.0245  0.9321 -1.6969
 6111SOL     OW29965   1.803   2.562   9.208 -0.4444  0.2955 -0.1476
 6111SOL    HW129966   1.709   2.581   9.214 -0.3195  0.4893  1.3818
 6111SOL    HW229967   1.830   2.620   9.279 -0.3723  0.5450 -0.3819
 6112SOL     OW29968   1.736   1.457   8.520  0.4336 -0.3917  0.3355
 6112SOL    HW129969   1.720   1.531   8.579 -2.5317  0.5290 -1.6623
 6112SOL    HW229970   1.764   1.401   8.593  0.3319 -1.0258 -0.1157
 6113SOL     OW29971   4.071   3.449   6.153  0.3528  0.1375 -0.4402
 6113SOL    HW129972   4.013   3.489   6.088  0.3517  0.0915 -0.4675
 6113SOL    HW229973   4.077   3.365   6.107  1.8251  1.0871 -2.0011
 6114SOL     OW29974   1.516   0.663  11.241  0.0266 -0.2055 -0.1674
 6114SOL    HW129975   1.587   0.668  11.177 -0.7683 -0.4745 -1.0716
 6114SOL    HW229976   1.475   0.749  11.228 -0.4512 -0.6571 -1.6411
 6115SOL     OW29977   4.068   3.499   3.086 -0.4919 -0.1401  0.2424
 6115SOL    HW129978   4.053   3.417   3.037  2.8433 -2.1542  2.6084
 6115SOL    HW229979   4.163   3.494   3.087 -0.6041 -2.8242 -2.4690
 6116SOL     OW29980   2.606   3.297   4.239  0.0743  0.6429  0.7430
 6116SOL    HW129981   2.565   3.219   4.276  0.0471 -0.8856 -2.5059
 6116SOL    HW229982   2.618   3.284   4.145  1.9707 -0.1815  1.0947
 6117SOL     OW29983   1.370   1.375   8.314  0.1943 -0.0831 -0.0327
 6117SOL    HW129984   1.411   1.449   8.268 -0.9320 -0.0372 -0.9731
 6117SOL    HW229985   1.405   1.384   8.402  2.3006  0.8460 -0.9520
 6118SOL     OW29986   4.647   0.644  11.944  0.7461  0.5721 -0.3387
 6118SOL    HW129987   4.557   0.674  11.956  0.5158 -0.0573 -0.5067
 6118SOL    HW229988   4.648   0.622  11.851  0.4877 -1.0912  0.0466
 6119SOL     OW29989   2.437   1.678   4.194 -0.9747  0.0824 -0.3409
 6119SOL    HW129990   2.351   1.657   4.230 -1.8211  0.5068 -2.1321
 6119SOL    HW229991   2.444   1.773   4.183 -1.7560  0.0973 -0.6713
 6120SOL     OW29992   2.181   4.027  15.728  0.0697 -0.2613 -0.2917
 6120SOL    HW129993   2.194   4.117  15.698  0.5824 -0.0927  0.4390
 6120SOL    HW229994   2.173   4.033  15.823  1.2769 -0.3244 -0.1880
 6121SOL     OW29995   2.537   3.684   4.648 -0.0011 -0.4535 -0.0240
 6121SOL    HW129996   2.576   3.711   4.731 -0.5193  0.7093 -0.1625
 6121SOL    HW229997   2.506   3.596   4.669 -1.1432  0.6372  2.8160
 6122SOL     OW29998   0.932   2.919   1.888 -0.3714  0.1101 -0.9453
 6122SOL    HW129999   0.858   2.873   1.926  0.3578 -1.5774 -1.5925
 6122SOL    HW230000   0.893   3.000   1.854  2.7967  1.3452 -1.6387
 6123SOL     OW30001   4.638   4.172  12.245 -0.7849  0.2284 -0.0286
 6123SOL    HW130002   4.554   4.165  12.200  0.7696 -0.7260 -2.8179
 6123SOL    HW230003   4.611   4.232  12.315  0.6227  2.2400 -1.1873
 6124SOL     OW30004   1.852   1.765   6.202  0.1398 -0.2722  0.2652
 6124SOL    HW130005   1.836   1.827   6.273  2.2363  0.6535 -0.0848
 6124SOL    HW230006   1.947   1.752   6.196 -0.1325 -2.0572 -0.3430
 6125SOL     OW30007   4.004   4.264   8.653 -1.1412 -0.6341 -0.2119
 6125SOL    HW130008   4.016   4.359   8.662 -0.8098 -0.5132 -1.9567
 6125SOL    HW230009   4.062   4.238   8.724  1.2205 -1.0197 -2.2725
 6126SOL     OW30010   2.748   0.041   8.844 -1.0121  0.3436 -0.4417
 6126SOL    HW130011   2.781   0.117   8.892 -1.3085 -0.5863  1.2338
 6126SOL    HW230012   2.744   0.079   8.756  0.8179 -1.2616 -1.2243
 6127SOL     OW30013   1.318   3.527   8.726 -0.3773  0.3052 -0.0478
 6127SOL    HW130014   1.277   3.445   8.752 -0.6391  0.7177  0.8571
 6127SOL    HW230015   1.348   3.509   8.637 -0.3357 -0.3033  0.0931
 6128SOL     OW30016   2.158   0.460   8.821 -0.2338  0.5694  0.1003
 6128SOL    HW130017   2.250   0.435   8.829 -0.7392 -0.8909  1.4816
 6128SOL    HW230018   2.162   0.506   8.737 -0.1489 -0.1755 -0.3117
 6129SOL     OW30019   2.483   0.942  11.975 -0.7495 -0.0755 -0.2468
 6129SOL    HW130020   2.554   0.885  11.944  0.3248 -0.3615  2.7718
 6129SOL    HW230021   2.429   0.874  12.016  0.7547 -1.9678 -1.3738
 6130SOL     OW30022   3.007   2.372   8.609  0.0860  0.3985 -0.0633
 6130SOL    HW130023   3.027   2.314   8.536 -0.4908  1.4023 -1.0166
 6130SOL    HW230024   3.091   2.412   8.633  0.7652 -1.9329  1.4957
 6131SOL     OW30025   2.380   2.565   4.011  0.5952 -0.1794 -0.0102
 6131SOL    HW130026   2.293   2.545   4.046  0.2388  0.0921 -0.7351
 6131SOL    HW230027   2.442   2.548   4.081  1.0326 -2.3070 -0.9167
 6132SOL     OW30028   0.859   4.442   9.666 -0.0280 -0.4238  0.1432
 6132SOL    HW130029   0.884   4.471   9.754 -0.2705  1.1369 -0.3112
 6132SOL    HW230030   0.788   4.499   9.637  1.3968  1.9622  1.3756
 6133SOL     OW30031   3.228   2.013   8.557 -0.3494  0.2175 -0.6426
 6133SOL    HW130032   3.321   2.014   8.537 -0.3878 -0.2522 -0.8278
 6133SOL    HW230033   3.202   2.093   8.510  1.3527  0.8986 -0.4366
 6134SOL     OW30034   1.557   1.035  13.806 -0.6091 -0.4953 -0.2601
 6134SOL    HW130035   1.643   1.072  13.823 -1.1532  0.6298  0.0492
 6134SOL    HW230036   1.516   1.113  13.769  1.0264  1.1200  1.3910
 6135SOL     OW30037   0.577   0.776   6.057  0.6372  0.4568 -0.0878
 6135SOL    HW130038   0.585   0.728   6.139 -0.6212 -1.4321 -1.0764
 6135SOL    HW230039   0.647   0.740   6.002  0.1598 -0.2334 -0.2460
 6136SOL     OW30040   2.183   0.767   6.456  0.2055 -0.3066 -0.1052
 6136SOL    HW130041   2.244   0.696   6.476  0.5292  0.0677  0.2216
 6136SOL    HW230042   2.214   0.787   6.367 -1.0432 -2.2918 -0.9953
 6137SOL     OW30043   0.062   2.211   3.938 -0.0513  0.3629  0.1769
 6137SOL    HW130044   0.110   2.293   3.922  0.0624  0.2521 -0.0418
 6137SOL    HW230045   0.062   2.180   3.847 -0.6571  1.5674 -0.2365
 6138SOL     OW30046   3.559   1.464   5.366 -0.3222  0.1890 -0.0241
 6138SOL    HW130047   3.545   1.510   5.449 -1.2471  0.5098 -0.3630
 6138SOL    HW230048   3.541   1.373   5.386  1.4870 -0.3158 -0.6829
 6139SOL     OW30049   1.425   3.230  10.569 -0.0880 -0.1996  0.2244
 6139SOL    HW130050   1.450   3.253  10.658 -1.5689  1.0784  0.3129
 6139SOL    HW230051   1.435   3.311  10.518 -2.5914  0.6824  1.1254
 6140SOL     OW30052   2.918   1.233  17.257 -0.5081  0.0629 -0.5967
 6140SOL    HW130053   2.996   1.229  17.203  0.1150  0.6764  0.2573
 6140SOL    HW230054   2.866   1.167  17.211 -0.8348  0.6217 -1.0196
 6141SOL     OW30055   0.394   1.107   4.865 -0.1656  0.3164 -0.1137
 6141SOL    HW130056   0.408   1.028   4.812  0.8945  0.8782 -0.6850
 6141SOL    HW230057   0.325   1.137   4.806  0.1829  0.8810 -0.2334
 6142SOL     OW30058   3.938   1.777  11.071 -0.2324 -0.5243  0.0251
 6142SOL    HW130059   3.929   1.699  11.017  2.3625 -0.2376 -0.8269
 6142SOL    HW230060   4.023   1.812  11.045 -0.7948 -0.1272 -1.3044
 6143SOL     OW30061   4.058   1.797   6.994  0.3792  0.2083 -0.2825
 6143SOL    HW130062   4.146   1.770   7.021 -0.3432 -1.6255  0.1702
 6143SOL    HW230063   4.060   1.893   7.003 -0.0232  0.1129  0.8538
 6144SOL     OW30064   1.219   3.149   1.597 -0.0344 -0.1704 -0.3109
 6144SOL    HW130065   1.206   3.187   1.510 -0.9140  1.0860  0.3702
 6144SOL    HW230066   1.295   3.203   1.621  0.6407 -1.2432 -0.0664
 6145SOL     OW30067   2.400   2.724   9.489 -0.4129  0.2292  0.2981
 6145SOL    HW130068   2.490   2.718   9.458 -0.3296 -2.2409  1.0217
 6145SOL    HW230069   2.415   2.762   9.576 -0.4793 -0.1172  0.4593
 6146SOL     OW30070   4.185   2.552   2.670 -0.3420 -0.2146  0.0271
 6146SOL    HW130071   4.130   2.500   2.612  0.6481 -0.4759 -0.6747
 6146SOL    HW230072   4.150   2.640   2.654 -2.2062 -0.8388  0.6358
 6147SOL     OW30073   2.101   4.339   8.133  0.1600 -0.2618  0.2901
 6147SOL    HW130074   2.114   4.310   8.223 -1.4627  3.1545  1.6236
 6147SOL    HW230075   2.187   4.378   8.115  0.1027  0.7012  2.1593
 6148SOL     OW30076   4.427   3.028   8.874 -0.4069 -0.0514 -0.2358
 6148SOL    HW130077   4.508   3.060   8.914 -0.0522 -0.9263 -0.2540
 6148SOL    HW230078   4.368   3.066   8.939  0.1120  1.5962 -0.7510
 6149SOL     OW30079   3.859   3.724   8.507  0.5977  0.2765  0.3268
 6149SOL    HW130080   3.895   3.788   8.567  0.0285 -0.6437  1.6702
 6149SOL    HW230081   3.834   3.785   8.438 -0.3574 -1.6372 -1.0371
 6150SOL     OW30082   2.136   4.501   1.755 -0.1656 -0.4626 -0.8236
 6150SOL    HW130083   2.096   4.453   1.827 -1.0945  1.0999 -0.3143
 6150SOL    HW230084   2.118   4.438   1.685 -2.3019 -0.0718 -0.6030
 6151SOL     OW30085   4.544   0.836  17.346 -0.6241 -0.5877 -0.0170
 6151SOL    HW130086   4.607   0.906  17.361  1.5585 -2.0657 -2.2404
 6151SOL    HW230087   4.539   0.797  17.433  2.2300 -0.7151  0.0895
 6152SOL     OW30088   0.450   0.192   7.198  0.0384  0.5102  0.1509
 6152SOL    HW130089   0.362   0.222   7.174  0.2854 -0.4560 -1.9925
 6152SOL    HW230090   0.430   0.134   7.271  1.0496  0.8866  0.7243
 6153SOL     OW30091   1.195   4.715   3.541  0.0407  0.5759 -0.3070
 6153SOL    HW130092   1.101   4.723   3.527  0.3164  0.9339 -1.9641
 6153SOL    HW230093   1.198   4.735   3.635  0.6680 -0.8163 -0.0196
 6154SOL     OW30094   3.168   0.521   2.702 -0.3519 -0.2310  0.3250
 6154SOL    HW130095   3.196   0.583   2.635  0.9482 -0.9122  0.2467
 6154SOL    HW230096   3.076   0.547   2.714  0.1879  1.8203 -0.0257
 6155SOL     OW30097   1.560   2.769   5.121  0.5842  0.2361  0.1164
 6155SOL    HW130098   1.600   2.852   5.094  0.6125 -0.0968 -0.8699
 6155SOL    HW230099   1.522   2.740   5.038 -2.0103 -1.6149  1.9739
 6156SOL     OW30100   0.179   2.646   4.031 -0.4561 -0.1266 -0.8979
 6156SOL    HW130101   0.085   2.658   4.016 -0.0957  0.3632 -2.7564
 6156SOL    HW230102   0.202   2.564   3.988  2.4233 -0.5212  1.3245
 6157SOL     OW30103   0.853   3.632  12.746 -0.5224 -0.5096 -0.2202
 6157SOL    HW130104   0.922   3.680  12.792 -0.9853  0.0298 -0.0994
 6157SOL    HW230105   0.819   3.700  12.689  3.3260  1.2007 -0.5075
 6158SOL     OW30106   4.137   4.673   7.728  0.6775 -0.0301  0.0643
 6158SOL    HW130107   4.218   4.685   7.679  0.2301  1.3260 -0.3642
 6158SOL    HW230108   4.091   0.015   7.699  3.6564  2.2043  1.3725
 6159SOL     OW30109   4.281   4.630   2.045 -0.3542 -0.7617 -0.9189
 6159SOL    HW130110   4.347   4.588   1.991  2.6277 -2.4559  4.0115
 6159SOL    HW230111   4.247   4.560   2.102  0.3624  0.5652  1.1228
 6160SOL     OW30112   0.455   3.773   4.761 -0.1362  0.0928 -0.2091
 6160SOL    HW130113   0.371   3.735   4.736  0.1482 -0.3771 -0.4484
 6160SOL    HW230114   0.487   3.699   4.813 -0.7212 -0.6789 -0.9455
 6161SOL     OW30115   4.606   3.155  12.870 -0.3283  0.0605  0.1845
 6161SOL    HW130116   4.622   3.107  12.952  0.1193 -0.0102  0.0595
 6161SOL    HW230117   4.536   3.211  12.902  0.8611  1.4201  0.4294
 6162SOL     OW30118   0.792   4.306  16.455 -0.0796  0.5904 -0.5116
 6162SOL    HW130119   0.849   4.318  16.379 -0.0516 -0.2299 -0.6211
 6162SOL    HW230120   0.796   4.390  16.500 -0.0671  0.1128  0.3880
 6163SOL     OW30121   2.462   0.050   5.926 -0.1003 -0.4167  0.1297
 6163SOL    HW130122   2.471   4.707   5.977 -1.2491  0.1399  1.2249
 6163SOL    HW230123   2.556   0.066   5.917 -0.3292  1.7527  1.4022
 6164SOL     OW30124   2.353   0.840   4.207  0.3362  0.1048  0.4131
 6164SOL    HW130125   2.305   0.785   4.145  0.8060  0.8260 -0.5831
 6164SOL    HW230126   2.289   0.844   4.278  0.9164  1.4577  0.8693
 6165SOL     OW30127   3.318   2.441   4.638  0.0593  0.9447 -0.1307
 6165SOL    HW130128   3.241   2.385   4.629 -0.5005  1.3510  2.1076
 6165SOL    HW230129   3.300   2.498   4.712 -2.0798  3.1552 -2.3599
 6166SOL     OW30130   3.824   3.172  15.341  0.7430 -0.3490 -0.4487
 6166SOL    HW130131   3.901   3.209  15.298 -0.0127 -1.1268 -2.4841
 6166SOL    HW230132   3.754   3.224  15.302  3.0602  2.5309 -0.7798
 6167SOL     OW30133   4.060   0.998  15.205  0.2920  0.5153 -0.5761
 6167SOL    HW130134   4.106   1.064  15.153  2.7725  0.2418  1.3271
 6167SOL    HW230135   4.024   0.936  15.142  1.0426  0.0139 -0.4970
 6168SOL     OW30136   1.804   2.256   2.501 -0.6186  0.6538  0.1708
 6168SOL    HW130137   1.831   2.198   2.573 -0.4378  0.3048 -0.1760
 6168SOL    HW230138   1.777   2.191   2.436  1.7119 -0.7862  0.6234
 6169SOL     OW30139   1.429   2.059  12.209  0.1544  0.3616 -0.5119
 6169SOL    HW130140   1.420   2.004  12.131  0.3168 -0.5773  0.1227
 6169SOL    HW230141   1.379   2.012  12.276  0.9182  0.3176  0.0296
 6170SOL     OW30142   4.124   4.632  10.709 -0.3410 -0.0412 -0.4393
 6170SOL    HW130143   4.105   4.625  10.802  1.6872  1.6578  0.0842
 6170SOL    HW230144   4.082   4.554  10.671 -0.0984  0.2379 -1.2854
 6171SOL     OW30145   2.348   4.361   5.844  0.1603 -0.1675  0.3445
 6171SOL    HW130146   2.442   4.366   5.829  0.1806  0.8453  0.8121
 6171SOL    HW230147   2.316   4.297   5.780 -0.0556  0.6150 -0.3348
 6172SOL     OW30148   1.310   0.095   7.965  0.2892  0.4178 -0.6577
 6172SOL    HW130149   1.375   0.053   8.021 -1.7600 -0.8102  0.7935
 6172SOL    HW230150   1.234   0.099   8.024  0.2846 -0.0672 -0.6373
 6173SOL     OW30151   3.507   1.585   6.949 -0.7645  0.2388  0.0469
 6173SOL    HW130152   3.471   1.524   7.013  2.0109 -1.5675 -0.1014
 6173SOL    HW230153   3.601   1.571   6.963 -0.7839  0.8388  0.7092
 6174SOL     OW30154   1.101   3.099  13.383  0.0875  0.6626 -0.4341
 6174SOL    HW130155   1.022   3.047  13.398  0.1286  0.5461 -0.6240
 6174SOL    HW230156   1.134   3.119  13.470  1.5848 -1.8156 -0.4361
 6175SOL     OW30157   3.270   4.734   4.224 -0.3737  0.0802 -0.0806
 6175SOL    HW130158   3.247   0.089   4.213  3.5416  0.9124 -1.2994
 6175SOL    HW230159   3.249   4.724   4.317  1.2400 -0.3842  0.2396
 6176SOL     OW30160   4.069   3.788   3.372  0.4026  0.3287  0.5076
 6176SOL    HW130161   4.005   3.765   3.441  2.6790 -1.2045  2.1116
 6176SOL    HW230162   4.150   3.783   3.422  1.5863 -1.5642 -1.6194
 6177SOL     OW30163   3.858   3.539   1.466  0.2008 -0.5759  0.1218
 6177SOL    HW130164   3.910   3.513   1.542  2.6201  0.4049 -1.1915
 6177SOL    HW230165   3.780   3.572   1.510  1.2524  2.2786 -0.1868
 6178SOL     OW30166   0.449   1.265   5.341 -0.2233 -0.5289  0.2449
 6178SOL    HW130167   0.460   1.208   5.417 -0.9203  0.3344  0.9995
 6178SOL    HW230168   0.512   1.234   5.277 -0.8674  0.2152 -0.7455
 6179SOL     OW30169   1.932   1.469   8.945  0.0495  0.1945 -0.2945
 6179SOL    HW130170   1.977   1.430   9.020 -0.6253 -1.1346 -0.5840
 6179SOL    HW230171   1.981   1.551   8.934 -0.0002  0.2999  0.2690
 6180SOL     OW30172   1.541   2.563   8.829  0.4774 -0.5447 -0.0222
 6180SOL    HW130173   1.475   2.537   8.893  1.4566  0.7122  1.5239
 6180SOL    HW230174   1.528   2.658   8.836  2.7923 -0.1177 -1.2132
 6181SOL     OW30175   2.277   1.969  16.677  0.0155 -0.0407  0.3322
 6181SOL    HW130176   2.224   1.960  16.756 -0.1629  1.0592  0.3387
 6181SOL    HW230177   2.360   1.933  16.706  0.6694  0.0829 -1.3977
 6182SOL     OW30178   2.748   3.722  11.782 -0.6570 -0.0630  0.0353
 6182SOL    HW130179   2.728   3.690  11.870 -1.8035  1.0086  0.1620
 6182SOL    HW230180   2.699   3.804  11.785  0.5137  0.8093 -4.9454
 6183SOL     OW30181   3.314   1.477  14.888 -0.2721 -0.9135 -0.1011
 6183SOL    HW130182   3.296   1.478  14.795 -2.8442  2.8624  0.4415
 6183SOL    HW230183   3.404   1.445  14.879 -0.7024 -2.5855  1.5448
 6184SOL     OW30184   3.945   0.069   6.259  0.3596 -0.7742  0.0761
 6184SOL    HW130185   3.866   0.020   6.279  0.6826 -1.4240 -0.2504
 6184SOL    HW230186   3.919   0.150   6.304 -0.5503 -0.5666 -0.8222
 6185SOL     OW30187   3.966   4.091   3.429  0.3990 -0.4862  0.1294
 6185SOL    HW130188   4.015   4.009   3.418 -0.1530 -0.9916  1.4050
 6185SOL    HW230189   3.954   4.115   3.337  1.3821  0.1855  0.1731
 6186SOL     OW30190   3.120   0.227   8.543  0.1170  0.7671 -0.4038
 6186SOL    HW130191   3.085   0.217   8.454  0.5390 -1.4302 -0.3223
 6186SOL    HW230192   3.047   0.273   8.583 -0.1401  0.8262 -0.9451
 6187SOL     OW30193   2.109   1.925  16.899 -0.6264  0.2913  0.1302
 6187SOL    HW130194   2.119   1.868  16.975 -1.7225 -1.1624 -0.8078
 6187SOL    HW230195   2.018   1.906  16.875 -0.5131  0.0996 -0.1598
 6188SOL     OW30196   4.340   4.348  16.357 -0.0419  0.4918 -0.0495
 6188SOL    HW130197   4.357   4.380  16.268 -2.0134  0.2550 -0.5095
 6188SOL    HW230198   4.260   4.296  16.347  1.7749 -2.4701  1.1385
 6189SOL     OW30199   0.179   0.098  16.854 -0.3158  0.0016  0.2124
 6189SOL    HW130200   0.148   0.068  16.768 -2.8044 -1.1341  1.4971
 6189SOL    HW230201   0.145   0.187  16.863 -1.2791 -0.3659  0.2011
 6190SOL     OW30202   1.302   3.445   9.452  0.2338 -0.3346  0.2192
 6190SOL    HW130203   1.325   3.529   9.491 -0.7638 -0.6510  1.4785
 6190SOL    HW230204   1.380   3.426   9.399  1.8134  0.9324  2.1369
 6191SOL     OW30205   1.934   3.060   1.381 -0.0958 -0.1716 -0.2607
 6191SOL    HW130206   1.904   2.972   1.404 -2.2979  0.6366 -0.0163
 6191SOL    HW230207   1.963   3.048   1.290 -0.9344 -1.9002 -0.3015
 6192SOL     OW30208   0.984   2.569   8.797  0.1388  0.2882 -0.4999
 6192SOL    HW130209   1.030   2.646   8.763 -1.2079  0.9875 -0.7268
 6192SOL    HW230210   1.056   2.505   8.796  0.9708  1.2235 -0.6884
 6193SOL     OW30211   1.544   0.399   1.805  0.3391  0.0929  0.2829
 6193SOL    HW130212   1.622   0.363   1.848 -0.8304 -0.6168  1.8112
 6193SOL    HW230213   1.542   0.492   1.827  0.3761  0.3211 -0.6630
 6194SOL     OW30214   0.531   4.332   7.356 -0.5534 -0.0007 -0.4614
 6194SOL    HW130215   0.442   4.300   7.376 -0.0352 -0.8296  0.5488
 6194SOL    HW230216   0.533   4.408   7.413  1.1051  0.5064 -1.2212
 6195SOL     OW30217   0.712   3.522  15.622 -0.4054  0.2492  0.6390
 6195SOL    HW130218   0.807   3.526  15.604 -1.0484 -1.5886 -3.3126
 6195SOL    HW230219   0.702   3.451  15.685  1.5926  1.4386  2.2955
 6196SOL     OW30220   1.546   0.048   8.591  0.7237 -0.3437  0.1162
 6196SOL    HW130221   1.519   0.136   8.566  0.7454  0.0559  1.4789
 6196SOL    HW230222   1.622   0.028   8.537  0.2436 -1.5563 -0.1076
 6197SOL     OW30223   0.703   2.830   6.739  0.2129 -0.1659  0.0337
 6197SOL    HW130224   0.717   2.848   6.646 -0.7925  0.7862  0.0751
 6197SOL    HW230225   0.670   2.740   6.744 -0.2157  0.0374  0.8009
 6198SOL     OW30226   0.907   0.341   4.416 -0.1310 -0.2819  0.6873
 6198SOL    HW130227   0.994   0.354   4.454  1.1838 -3.2295 -1.3647
 6198SOL    HW230228   0.892   0.424   4.370 -0.8439  1.0164  3.2652
 6199SOL     OW30229   2.451   1.648   7.905 -0.2920  0.4208 -0.1508
 6199SOL    HW130230   2.449   1.553   7.897  2.3398  0.3854 -0.5138
 6199SOL    HW230231   2.414   1.668   7.991 -0.7170  0.1200 -0.2665
 6200SOL     OW30232   4.543   2.620   4.403  0.1803  0.2478 -0.0982
 6200SOL    HW130233   4.554   2.627   4.498 -0.1094 -2.7417  0.1363
 6200SOL    HW230234   4.583   2.540   4.370  1.9887  1.1685 -0.1596
 6201SOL     OW30235   1.312   2.772   3.729 -0.0670 -0.5055 -0.2381
 6201SOL    HW130236   1.316   2.743   3.820 -1.8021 -1.2119 -0.3875
 6201SOL    HW230237   1.402   2.754   3.703  0.1826 -1.8282  1.5391
 6202SOL     OW30238   2.386   2.257   9.434  0.0087 -0.1821 -0.5093
 6202SOL    HW130239   2.352   2.171   9.458  1.5526 -0.7511 -0.3275
 6202SOL    HW230240   2.307   2.310   9.438  1.5352  2.0876 -0.5476
 6203SOL     OW30241   2.209   3.585   8.646  0.0948 -0.5261  0.1907
 6203SOL    HW130242   2.135   3.533   8.677 -2.6126  2.0602 -2.0439
 6203SOL    HW230243   2.161   3.665   8.627  1.9724  0.3228 -0.9802
 6204SOL     OW30244   0.283   0.381   8.471 -0.3489  0.2007 -0.2002
 6204SOL    HW130245   0.243   0.392   8.557  0.1220 -0.6304  0.1332
 6204SOL    HW230246   0.249   0.297   8.441 -1.0465  0.0953  0.8956
 6205SOL     OW30247   1.627   0.953   3.933 -0.2784  0.7600 -0.5012
 6205SOL    HW130248   1.654   0.970   3.843  1.0086 -1.5073 -0.5521
 6205SOL    HW230249   1.644   0.858   3.938  2.0435  1.1795 -0.4162
 6206SOL     OW30250   0.822   3.171   2.519  0.0399 -0.2782  0.6152
 6206SOL    HW130251   0.885   3.171   2.591  1.1791 -4.8941 -0.4148
 6206SOL    HW230252   0.738   3.148   2.559 -0.7658 -0.1520 -0.9893
 6207SOL     OW30253   1.322   1.859   6.685 -0.2958  0.1629 -0.2943
 6207SOL    HW130254   1.266   1.919   6.733  0.8969  2.2063 -1.4348
 6207SOL    HW230255   1.382   1.825   6.751  1.0301  2.9469 -0.0439
 6208SOL     OW30256   0.555   0.350   8.425  0.6992  0.3058 -0.2216
 6208SOL    HW130257   0.575   0.409   8.353 -0.7048  0.2076 -0.7020
 6208SOL    HW230258   0.464   0.373   8.445 -0.3312 -2.0462 -2.2322
 6209SOL     OW30259   2.580   1.060   9.212  0.5909  0.2703  0.3560
 6209SOL    HW130260   2.559   0.968   9.226 -1.9869  0.7657 -0.1575
 6209SOL    HW230261   2.675   1.056   9.205  0.4212 -0.6942 -1.4957
 6210SOL     OW30262   3.570   0.867   3.074  0.2214 -0.2292 -0.0092
 6210SOL    HW130263   3.560   0.772   3.079  0.4133 -0.2719 -0.4792
 6210SOL    HW230264   3.655   0.879   3.118 -0.1680 -1.7236  1.1481
 6211SOL     OW30265   3.497   3.121  16.991  0.2117  0.9406  0.0936
 6211SOL    HW130266   3.563   3.084  16.933 -0.7431 -1.4235  0.5073
 6211SOL    HW230267   3.542   3.202  17.016  0.4223  0.6740  0.5810
 6212SOL     OW30268   2.983   2.402   4.885  0.2778 -0.0824 -0.4493
 6212SOL    HW130269   2.977   2.493   4.912  1.5467  0.5053 -2.1000
 6212SOL    HW230270   2.952   2.423   4.797  0.7824 -2.1611 -1.1456
 6213SOL     OW30271   2.151   1.724   1.131 -0.1192  0.2292  0.4045
 6213SOL    HW130272   2.155   1.721   1.036  0.2178  2.9471  0.3478
 6213SOL    HW230273   2.241   1.740   1.160  0.1413 -1.6561  0.6481
 6214SOL     OW30274   0.384   3.111   2.998  0.6533 -0.6928  0.2025
 6214SOL    HW130275   0.364   3.018   2.984  0.9695 -0.7286 -0.0053
 6214SOL    HW230276   0.463   3.126   2.945 -0.9388  1.1546 -1.6450
 6215SOL     OW30277   2.757   0.377   1.257  0.1267  0.7334 -0.1190
 6215SOL    HW130278   2.803   0.455   1.286  2.9653 -1.1765  0.5575
 6215SOL    HW230279   2.797   0.364   1.171  1.7444  2.9454  0.3116
 6216SOL     OW30280   4.553   2.238   5.538  0.0129 -0.3702 -0.8092
 6216SOL    HW130281   4.485   2.251   5.471  0.2139  0.0411 -0.9297
 6216SOL    HW230282   4.552   2.320   5.587  1.9288 -2.0747  2.0674
 6217SOL     OW30283   3.032   4.651   7.856  0.1300 -0.0647 -0.3816
 6217SOL    HW130284   2.975   4.650   7.778 -0.7233  0.0400  0.2372
 6217SOL    HW230285   3.115   4.691   7.829 -0.3625  1.1057 -0.1706
 6218SOL     OW30286   0.314   0.809  12.569 -0.4641 -0.0740 -0.2212
 6218SOL    HW130287   0.386   0.837  12.513 -0.7072 -1.9628 -1.4835
 6218SOL    HW230288   0.247   0.870  12.536 -0.2061  0.9861  1.2219
 6219SOL     OW30289   2.874   4.070   5.084 -0.3805 -0.1976  0.2750
 6219SOL    HW130290   2.946   4.018   5.119 -0.7939 -1.6487 -1.0579
 6219SOL    HW230291   2.884   4.065   4.989 -0.7934 -0.2815  0.2370
 6220SOL     OW30292   1.415   3.738   2.541  0.1173  0.0904  0.0362
 6220SOL    HW130293   1.499   3.782   2.554 -1.8216  3.2494  1.8090
 6220SOL    HW230294   1.447   3.648   2.531 -0.4696 -0.1253  0.1075
 6221SOL     OW30295   0.737   1.203   5.404 -0.0853  0.3506 -0.0481
 6221SOL    HW130296   0.728   1.275   5.466  0.4693  0.0985  0.3251
 6221SOL    HW230297   0.690   1.141   5.460 -2.2992  0.6433 -1.6165
 6222SOL     OW30298   3.868   1.278   1.858 -0.5951 -0.0162  0.0895
 6222SOL    HW130299   3.842   1.208   1.798 -0.2887  0.3627 -0.4850
 6222SOL    HW230300   3.833   1.238   1.937 -1.1639  2.2454  1.0001
 6223SOL     OW30301   0.392   1.429   8.600 -0.0565 -0.1285  0.2656
 6223SOL    HW130302   0.347   1.395   8.677  0.7765  1.0710  1.2733
 6223SOL    HW230303   0.424   1.348   8.562  2.9973  0.3140  1.9147
 6224SOL     OW30304   3.293   1.646   6.415  0.1412  0.3601  0.5166
 6224SOL    HW130305   3.217   1.592   6.439 -0.6431  1.4580  0.4868
 6224SOL    HW230306   3.354   1.572   6.411 -0.2100  0.0677  0.5034
 6225SOL     OW30307   0.689   2.540   5.184 -0.2757  0.3396 -0.2797
 6225SOL    HW130308   0.698   2.446   5.199 -2.8061  0.3475  1.1065
 6225SOL    HW230309   0.778   2.567   5.208 -0.1235 -1.9548  1.7084
 6226SOL     OW30310   3.540   1.744  15.323  0.0680  0.5605 -0.0693
 6226SOL    HW130311   3.597   1.786  15.258  0.5229 -0.1748 -0.1379
 6226SOL    HW230312   3.476   1.705  15.263  1.9518 -1.3321 -0.8391
 6227SOL     OW30313   0.697   2.669   3.052 -0.0114  0.1822  0.2633
 6227SOL    HW130314   0.720   2.576   3.050 -0.6338  0.0172  0.7840
 6227SOL    HW230315   0.675   2.673   3.145 -0.4495 -1.3407  0.2146
 6228SOL     OW30316   1.172   0.054   3.838  0.1059  0.4064 -0.5141
 6228SOL    HW130317   1.226   0.132   3.849  0.6048 -0.3286  2.0792
 6228SOL    HW230318   1.116   0.062   3.915 -0.6441 -1.5638 -0.8598
 6229SOL     OW30319   2.167   2.121   2.354  0.3411  0.4284  0.4198
 6229SOL    HW130320   2.213   2.116   2.271  1.0729  0.7457  0.8049
 6229SOL    HW230321   2.099   2.176   2.314  0.1522  0.3424  0.6178
 6230SOL     OW30322   2.692   1.793   5.652  0.2401 -0.7171 -0.2043
 6230SOL    HW130323   2.646   1.859   5.704  4.0256  2.7841 -1.3134
 6230SOL    HW230324   2.778   1.835   5.655 -0.2728  0.3265 -0.3242
 6231SOL     OW30325   0.859   1.426  10.122 -0.1968 -0.1396  0.0702
 6231SOL    HW130326   0.811   1.498  10.164  0.3698  0.4750 -0.3404
 6231SOL    HW230327   0.897   1.387  10.201 -1.5752 -0.6729  0.4634
 6232SOL     OW30328   3.280   0.438   9.162  0.2315  0.0446  0.2003
 6232SOL    HW130329   3.344   0.476   9.222 -1.0195  0.2534  1.4013
 6232SOL    HW230330   3.275   0.360   9.217  0.5667 -0.7001 -0.8455
 6233SOL     OW30331   0.671   0.778   5.500  0.3339 -0.0401 -0.4113
 6233SOL    HW130332   0.621   0.745   5.425 -1.6663 -0.3425  1.0515
 6233SOL    HW230333   0.758   0.744   5.477  0.6034  1.4883 -1.6691
 6234SOL     OW30334   3.507   3.973   4.362 -0.2724 -0.4545 -0.1464
 6234SOL    HW130335   3.501   3.881   4.334 -0.0611 -0.2875 -0.7369
 6234SOL    HW230336   3.590   3.961   4.408  0.2758 -1.9571 -1.5073
 6235SOL     OW30337   2.799   0.679   7.300  0.1279  0.9798 -0.3246
 6235SOL    HW130338   2.705   0.671   7.319 -0.3214  0.4466 -2.7261
 6235SOL    HW230339   2.812   0.707   7.209 -1.2694  0.0173 -0.8377
 6236SOL     OW30340   3.171   0.420  12.426  0.5905 -0.2674 -0.0234
 6236SOL    HW130341   3.252   0.447  12.384  0.3811  2.5197  1.3726
 6236SOL    HW230342   3.099   0.462  12.379 -0.1562 -0.8173  0.6251
 6237SOL     OW30343   1.201   2.071   3.319  0.2191 -0.3682  0.2538
 6237SOL    HW130344   1.185   2.136   3.250 -0.9889  0.8820  1.6885
 6237SOL    HW230345   1.296   2.084   3.324  0.3914 -2.4893  2.1849
 6238SOL     OW30346   2.727   3.989   2.443  0.1943 -0.1810 -0.3370
 6238SOL    HW130347   2.752   3.953   2.358  0.3253  1.2602 -0.9039
 6238SOL    HW230348   2.638   3.953   2.443 -0.9128  2.4950  1.3944
 6239SOL     OW30349   1.437   2.053  13.898 -0.3477 -0.0687  0.2761
 6239SOL    HW130350   1.394   1.993  13.837  0.8812 -0.5401 -0.1390
 6239SOL    HW230351   1.365   2.112  13.918 -1.1697 -0.8363 -0.4320
 6240SOL     OW30352   4.424   1.170   7.847  0.2726 -0.6614 -0.4148
 6240SOL    HW130353   4.460   1.120   7.921 -0.2284 -0.1134  0.1948
 6240SOL    HW230354   4.396   1.250   7.891  1.2900 -0.8463  0.5828
 6241SOL     OW30355   0.955   4.636   9.436 -0.0255 -0.1347  0.1387
 6241SOL    HW130356   0.921   4.574   9.501 -0.9087 -1.2297 -1.3670
 6241SOL    HW230357   0.991   4.707   9.489 -0.2649  4.0865 -5.3583
 6242SOL     OW30358   2.326   0.242   2.846 -0.2606  0.2574  0.3544
 6242SOL    HW130359   2.273   0.253   2.925 -1.9299  0.4005 -0.7743
 6242SOL    HW230360   2.402   0.298   2.862 -2.0061  2.5092  0.7582
 6243SOL     OW30361   3.957   0.890   3.692  0.5249  0.3536  0.1740
 6243SOL    HW130362   3.965   0.985   3.686  2.5666  0.1713 -0.0766
 6243SOL    HW230363   3.942   0.877   3.786 -0.6822  2.7318  0.3075
 6244SOL     OW30364   0.909   2.056   4.057 -0.1441 -0.2949 -0.0761
 6244SOL    HW130365   0.874   2.100   4.135 -0.6457  0.6349 -0.8255
 6244SOL    HW230366   0.947   2.121   3.998 -2.2661  2.5320  1.6464
 6245SOL     OW30367   4.386   0.958   4.856 -0.1485  0.1956  0.3271
 6245SOL    HW130368   4.434   0.922   4.781 -0.0581  0.2454  0.3608
 6245SOL    HW230369   4.408   1.051   4.848 -0.0671  0.3108  1.9504
 6246SOL     OW30370   2.151   2.211  14.708  0.2902 -0.9943 -0.3541
 6246SOL    HW130371   2.092   2.159  14.763 -0.1737 -0.2517 -0.1524
 6246SOL    HW230372   2.152   2.296  14.751  0.5723 -0.8761 -0.5953
 6247SOL     OW30373   4.066   0.246   9.902 -1.3595  0.0863 -0.2833
 6247SOL    HW130374   4.126   0.322   9.902 -0.7065 -0.4365  3.3628
 6247SOL    HW230375   3.991   0.264   9.958 -0.7369  0.9282  0.2930
 6248SOL     OW30376   2.204   1.599   4.328  0.4504 -0.2015  0.6961
 6248SOL    HW130377   2.228   1.570   4.417 -1.0961 -0.0546  1.1634
 6248SOL    HW230378   2.109   1.592   4.319  0.4741 -0.5854  0.7095
 6249SOL     OW30379   2.403   0.457   7.483 -0.3007  0.1122  0.1614
 6249SOL    HW130380   2.353   0.531   7.450 -1.5698  0.0835  2.0116
 6249SOL    HW230381   2.455   0.432   7.407  0.4196  0.8669  0.4057
 6250SOL     OW30382   3.556   3.306   3.682  0.2204  0.1638  0.0059
 6250SOL    HW130383   3.584   3.396   3.669 -0.5332  0.5923  1.3267
 6250SOL    HW230384   3.547   3.285   3.589  0.0566 -1.6309  0.4225
 6251SOL     OW30385   1.867   2.803   5.413  0.2064 -0.5488 -0.4601
 6251SOL    HW130386   1.928   2.736   5.380  0.3028 -1.5107  1.7347
 6251SOL    HW230387   1.932   2.862   5.450 -1.3049  0.9558 -0.2323
 6252SOL     OW30388   2.383   4.034   3.884 -0.6274 -0.4841 -1.2668
 6252SOL    HW130389   2.447   4.100   3.858 -3.3852  2.7384  0.1463
 6252SOL    HW230390   2.423   3.949   3.865  1.6755  0.2757  0.1386
 6253SOL     OW30391   4.227   0.381   8.252 -0.3527 -0.1417  0.2899
 6253SOL    HW130392   4.248   0.434   8.329  0.7815  1.8412 -1.4061
 6253SOL    HW230393   4.194   0.444   8.187 -0.3205  1.6987  2.0468
 6254SOL     OW30394   1.904   1.613   4.411  0.1233  0.1319 -0.1954
 6254SOL    HW130395   1.819   1.643   4.443  0.1655  0.7836 -0.6815
 6254SOL    HW230396   1.882   1.553   4.340 -0.2718 -0.8012  0.7184
 6255SOL     OW30397   2.114   0.893   6.686 -0.3200  0.8156  0.3040
 6255SOL    HW130398   2.032   0.917   6.643  0.2753  1.6404 -0.3757
 6255SOL    HW230399   2.152   0.861   6.604 -1.3522  1.3448 -0.3841
 6256SOL     OW30400   0.126   3.620  16.195  0.2662 -0.5335  0.2247
 6256SOL    HW130401   0.078   3.638  16.276  0.6839 -1.5932  0.7015
 6256SOL    HW230402   0.071   3.657  16.125 -0.6574  0.3407  1.4003
 6257SOL     OW30403   1.758   0.372   0.686  1.1300  0.5190  0.2861
 6257SOL    HW130404   1.678   0.424   0.678  1.2380  0.5996 -0.2828
 6257SOL    HW230405   1.814   0.430   0.635 -2.9744  2.5822 -1.9316
 6258SOL     OW30406   0.333   3.711   1.022 -0.1262  0.5450  0.1223
 6258SOL    HW130407   0.379   3.636   1.060  0.1435  1.6252  1.9393
 6258SOL    HW230408   0.387   3.735   0.947  1.1431  0.5732  1.0254
 6259SOL     OW30409   1.499   2.820   8.837  0.6965 -0.2768  0.6999
 6259SOL    HW130410   1.586   2.852   8.814  0.0770  2.1159  1.7009
 6259SOL    HW230411   1.439   2.881   8.793 -2.4506 -0.8081  4.2358
 6260SOL     OW30412   3.098   3.880  10.532 -0.4050  0.0351  0.7734
 6260SOL    HW130413   3.050   3.808  10.572  1.2056 -0.0556  2.5523
 6260SOL    HW230414   3.181   3.877  10.580 -1.4264 -1.6336  2.4359
 6261SOL     OW30415   1.127   0.614   8.825 -0.0338 -0.2865  0.1894
 6261SOL    HW130416   1.100   0.540   8.771 -0.7989 -1.6972  2.4708
 6261SOL    HW230417   1.221   0.622   8.814 -0.4189  0.7842 -2.2539
 6262SOL     OW30418   3.591   0.532   8.793  0.1000  0.6844 -0.3228
 6262SOL    HW130419   3.502   0.518   8.761 -1.1218  1.6920  2.6312
 6262SOL    HW230420   3.645   0.466   8.749  0.6704  1.9385 -1.5121
 6263SOL     OW30421   0.127   0.309   4.198  0.3482 -0.4583 -0.0348
 6263SOL    HW130422   0.219   0.311   4.171  0.3197 -0.8110 -0.1469
 6263SOL    HW230423   0.100   0.232   4.150  2.3474  0.4830 -2.6419
 6264SOL     OW30424   2.426   4.489  17.616 -0.2999 -0.0077  0.3751
 6264SOL    HW130425   2.506   4.531  17.649  1.2242 -1.8044 -1.0409
 6264SOL    HW230426   2.392   4.449  17.696  0.0142  3.6652  2.3509
 6265SOL     OW30427   1.680   1.767   4.490 -0.3598  0.0938  0.4969
 6265SOL    HW130428   1.642   1.714   4.560 -0.1338  0.7134  1.0828
 6265SOL    HW230429   1.634   1.846   4.516 -0.8734  0.2247 -0.8348
 6266SOL     OW30430   0.190   3.543   5.646 -0.4956 -0.6917 -0.3217
 6266SOL    HW130431   0.161   3.453   5.632 -0.1583 -0.5874 -1.6745
 6266SOL    HW230432   0.154   3.559   5.733  0.5497 -0.5861  0.0842
 6267SOL     OW30433   0.905   0.985   4.102  0.1910  0.2146  0.5203
 6267SOL    HW130434   0.976   0.966   4.040 -0.1871  0.3746  0.0294
 6267SOL    HW230435   0.831   0.940   4.061  2.1853 -2.7022  0.0953
 6268SOL     OW30436   2.258   2.691  16.951 -0.0612  0.0571  0.0928
 6268SOL    HW130437   2.183   2.690  16.892  0.1322  3.3742 -0.1635
 6268SOL    HW230438   2.211   2.716  17.031 -0.1693  0.9943 -0.2680
 6269SOL     OW30439   0.977   0.444   9.005  0.5931 -0.4087 -0.8330
 6269SOL    HW130440   1.012   0.517   8.954 -1.2527 -0.6840 -2.4687
 6269SOL    HW230441   1.026   0.369   8.973  0.9761 -0.3336 -0.4383
 6270SOL     OW30442   2.581   3.090   7.162  0.5198 -0.2187  0.5046
 6270SOL    HW130443   2.596   3.054   7.250 -0.2244 -0.0931  0.6837
 6270SOL    HW230444   2.583   3.007   7.115 -2.1549 -0.6303  1.0737
 6271SOL     OW30445   3.140   2.258   5.973 -0.1275 -0.5174  0.6111
 6271SOL    HW130446   3.154   2.352   5.962  2.5820 -0.7742  1.7920
 6271SOL    HW230447   3.210   2.242   6.037  0.0588  1.2746  0.8583
 6272SOL     OW30448   3.530   3.993   7.313 -0.1563 -0.9242  0.1515
 6272SOL    HW130449   3.513   3.901   7.289  0.3451 -0.3743 -2.3346
 6272SOL    HW230450   3.524   3.986   7.408  1.0581  0.9459  0.3512
 6273SOL     OW30451   3.412   2.535   3.381 -0.2271  0.4674 -0.5180
 6273SOL    HW130452   3.403   2.492   3.465 -1.8718  0.8174 -0.5010
 6273SOL    HW230453   3.330   2.582   3.363  0.3648  0.8251 -2.2988
 6274SOL     OW30454   4.003   2.755   2.582 -0.0341  0.6851  0.0006
 6274SOL    HW130455   3.973   2.817   2.515 -2.2776 -0.8741 -0.4355
 6274SOL    HW230456   3.951   2.679   2.556 -0.2739  0.1420  2.0704
 6275SOL     OW30457   1.511   4.556   8.376  0.4489 -0.3970  0.8629
 6275SOL    HW130458   1.519   4.483   8.437  0.2525 -1.5645 -0.5212
 6275SOL    HW230459   1.601   4.587   8.368 -0.4283  1.8340 -0.5009
 6276SOL     OW30460   0.785   3.507  16.770  0.1442 -0.0620 -0.3371
 6276SOL    HW130461   0.874   3.514  16.737 -0.9694  1.7880 -2.9024
 6276SOL    HW230462   0.784   3.413  16.753  0.9985 -0.2956  0.8902
 6277SOL     OW30463   1.758   0.561  13.445 -0.4393  0.0725 -0.3939
 6277SOL    HW130464   1.677   0.552  13.495  0.7932 -2.0397  1.2061
 6277SOL    HW230465   1.745   0.491  13.381 -0.1212  0.2172 -0.6207
 6278SOL     OW30466   2.869   3.381   5.713  0.3299  0.1184 -0.1103
 6278SOL    HW130467   2.885   3.454   5.773 -2.1615  1.6973 -1.3753
 6278SOL    HW230468   2.861   3.310   5.777  0.4779 -0.8277 -1.1422
 6279SOL     OW30469   1.898   0.174   4.250  0.5456  0.6372 -0.0431
 6279SOL    HW130470   1.879   0.087   4.213  1.5529  0.1891  0.4865
 6279SOL    HW230471   1.888   0.229   4.173 -0.3649 -0.4588 -0.7045
 6280SOL     OW30472   3.006   0.067   6.770  0.4100 -0.4761 -0.3103
 6280SOL    HW130473   3.102   0.075   6.773  0.3238  0.2097  0.5032
 6280SOL    HW230474   2.992   0.055   6.863 -0.8220  1.7850 -0.2194
 6281SOL     OW30475   1.762   4.709  14.104 -0.2303 -0.2331  0.0438
 6281SOL    HW130476   1.702   4.635  14.095  0.0477 -0.4024 -0.3876
 6281SOL    HW230477   1.835   4.663  14.145  0.1736  0.0178 -0.4063
 6282SOL     OW30478   2.435   4.174   4.419 -0.1372 -0.2208 -0.0495
 6282SOL    HW130479   2.426   4.094   4.368  0.1404 -0.6627  0.5925
 6282SOL    HW230480   2.409   4.131   4.500  2.2169  1.0544  1.3883
 6283SOL     OW30481   3.969   3.824   8.961  0.4316 -0.2309  0.4773
 6283SOL    HW130482   3.909   3.890   8.997  0.1480 -0.9064  1.2426
 6283SOL    HW230483   4.044   3.816   9.020  0.3296 -0.8227  0.5269
 6284SOL     OW30484   0.254   0.712   5.599  0.2581  0.0970  0.1847
 6284SOL    HW130485   0.346   0.715   5.628  0.1516 -1.9076  0.7690
 6284SOL    HW230486   0.274   0.646   5.532  2.4322 -0.3986  1.2997
 6285SOL     OW30487   3.881   1.306  17.397  0.8768 -0.1766 -0.2269
 6285SOL    HW130488   3.954   1.250  17.422  0.4357 -1.9803 -3.0923
 6285SOL    HW230489   3.893   1.304  17.302  1.8312  1.8147 -0.1681
 6286SOL     OW30490   0.041   4.248   3.201 -0.1147 -0.1987  0.3232
 6286SOL    HW130491   0.100   4.198   3.144 -0.4168  0.1314 -0.2797
 6286SOL    HW230492   0.101   4.311   3.240  1.1591 -0.3686 -1.3289
 6287SOL     OW30493   4.531   3.595   2.694  0.0407 -0.5161  0.3791
 6287SOL    HW130494   4.586   3.535   2.743  3.8294  1.9069 -0.9055
 6287SOL    HW230495   4.565   3.680   2.721 -0.0783 -0.6861  1.0508
 6288SOL     OW30496   2.926   2.474   4.628 -0.2510 -0.2459 -0.7671
 6288SOL    HW130497   2.967   2.387   4.622 -1.2929 -0.6420 -2.1542
 6288SOL    HW230498   2.941   2.510   4.540  1.3552 -1.6198 -1.0707
 6289SOL     OW30499   0.587   1.489   4.483 -0.8160 -0.3995 -0.3993
 6289SOL    HW130500   0.575   1.582   4.501  0.9665 -0.0184 -1.2255
 6289SOL    HW230501   0.681   1.492   4.468 -0.5440 -2.3414  0.9056
 6290SOL     OW30502   2.612   1.063   1.914 -0.3081 -0.2934  0.2398
 6290SOL    HW130503   2.670   1.035   1.843 -2.2792  0.3985 -1.6160
 6290SOL    HW230504   2.631   1.000   1.983  0.8043 -0.7830 -0.5034
 6291SOL     OW30505   2.026   0.334   3.047 -0.5661  0.1809 -0.7019
 6291SOL    HW130506   1.931   0.334   3.060 -0.7121  3.4281 -1.7536
 6291SOL    HW230507   2.050   0.308   3.136 -1.1729 -0.4566 -0.7206
 6292SOL     OW30508   4.415   2.095   6.059  0.1983  0.3406  0.0297
 6292SOL    HW130509   4.370   2.169   6.017  2.4691  1.0897 -1.1074
 6292SOL    HW230510   4.387   2.031   5.993  0.0894 -0.3321  0.7362
 6293SOL     OW30511   3.091   2.665   3.457  0.9222  0.0904 -0.0781
 6293SOL    HW130512   3.024   2.730   3.481 -0.4813 -1.7761  1.0612
 6293SOL    HW230513   3.146   2.669   3.535 -0.3900 -0.9410  0.8912
 6294SOL     OW30514   3.132   2.435   1.739 -0.0531 -0.2692 -0.3350
 6294SOL    HW130515   3.128   2.501   1.669 -0.1316  0.2227  0.1340
 6294SOL    HW230516   3.059   2.377   1.716 -0.1935 -1.1459  2.4155
 6295SOL     OW30517   1.504   2.553   9.689 -0.3113  0.1059  0.5390
 6295SOL    HW130518   1.570   2.491   9.720  0.3232  0.3903 -0.2209
 6295SOL    HW230519   1.501   2.507   9.605  0.5367  1.9931 -0.5403
 6296SOL     OW30520   1.138   2.405  16.424  0.1312 -0.2780 -0.4293
 6296SOL    HW130521   1.079   2.396  16.349  0.2970 -1.7732 -0.3739
 6296SOL    HW230522   1.155   2.317  16.458  0.3998  0.3193  0.9613
 6297SOL     OW30523   3.773   3.323   5.956  0.2085  0.6244 -0.1361
 6297SOL    HW130524   3.763   3.301   5.864  2.4062  0.5714 -0.3580
 6297SOL    HW230525   3.813   3.408   5.938  1.5359  0.1597  0.5999
 6298SOL     OW30526   1.351   1.614  11.875  0.2572 -0.0380 -0.0006
 6298SOL    HW130527   1.310   1.665  11.805  0.8269  1.0606  0.4717
 6298SOL    HW230528   1.445   1.617  11.855  0.3546 -2.5046  0.0499
 6299SOL     OW30529   1.757   3.711   5.144 -0.5739 -0.0292  0.7854
 6299SOL    HW130530   1.791   3.731   5.057  0.7756  3.7945  2.1678
 6299SOL    HW230531   1.823   3.760   5.194  2.1626 -3.1084  0.1899
 6300SOL     OW30532   0.719   4.638   2.326 -0.1506 -0.0676 -0.3515
 6300SOL    HW130533   0.687   4.673   2.409  1.5888  2.2877 -0.6639
 6300SOL    HW230534   0.767   4.563   2.363 -0.6044 -0.0717  0.2101
 6301SOL     OW30535   0.092   3.352   3.106 -0.3415 -0.3430 -0.0852
 6301SOL    HW130536   0.166   3.363   3.046  0.8027 -0.2578  1.3559
 6301SOL    HW230537   0.137   3.290   3.163 -0.8336 -1.0718 -0.4909
 6302SOL     OW30538   3.976   2.470   1.895 -0.1168  0.2327  0.0190
 6302SOL    HW130539   3.990   2.564   1.891 -1.2327  0.5342  2.9392
 6302SOL    HW230540   3.892   2.458   1.851  0.1782 -1.7619 -0.0069
 6303SOL     OW30541   3.854   0.229  11.462 -0.7260 -0.2902  0.1148
 6303SOL    HW130542   3.894   0.234  11.549  0.1323 -2.9928 -0.1208
 6303SOL    HW230543   3.761   0.227  11.483 -0.7588 -1.4610 -0.1588
 6304SOL     OW30544   4.417   3.208   1.458 -0.6047  0.3920 -0.4105
 6304SOL    HW130545   4.462   3.164   1.530 -0.1860  1.6822  0.1220
 6304SOL    HW230546   4.474   3.283   1.439  0.5530  0.0666  1.7669
 6305SOL     OW30547   4.685   3.776   3.999  0.2105  0.0589  0.2330
 6305SOL    HW130548   0.026   3.743   3.955 -0.1063 -0.1513 -0.1727
 6305SOL    HW230549   4.698   3.865   3.967 -0.6114 -0.2272 -0.9222
 6306SOL     OW30550   1.728   0.429  15.623  0.1733  0.1893  0.0902
 6306SOL    HW130551   1.692   0.341  15.614 -0.9075  0.9096 -2.6153
 6306SOL    HW230552   1.669   0.485  15.573 -1.1763 -3.2161 -2.0528
 6307SOL     OW30553   2.257   3.313   3.965 -0.1078  0.3349 -0.9984
 6307SOL    HW130554   2.236   3.230   3.924  0.6902 -0.4352  0.1346
 6307SOL    HW230555   2.186   3.324   4.029 -0.9154 -0.1767 -1.8228
 6308SOL     OW30556   1.793   0.739   7.364 -0.3380  0.0719  0.0913
 6308SOL    HW130557   1.765   0.829   7.379  0.9466  0.5192 -0.2533
 6308SOL    HW230558   1.851   0.734   7.439 -0.7686 -2.5507  0.2347
 6309SOL     OW30559   2.680   2.136  13.181  0.3660  0.1736  0.0959
 6309SOL    HW130560   2.594   2.155  13.219 -0.0479 -3.1541  0.7856
 6309SOL    HW230561   2.747   2.173  13.238 -1.1198  0.6108  1.5569
 6310SOL     OW30562   0.995   2.782  15.618  0.0226  0.1993  0.2094
 6310SOL    HW130563   1.061   2.730  15.571  0.5461  2.4714 -1.5653
 6310SOL    HW230564   0.929   2.792  15.550  2.3643 -0.4496 -2.1701
 6311SOL     OW30565   1.980   2.695   2.076 -0.0408  0.1031  0.1046
 6311SOL    HW130566   1.908   2.723   2.133  0.9242  2.5980  0.1264
 6311SOL    HW230567   1.973   2.601   2.065  0.0626  0.1883 -0.6962
 6312SOL     OW30568   0.820   2.240   7.149  0.1780 -0.1775 -0.0848
 6312SOL    HW130569   0.876   2.260   7.075 -0.9800  1.3000 -0.5649
 6312SOL    HW230570   0.814   2.324   7.195  0.4420  0.8854 -2.0127
 6313SOL     OW30571   1.170   4.685   2.257 -0.6604 -0.1573  0.8420
 6313SOL    HW130572   1.209   4.607   2.299  1.2895 -1.0483 -2.6097
 6313SOL    HW230573   1.199   0.020   2.314 -1.5589  0.1433  0.9083
 6314SOL     OW30574   4.389   0.343  11.971  0.1154  0.4570 -0.0211
 6314SOL    HW130575   4.454   0.380  11.910  0.9114 -0.5257  0.2167
 6314SOL    HW230576   4.434   0.380  12.047 -0.4295 -0.2575  0.6373
 6315SOL     OW30577   2.922   3.050   9.460 -0.2419 -0.4662  0.3534
 6315SOL    HW130578   2.940   2.963   9.495 -3.7587 -1.3646 -0.0843
 6315SOL    HW230579   2.909   3.027   9.368  0.3475  1.9289 -0.3315
 6316SOL     OW30580   4.422   2.805   2.704  0.0072 -0.3046  0.0614
 6316SOL    HW130581   4.342   2.814   2.755  0.2734  0.3779  0.3555
 6316SOL    HW230582   4.396   2.747   2.633 -0.3979  0.0884 -0.1091
 6317SOL     OW30583   2.324   3.833   3.632  0.0747 -0.2185 -0.3796
 6317SOL    HW130584   2.280   3.815   3.715  3.0907 -0.0741  1.2301
 6317SOL    HW230585   2.414   3.803   3.641 -0.1820 -0.3444  1.7864
 6318SOL     OW30586   3.573   1.376   2.467  0.3588  0.1920 -0.1046
 6318SOL    HW130587   3.633   1.342   2.533  0.6378  2.0048  0.5772
 6318SOL    HW230588   3.587   1.314   2.396 -3.2548  0.9171 -1.4505
 6319SOL     OW30589   0.365   3.438   7.535  0.5388  0.2490 -0.4486
 6319SOL    HW130590   0.289   3.386   7.509 -0.6203  1.7913 -0.1089
 6319SOL    HW230591   0.329   3.516   7.576  1.3860  1.2093 -1.5332
 6320SOL     OW30592   3.166   3.237   2.283  1.0371  0.5168 -0.0047
 6320SOL    HW130593   3.144   3.330   2.272  2.7231  0.9263  0.0757
 6320SOL    HW230594   3.112   3.193   2.217  1.0079 -0.9331  1.0081
 6321SOL     OW30595   1.876   4.718   3.178  0.1379  0.4886 -0.1826
 6321SOL    HW130596   1.969   0.000   3.181 -0.3574  2.9523 -0.6542
 6321SOL    HW230597   1.876   4.648   3.113  3.2905 -2.7136  3.2628
 6322SOL     OW30598   2.406   4.145  16.781  0.0194 -0.0762 -0.0161
 6322SOL    HW130599   2.485   4.194  16.757  0.4885 -1.0179 -0.3822
 6322SOL    HW230600   2.340   4.203  16.741 -1.2208 -1.6384 -0.2014
 6323SOL     OW30601   3.367   3.429   0.904 -0.3615 -0.8138  0.4340
 6323SOL    HW130602   3.411   3.463   0.826  0.3495 -1.1464  0.6825
 6323SOL    HW230603   3.384   3.504   0.962 -3.4261  0.7549 -0.7165
 6324SOL     OW30604   1.183   3.620   1.191 -0.0262  0.0939 -0.0391
 6324SOL    HW130605   1.222   3.605   1.105  1.4595  0.6003  0.5546
 6324SOL    HW230606   1.101   3.573   1.177  0.3423 -0.4527 -0.3603
 6325SOL     OW30607   4.200   2.538   3.547 -0.3884  0.1520  0.4257
 6325SOL    HW130608   4.261   2.575   3.483 -0.6149 -1.7583 -0.9120
 6325SOL    HW230609   4.124   2.592   3.528 -0.9911 -1.2895 -1.2473
 6326SOL     OW30610   2.840   2.689   4.257 -0.1568  0.5687  0.3263
 6326SOL    HW130611   2.845   2.783   4.238 -0.0022  0.7287  1.1673
 6326SOL    HW230612   2.806   2.647   4.178  0.3415  1.8335 -0.5681
 6327SOL     OW30613   3.939   3.395   3.514 -0.1624  0.3115  0.1602
 6327SOL    HW130614   3.918   3.442   3.433 -2.0833 -1.9216 -0.6358
 6327SOL    HW230615   3.923   3.464   3.578  3.2622  0.1666  1.1774
 6328SOL     OW30616   2.624   4.681   9.090 -0.2096 -0.3096  0.2191
 6328SOL    HW130617   2.671   4.709   9.168  0.6633  0.6324 -0.6352
 6328SOL    HW230618   2.692   4.693   9.023 -1.0816  0.1655 -0.5917
 6329SOL     OW30619   1.566   2.920  16.389 -0.1458 -0.8345 -0.3957
 6329SOL    HW130620   1.524   3.005  16.399 -2.1447 -1.8054 -0.6615
 6329SOL    HW230621   1.636   2.918  16.324  0.4992  0.3597  0.2466
 6330SOL     OW30622   1.406   3.063   5.776 -0.2663  0.4254  0.3019
 6330SOL    HW130623   1.409   3.007   5.698 -0.0747 -0.5010  0.9698
 6330SOL    HW230624   1.396   3.002   5.850  0.9824 -0.5150 -0.2999
 6331SOL     OW30625   2.483   1.395   2.943  0.3994  0.4209 -0.1384
 6331SOL    HW130626   2.519   1.374   2.857  0.3348 -1.2297  0.2370
 6331SOL    HW230627   2.437   1.313   2.961 -1.8486  1.2304 -2.2448
 6332SOL     OW30628   2.421   2.022   6.982 -0.3535 -0.6484  0.1096
 6332SOL    HW130629   2.343   2.002   6.930  0.6805 -0.1287 -1.6572
 6332SOL    HW230630   2.478   2.088   6.942 -0.0137 -0.8800  0.2139
 6333SOL     OW30631   0.129   3.641   6.961  0.0399  0.5743 -0.3295
 6333SOL    HW130632   0.141   3.698   6.885  1.5785 -1.1833 -1.4039
 6333SOL    HW230633   0.117   3.717   7.018 -0.0004  0.7264 -0.5391
 6334SOL     OW30634   0.413   1.303   9.118  0.0753 -0.0065 -0.5749
 6334SOL    HW130635   0.373   1.341   9.196  1.1442  0.6208 -0.3435
 6334SOL    HW230636   0.488   1.361   9.107  2.2276 -2.8932 -0.9755
 6335SOL     OW30637   3.668   1.766   0.957 -0.5680  0.4331  0.0903
 6335SOL    HW130638   3.656   1.767   0.863 -0.6497 -0.1987  0.0907
 6335SOL    HW230639   3.582   1.744   0.993 -0.6785  0.1228 -0.3691
 6336SOL     OW30640   0.151   0.146   6.002 -0.8091  0.5020 -0.1598
 6336SOL    HW130641   0.071   0.094   6.006 -1.3515  1.3697  0.1431
 6336SOL    HW230642   0.126   0.225   6.049 -0.6171  1.1317 -1.1290
 6337SOL     OW30643   0.435   0.417  12.916  0.0584  0.0373  0.8457
 6337SOL    HW130644   0.494   0.341  12.913 -2.7691 -2.0745 -1.1470
 6337SOL    HW230645   0.496   0.488  12.900  0.7027 -0.1423  2.4809
 6338SOL     OW30646   3.373   0.011  14.744 -0.6854 -0.5476  0.1912
 6338SOL    HW130647   3.306   4.706  14.798 -1.7822 -0.2004 -0.8998
 6338SOL    HW230648   3.439   0.026  14.813 -0.5194  0.0812 -0.1072
 6339SOL     OW30649   0.355   1.318   7.908 -0.0655  0.0708  0.2049
 6339SOL    HW130650   0.284   1.325   7.844  0.2202  0.6618 -0.0477
 6339SOL    HW230651   0.419   1.371   7.861  1.6106 -1.5569  0.6548
 6340SOL     OW30652   0.628   0.533   5.846  0.0325  0.0430  0.3589
 6340SOL    HW130653   0.710   0.582   5.858 -0.7342  1.8903 -1.9358
 6340SOL    HW230654   0.654   0.446   5.876 -2.6063 -0.2056  1.8783
 6341SOL     OW30655   0.568   0.211   3.077  0.5603 -0.6125  0.3472
 6341SOL    HW130656   0.480   0.184   3.103 -0.9302  4.3410  0.3874
 6341SOL    HW230657   0.595   0.221   3.168  1.7210  1.1944 -0.1962
 6342SOL     OW30658   3.088   2.151   4.877 -0.1938 -0.0112  0.0782
 6342SOL    HW130659   3.059   2.242   4.883 -0.0249  0.1026 -0.7519
 6342SOL    HW230660   3.132   2.156   4.792  1.7427  1.2480  1.1499
 6343SOL     OW30661   0.245   4.195  17.395 -0.2568  0.2484  0.8032
 6343SOL    HW130662   0.292   4.277  17.387 -1.5659  1.2022  2.9861
 6343SOL    HW230663   0.240   4.178  17.489 -2.1851 -2.0283  0.3181
 6344SOL     OW30664   3.465   3.167   6.952  0.3636 -0.7317  0.2169
 6344SOL    HW130665   3.457   3.090   6.895 -0.2316  0.0092 -0.6992
 6344SOL    HW230666   3.531   3.137   7.014 -0.6349 -2.1618  0.5901
 6345SOL     OW30667   2.134   0.574   5.197  0.1653  0.0749  0.2304
 6345SOL    HW130668   2.149   0.663   5.230 -1.2820 -0.0796  1.3009
 6345SOL    HW230669   2.215   0.570   5.146 -0.3158  0.3968 -0.5531
 6346SOL     OW30670   3.197   1.365  14.594  0.1047  0.7865 -0.0270
 6346SOL    HW130671   3.215   1.439  14.536 -0.5410  2.0255  1.3407
 6346SOL    HW230672   3.241   1.293  14.550  1.7738  0.3751  2.2929
 6347SOL     OW30673   0.610   2.784  15.781  0.0769 -0.1771  0.9330
 6347SOL    HW130674   0.641   2.864  15.738 -0.5654 -1.5715 -2.1634
 6347SOL    HW230675   0.549   2.811  15.849  0.3122  0.5801  0.8423
 6348SOL     OW30676   4.183   3.872   5.344 -0.0217 -0.7961  0.1791
 6348SOL    HW130677   4.224   3.786   5.341 -0.0355 -0.7926 -0.1694
 6348SOL    HW230678   4.093   3.852   5.371 -0.9033  1.9441 -0.6402
 6349SOL     OW30679   2.447   2.264  13.239  0.0857  0.7429  0.3946
 6349SOL    HW130680   2.485   2.340  13.195 -0.4139  1.4649  1.2003
 6349SOL    HW230681   2.375   2.306  13.286 -0.3584 -1.5051  1.7071
 6350SOL     OW30682   0.497   3.420   3.233 -0.0746 -0.1313  0.4288
 6350SOL    HW130683   0.571   3.434   3.173  0.4351  0.9219  1.2849
 6350SOL    HW230684   0.456   3.506   3.222 -3.6893 -1.8323  0.6261
 6351SOL     OW30685   0.191   4.190   3.855  0.6330 -0.3320  0.1976
 6351SOL    HW130686   0.169   4.279   3.880  1.2279  0.0432 -0.5952
 6351SOL    HW230687   0.241   4.211   3.776 -0.7971 -1.2375 -0.9659
 6352SOL     OW30688   4.113   3.039  17.475 -0.0797 -0.7730  0.1201
 6352SOL    HW130689   4.124   3.018  17.568  0.7307  4.1969  1.1137
 6352SOL    HW230690   4.058   3.116  17.487 -0.4056 -1.2889  1.9027
 6353SOL     OW30691   3.514   3.979   9.012 -0.2806  0.7140 -0.0280
 6353SOL    HW130692   3.494   3.886   9.021 -1.9936  1.2557  1.8070
 6353SOL    HW230693   3.427   4.012   8.992 -0.5796 -0.4194 -0.6054
 6354SOL     OW30694   3.642   1.353  11.692  0.5242  0.4450 -0.3479
 6354SOL    HW130695   3.721   1.358  11.639  0.3891 -2.0960 -0.8158
 6354SOL    HW230696   3.618   1.446  11.689 -2.3364 -0.2118  2.0521
 6355SOL     OW30697   1.615   0.327  11.024 -0.5016  0.3329 -0.3448
 6355SOL    HW130698   1.709   0.340  11.032 -0.3889  0.3347 -1.5955
 6355SOL    HW230699   1.600   0.284  11.108  0.3381  0.4143 -0.1578
 6356SOL     OW30700   3.607   1.677   1.433  0.3323 -1.0401 -0.2306
 6356SOL    HW130701   3.677   1.677   1.368 -0.8840  1.1735 -1.5184
 6356SOL    HW230702   3.534   1.729   1.399  1.7141  0.5076 -0.8448
 6357SOL     OW30703   0.327   1.974   5.388 -0.3531 -0.5772 -0.0198
 6357SOL    HW130704   0.309   2.064   5.416 -0.8921 -0.1040 -1.8415
 6357SOL    HW230705   0.293   1.921   5.460  2.7153 -1.9094  0.4223
 6358SOL     OW30706   4.083   4.147   2.850 -0.1201 -0.1972  0.1032
 6358SOL    HW130707   4.098   4.075   2.789 -0.5775  2.1327 -2.7492
 6358SOL    HW230708   4.059   4.222   2.796  2.1158  0.3146 -0.1507
 6359SOL     OW30709   0.564   0.918  11.911  0.5232  0.3449 -0.4569
 6359SOL    HW130710   0.478   0.938  11.874 -1.0066 -1.4200  2.1601
 6359SOL    HW230711   0.581   0.825  11.895  1.5591  0.0031  2.5666
 6360SOL     OW30712   4.338   4.616  17.274 -0.4813 -0.3299 -0.1396
 6360SOL    HW130713   4.414   4.675  17.266 -0.9489  0.5152  1.4886
 6360SOL    HW230714   4.307   4.593  17.187 -0.4598 -0.4797 -0.1068
 6361SOL     OW30715   2.349   0.130   2.586 -0.1967 -0.0691  0.2811
 6361SOL    HW130716   2.305   0.194   2.643  0.8743  1.1553 -0.2673
 6361SOL    HW230717   2.371   0.066   2.653 -1.5465 -1.9061 -1.0286
 6362SOL     OW30718   1.212   4.414  14.603 -0.0013  0.4754 -0.2634
 6362SOL    HW130719   1.251   4.498  14.579 -1.0609  0.5443 -1.7330
 6362SOL    HW230720   1.132   4.433  14.554 -1.3043  1.4981  2.2727
 6363SOL     OW30721   0.639   1.068  13.944  0.1822 -0.4982 -0.4857
 6363SOL    HW130722   0.559   1.023  13.916 -0.2842 -0.7568  1.2369
 6363SOL    HW230723   0.711   1.018  13.906  0.2079  0.1060 -1.2276
 6364SOL     OW30724   3.777   0.354   7.894 -0.3056 -0.7631  0.3234
 6364SOL    HW130725   3.787   0.401   7.812  0.8608  0.6511  1.2865
 6364SOL    HW230726   3.698   0.304   7.873  0.4170 -2.0656  0.7086
 6365SOL     OW30727   3.389   2.621   3.056 -0.3356 -0.2099  0.2399
 6365SOL    HW130728   3.295   2.610   3.068 -0.8513  0.8848 -2.6363
 6365SOL    HW230729   3.414   2.533   3.028 -1.4041 -0.3452 -0.3065
 6366SOL     OW30730   2.741   2.660   1.668  0.0280  0.0528 -0.2406
 6366SOL    HW130731   2.831   2.665   1.701 -0.1109 -0.8291  0.2725
 6366SOL    HW230732   2.714   2.750   1.683 -0.7773  0.0572 -1.6735
 6367SOL     OW30733   2.450   2.574  10.025  0.2470  0.2155  0.0146
 6367SOL    HW130734   2.478   2.518  10.097  0.7990 -0.5248 -0.7691
 6367SOL    HW230735   2.526   2.633  10.025  0.1721  0.3078  0.3737
 6368SOL     OW30736   1.867   1.993  16.222  0.2893  0.7750  0.3329
 6368SOL    HW130737   1.909   1.913  16.253 -0.1289  0.3187 -0.2825
 6368SOL    HW230738   1.920   2.064  16.259  3.2347 -1.8800  1.1218
 6369SOL     OW30739   2.826   1.263  10.423 -0.2256  0.4475  0.4996
 6369SOL    HW130740   2.732   1.250  10.415 -0.1930  0.1646  0.5540
 6369SOL    HW230741   2.811   1.341  10.476  0.0022  0.9308 -0.1498
 6370SOL     OW30742   3.495   1.867   3.203 -0.1757 -0.2055 -0.3753
 6370SOL    HW130743   3.572   1.922   3.189 -0.5758  0.2946 -0.5953
 6370SOL    HW230744   3.513   1.802   3.136  0.4586 -1.0511  0.6092
 6371SOL     OW30745   0.457   3.014  13.117  0.1377 -0.3317  0.2108
 6371SOL    HW130746   0.537   3.038  13.164 -0.2236 -1.6120  1.4819
 6371SOL    HW230747   0.486   2.945  13.058 -2.4404 -2.2277  1.1556
 6372SOL     OW30748   1.141   1.649   7.169 -0.1758 -0.5532  0.1660
 6372SOL    HW130749   1.153   1.605   7.086  0.4540  0.8140 -0.4693
 6372SOL    HW230750   1.067   1.602   7.208 -0.2430 -1.1658 -0.7114
 6373SOL     OW30751   1.112   2.239   7.491  0.3702 -0.3093 -0.2103
 6373SOL    HW130752   1.020   2.248   7.519  0.3815  1.0481 -0.5952
 6373SOL    HW230753   1.134   2.190   7.570  1.7665 -1.6212 -1.4293
 6374SOL     OW30754   1.100   2.853  13.137 -0.0478 -0.3686  0.0370
 6374SOL    HW130755   1.069   2.942  13.118 -0.4171 -0.3729  0.6311
 6374SOL    HW230756   1.012   2.816  13.135  0.4177 -1.4128 -1.2675
 6375SOL     OW30757   4.272   1.066   4.271  0.0498 -0.0621  0.1854
 6375SOL    HW130758   4.210   1.000   4.243 -1.8105  1.9587 -0.4805
 6375SOL    HW230759   4.301   1.018   4.348  2.6440  1.9219  0.4609
 6376SOL     OW30760   2.643   1.299   3.194  0.2889  0.1518 -0.0465
 6376SOL    HW130761   2.720   1.353   3.177  0.2396  0.1746 -0.2010
 6376SOL    HW230762   2.570   1.354   3.166  0.4568 -0.2547 -1.2729
 6377SOL     OW30763   1.606   3.095   7.723 -0.7072 -0.3728  0.0180
 6377SOL    HW130764   1.683   3.138   7.761 -1.2213 -0.0778  0.7201
 6377SOL    HW230765   1.609   3.119   7.631 -0.5498  3.6874  1.0998
 6378SOL     OW30766   3.551   3.353   8.150  0.2889  0.5605  0.2283
 6378SOL    HW130767   3.583   3.288   8.212 -0.3627  1.3719  1.3963
 6378SOL    HW230768   3.480   3.303   8.109  1.0072  0.8690 -1.3866
 6379SOL     OW30769   2.410   4.235   8.486 -0.1937 -0.0680  0.1097
 6379SOL    HW130770   2.494   4.241   8.531  0.3491  0.4159 -0.9912
 6379SOL    HW230771   2.360   4.190   8.554 -1.5344  0.1254 -0.7525
 6380SOL     OW30772   2.078   4.575  12.450 -0.2790  0.7122  0.3241
 6380SOL    HW130773   2.064   4.655  12.500 -0.7072  2.1063 -1.9983
 6380SOL    HW230774   2.136   4.522  12.504  0.3116  2.1889  1.1322
 6381SOL     OW30775   0.987   1.164   0.508 -0.2797 -0.0515 -0.5791
 6381SOL    HW130776   0.978   1.253   0.542  1.3736  0.9922 -2.9486
 6381SOL    HW230777   0.947   1.110   0.577 -1.0878 -1.8575 -2.4679
 6382SOL     OW30778   1.109   0.929   3.950  0.0899  0.4975  0.3597
 6382SOL    HW130779   1.196   0.890   3.953  0.8210  2.0773  0.0697
 6382SOL    HW230780   1.120   1.015   3.909  0.3334 -0.7829 -2.2318
 6383SOL     OW30781   4.731   1.751   9.690  0.2024  0.1141 -0.4620
 6383SOL    HW130782   0.021   1.787   9.606 -1.7342  2.2546 -0.1719
 6383SOL    HW230783   4.643   1.787   9.692  0.1135 -0.0927 -0.7318
 6384SOL     OW30784   0.159   1.715   9.914 -0.4640 -0.1332  0.3278
 6384SOL    HW130785   0.095   1.725   9.843 -1.6118 -0.8530  1.2780
 6384SOL    HW230786   0.193   1.804   9.918 -0.2946 -0.2766  1.8300
 6385SOL     OW30787   0.937   0.202  12.992 -0.1678  0.5862 -0.2543
 6385SOL    HW130788   0.896   0.289  12.996  1.2947  1.2802 -0.1984
 6385SOL    HW230789   0.923   0.188  12.898  0.7352  1.3052 -0.5056
 6386SOL     OW30790   4.618   0.913   7.492 -0.2918 -0.0371  0.0929
 6386SOL    HW130791   4.668   0.870   7.423 -0.3628 -0.4200  0.2834
 6386SOL    HW230792   4.531   0.896   7.454 -1.1566 -1.0334  2.5305
 6387SOL     OW30793   1.498   1.878   7.211 -0.0103 -0.0224 -0.3955
 6387SOL    HW130794   1.408   1.874   7.242  0.5283 -0.3999  1.1179
 6387SOL    HW230795   1.543   1.857   7.294 -1.8721  0.4351  0.7185
 6388SOL     OW30796   1.729   1.722   3.934 -0.2447 -0.4047  0.6784
 6388SOL    HW130797   1.698   1.793   3.989 -1.0741 -0.3754  0.1668
 6388SOL    HW230798   1.690   1.639   3.962  0.1138 -0.7225  0.2412
 6389SOL     OW30799   2.831   2.480   5.922  0.1376  0.1907  0.7762
 6389SOL    HW130800   2.922   2.509   5.923  0.4633 -0.8255  0.2984
 6389SOL    HW230801   2.833   2.407   5.984  2.4799 -0.6310 -0.2795
 6390SOL     OW30802   1.777   4.384   8.383 -0.1726  0.1198 -0.7560
 6390SOL    HW130803   1.779   4.291   8.405  0.5038  0.5887  1.2404
 6390SOL    HW230804   1.791   4.387   8.288 -0.2631 -0.9666 -0.8048
 6391SOL     OW30805   2.609   2.364   4.439  0.5873 -0.6985  0.0551
 6391SOL    HW130806   2.691   2.313   4.435  2.0181  1.6370 -0.1836
 6391SOL    HW230807   2.563   2.306   4.501  0.5557  0.1278  0.8036
 6392SOL     OW30808   1.806   3.960  12.962  0.1348 -0.2557 -0.7443
 6392SOL    HW130809   1.720   4.003  12.959 -0.3518 -1.1485  0.3694
 6392SOL    HW230810   1.806   3.934  13.054  0.6541  0.6160 -0.5020
 6393SOL     OW30811   2.825   3.980   6.276  0.1698  0.1071 -0.2946
 6393SOL    HW130812   2.754   3.977   6.212 -1.0557 -1.5684  1.1715
 6393SOL    HW230813   2.891   3.917   6.249  0.1136  0.2383 -0.7349
 6394SOL     OW30814   0.596   1.821   2.993 -0.2292  0.0394 -0.4187
 6394SOL    HW130815   0.661   1.831   2.924  0.8623 -1.4806  0.4137
 6394SOL    HW230816   0.516   1.841   2.944 -1.0175  0.4993  1.0436
 6395SOL     OW30817   3.259   4.034   0.945 -0.6249 -0.8716  0.3723
 6395SOL    HW130818   3.354   4.044   0.935 -0.6724 -0.5977  0.1902
 6395SOL    HW230819   3.232   3.975   0.875 -1.1179  0.1078 -0.2547
 6396SOL     OW30820   2.438   3.499   5.064 -0.8097 -0.4823  0.1020
 6396SOL    HW130821   2.397   3.417   5.037 -0.6538 -1.2406  2.1671
 6396SOL    HW230822   2.433   3.546   4.980  0.5783  1.3380  1.0530
 6397SOL     OW30823   4.694   2.950   4.310 -0.6010  0.1980  0.0888
 6397SOL    HW130824   4.618   2.892   4.305 -0.5547  0.3833 -2.8916
 6397SOL    HW230825   0.020   2.886   4.277  0.5714  1.0188  0.7043
 6398SOL     OW30826   1.593   4.050  17.653 -0.2362  0.1362  0.1143
 6398SOL    HW130827   1.592   4.104  17.574 -0.4932 -0.9415 -0.6144
 6398SOL    HW230828   1.684   4.075  17.669  1.0926 -2.4566 -3.4405
 6399SOL     OW30829   0.012   3.336   3.695 -0.2658 -0.3233  0.2017
 6399SOL    HW130830   4.657   3.331   3.671  0.1019 -0.2019 -1.2407
 6399SOL    HW230831   0.054   3.288   3.623 -1.2216  0.2578 -0.7469
 6400SOL     OW30832   1.025   2.638  11.014  0.0106  0.1872  0.3115
 6400SOL    HW130833   1.009   2.695  10.938  0.1021  4.1214  3.2412
 6400SOL    HW230834   0.955   2.574  11.000  0.4274  0.0968 -1.3571
 6401SOL     OW30835   0.453   0.116   0.596 -0.2034  0.1891 -0.2351
 6401SOL    HW130836   0.542   0.147   0.612 -0.2753 -0.6831  1.9271
 6401SOL    HW230837   0.411   0.142   0.679  0.8302  3.1564 -0.6432
 6402SOL     OW30838   4.004   0.486  16.067 -0.1252  0.0448  0.1364
 6402SOL    HW130839   3.975   0.559  16.013  0.4872  0.7198  0.7217
 6402SOL    HW230840   4.031   0.533  16.146  0.7545 -1.0165  0.4680
 6403SOL     OW30841   3.397   2.210   2.546 -0.2850  0.5238  0.0326
 6403SOL    HW130842   3.399   2.239   2.637 -1.0286  1.7475 -0.3314
 6403SOL    HW230843   3.325   2.146   2.548  0.0383  0.1394 -0.5288
 6404SOL     OW30844   3.324   0.797   4.654  0.0734 -0.1201 -0.4178
 6404SOL    HW130845   3.330   0.863   4.723 -0.8703  0.9409 -1.3398
 6404SOL    HW230846   3.231   0.813   4.633 -0.2952 -1.3760  0.2660
 6405SOL     OW30847   0.247   3.612   5.206 -0.0271  0.3909  0.3760
 6405SOL    HW130848   0.334   3.648   5.223  1.3633 -2.0465 -1.7005
 6405SOL    HW230849   0.235   3.630   5.113 -1.6870  1.2465  0.7527
 6406SOL     OW30850   3.810   0.156   3.506  0.0327 -0.0546 -0.3853
 6406SOL    HW130851   3.766   0.073   3.488 -1.1729  0.8421 -1.4648
 6406SOL    HW230852   3.859   0.170   3.425 -0.1178  1.2044 -0.2548
 6407SOL     OW30853   3.313   0.636  14.965  0.1834  0.4433 -0.1544
 6407SOL    HW130854   3.238   0.626  14.906  0.1717  0.3480 -0.1234
 6407SOL    HW230855   3.375   0.572  14.929  0.1034 -0.7130  1.7554
 6408SOL     OW30856   3.540   2.884  12.412 -0.6888 -0.4109  0.1099
 6408SOL    HW130857   3.563   2.937  12.335  1.2828  0.4974  1.3344
 6408SOL    HW230858   3.578   2.940  12.479 -0.6192  0.4044 -0.6045
 6409SOL     OW30859   2.199   1.276  10.749  0.0771 -0.6284  1.0977
 6409SOL    HW130860   2.268   1.259  10.686  0.2932  1.0301  0.8964
 6409SOL    HW230861   2.120   1.290  10.697  0.2329 -0.9322  0.7804
 6410SOL     OW30862   3.768   2.386   9.184  0.4154 -0.2237  0.3610
 6410SOL    HW130863   3.856   2.373   9.148 -0.2428  0.8638 -1.6065
 6410SOL    HW230864   3.736   2.297   9.191 -1.1051  0.2941  0.0552
 6411SOL     OW30865   1.912   3.852   8.166  0.1328  0.7353  0.0151
 6411SOL    HW130866   1.982   3.894   8.216  0.3222  1.3462 -0.7606
 6411SOL    HW230867   1.902   3.769   8.212 -1.1369  0.4080 -0.8646
 6412SOL     OW30868   1.228   4.425   8.216 -0.0668 -0.4377 -0.4035
 6412SOL    HW130869   1.224   4.479   8.295 -0.5594 -0.2135 -0.5844
 6412SOL    HW230870   1.165   4.474   8.163 -1.5487 -1.6399  0.2550
 6413SOL     OW30871   3.359   2.697   8.384 -0.3259  0.1246  0.0921
 6413SOL    HW130872   3.422   2.645   8.435 -0.2311 -0.1036 -0.2508
 6413SOL    HW230873   3.395   2.683   8.296 -0.1110  1.6752 -0.0575
 6414SOL     OW30874   3.193   1.253  17.180 -0.1468 -0.0158 -0.0532
 6414SOL    HW130875   3.270   1.237  17.235  0.5239  0.2714 -0.9072
 6414SOL    HW230876   3.182   1.348  17.173 -0.8814  0.0322  1.8074
 6415SOL     OW30877   3.120   4.147  16.557  0.0717  0.1844 -0.4104
 6415SOL    HW130878   3.158   4.124  16.642  1.4585 -1.3415 -1.4740
 6415SOL    HW230879   3.041   4.093  16.562 -0.3362  0.5838 -2.4253
 6416SOL     OW30880   2.909   3.146   7.130 -0.0946  0.0122  1.2379
 6416SOL    HW130881   2.827   3.171   7.172 -0.5313  2.9000 -1.2649
 6416SOL    HW230882   2.927   3.211   7.062  0.4730 -0.4108  0.9853
 6417SOL     OW30883   1.816   2.391   6.945 -0.0286 -0.0996  0.6891
 6417SOL    HW130884   1.845   2.306   6.978 -0.6653 -0.2165  0.9327
 6417SOL    HW230885   1.902   2.431   6.959  0.7779 -0.3338 -3.5050
 6418SOL     OW30886   0.550   3.499   8.017 -0.0288  0.0839  0.9363
 6418SOL    HW130887   0.614   3.552   7.969  0.3329  0.2349  1.5748
 6418SOL    HW230888   0.468   3.525   7.975  0.1650 -2.8572 -1.2476
 6419SOL     OW30889   0.536   0.273   6.749 -0.5609  0.3500 -0.3695
 6419SOL    HW130890   0.544   0.366   6.769 -1.3965 -0.0428  1.7236
 6419SOL    HW230891   0.494   0.289   6.664 -3.8737  0.1769  1.2241
 6420SOL     OW30892   2.607   0.660   5.578  0.4006 -0.0344 -0.0801
 6420SOL    HW130893   2.663   0.633   5.651 -0.1745  0.7254  0.6343
 6420SOL    HW230894   2.651   0.740   5.550  0.4903  0.7976  2.4913
 6421SOL     OW30895   0.816   3.730   4.522  0.0256 -0.4392 -0.1228
 6421SOL    HW130896   0.867   3.773   4.453 -2.2195  2.1716 -0.1440
 6421SOL    HW230897   0.866   3.731   4.603  0.4305  0.4086 -0.3896
 6422SOL     OW30898   1.448   0.670   8.440  0.2752 -0.0304 -0.7124
 6422SOL    HW130899   1.431   0.747   8.494  2.3195 -0.0579 -0.0223
 6422SOL    HW230900   1.542   0.662   8.460  0.3710 -0.6050 -1.3943
 6423SOL     OW30901   1.016   1.888   7.822 -0.7130 -0.1407  0.0273
 6423SOL    HW130902   1.099   1.905   7.866  0.1527 -2.5606 -0.6778
 6423SOL    HW230903   0.957   1.922   7.889 -0.3965  0.1745  0.1470
 6424SOL     OW30904   3.298   1.244   0.547  0.1388  0.2269 -0.5390
 6424SOL    HW130905   3.276   1.240   0.640  0.2102 -0.7242 -0.5559
 6424SOL    HW230906   3.210   1.221   0.519 -0.1659  1.2131 -0.3838
 6425SOL     OW30907   2.298   1.714   8.145  0.2749 -0.0270 -0.3648
 6425SOL    HW130908   2.357   1.762   8.204  0.5194  2.6108 -2.7592
 6425SOL    HW230909   2.221   1.771   8.146  0.3797  0.1281 -1.0017
 6426SOL     OW30910   0.688   4.519   3.884 -0.2777  0.1576 -0.7709
 6426SOL    HW130911   0.707   4.503   3.792 -0.7431 -0.9271 -0.6878
 6426SOL    HW230912   0.653   4.434   3.913  0.6469  1.1491  3.2513
 6427SOL     OW30913   2.367   0.306   8.833  0.8440 -0.3196  0.0272
 6427SOL    HW130914   2.394   0.244   8.900  3.0460  0.2489 -0.3236
 6427SOL    HW230915   2.301   0.253   8.788 -0.8857  2.7625 -1.0788
 6428SOL     OW30916   2.367   2.539   7.391  0.4713  0.0920 -0.0065
 6428SOL    HW130917   2.413   2.505   7.314  0.1229 -0.6062  0.0915
 6428SOL    HW230918   2.300   2.476   7.420 -0.1232  1.0643  0.7429
 6429SOL     OW30919   3.952   2.971   8.331 -0.8499  0.3190  0.1753
 6429SOL    HW130920   3.865   2.938   8.352 -0.5839  0.5220  1.5904
 6429SOL    HW230921   3.936   3.047   8.276  1.3016  1.3527  0.9905
 6430SOL     OW30922   3.372   1.785   1.789  0.0650 -0.3218  0.5813
 6430SOL    HW130923   3.460   1.748   1.782  0.4503  1.4833 -3.8477
 6430SOL    HW230924   3.323   1.725   1.846 -2.5886 -0.5923 -1.9553
 6431SOL     OW30925   2.659   3.798   5.175  0.3529  0.1228 -0.2316
 6431SOL    HW130926   2.671   3.711   5.213 -1.8525 -0.9387 -1.9070
 6431SOL    HW230927   2.736   3.835   5.218 -0.3118 -1.2048  2.0749
 6432SOL     OW30928   4.429   2.139   3.962 -0.8218 -0.6907 -0.2330
 6432SOL    HW130929   4.452   2.217   4.013  0.1595 -0.2845 -1.2954
 6432SOL    HW230930   4.425   2.069   4.027  0.7108 -0.5121  0.0697
 6433SOL     OW30931   4.520   2.998   9.164 -1.5198  0.5393 -0.4937
 6433SOL    HW130932   4.533   3.018   9.256  1.2418 -3.6838  0.0606
 6433SOL    HW230933   4.561   3.074   9.123 -3.8658  0.6890 -2.6336
 6434SOL     OW30934   0.557   2.941   9.267  0.6179 -0.6597  0.0823
 6434SOL    HW130935   0.563   2.887   9.346 -1.2934 -2.5969 -1.1306
 6434SOL    HW230936   0.617   3.014   9.285 -1.8569  0.9483  1.7743
 6435SOL     OW30937   4.505   4.435  16.860  0.1454  0.0254  0.3732
 6435SOL    HW130938   4.497   4.441  16.955  1.3495 -1.1827  0.5493
 6435SOL    HW230939   4.438   4.494  16.826  1.9847  1.2857 -1.0726
 6436SOL     OW30940   3.347   0.480   1.686  0.2665 -0.5359  0.4726
 6436SOL    HW130941   3.293   0.511   1.614 -3.0999 -1.3271  2.6574
 6436SOL    HW230942   3.340   0.387   1.666  2.0199 -1.0205  2.0474
 6437SOL     OW30943   2.872   1.316   4.514 -0.2585  0.6947  0.2196
 6437SOL    HW130944   2.886   1.307   4.420  0.2522 -2.0567  0.5591
 6437SOL    HW230945   2.963   1.312   4.545 -0.8620  1.4482  2.0828
 6438SOL     OW30946   4.556   1.698  15.665 -0.3258  0.1670  0.1759
 6438SOL    HW130947   4.462   1.712  15.671 -0.0761  1.9974 -0.1460
 6438SOL    HW230948   4.586   1.747  15.742  0.2502 -0.8833  0.6219
 6439SOL     OW30949   0.176   3.487   4.158 -0.9314 -0.1169  0.2484
 6439SOL    HW130950   0.171   3.534   4.074  0.0704 -1.2773 -0.4609
 6439SOL    HW230951   0.244   3.540   4.200 -0.2717 -0.9267  0.2122
 6440SOL     OW30952   0.657   0.275   9.370 -0.1249 -0.1471 -0.1099
 6440SOL    HW130953   0.712   0.205   9.405  1.0945  0.0951 -1.5133
 6440SOL    HW230954   0.710   0.323   9.306  2.0905  1.0578  2.6286
 6441SOL     OW30955   3.831   4.495  14.133  0.4671 -0.1526 -0.2457
 6441SOL    HW130956   3.893   4.442  14.182  0.3144 -0.6304 -0.5745
 6441SOL    HW230957   3.872   4.581  14.118 -1.2739  0.4734 -1.5035
 6442SOL     OW30958   3.357   1.104   5.259 -0.0792  0.2755  0.3578
 6442SOL    HW130959   3.422   1.137   5.322  0.9995  1.4708 -1.3751
 6442SOL    HW230960   3.410   1.041   5.210  1.2280 -0.2066  2.3764
 6443SOL     OW30961   1.294   2.171   5.982 -0.0313 -0.5000 -0.4093
 6443SOL    HW130962   1.332   2.104   6.039  0.1821  0.4618  0.5858
 6443SOL    HW230963   1.347   2.161   5.903  0.1838 -0.7429 -0.2325
 6444SOL     OW30964   2.594   1.937  10.421  0.6879  0.5234 -0.5014
 6444SOL    HW130965   2.545   1.899  10.494 -0.4273  0.1846 -1.4351
 6444SOL    HW230966   2.587   1.876  10.349  1.3001 -0.3987  0.2267
 6445SOL     OW30967   1.905   1.091  14.388 -0.2528  0.4664 -0.2043
 6445SOL    HW130968   1.877   1.145  14.314 -1.4044  1.0089  0.6302
 6445SOL    HW230969   1.824   1.063  14.431 -0.3275 -0.7948 -1.1694
 6446SOL     OW30970   2.023   0.258   1.813 -0.1768  0.8712  0.8146
 6446SOL    HW130971   2.069   0.215   1.886  0.8634  3.4388  1.6871
 6446SOL    HW230972   2.049   0.200   1.742  0.8067  1.0565  1.0132
 6447SOL     OW30973   2.236   3.373   3.040 -0.3577  0.2898 -0.2970
 6447SOL    HW130974   2.194   3.437   3.097 -0.3804  0.2851 -0.3084
 6447SOL    HW230975   2.255   3.415   2.957  1.6173 -0.4890 -0.2496
 6448SOL     OW30976   4.512   1.780   8.867  0.2851  0.1829 -0.1831
 6448SOL    HW130977   4.584   1.734   8.823  1.6679  2.6051 -0.4228
 6448SOL    HW230978   4.466   1.811   8.789  0.9026  2.1708  0.2457
 6449SOL     OW30979   2.455   0.062  11.284 -0.0482  0.9753  0.1013
 6449SOL    HW130980   2.433   0.155  11.295 -0.3823  0.5361  3.0178
 6449SOL    HW230981   2.548   0.052  11.265 -0.1284 -0.8671  0.6756
 6450SOL     OW30982   3.778   2.796   9.734  0.3142 -0.5272  0.0939
 6450SOL    HW130983   3.752   2.773   9.823 -0.6064 -1.9185 -0.5256
 6450SOL    HW230984   3.850   2.856   9.751  0.5151  0.0063 -2.5367
 6451SOL     OW30985   1.654   1.169  12.218  0.0026  0.1865 -0.3989
 6451SOL    HW130986   1.693   1.156  12.304 -0.5547 -0.5116 -0.2470
 6451SOL    HW230987   1.682   1.089  12.174 -1.4599  0.6124 -2.1190
 6452SOL     OW30988   3.724   1.292   6.396  0.4687 -0.1918 -0.0956
 6452SOL    HW130989   3.779   1.214   6.389  0.7270 -0.1064  0.9869
 6452SOL    HW230990   3.794   1.354   6.418  2.1623 -2.3027  0.4725
 6453SOL     OW30991   0.389   4.650   5.425  0.7355 -0.0556 -0.2310
 6453SOL    HW130992   0.326   4.682   5.490  1.2984  0.0531  0.2591
 6453SOL    HW230993   0.456   4.718   5.427  1.2493 -0.6169  2.7099
 6454SOL     OW30994   0.343   1.676   6.384  0.3093  0.3038 -0.2067
 6454SOL    HW130995   0.428   1.718   6.386  1.0670 -1.1332 -1.8719
 6454SOL    HW230996   0.315   1.694   6.474 -0.6269  0.5176 -0.5380
 6455SOL     OW30997   2.947   1.843  16.020  0.0563 -0.6113 -0.2513
 6455SOL    HW130998   2.983   1.923  15.982  1.6719 -0.5202  1.4590
 6455SOL    HW230999   3.026   1.817  16.066  1.1126  1.1860 -1.0390
 6456SOL     OW31000   2.092   2.128   1.884 -0.4098  0.6085 -0.3361
 6456SOL    HW131001   2.054   2.060   1.828 -1.7639  2.7122 -2.0116
 6456SOL    HW231002   2.131   2.184   1.815 -0.3046  2.0330  0.8759
 6457SOL     OW31003   4.195   3.062  13.201 -0.5058  0.0361  0.2128
 6457SOL    HW131004   4.241   3.003  13.261  0.7485 -0.2243 -1.0224
 6457SOL    HW231005   4.178   3.135  13.261  1.7919  1.4907 -0.9272
 6458SOL     OW31006   0.459   2.794  11.849 -0.4814  0.3960  0.0861
 6458SOL    HW131007   0.462   2.887  11.872  2.9213  0.6414 -1.4504
 6458SOL    HW231008   0.531   2.778  11.789 -0.7448 -3.3165  0.7460
 6459SOL     OW31009   3.152   1.534   2.652  1.1510  0.4109 -0.3481
 6459SOL    HW131010   3.180   1.625   2.653  0.9364  0.4556  1.5940
 6459SOL    HW231011   3.239   1.496   2.661  0.6354 -0.6762  0.0084
 6460SOL     OW31012   3.675   1.836  13.910 -0.2276 -0.0254  0.1948
 6460SOL    HW131013   3.699   1.765  13.969 -1.1240  0.8160  1.5754
 6460SOL    HW231014   3.597   1.873  13.951 -0.9458 -0.9063 -0.3916
 6461SOL     OW31015   1.709   0.552   2.409  0.2686 -0.2552  0.4277
 6461SOL    HW131016   1.633   0.594   2.448  2.6510  3.6731  0.8064
 6461SOL    HW231017   1.670   0.483   2.356  1.7247  0.9023 -2.1285
 6462SOL     OW31018   2.202   4.319  13.679  0.0427  0.3968  0.1057
 6462SOL    HW131019   2.188   4.248  13.742  2.4533 -0.7884 -0.6767
 6462SOL    HW231020   2.221   4.262  13.605  1.9466 -1.7851  2.2711
 6463SOL     OW31021   0.133   0.015   1.092  0.6400 -0.7884 -0.1714
 6463SOL    HW131022   0.091   0.079   1.036 -1.4557 -2.0027  0.0226
 6463SOL    HW231023   0.219   0.018   1.050  0.2161 -2.5469 -1.2000
 6464SOL     OW31024   0.992   4.512   6.714  0.2991 -0.8944 -0.1547
 6464SOL    HW131025   0.994   4.603   6.744  0.2008 -0.3156 -1.9001
 6464SOL    HW231026   0.899   4.499   6.695  0.5323 -1.2042 -1.0692
 6465SOL     OW31027   2.151   4.411  13.984 -0.0765  0.2171  0.3718
 6465SOL    HW131028   2.115   4.323  13.978  1.0955 -0.2485  0.1291
 6465SOL    HW231029   2.245   4.395  13.990 -0.1419 -1.2339 -2.6649
 6466SOL     OW31030   3.369   4.610   9.058 -0.2957 -0.2631 -0.3265
 6466SOL    HW131031   3.415   4.527   9.042  0.0262  0.0449 -0.9907
 6466SOL    HW231032   3.437   4.668   9.092 -1.8921 -0.7954  3.8246
 6467SOL     OW31033   0.037   4.479   7.305  0.1549  0.2202  0.3148
 6467SOL    HW131034   4.714   4.520   7.242  1.2356  0.2227 -0.7112
 6467SOL    HW231035   0.043   4.400   7.251 -0.1039 -0.3419  1.1226
 6468SOL     OW31036   0.030   4.642   8.414  0.3389  0.8103  0.6421
 6468SOL    HW131037   0.032   4.548   8.432  0.4034  1.1607  2.4432
 6468SOL    HW231038   0.091   4.636   8.340 -1.0408  0.3214 -0.4558
 6469SOL     OW31039   2.646   0.563  12.239  0.1930  0.2112 -0.0934
 6469SOL    HW131040   2.731   0.542  12.200 -0.2889 -2.5131  0.3372
 6469SOL    HW231041   2.645   0.658  12.228 -0.9943  0.2455  0.3151
 6470SOL     OW31042   0.980   3.179  11.129  0.2488 -0.4021  0.0597
 6470SOL    HW131043   0.930   3.259  11.144 -2.7286 -2.3960  0.7633
 6470SOL    HW231044   1.032   3.204  11.052  0.1372 -0.9718 -0.1998
 6471SOL     OW31045   4.099   4.543   9.303  0.3386 -0.0467 -0.0069
 6471SOL    HW131046   4.085   4.606   9.374  1.8228 -0.7857  0.9324
 6471SOL    HW231047   4.018   4.494   9.316 -0.1777  0.3108 -1.9069
 6472SOL     OW31048   0.753   4.433   7.626 -0.1659 -0.0546 -0.1248
 6472SOL    HW131049   0.781   4.372   7.559  0.5446 -0.7240  0.7746
 6472SOL    HW231050   0.745   4.514   7.576  1.3337 -0.3186 -0.7828
 6473SOL     OW31051   1.731   3.618   9.025 -0.3047 -0.1323 -0.1795
 6473SOL    HW131052   1.671   3.580   8.960 -0.0789 -1.6065  0.4884
 6473SOL    HW231053   1.666   3.676   9.066 -0.4532 -1.6111  1.6664
 6474SOL     OW31054   1.454   2.054   3.238  0.3644 -0.1265 -0.2600
 6474SOL    HW131055   1.484   2.009   3.159  1.1694 -0.4280  0.2084
 6474SOL    HW231056   1.502   2.001   3.302  2.3150  1.8505 -0.1012
 6475SOL     OW31057   2.024   1.697   0.208 -0.3435  0.3712 -0.6053
 6475SOL    HW131058   2.065   1.770   0.163  0.6365 -0.9672 -1.8778
 6475SOL    HW231059   1.954   1.665   0.151 -2.2853  0.1876  1.8803
 6476SOL     OW31060   1.029   2.626   6.486  0.9771 -0.3194 -0.0501
 6476SOL    HW131061   0.962   2.594   6.547 -2.4407  1.8389 -2.7269
 6476SOL    HW231062   1.048   2.546   6.437  0.6170  0.3603 -1.2939
 6477SOL     OW31063   3.219   3.221   4.266 -0.2884 -0.3510  0.2350
 6477SOL    HW131064   3.179   3.228   4.179  2.1842  0.9259 -0.8212
 6477SOL    HW231065   3.148   3.176   4.311 -0.1525 -0.9003 -0.0847
 6478SOL     OW31066   2.340   3.684   6.849 -0.6340  0.8511 -0.1474
 6478SOL    HW131067   2.329   3.669   6.943 -0.5451 -2.0733 -0.6075
 6478SOL    HW231068   2.253   3.660   6.814 -0.5815  1.3982 -0.6505
 6479SOL     OW31069   4.322   2.394   7.493 -0.0907  0.3081  0.1553
 6479SOL    HW131070   4.314   2.446   7.573 -1.9931 -2.4268  1.7365
 6479SOL    HW231071   4.237   2.404   7.449  0.2501  0.2381 -0.5148
 6480SOL     OW31072   3.287   2.158   6.465  0.1572  0.0548 -0.1794
 6480SOL    HW131073   3.258   2.221   6.400  0.2394  2.2114  1.8999
 6480SOL    HW231074   3.372   2.133   6.427  0.5050  1.1161 -0.1032
 6481SOL     OW31075   3.443   2.446   3.632 -0.3334 -0.6840 -0.4902
 6481SOL    HW131076   3.537   2.465   3.635 -0.4456 -0.0404 -0.9785
 6481SOL    HW231077   3.437   2.351   3.628 -0.8763 -0.6523 -0.4524
 6482SOL     OW31078   3.874   0.125  15.290  0.2011 -0.0717 -0.0417
 6482SOL    HW131079   3.839   0.044  15.327  0.2603 -1.9346 -4.0965
 6482SOL    HW231080   3.827   0.186  15.348 -1.6296 -0.6486 -0.9195
 6483SOL     OW31081   1.332   3.601  14.496 -0.1007 -0.1637 -0.2961
 6483SOL    HW131082   1.247   3.646  14.502 -1.2526 -2.2444 -0.8555
 6483SOL    HW231083   1.302   3.512  14.475  0.7859 -0.7675  1.0430
 6484SOL     OW31084   3.647   1.273   8.757  0.0614 -0.1460  0.2307
 6484SOL    HW131085   3.609   1.286   8.844 -0.4381 -0.2779  0.0297
 6484SOL    HW231086   3.676   1.182   8.764 -0.6361 -0.2291  2.1640
 6485SOL     OW31087   1.422   1.011   1.936 -0.1340  0.7215 -0.3078
 6485SOL    HW131088   1.428   0.932   1.989 -2.2675 -0.5208 -1.9398
 6485SOL    HW231089   1.505   1.002   1.890  0.2318 -1.0898  0.6967
 6486SOL     OW31090   0.148   1.433   9.940  0.1150  0.0480 -0.3826
 6486SOL    HW131091   0.153   1.383   9.858 -0.9809  0.5541 -0.7477
 6486SOL    HW231092   0.143   1.521   9.904 -0.1961 -0.6379 -2.0167
 6487SOL     OW31093   4.313   0.416  10.022 -0.0941 -0.2988  0.1959
 6487SOL    HW131094   4.280   0.477   9.956 -0.9501 -0.3512  0.5793
 6487SOL    HW231095   4.251   0.419  10.095 -2.8594  1.1519 -2.1928
 6488SOL     OW31096   3.167   3.015   7.195 -0.3036  0.1205 -0.3319
 6488SOL    HW131097   3.079   3.051   7.183  0.0037  0.5624 -1.2077
 6488SOL    HW231098   3.188   3.058   7.279 -0.3322 -2.1388  0.8361
 6489SOL     OW31099   4.163   4.240  11.594 -0.1784  0.1599 -0.1166
 6489SOL    HW131100   4.210   4.311  11.551 -3.0191  1.1206 -1.6182
 6489SOL    HW231101   4.214   4.242  11.676 -0.4125 -1.5726  0.0680
 6490SOL     OW31102   3.207   2.862   5.512 -0.3437 -0.0564 -0.3081
 6490SOL    HW131103   3.161   2.900   5.437  0.9084  2.9020  0.4342
 6490SOL    HW231104   3.207   2.773   5.477  2.1443 -0.3734  0.5110
 6491SOL     OW31105   2.308   1.040   8.517 -0.4679  0.1305 -0.1706
 6491SOL    HW131106   2.348   1.080   8.440 -2.4196  0.6492 -0.9207
 6491SOL    HW231107   2.382   1.035   8.577 -1.0944 -0.9291  0.5266
 6492SOL     OW31108   1.133   2.327  15.026 -0.9554  0.0244  0.1885
 6492SOL    HW131109   1.182   2.407  15.004 -0.7519 -0.1331  0.0622
 6492SOL    HW231110   1.210   2.273  15.040  0.0160  1.0420 -1.1203
 6493SOL     OW31111   2.887   3.824   2.852 -0.1865 -0.2102  0.1069
 6493SOL    HW131112   2.913   3.756   2.915  2.3573  0.3678 -0.3334
 6493SOL    HW231113   2.959   3.883   2.872 -0.5423  0.1579  0.3100
 6494SOL     OW31114   1.739   2.690   6.143  0.3775  0.1783 -0.5197
 6494SOL    HW131115   1.780   2.773   6.119  0.6954 -0.1641 -1.1690
 6494SOL    HW231116   1.753   2.649   6.057  1.2848 -1.2582  0.3094
 6495SOL     OW31117   0.389   4.119   8.022  0.2059 -0.2767 -0.4772
 6495SOL    HW131118   0.313   4.069   7.989 -0.0614 -0.9633  1.1803
 6495SOL    HW231119   0.398   4.173   7.944 -1.9739  0.9319  0.0954
 6496SOL     OW31120   1.017   0.162  11.225 -0.2445  0.4482  0.1759
 6496SOL    HW131121   1.040   0.196  11.311  0.7757  1.4721 -0.4946
 6496SOL    HW231122   0.980   0.232  11.170 -1.5604 -0.1010  0.3581
 6497SOL     OW31123   1.819   4.133   8.757  0.8487 -0.4471  0.0946
 6497SOL    HW131124   1.842   4.153   8.847 -1.4757 -1.6517  0.9542
 6497SOL    HW231125   1.726   4.127   8.776  1.0756 -1.7630  0.8218
 6498SOL     OW31126   0.001   0.753   3.858  0.3046  0.2335 -0.2137
 6498SOL    HW131127   4.723   0.786   3.946 -0.7901 -0.3269 -0.1941
 6498SOL    HW231128   0.075   0.694   3.873  0.3225  0.3361  0.0967
 6499SOL     OW31129   1.105   2.823   7.127  0.3678 -0.1967 -0.2252
 6499SOL    HW131130   1.199   2.812   7.118  0.2535 -1.1764 -0.1846
 6499SOL    HW231131   1.073   2.851   7.041 -2.5562 -1.2169  0.5157
 6500SOL     OW31132   4.020   0.717   2.715  0.2725 -0.4468  0.5750
 6500SOL    HW131133   4.023   0.768   2.796 -1.4027 -0.7086  0.8012
 6500SOL    HW231134   3.929   0.687   2.715  0.0430  0.2363 -1.3200
 6501SOL     OW31135   4.112   0.860   6.003  0.2162  0.2584  0.1447
 6501SOL    HW131136   4.123   0.767   6.023 -1.1158  0.0505 -0.0463
 6501SOL    HW231137   4.122   0.895   6.091 -3.9771 -0.6266  0.9870
 6502SOL     OW31138   3.159   0.845   8.882  0.0487  0.1309  0.2203
 6502SOL    HW131139   3.081   0.853   8.827  0.1398 -0.1788  0.0459
 6502SOL    HW231140   3.146   0.759   8.922  1.3864  0.2729  0.9679
 6503SOL     OW31141   3.295   3.499   3.603 -0.4606  0.0598 -0.5302
 6503SOL    HW131142   3.218   3.556   3.596  0.3815  1.5242  2.2612
 6503SOL    HW231143   3.332   3.521   3.688  1.0187 -0.5439 -1.0204
 6504SOL     OW31144   4.339   1.612   2.806 -0.3253  0.8027  0.9041
 6504SOL    HW131145   4.402   1.540   2.797 -1.9414 -0.2957 -1.6824
 6504SOL    HW231146   4.293   1.619   2.722  0.2396  0.6165  0.5810
 6505SOL     OW31147   3.574   1.505   6.190 -0.2270  0.0737  0.0123
 6505SOL    HW131148   3.618   1.423   6.170  0.2629  0.4546 -0.4817
 6505SOL    HW231149   3.492   1.475   6.228 -0.7421  0.7785 -0.5414
 6506SOL     OW31150   4.417   3.028   7.558  0.8830  0.0518 -0.5402
 6506SOL    HW131151   4.410   2.933   7.549  1.0200  0.2248 -2.5008
 6506SOL    HW231152   4.333   3.044   7.601 -0.7611 -4.6898 -1.9602
 6507SOL     OW31153   0.684   1.667   8.205  0.1528  0.0924 -0.2666
 6507SOL    HW131154   0.643   1.668   8.291 -0.2331 -0.0387 -0.4479
 6507SOL    HW231155   0.621   1.714   8.151 -1.0935 -3.0381 -1.5701
 6508SOL     OW31156   2.651   3.687   0.615  0.4771  0.2051  0.3185
 6508SOL    HW131157   2.715   3.654   0.678 -1.6995  0.4730  2.6995
 6508SOL    HW231158   2.572   3.645   0.648  1.6036 -0.4893  2.1025
 6509SOL     OW31159   1.861   0.630  15.381  0.4623  0.0971  0.1892
 6509SOL    HW131160   1.768   0.614  15.396 -0.0054  0.4497 -2.2840
 6509SOL    HW231161   1.909   0.555  15.417  0.5054  1.2319  2.5223
 6510SOL     OW31162   2.062   4.121   1.324 -0.2443  0.3071  0.2270
 6510SOL    HW131163   1.968   4.137   1.333 -0.3254  2.0021 -3.5239
 6510SOL    HW231164   2.064   4.028   1.301  2.0750 -0.0207  1.7712
 6511SOL     OW31165   1.844   2.043   2.661  0.0394  0.1063 -0.4400
 6511SOL    HW131166   1.893   1.979   2.712  0.9839 -0.4965 -2.1311
 6511SOL    HW231167   1.847   1.989   2.582 -4.1431 -1.0828  0.1837
 6512SOL     OW31168   4.170   4.583  13.374 -0.6772  0.1702 -0.5110
 6512SOL    HW131169   4.190   4.504  13.424 -0.5044 -1.9410 -3.8952
 6512SOL    HW231170   4.190   4.654  13.435 -0.4994 -2.3491  2.3622
 6513SOL     OW31171   3.613   4.075   1.500 -0.1618  0.0087 -0.0032
 6513SOL    HW131172   3.643   4.007   1.559 -0.2707 -0.4729 -0.5015
 6513SOL    HW231173   3.694   4.113   1.465  0.4726 -0.2508  1.2175
 6514SOL     OW31174   2.156   2.919   6.197  0.2927 -0.1044  1.0043
 6514SOL    HW131175   2.085   2.963   6.244  2.1469  0.4239  3.3442
 6514SOL    HW231176   2.229   2.913   6.258  1.6161  0.0855 -0.5574
 6515SOL     OW31177   1.852   0.745   5.635 -0.4333  0.3340  0.0125
 6515SOL    HW131178   1.828   0.760   5.726 -0.4724 -2.2759  0.4190
 6515SOL    HW231179   1.880   0.654   5.644 -0.0480  0.4058 -0.3945
 6516SOL     OW31180   4.222   4.484   3.118 -0.1013  0.3756 -0.1714
 6516SOL    HW131181   4.226   4.463   3.211  1.9018  1.5254  0.0037
 6516SOL    HW231182   4.127   4.471   3.116 -0.0844  0.3593 -0.9517
 6517SOL     OW31183   1.417   0.897   3.778 -0.1742  0.4589 -0.3232
 6517SOL    HW131184   1.497   0.916   3.730  0.1031 -2.0366 -0.8404
 6517SOL    HW231185   1.355   0.947   3.724 -0.9003 -1.9555 -1.7039
 6518SOL     OW31186   2.811   3.252   4.948 -0.3661  0.1465  0.2273
 6518SOL    HW131187   2.754   3.181   4.918 -0.6879  0.1733  0.7725
 6518SOL    HW231188   2.795   3.242   5.042 -3.3221 -1.0633 -0.4009
 6519SOL     OW31189   0.946   3.296   6.350 -0.0984  0.6060 -0.0393
 6519SOL    HW131190   0.974   3.246   6.426 -1.5519  1.2931  0.9506
 6519SOL    HW231191   0.989   3.378   6.372 -2.2773  1.4150  1.1734
 6520SOL     OW31192   4.012   1.334   5.554  0.3541 -0.5556  0.0688
 6520SOL    HW131193   3.949   1.362   5.488  1.6248 -0.4950 -1.1162
 6520SOL    HW231194   4.062   1.413   5.572 -1.2375  0.5356 -0.2987
 6521SOL     OW31195   3.232   3.602   4.739 -0.8804 -1.0326 -0.0789
 6521SOL    HW131196   3.280   3.578   4.818  1.5616  2.4513 -0.5092
 6521SOL    HW231197   3.306   3.649   4.701 -0.1610 -1.8978  0.2477
 6522SOL     OW31198   4.671   3.630   3.414 -0.3075 -0.3504  0.0722
 6522SOL    HW131199   0.012   3.634   3.468 -0.0190 -0.4343 -0.3384
 6522SOL    HW231200   4.637   3.719   3.411 -2.0273 -1.0048  0.3040
 6523SOL     OW31201   2.943   2.783   7.884 -0.8222 -0.0196 -0.1451
 6523SOL    HW131202   2.934   2.878   7.874  3.3726  0.5057  1.1714
 6523SOL    HW231203   3.011   2.784   7.950 -0.0300 -2.6946 -0.9277
 6524SOL     OW31204   2.219   4.363   3.714  0.5553 -0.1056 -0.2503
 6524SOL    HW131205   2.211   4.268   3.723 -1.6581  0.1925  0.9542
 6524SOL    HW231206   2.200   4.393   3.803 -0.5681  0.8438 -0.8098
 6525SOL     OW31207   4.215   2.125   2.680 -0.2779  0.0352  0.4653
 6525SOL    HW131208   4.264   2.084   2.608  1.3243  2.3151  0.2551
 6525SOL    HW231209   4.127   2.139   2.647 -0.0749  0.0818 -0.0631
 6526SOL     OW31210   2.952   3.968   7.130 -0.1278  0.2058  0.3086
 6526SOL    HW131211   2.955   3.938   7.040 -0.8513 -0.8947  0.6545
 6526SOL    HW231212   3.017   4.037   7.126 -1.5798  1.4687 -1.4372
 6527SOL     OW31213   2.678   3.444   7.295  0.7523 -0.8203  0.3406
 6527SOL    HW131214   2.712   3.371   7.347 -0.2837 -0.7727  1.0673
 6527SOL    HW231215   2.591   3.409   7.279  1.4711 -1.8746 -1.3488
 6528SOL     OW31216   1.578   3.047   3.422  0.1548  0.1820 -0.5668
 6528SOL    HW131217   1.622   3.061   3.338  0.7777 -0.3059 -0.3219
 6528SOL    HW231218   1.566   2.952   3.430 -2.7843  0.6004  0.1518
 6529SOL     OW31219   1.430   1.540   7.689  0.5894 -1.0038 -0.1395
 6529SOL    HW131220   1.396   1.608   7.746  0.8503 -0.5016 -0.5856
 6529SOL    HW231221   1.492   1.490   7.743  2.8972  1.0596 -0.8837
 6530SOL     OW31222   0.813   1.705   6.276  0.6625 -0.3081 -0.0785
 6530SOL    HW131223   0.768   1.662   6.204 -1.0866 -0.2416  0.9881
 6530SOL    HW231224   0.893   1.654   6.290  0.5003 -0.7235 -0.6552
 6531SOL     OW31225   3.179   0.075  16.509 -0.0571  0.1854  0.7043
 6531SOL    HW131226   3.174   0.038  16.420  2.6926 -1.3190  1.1778
 6531SOL    HW231227   3.269   0.105  16.508 -0.4197  1.2789 -1.7726
 6532SOL     OW31228   4.071   1.526  17.302 -0.3466  0.5291 -0.4392
 6532SOL    HW131229   4.073   1.615  17.336  2.5536  0.3860 -0.2569
 6532SOL    HW231230   4.014   1.473  17.359  1.6889 -0.7265  0.4426
 6533SOL     OW31231   2.577   3.902   1.911 -0.2613 -0.1436  0.2989
 6533SOL    HW131232   2.485   3.883   1.895  0.0591 -0.0387 -1.6132
 6533SOL    HW231233   2.616   3.827   1.866  1.7484 -0.5324  2.6650
 6534SOL     OW31234   2.145   4.679   4.743 -0.0298 -0.4878  0.3855
 6534SOL    HW131235   2.162   4.618   4.815  2.0915 -1.2620 -0.7570
 6534SOL    HW231236   2.117   4.622   4.672  0.0538  1.7822 -1.4840
 6535SOL     OW31237   0.375   1.239   7.540  0.3823 -0.2877 -0.7271
 6535SOL    HW131238   0.433   1.178   7.586 -0.1871 -0.0292  0.3166
 6535SOL    HW231239   0.314   1.253   7.611 -0.8778  1.5644 -2.1753
 6536SOL     OW31240   4.103   2.842   3.652  0.1027  0.2940 -0.2324
 6536SOL    HW131241   4.033   2.785   3.619  1.4438 -2.2515  1.3632
 6536SOL    HW231242   4.144   2.864   3.568 -1.5978 -0.3915 -1.2439
 6537SOL     OW31243   2.007   0.965   7.372 -0.0985 -0.5793  1.0156
 6537SOL    HW131244   2.059   1.009   7.440  2.4730 -1.2494 -0.5310
 6537SOL    HW231245   2.065   0.893   7.346  0.2298 -0.6124  1.8145
 6538SOL     OW31246   3.438   4.153   2.486 -0.6082  0.1466 -0.0766
 6538SOL    HW131247   3.426   4.248   2.498 -0.0500 -0.1863  3.2130
 6538SOL    HW231248   3.512   4.150   2.426 -1.1069  0.2681 -0.6935
 6539SOL     OW31249   0.292   1.712   8.126  0.1330 -0.8765  0.2818
 6539SOL    HW131250   0.304   1.683   8.217 -1.5053 -3.2379 -0.2402
 6539SOL    HW231251   0.212   1.764   8.128 -0.6593 -2.1292  1.3595
 6540SOL     OW31252   3.680   1.698   6.403  0.3115 -0.1771 -0.0296
 6540SOL    HW131253   3.745   1.670   6.467 -0.0706 -0.0179  0.4258
 6540SOL    HW231254   3.696   1.626   6.342  0.2939  0.1552 -0.4226
 6541SOL     OW31255   1.423   3.677   0.138 -0.5803 -0.2619  0.1811
 6541SOL    HW131256   1.464   3.630   0.065 -2.1586  0.7645 -1.3613
 6541SOL    HW231257   1.490   3.660   0.204 -0.4545  1.1647  0.4243
 6542SOL     OW31258   1.432   1.447   3.017  0.1914 -0.6676  0.4051
 6542SOL    HW131259   1.359   1.386   3.008  0.6797 -1.0606 -0.9573
 6542SOL    HW231260   1.464   1.438   2.927  1.9708  1.6536  0.8215
 6543SOL     OW31261   3.722   2.532  14.162 -0.4296  0.3441  0.7667
 6543SOL    HW131262   3.814   2.558  14.168 -0.4594  0.4044  0.9558
 6543SOL    HW231263   3.681   2.599  14.107  3.1280 -0.1032 -2.4795
 6544SOL     OW31264   4.433   1.097  14.244 -0.6961  0.2601  0.1668
 6544SOL    HW131265   4.528   1.104  14.238 -0.7739  1.5084  0.5978
 6544SOL    HW231266   4.411   1.190  14.237  0.2360  0.3260 -1.9153
 6545SOL     OW31267   3.243   4.638  17.491  0.0214 -0.3556  0.7277
 6545SOL    HW131268   3.232   4.542  17.488 -0.1033 -0.3373  0.6197
 6545SOL    HW231269   3.272   4.647  17.400 -2.1552 -2.9735 -0.2355
 6546SOL     OW31270   1.740   3.933   7.230 -0.7921 -0.4377 -0.1454
 6546SOL    HW131271   1.656   3.889   7.244 -1.0442 -0.1345 -0.7268
 6546SOL    HW231272   1.793   3.877   7.287 -0.0275 -0.7682 -1.1960
 6547SOL     OW31273   2.510   2.476  14.831 -0.2162  0.0299 -0.1825
 6547SOL    HW131274   2.585   2.463  14.772 -0.9568  0.4925 -1.2289
 6547SOL    HW231275   2.558   2.528  14.895 -0.6230 -1.4306  1.3248
 6548SOL     OW31276   2.949   0.171   6.095 -0.3348 -0.0794 -0.2096
 6548SOL    HW131277   2.998   0.089   6.086 -0.1161  0.1574 -1.1135
 6548SOL    HW231278   2.963   0.183   6.189  0.8421  1.3765 -0.5830
 6549SOL     OW31279   2.347   4.200  11.129  0.0814  0.7564 -0.0315
 6549SOL    HW131280   2.253   4.215  11.139  0.0441 -0.0160  0.8643
 6549SOL    HW231281   2.351   4.110  11.162 -0.0656  0.0052 -2.1046
 6550SOL     OW31282   1.260   0.283   7.099 -0.0037 -0.1815 -0.2604
 6550SOL    HW131283   1.236   0.194   7.073 -0.3824 -0.7689  2.1364
 6550SOL    HW231284   1.270   0.328   7.015  2.2610  0.5478  0.4095
 6551SOL     OW31285   3.332   3.257   9.217  0.0125 -0.0836 -0.5191
 6551SOL    HW131286   3.277   3.180   9.236 -0.5334  0.6305  0.8407
 6551SOL    HW231287   3.351   3.281   9.308  3.6280 -0.1824 -1.2671
 6552SOL     OW31288   0.271   4.437   6.069 -0.6824 -0.3583 -0.0013
 6552SOL    HW131289   0.179   4.429   6.094 -1.1728 -0.3202 -1.8247
 6552SOL    HW231290   0.264   4.489   5.989 -1.5241 -0.3300  0.0980
 6553SOL     OW31291   1.085   3.991   1.809 -0.4413  0.0263 -0.0324
 6553SOL    HW131292   1.093   4.035   1.894  0.1408 -0.0745 -0.0363
 6553SOL    HW231293   1.107   3.900   1.832 -0.6871 -0.1423 -0.4642
 6554SOL     OW31294   4.095   2.637   4.178 -0.1978  0.1617  0.3895
 6554SOL    HW131295   4.136   2.625   4.264 -0.6586 -1.5148  0.3712
 6554SOL    HW231296   4.077   2.549   4.146 -2.1447 -0.1574  2.3684
 6555SOL     OW31297   0.570   3.857   5.912  0.1724 -0.3104 -0.6872
 6555SOL    HW131298   0.516   3.782   5.886 -0.0823 -0.6801  0.9023
 6555SOL    HW231299   0.655   3.814   5.918 -0.3369 -1.7341 -3.6747
 6556SOL     OW31300   2.065   2.687   4.518 -0.1609 -0.3450 -0.1942
 6556SOL    HW131301   2.030   2.601   4.495 -3.2898  0.4886  1.3439
 6556SOL    HW231302   2.008   2.721   4.588  1.6610  0.2419  1.0120
 6557SOL     OW31303   1.345   0.111   4.344  0.4067 -0.1499 -0.1012
 6557SOL    HW131304   1.389   0.138   4.424 -0.3342 -0.4612  0.4180
 6557SOL    HW231305   1.261   0.100   4.389  0.8090 -2.5114  0.0842
 6558SOL     OW31306   2.324   3.898   1.821  0.6513 -0.3786  0.4699
 6558SOL    HW131307   2.347   3.982   1.781 -0.7759 -0.2741 -0.1655
 6558SOL    HW231308   2.267   3.859   1.754 -1.9713  1.3690  1.6973
 6559SOL     OW31309   1.192   3.050   2.365  0.3605 -0.1926  0.2716
 6559SOL    HW131310   1.204   3.139   2.332 -2.0726 -1.2143 -3.3870
 6559SOL    HW231311   1.244   3.049   2.446  0.6527 -1.6234  0.0726
 6560SOL     OW31312   0.706   1.158   1.803 -0.0709  0.2047 -0.2165
 6560SOL    HW131313   0.630   1.175   1.858  0.3367  2.1015 -0.2288
 6560SOL    HW231314   0.774   1.191   1.862 -1.5955  1.7147  0.6991
 6561SOL     OW31315   2.608   2.889   2.081  0.3288 -0.4314  0.2186
 6561SOL    HW131316   2.575   2.891   2.171  1.0530  1.1931  0.4498
 6561SOL    HW231317   2.528   2.859   2.040  0.1468  0.2351  0.0829
 6562SOL     OW31318   0.634   1.186   8.288 -0.2643  0.0463 -0.2981
 6562SOL    HW131319   0.605   1.260   8.234 -2.8927  0.3454  1.5634
 6562SOL    HW231320   0.726   1.209   8.305 -0.4794  0.4647  0.2932
 6563SOL     OW31321   1.653   4.053   5.701 -0.1265  0.0815  0.5781
 6563SOL    HW131322   1.678   4.133   5.746  2.3457  0.6796 -1.8555
 6563SOL    HW231323   1.559   4.042   5.719 -0.3691 -2.8823 -2.4105
 6564SOL     OW31324   3.232   2.509   8.751 -0.1940 -0.0957  0.2743
 6564SOL    HW131325   3.276   2.584   8.790 -4.3021  1.1163  2.5230
 6564SOL    HW231326   3.269   2.510   8.663 -0.6300  0.7014  0.1042
 6565SOL     OW31327   4.486   2.422   3.894  0.1845  0.5084  0.2219
 6565SOL    HW131328   4.511   2.390   3.980  1.6189  3.1671  0.7873
 6565SOL    HW231329   4.433   2.500   3.908 -0.4681  0.0490  0.3053
 6566SOL     OW31330   2.249   1.725   2.372  0.6721 -0.6133  0.7473
 6566SOL    HW131331   2.252   1.769   2.287  0.0179 -2.1863 -0.1016
 6566SOL    HW231332   2.232   1.795   2.435 -0.6692  1.4932 -1.9353
 6567SOL     OW31333   1.137   0.204  17.737 -0.7049 -0.0382  0.2535
 6567SOL    HW131334   1.147   0.110   0.002 -0.9081 -0.2254 -1.0690
 6567SOL    HW231335   1.228   0.221  17.713 -0.6244 -1.9221 -0.7886
 6568SOL     OW31336   2.665   2.937   1.697  1.0250 -1.0382  0.0327
 6568SOL    HW131337   2.573   2.938   1.671  1.0315  1.2787  0.0449
 6568SOL    HW231338   2.663   2.986   1.779 -0.3217 -0.1344 -0.5460
 6569SOL     OW31339   2.628   1.082   7.925 -0.0928 -0.4256  0.4295
 6569SOL    HW131340   2.563   1.130   7.976  0.9256  0.7464  0.6276
 6569SOL    HW231341   2.703   1.106   7.979 -0.4965 -0.9426  1.2112
 6570SOL     OW31342   2.436   2.739   2.899 -0.2148 -1.0559 -0.6220
 6570SOL    HW131343   2.393   2.799   2.960 -1.7342  0.2088 -2.9423
 6570SOL    HW231344   2.473   2.672   2.957 -3.2607 -1.5876  0.6938
 6571SOL     OW31345   1.881   0.891   5.160 -0.8250  0.6369  0.4310
 6571SOL    HW131346   1.896   0.933   5.245 -0.0906 -0.1936  0.7173
 6571SOL    HW231347   1.817   0.825   5.187 -0.0433  0.2066  1.2750
 6572SOL     OW31348   0.621   4.652   2.082 -0.3535 -0.3166  0.1103
 6572SOL    HW131349   0.649   0.004   2.060  0.8865 -0.5213  0.8607
 6572SOL    HW231350   0.652   4.656   2.172  2.2099 -2.2304 -0.6774
 6573SOL     OW31351   3.354   0.267   0.037 -0.0976 -0.2897  0.0840
 6573SOL    HW131352   3.340   0.318   0.117 -1.2564  0.2647 -0.4741
 6573SOL    HW231353   3.450   0.263   0.038 -0.1110  0.0244  2.3907
 6574SOL     OW31354   4.256   2.659  15.145  0.1545 -0.0945  0.0174
 6574SOL    HW131355   4.294   2.653  15.057  1.0536 -0.3172  0.4195
 6574SOL    HW231356   4.182   2.713  15.117  0.8920 -0.7463 -3.2507
 6575SOL     OW31357   2.677   1.309   5.153  0.2285 -0.2656 -0.4275
 6575SOL    HW131358   2.684   1.328   5.059  2.2560 -0.6118 -0.3457
 6575SOL    HW231359   2.699   1.392   5.194  0.4673 -0.3505 -0.3844
 6576SOL     OW31360   1.062   3.004   1.316  0.2455 -0.3523 -0.5025
 6576SOL    HW131361   1.053   2.952   1.396 -3.3764 -1.2883 -1.5047
 6576SOL    HW231362   1.155   2.991   1.297  0.6540  0.5326  0.8825
 6577SOL     OW31363   2.038   4.292   0.236 -0.2216 -0.4193 -0.5630
 6577SOL    HW131364   2.046   4.378   0.193 -0.4550 -0.5390 -0.8407
 6577SOL    HW231365   1.946   4.299   0.261 -0.2492 -0.6244 -0.6148
 6578SOL     OW31366   1.176   3.054   1.899 -0.2768  0.0500 -0.5575
 6578SOL    HW131367   1.097   3.000   1.899  1.5438 -2.5458 -2.1673
 6578SOL    HW231368   1.187   3.078   1.807 -1.1047 -0.1569 -0.7174
 6579SOL     OW31369   2.493   3.278   5.935  0.0304  0.1188  0.5119
 6579SOL    HW131370   2.481   3.349   5.873  1.8822 -0.4721 -0.5384
 6579SOL    HW231371   2.417   3.222   5.918 -0.9312  1.1612  1.3630
 6580SOL     OW31372   4.174   3.198  14.785  0.1372 -0.0594 -0.1296
 6580SOL    HW131373   4.180   3.103  14.775  3.1694  0.1938 -0.6859
 6580SOL    HW231374   4.260   3.226  14.815 -0.5481  0.3774  1.4456
 6581SOL     OW31375   3.177   0.079  17.712  0.9508 -0.1542 -0.1678
 6581SOL    HW131376   3.210   0.056  17.626  1.3537  1.9593 -0.5788
 6581SOL    HW231377   3.242   0.142  17.743  1.2695 -1.5534  2.0058
 6582SOL     OW31378   1.531   1.687   7.468 -0.3293  0.1798  0.1090
 6582SOL    HW131379   1.466   1.651   7.407 -1.4055 -1.4926  2.2775
 6582SOL    HW231380   1.504   1.642   7.547  0.6144 -2.0922 -0.8573
 6583SOL     OW31381   1.224   2.426  17.061  0.1262  0.1556 -0.2461
 6583SOL    HW131382   1.153   2.363  17.069 -0.2954  0.6463 -0.0876
 6583SOL    HW231383   1.214   2.441  16.967 -1.2691 -1.9610 -0.4470
 6584SOL     OW31384   3.749   1.146   3.540 -0.2908 -0.0163 -0.4090
 6584SOL    HW131385   3.844   1.157   3.544 -0.5805  1.2744  2.9944
 6584SOL    HW231386   3.723   1.137   3.632 -2.0916  3.5077 -0.5624
 6585SOL     OW31387   3.581   3.305  10.335  0.5665 -0.1672 -0.5063
 6585SOL    HW131388   3.549   3.340  10.418  3.8374  0.3727  0.5457
 6585SOL    HW231389   3.671   3.339  10.334  0.6258 -0.3215 -0.5306
 6586SOL     OW31390   1.353   4.376   9.974 -0.1442 -0.4844  0.4344
 6586SOL    HW131391   1.336   4.283   9.984 -0.4990 -0.0620  3.8330
 6586SOL    HW231392   1.448   4.383   9.967 -0.0300 -0.3983  2.2047
 6587SOL     OW31393   0.799   3.151   7.306  0.4671  0.2465  0.2640
 6587SOL    HW131394   0.890   3.120   7.301  0.2723  0.1255 -2.7068
 6587SOL    HW231395   0.789   3.191   7.392 -0.4434  0.7121 -0.0602
 6588SOL     OW31396   0.086   3.886  15.136  0.3597  0.2734  0.1399
 6588SOL    HW131397   0.053   3.850  15.218  0.0736 -2.4891 -1.2166
 6588SOL    HW231398   0.003   3.893  15.089  0.9456  1.4096 -0.7053
 6589SOL     OW31399   4.493   0.647   7.074 -0.5063 -0.3911  0.0868
 6589SOL    HW131400   4.468   0.558   7.050 -0.7647 -0.3281  0.1147
 6589SOL    HW231401   4.532   0.680   6.994 -0.0836  1.3418  0.9939
 6590SOL     OW31402   4.162   2.688   1.879 -0.3614  0.1571 -0.1202
 6590SOL    HW131403   4.233   2.674   1.942 -1.1994  1.2755  1.0721
 6590SOL    HW231404   4.211   2.684   1.797 -0.3232  2.7495 -0.2145
 6591SOL     OW31405   0.887   2.850   9.360 -0.0471 -0.0185 -0.0855
 6591SOL    HW131406   0.828   2.789   9.403  1.0148 -0.3632  0.8907
 6591SOL    HW231407   0.838   2.932   9.370 -1.5834 -0.8078 -1.2247
 6592SOL     OW31408   3.353   1.648  15.160 -0.7844  0.4742  0.0552
 6592SOL    HW131409   3.355   1.614  15.070 -2.3637 -0.9551  0.5595
 6592SOL    HW231410   3.283   1.709  15.136 -1.7592 -0.6788 -0.0515
 6593SOL     OW31411   4.598   3.519  10.018  1.3596 -0.0558  0.5062
 6593SOL    HW131412   4.685   3.556  10.003  0.5460  1.2373 -1.0430
 6593SOL    HW231413   4.626   3.434  10.052  0.1148 -1.6308 -2.4539
 6594SOL     OW31414   2.205   2.917  15.966 -0.1939  0.2274 -0.6097
 6594SOL    HW131415   2.280   2.957  15.921  0.7953 -1.1052 -0.1526
 6594SOL    HW231416   2.243   2.904  16.053 -2.9528 -0.5749  0.4815
 6595SOL     OW31417   4.389   3.180  11.380  0.1079 -0.4115 -0.5227
 6595SOL    HW131418   4.441   3.170  11.300  3.1333  0.6363  1.2990
 6595SOL    HW231419   4.316   3.126  11.349 -2.2710  2.8881 -0.6433
 6596SOL     OW31420   4.655   4.528   3.059 -0.4838 -0.0544 -0.6103
 6596SOL    HW131421   4.617   4.597   3.005 -0.9274 -0.6369 -1.0501
 6596SOL    HW231422   4.611   4.445   3.039 -1.3046 -0.3015  2.1434
 6597SOL     OW31423   4.027   1.618  10.164 -0.2634 -0.6223 -0.4745
 6597SOL    HW131424   4.071   1.695  10.200 -0.2716 -0.2127 -1.3410
 6597SOL    HW231425   3.949   1.664  10.133 -0.2579 -0.7691 -0.7033
 6598SOL     OW31426   1.550   0.455   4.495 -0.2067 -0.6465  0.2973
 6598SOL    HW131427   1.638   0.488   4.508  0.4935 -1.2029 -2.9930
 6598SOL    HW231428   1.499   0.530   4.527 -0.0982  0.2955 -1.7163
 6599SOL     OW31429   1.073   4.133   2.586  0.3438  0.3314 -0.3509
 6599SOL    HW131430   0.990   4.102   2.550 -0.0768  2.0372 -0.8218
 6599SOL    HW231431   1.119   4.051   2.605 -0.1111 -0.0801 -1.0451
 6600SOL     OW31432   1.978   0.953  10.917 -0.3236 -0.1072 -0.3442
 6600SOL    HW131433   2.041   0.909  10.974  1.3079  2.1160 -0.4701
 6600SOL    HW231434   1.997   1.041  10.950 -1.0550 -0.5670  1.3192
 6601SOL     OW31435   0.558   2.568   6.291  0.5114  0.1508  0.0808
 6601SOL    HW131436   0.499   2.498   6.263  2.3149 -1.4846  0.3325
 6601SOL    HW231437   0.592   2.589   6.204  0.5817  0.4980  0.1922
 6602SOL     OW31438   1.652   0.455   8.413 -0.2999  0.2328  0.0578
 6602SOL    HW131439   1.726   0.404   8.446  0.1006  2.2728  2.3179
 6602SOL    HW231440   1.680   0.536   8.455 -2.1000 -0.2045  2.0714
 6603SOL     OW31441   2.532   1.034  15.688  0.2044 -0.1790  0.5231
 6603SOL    HW131442   2.572   1.054  15.603  0.7076 -2.1790  0.3062
 6603SOL    HW231443   2.441   1.012  15.666  0.0177  1.9267 -0.8488
 6604SOL     OW31444   0.827   3.468   4.494 -0.4166  0.1837 -0.6686
 6604SOL    HW131445   0.821   3.560   4.519  0.1189  0.1000 -0.2429
 6604SOL    HW231446   0.833   3.478   4.399  2.6281 -0.8041 -0.5840
 6605SOL     OW31447   3.032   2.657   0.363 -0.3927 -0.8497 -0.2354
 6605SOL    HW131448   3.117   2.695   0.340 -1.4818  0.1511 -2.5736
 6605SOL    HW231449   2.975   2.670   0.288 -0.3558 -1.8772 -0.4400
 6606SOL     OW31450   4.511   0.247   2.935  0.5345  0.1754  0.0779
 6606SOL    HW131451   4.483   0.339   2.936  2.4062  0.7140  3.3586
 6606SOL    HW231452   4.533   0.225   3.026 -2.2936  0.5560  0.8534
 6607SOL     OW31453   1.176   0.555   7.862  0.1261  0.4209 -0.1656
 6607SOL    HW131454   1.113   0.610   7.908  0.9066  2.9654 -2.1610
 6607SOL    HW231455   1.210   0.496   7.930  3.1470  1.3489 -0.8593
 6608SOL     OW31456   0.826   3.999   2.774  0.5204  1.0619  0.2334
 6608SOL    HW131457   0.880   3.930   2.735 -1.1550 -0.1140  0.0201
 6608SOL    HW231458   0.796   4.047   2.696 -0.6497  1.0985  0.7219
 6609SOL     OW31459   0.285   1.121   3.459  0.0527 -0.3721  0.8262
 6609SOL    HW131460   0.312   1.035   3.428  2.5308  0.2197  1.2898
 6609SOL    HW231461   0.276   1.114   3.554 -0.5565  3.2190  1.0544
 6610SOL     OW31462   4.153   2.115   3.672 -0.0233  0.1982  0.2131
 6610SOL    HW131463   4.174   2.207   3.688 -0.0266  0.7628 -2.9121
 6610SOL    HW231464   4.193   2.082   3.591 -1.3466  1.9740 -1.1755
 6611SOL     OW31465   4.586   0.586   2.084 -0.8508  0.2159 -0.4129
 6611SOL    HW131466   4.544   0.548   2.007  0.5369 -0.4114 -0.8532
 6611SOL    HW231467   4.526   0.561   2.154  0.3012  1.7946  1.1265
 6612SOL     OW31468   0.819   0.604   0.753 -0.2344  0.1148 -0.3712
 6612SOL    HW131469   0.809   0.589   0.658  0.6700  0.3605 -0.5063
 6612SOL    HW231470   0.774   0.687   0.765 -0.0510 -0.2832  2.9589
 6613SOL     OW31471   0.658   2.684   7.104  0.0718 -0.3358  0.1949
 6613SOL    HW131472   0.621   2.772   7.117  1.2049  0.4434 -1.8470
 6613SOL    HW231473   0.587   2.624   7.083  0.1943 -0.6809  0.7655
 6614SOL     OW31474   1.838   1.760   1.412  0.0830  0.0476  0.6466
 6614SOL    HW131475   1.881   1.740   1.495 -0.2571 -2.7682  0.1414
 6614SOL    HW231476   1.757   1.709   1.415 -0.0869  0.3543  1.4163
 6615SOL     OW31477   3.757   3.417  10.896  0.2269  0.0496 -0.4060
 6615SOL    HW131478   3.664   3.395  10.906  0.5134 -1.1520 -0.4161
 6615SOL    HW231479   3.800   3.333  10.878 -0.5812 -0.6399  0.8251
 6616SOL     OW31480   4.335   2.376  10.749 -0.1444  0.1465  0.4167
 6616SOL    HW131481   4.289   2.293  10.759  2.3198 -0.9467  2.5499
 6616SOL    HW231482   4.271   2.447  10.757 -0.6645 -0.3383  0.5745
 6617SOL     OW31483   2.960   3.414  17.646  0.8524 -0.0187 -0.2264
 6617SOL    HW131484   2.987   3.407  17.554 -0.6924 -0.1196 -0.6645
 6617SOL    HW231485   2.893   3.482  17.647  1.4915  0.6009  0.3650
 6618SOL     OW31486   0.260   1.217   5.596 -0.6098 -0.2071  0.3109
 6618SOL    HW131487   0.280   1.135   5.551 -0.3630  0.0622 -0.0768
 6618SOL    HW231488   0.199   1.186   5.663  0.3008  2.8526  2.5681
 6619SOL     OW31489   2.728   1.775   4.220  0.0442  0.2582 -0.3669
 6619SOL    HW131490   2.642   1.733   4.229 -0.0363  0.6838  0.8353
 6619SOL    HW231491   2.744   1.821   4.302  0.3877 -1.4562  0.5354
 6620SOL     OW31492   0.460   1.659  14.335  0.4782  0.0525  0.0863
 6620SOL    HW131493   0.502   1.572  14.337 -1.4942 -0.9043 -0.4808
 6620SOL    HW231494   0.529   1.701  14.284 -0.6320  3.1622  1.1855
 6621SOL     OW31495   1.093   4.069   9.018  0.1920  0.4057  0.0597
 6621SOL    HW131496   1.138   4.142   9.061  0.0197  2.1300 -2.7233
 6621SOL    HW231497   1.143   3.993   9.049  1.0437  0.6266 -0.7599
 6622SOL     OW31498   0.722   1.162  17.548 -0.3802  0.2990 -0.5127
 6622SOL    HW131499   0.766   1.231  17.597 -2.4345  0.7790  0.6792
 6622SOL    HW231500   0.636   1.191  17.577  0.2114  0.4775  1.0304
 6623SOL     OW31501   1.286   0.781  10.505  0.3393  0.0266 -0.3149
 6623SOL    HW131502   1.283   0.736  10.421  1.9888 -0.6692  0.0054
 6623SOL    HW231503   1.334   0.862  10.487  2.0676 -1.3352 -1.7974
 6624SOL     OW31504   0.453   3.667   3.116  0.3908  0.7983  0.0587
 6624SOL    HW131505   0.360   3.679   3.096  0.3438 -0.3838 -0.4971
 6624SOL    HW231506   0.492   3.665   3.028  0.5443 -1.4749  0.1689
 6625SOL     OW31507   4.650   0.483   4.487  0.1452 -0.6005  0.2745
 6625SOL    HW131508   4.591   0.487   4.562 -2.1628 -0.1711 -1.5599
 6625SOL    HW231509   4.666   0.389   4.495  0.8783 -0.4450  0.5877
 6626SOL     OW31510   3.266   0.474   7.221  0.2650 -0.0180 -0.1223
 6626SOL    HW131511   3.329   0.536   7.185  0.8725 -0.8186 -0.4413
 6626SOL    HW231512   3.191   0.526   7.248 -0.7645 -2.2503  1.3854
 6627SOL     OW31513   4.521   1.563   9.074  0.6665 -0.2577 -0.6523
 6627SOL    HW131514   4.493   1.609   9.153 -3.3916  0.7003 -2.6258
 6627SOL    HW231515   4.523   1.639   9.015 -1.0517  0.7502  0.5830
 6628SOL     OW31516   4.058   4.620   7.202  0.2943  0.1119 -0.3221
 6628SOL    HW131517   4.046   4.584   7.290 -0.3680 -1.0810 -0.8882
 6628SOL    HW231518   4.055   4.532   7.164 -0.5527 -0.8825  1.9919
 6629SOL     OW31519   1.332   0.406  15.475  0.4315 -0.3076 -0.3368
 6629SOL    HW131520   1.274   0.382  15.548 -1.1365  2.3162 -0.7081
 6629SOL    HW231521   1.351   0.496  15.500  1.8204 -0.3300 -1.2986
 6630SOL     OW31522   2.525   2.985   4.170 -0.1466 -1.0746 -0.2841
 6630SOL    HW131523   2.473   2.933   4.109 -0.6492 -0.0353 -0.7421
 6630SOL    HW231524   2.466   2.975   4.244  1.6594 -0.3484  1.2603
 6631SOL     OW31525   2.657   0.260   2.145 -0.2514  0.5432 -0.3007
 6631SOL    HW131526   2.703   0.236   2.065  0.7068  0.0752  0.3848
 6631SOL    HW231527   2.608   0.340   2.130  0.4060  0.4028 -3.2454
 6632SOL     OW31528   4.566   3.206  16.888  0.0455  0.0467 -0.0392
 6632SOL    HW131529   4.586   3.184  16.797  0.8027 -0.0804  0.1553
 6632SOL    HW231530   4.613   3.132  16.928  2.2399  0.2295 -2.2656
 6633SOL     OW31531   2.699   3.491   6.681  0.1825 -0.0899  0.0000
 6633SOL    HW131532   2.606   3.480   6.704  0.4789 -0.9214  0.7847
 6633SOL    HW231533   2.687   3.520   6.591 -0.3406 -1.3483 -0.3345
 6634SOL     OW31534   2.914   3.665   7.872 -0.1107 -0.1055 -0.2262
 6634SOL    HW131535   2.998   3.687   7.913  0.9832 -0.4907 -2.2423
 6634SOL    HW231536   2.884   3.599   7.934 -0.8410  0.4673  0.0265
 6635SOL     OW31537   2.370   4.675   5.054  0.1063 -0.0212 -0.3918
 6635SOL    HW131538   2.300   4.685   5.120  1.3835 -0.1996  0.9910
 6635SOL    HW231539   2.351   4.595   5.005  1.2905 -1.5263  1.6053
 6636SOL     OW31540   4.535   2.411   5.949  0.3795 -0.1570  0.2259
 6636SOL    HW131541   4.536   2.507   5.939 -0.3426 -0.1135  0.5280
 6636SOL    HW231542   4.478   2.380   5.878  0.8110 -3.7192  1.4497
 6637SOL     OW31543   3.681   2.859   7.070  0.2699 -0.6044 -0.2082
 6637SOL    HW131544   3.588   2.872   7.089  0.7178  0.7539  1.0790
 6637SOL    HW231545   3.716   2.911   7.143 -0.5281  1.8314 -1.5549
 6638SOL     OW31546   1.086   4.312   2.240 -0.1644 -0.2488  0.3201
 6638SOL    HW131547   1.067   4.357   2.157 -2.3346  2.2221  2.1621
 6638SOL    HW231548   1.145   4.370   2.289  1.8072 -2.1717  0.1908
 6639SOL     OW31549   2.098   1.887   4.061  0.0568  0.1019  0.4927
 6639SOL    HW131550   2.028   1.947   4.037  0.0964 -0.6877 -1.5677
 6639SOL    HW231551   2.082   1.818   3.997  1.1658 -0.3647  0.7123
 6640SOL     OW31552   4.367   2.391   5.708 -0.1597  0.8173 -0.8895
 6640SOL    HW131553   4.299   2.455   5.730 -0.7645 -0.3301  0.5533
 6640SOL    HW231554   4.321   2.311   5.685  1.3568 -0.9680  2.1627
 6641SOL     OW31555   3.975   3.744   5.477  0.2336 -0.0853 -0.0956
 6641SOL    HW131556   4.020   3.697   5.547 -1.0789 -1.7872 -0.4035
 6641SOL    HW231557   3.896   3.692   5.467  0.1637 -0.8789  4.4719
 6642SOL     OW31558   1.860   4.155   3.342 -0.3107 -0.0642  0.1082
 6642SOL    HW131559   1.916   4.172   3.266 -1.1629  0.6915 -0.3369
 6642SOL    HW231560   1.861   4.061   3.360  2.3155 -0.1655 -0.5801
 6643SOL     OW31561   0.697   2.694  12.040  0.0785  0.1553 -0.2203
 6643SOL    HW131562   0.632   2.682  12.109  1.3036 -0.9502  0.7386
 6643SOL    HW231563   0.689   2.787  12.020  0.6149  0.4534  0.9347
 6644SOL     OW31564   0.926   0.787   7.297 -0.2012 -0.1880  0.4347
 6644SOL    HW131565   1.012   0.792   7.340  0.0470  0.0317 -0.0944
 6644SOL    HW231566   0.868   0.764   7.369  0.7931  0.0828  1.3282
 6645SOL     OW31567   1.291   3.155   0.011  0.2525  0.1741  0.2033
 6645SOL    HW131568   1.317   3.209  17.683  1.4035 -1.3994 -0.5324
 6645SOL    HW231569   1.279   3.070  17.715 -1.5286  0.7225 -0.3694
 6646SOL     OW31570   2.022   0.629   5.994 -0.3905 -0.5260 -0.1234
 6646SOL    HW131571   2.044   0.544   6.032  0.5218  0.5762  1.7826
 6646SOL    HW231572   2.082   0.693   6.032 -0.1081 -1.0350  0.2905
 6647SOL     OW31573   4.615   4.120  15.267 -0.3693  0.1312 -0.7757
 6647SOL    HW131574   4.587   4.041  15.220 -0.3108 -0.0936 -0.4342
 6647SOL    HW231575   4.700   4.128  15.224  0.1479 -3.3413 -0.4038
 6648SOL     OW31576   0.548   4.017   2.141  0.6785  0.4900 -0.4785
 6648SOL    HW131577   0.592   4.027   2.225 -0.6998  0.8488  0.1885
 6648SOL    HW231578   0.595   4.084   2.091  0.8709  1.7241  1.3758
 6649SOL     OW31579   2.793   3.002   2.293 -1.2055  0.2547 -0.0788
 6649SOL    HW131580   2.715   3.008   2.238 -1.4899  1.5625  0.4737
 6649SOL    HW231581   2.786   3.070   2.360 -1.2076 -0.4780  0.6555
 6650SOL     OW31582   1.585   0.807   5.729  0.4775  0.2185  0.1158
 6650SOL    HW131583   1.559   0.717   5.747 -2.7444  1.0226 -0.4422
 6650SOL    HW231584   1.657   0.803   5.666  0.0886  0.5038 -0.3507
 6651SOL     OW31585   4.391   0.813   9.532 -0.5725 -0.6302 -0.5152
 6651SOL    HW131586   4.466   0.763   9.500 -1.0966 -1.3775 -0.5629
 6651SOL    HW231587   4.408   0.806   9.626 -2.3127  2.3451  0.0131
 6652SOL     OW31588   2.908   2.870   9.823  0.0522 -0.1976  0.1793
 6652SOL    HW131589   2.999   2.842   9.832  0.0634  0.4948  2.4632
 6652SOL    HW231590   2.887   2.848   9.733 -1.8237  2.6895 -0.0752
 6653SOL     OW31591   3.511   2.353  13.574 -0.4226 -0.2237 -0.2146
 6653SOL    HW131592   3.519   2.288  13.643 -0.8653  0.8447  0.8403
 6653SOL    HW231593   3.596   2.361  13.530 -0.3279  1.3993  0.2392
 6654SOL     OW31594   3.759   1.148  10.766  0.0890 -0.3158  0.0844
 6654SOL    HW131595   3.800   1.107  10.690 -1.0828  0.0475 -0.7426
 6654SOL    HW231596   3.666   1.129  10.753 -0.1356 -0.4047  1.7567
 6655SOL     OW31597   4.655   3.742   7.926 -0.0087 -0.4348 -0.4210
 6655SOL    HW131598   4.630   3.738   8.019  0.5614  0.6269 -0.2228
 6655SOL    HW231599   4.570   3.731   7.884  0.0405  0.3013 -0.7091
 6656SOL     OW31600   3.452   3.979   3.778 -0.2814 -0.0616 -0.1563
 6656SOL    HW131601   3.423   3.892   3.805 -3.0864  0.6849 -0.7862
 6656SOL    HW231602   3.483   4.022   3.858  0.2472  0.3879 -0.6074
 6657SOL     OW31603   3.062   3.574   2.478 -0.4649 -0.7644 -0.4164
 6657SOL    HW131604   2.995   3.625   2.523  1.4193  2.3927 -1.1461
 6657SOL    HW231605   3.025   3.575   2.390 -0.1240 -0.3396 -0.5551
 6658SOL     OW31606   3.426   0.883   8.591 -0.7118  0.2723  0.3444
 6658SOL    HW131607   3.378   0.809   8.555  0.7612 -1.6008  2.2541
 6658SOL    HW231608   3.397   0.948   8.527 -2.5662 -1.0447 -0.1248
 6659SOL     OW31609   0.857   3.851  14.703  0.3868  0.3686  0.2117
 6659SOL    HW131610   0.894   3.938  14.690 -2.7385  1.5523 -0.5897
 6659SOL    HW231611   0.837   3.844  14.797  0.5419  0.8916  0.2811
 6660SOL     OW31612   2.634   2.327   1.515  0.0988 -0.2859  0.9813
 6660SOL    HW131613   2.656   2.236   1.493  0.9114 -0.7004  3.5772
 6660SOL    HW231614   2.621   2.358   1.425 -0.6162  0.6812  1.4251
 6661SOL     OW31615   1.957   4.536   7.783  0.3284  0.2005 -0.1447
 6661SOL    HW131616   1.899   4.493   7.720 -0.9145  0.7035  0.6648
 6661SOL    HW231617   1.959   4.626   7.751  0.1917  0.2828  0.0802
 6662SOL     OW31618   0.490   4.163   8.515  0.1118  0.3001  0.4331
 6662SOL    HW131619   0.470   4.109   8.439  0.1067  0.2302  0.4845
 6662SOL    HW231620   0.579   4.193   8.495  0.2978 -0.4566  0.1236
 6663SOL     OW31621   0.125   3.020  10.883  0.1821  0.3477 -0.2376
 6663SOL    HW131622   0.211   2.988  10.858 -0.0562  0.4827 -1.2513
 6663SOL    HW231623   0.098   3.091  10.824 -0.6135  0.8180  0.6830
 6664SOL     OW31624   0.527   1.056   6.549 -0.1111 -0.2149  1.0206
 6664SOL    HW131625   0.560   1.020   6.631  1.8328  0.5846  0.5843
 6664SOL    HW231626   0.462   1.116   6.586 -1.4231 -1.3699  0.5643
 6665SOL     OW31627   2.142   0.552  14.331  0.2961 -0.5326  0.1055
 6665SOL    HW131628   2.108   0.469  14.365  1.8604 -1.1330  0.2114
 6665SOL    HW231629   2.117   0.553  14.239  2.0382 -0.4373 -0.3612
 6666SOL     OW31630   2.204   1.536  10.848  0.6875 -0.1633 -0.1904
 6666SOL    HW131631   2.149   1.515  10.924  0.5515  0.2379 -0.1775
 6666SOL    HW231632   2.208   1.457  10.795 -0.7898 -0.0742 -0.4448
 6667SOL     OW31633   3.157   2.399  14.818  0.1585 -0.0643 -0.2696
 6667SOL    HW131634   3.178   2.480  14.771 -0.4168  0.3747  0.2257
 6667SOL    HW231635   3.227   2.340  14.789  0.6997  1.1329 -1.3810
 6668SOL     OW31636   3.665   2.086   2.496 -0.2009  0.8755 -0.3641
 6668SOL    HW131637   3.587   2.140   2.484 -0.8036  0.1038  0.1253
 6668SOL    HW231638   3.678   2.055   2.406 -0.0874 -0.4194  0.1099
 6669SOL     OW31639   0.822   1.249   6.696 -0.3033  0.0153  0.0917
 6669SOL    HW131640   0.889   1.314   6.717  2.0704 -1.5285 -2.6939
 6669SOL    HW231641   0.839   1.241   6.602 -1.0877 -0.7646  0.0103
 6670SOL     OW31642   0.760   0.379  10.654  0.3679  0.7228 -0.5116
 6670SOL    HW131643   0.848   0.346  10.675 -0.2259 -0.7735 -0.3304
 6670SOL    HW231644   0.706   0.306  10.685  1.3881 -0.1583 -0.7786
 6671SOL     OW31645   0.314   4.612  16.306 -0.6622 -0.4134  0.2544
 6671SOL    HW131646   0.367   4.692  16.296 -2.3792  0.8269  1.1796
 6671SOL    HW231647   0.309   4.580  16.217  0.7586 -0.1977  0.0908
 6672SOL     OW31648   4.310   2.011  11.257 -0.1755  0.3462 -0.9887
 6672SOL    HW131649   4.320   2.089  11.312 -1.1139 -1.2477  1.4728
 6672SOL    HW231650   4.218   1.987  11.269  0.1817 -0.7079 -0.3717
 6673SOL     OW31651   1.821   2.797   3.675  0.0857 -0.3966 -0.8206
 6673SOL    HW131652   1.764   2.720   3.680  0.2243 -0.3184  2.2513
 6673SOL    HW231653   1.890   2.758   3.621  2.5771  1.7713  0.7991
 6674SOL     OW31654   1.756   1.422   6.813  0.0214  0.3897 -1.3180
 6674SOL    HW131655   1.811   1.385   6.882 -1.2562 -1.8748 -1.5484
 6674SOL    HW231656   1.667   1.413   6.846 -0.0865 -1.3516 -2.1172
 6675SOL     OW31657   0.571   2.080  11.210 -1.0837  0.0098  0.7472
 6675SOL    HW131658   0.648   2.025  11.197 -0.9342  0.5045 -0.4334
 6675SOL    HW231659   0.569   2.080  11.306  0.3433  0.6980  0.7658
 6676SOL     OW31660   0.556   4.487   6.488 -0.2432  1.0722  0.5549
 6676SOL    HW131661   0.624   4.473   6.423  0.3785  1.5610  1.1019
 6676SOL    HW231662   0.513   4.567   6.459 -2.4625 -0.3482 -0.0878
 6677SOL     OW31663   1.931   3.156   5.569 -0.0478 -0.0023  0.3882
 6677SOL    HW131664   1.951   3.068   5.600 -1.0772 -0.8697 -1.4275
 6677SOL    HW231665   1.839   3.145   5.543  0.0102  2.3318 -0.8006
 6678SOL     OW31666   2.119   3.268   5.406  0.6272 -0.3761  0.6876
 6678SOL    HW131667   2.184   3.290   5.472  2.8662 -3.3497 -0.5365
 6678SOL    HW231668   2.043   3.238   5.456  0.0072  1.8838  1.1065
 6679SOL     OW31669   3.054   4.566   3.465  0.6286  0.1218  0.0039
 6679SOL    HW131670   3.148   4.556   3.455  0.5632 -0.6553  0.1432
 6679SOL    HW231671   3.014   4.512   3.396  0.3298  1.7168 -1.0757
 6680SOL     OW31672   1.383   3.541  17.287  0.1386 -0.2577  0.4139
 6680SOL    HW131673   1.382   3.625  17.334  0.8427  0.0539 -0.1197
 6680SOL    HW231674   1.302   3.499  17.314  0.4838 -0.1579  1.6046
 6681SOL     OW31675   3.674   3.253   2.705  0.4190  0.1205  0.4540
 6681SOL    HW131676   3.755   3.303   2.689  0.0895  0.2641 -0.7599
 6681SOL    HW231677   3.706   3.182   2.760 -1.1895 -1.3750 -0.5643
 6682SOL     OW31678   3.679   3.951   2.879  0.2435  0.1453  0.7444
 6682SOL    HW131679   3.715   4.038   2.865  0.3874  0.2148  1.5842
 6682SOL    HW231680   3.759   3.901   2.861  0.3306  0.2889  0.7368
 6683SOL     OW31681   4.732   0.860   9.615 -0.3430 -0.0832 -0.2833
 6683SOL    HW131682   0.072   0.891   9.568  0.0072 -0.8847 -0.2465
 6683SOL    HW231683   4.728   0.904   9.700 -0.6970  1.0554 -0.8895
 6684SOL     OW31684   2.653   4.136   7.822  0.3498 -0.2548  0.2937
 6684SOL    HW131685   2.709   4.145   7.745 -0.4403  1.2623 -0.0907
 6684SOL    HW231686   2.653   4.041   7.829 -0.1942 -0.3739 -1.5236
 6685SOL     OW31687   1.456   3.284  15.572  0.3311 -0.1759 -0.1710
 6685SOL    HW131688   1.499   3.218  15.519  2.1317  0.7951  0.0819
 6685SOL    HW231689   1.433   3.342  15.499 -3.3062 -1.6228 -0.1689
 6686SOL     OW31690   3.016   4.045   2.170 -0.2896 -0.0498 -0.1710
 6686SOL    HW131691   3.098   4.086   2.196  0.6406 -1.2468 -1.1942
 6686SOL    HW231692   2.951   4.093   2.221 -0.8092 -1.5057  0.5155
 6687SOL     OW31693   1.391   1.985   3.554 -0.4759 -0.0786  0.1866
 6687SOL    HW131694   1.361   1.895   3.567  1.2716 -0.3488  2.4107
 6687SOL    HW231695   1.448   1.995   3.631  1.2063  0.9228 -1.1902
 6688SOL     OW31696   4.112   4.233  16.373  0.1594 -0.0246 -0.3029
 6688SOL    HW131697   4.024   4.221  16.337  0.9487 -1.4182 -1.7637
 6688SOL    HW231698   4.088   4.221  16.465 -0.7943 -0.7242 -0.6468
 6689SOL     OW31699   1.227   2.376  10.812  0.3728 -0.4279 -0.4633
 6689SOL    HW131700   1.219   2.292  10.859 -0.2554 -0.7420 -1.1346
 6689SOL    HW231701   1.248   2.440  10.881  2.0252 -1.2982 -0.1530
 6690SOL     OW31702   2.747   1.950   5.142 -0.0836 -0.4653  0.2769
 6690SOL    HW131703   2.704   1.949   5.227 -0.7318  0.5451 -0.0259
 6690SOL    HW231704   2.815   1.885   5.160  0.4771  0.9654  3.3178
 6691SOL     OW31705   2.679   4.432   7.008  0.1625  0.5176 -0.3591
 6691SOL    HW131706   2.706   4.350   6.968  0.2472  1.4607 -2.2247
 6691SOL    HW231707   2.649   4.482   6.932 -1.2474  1.7071  0.9565
 6692SOL     OW31708   0.319   0.064   4.937 -0.6023  0.2657  0.6193
 6692SOL    HW131709   0.301   0.006   4.863  0.1355  1.2041 -0.3001
 6692SOL    HW231710   0.297   0.153   4.908  1.5218  0.3444 -0.7490
 6693SOL     OW31711   1.043   1.001   2.527 -0.1098 -0.0091 -0.1736
 6693SOL    HW131712   0.952   0.973   2.535 -0.4111  0.0766 -3.3699
 6693SOL    HW231713   1.088   0.937   2.473  3.9020  3.2015 -0.6061
 6694SOL     OW31714   4.287   0.006  13.155  0.0927  0.6831 -0.0731
 6694SOL    HW131715   4.236   4.720  13.232 -0.7518  0.4344 -0.7092
 6694SOL    HW231716   4.213   0.041  13.105 -1.8221 -0.2774  2.1031
 6695SOL     OW31717   3.927   4.396   6.602  0.3782  0.6711 -0.8400
 6695SOL    HW131718   3.977   4.445   6.668  0.6576  0.9034 -1.2249
 6695SOL    HW231719   3.923   4.313   6.648  1.1435  1.7375  1.1821
 6696SOL     OW31720   0.435   2.038   2.248 -0.4814  0.3300 -0.1465
 6696SOL    HW131721   0.357   1.982   2.244 -0.3261  0.0738  0.5156
 6696SOL    HW231722   0.478   1.992   2.320  1.4774 -0.2083 -1.6636
 6697SOL     OW31723   1.798   4.121   1.386  0.4998 -0.0504  0.4461
 6697SOL    HW131724   1.808   4.146   1.477 -2.1678 -1.2420  1.0668
 6697SOL    HW231725   1.714   4.075   1.396  0.2131  0.3425 -0.1519
 6698SOL     OW31726   2.292   3.361   0.438  0.7790 -0.4136 -0.1777
 6698SOL    HW131727   2.292   3.415   0.517 -1.1620 -0.2156 -0.3199
 6698SOL    HW231728   2.381   3.387   0.413  0.8244  0.8237  1.2566
 6699SOL     OW31729   3.623   3.980  11.248 -0.1010 -0.4521  0.0309
 6699SOL    HW131730   3.660   4.068  11.259 -1.2778 -0.0224  0.6394
 6699SOL    HW231731   3.547   3.988  11.306  1.8627 -1.3125  2.7292
 6700SOL     OW31732   2.006   3.666  14.821 -0.0266  0.6951 -0.0053
 6700SOL    HW131733   2.080   3.623  14.864 -0.5794  0.8797  1.1413
 6700SOL    HW231734   2.041   3.755  14.825  3.2106 -0.5051 -1.6843
 6701SOL     OW31735   1.903   0.970   6.532 -0.1244 -0.7405 -0.1065
 6701SOL    HW131736   1.886   1.058   6.566 -2.4948 -0.6590 -1.5185
 6701SOL    HW231737   1.814   0.938   6.518 -1.7687  3.2210  1.4925
 6702SOL     OW31738   3.802   3.090   9.247  0.2009 -0.1823  0.5305
 6702SOL    HW131739   3.738   3.149   9.285  0.5828  0.7719 -0.3142
 6702SOL    HW231740   3.776   3.089   9.155 -2.8033 -1.2805  1.4123
 6703SOL     OW31741   4.058   1.346   7.991 -0.4967  0.2354 -0.2281
 6703SOL    HW131742   4.108   1.392   7.924 -0.0489  0.2676  0.1281
 6703SOL    HW231743   4.102   1.261   7.982 -4.1075 -1.3707 -2.5745
 6704SOL     OW31744   4.190   3.746   1.800 -0.3217  0.4593 -0.1807
 6704SOL    HW131745   4.178   3.656   1.829  0.1465  1.2227  2.3650
 6704SOL    HW231746   4.120   3.790   1.847 -0.8691  1.3901 -1.8689
 6705SOL     OW31747   1.008   3.569  13.669 -0.2408 -0.0075 -0.1704
 6705SOL    HW131748   0.950   3.505  13.628 -3.2142  2.7835 -0.3068
 6705SOL    HW231749   1.094   3.526  13.670 -0.0413  0.3869 -0.3008
 6706SOL     OW31750   1.847   1.431   6.375  0.0178 -0.7925 -0.0620
 6706SOL    HW131751   1.838   1.407   6.282  1.4682 -0.4756 -0.2768
 6706SOL    HW231752   1.926   1.483   6.391  0.4201 -0.5029 -2.8509
 6707SOL     OW31753   4.413   0.494   7.417 -0.4136 -0.1147  0.1477
 6707SOL    HW131754   4.365   0.412   7.401 -1.6371  0.7022 -0.3511
 6707SOL    HW231755   4.494   0.460   7.379  0.6465 -0.1392  2.4706
 6708SOL     OW31756   4.490   2.644   6.633  0.5968 -0.3582 -0.1944
 6708SOL    HW131757   4.569   2.636   6.579  0.7218 -0.9729  0.0898
 6708SOL    HW231758   4.418   2.633   6.570  0.3763  1.0436 -0.2053
 6709SOL     OW31759   0.357   3.739  16.195 -0.7210 -0.3555  0.0509
 6709SOL    HW131760   0.266   3.711  16.185 -0.1395 -2.5903  0.9927
 6709SOL    HW231761   0.396   3.654  16.216 -1.8579 -0.8211  0.2825
 6710SOL     OW31762   2.054   2.380   2.391  0.1982 -0.1290  0.3310
 6710SOL    HW131763   1.962   2.351   2.389  0.5254 -1.1551 -0.2658
 6710SOL    HW231764   2.074   2.385   2.484 -0.9540  1.1342  0.5050
 6711SOL     OW31765   2.883   2.841   3.104 -0.9948 -0.2600 -0.4485
 6711SOL    HW131766   2.844   2.925   3.078 -0.6440  0.5969  1.7941
 6711SOL    HW231767   2.954   2.877   3.157 -1.2805 -0.9703  0.4087
 6712SOL     OW31768   3.340   1.560  12.352 -0.3166 -0.1779  0.2268
 6712SOL    HW131769   3.301   1.607  12.426 -1.3557  0.9531 -1.0359
 6712SOL    HW231770   3.366   1.474  12.386 -0.0119 -0.0292  0.3682
 6713SOL     OW31771   1.372   1.024   4.032 -0.3431 -0.2242  0.5482
 6713SOL    HW131772   1.315   1.094   3.999  0.1036  0.0952  0.4378
 6713SOL    HW231773   1.424   1.013   3.952 -0.8965  0.8539  0.0425
 6714SOL     OW31774   2.291   0.447   1.968 -0.3297 -0.1111 -0.2009
 6714SOL    HW131775   2.336   0.456   2.052 -1.3761 -1.0769  0.4545
 6714SOL    HW231776   2.218   0.386   1.971 -1.5285  1.3446  0.5100
 6715SOL     OW31777   1.477   2.917   2.855 -0.0021  0.3661 -0.2754
 6715SOL    HW131778   1.471   2.824   2.831  2.6350 -0.2731  1.4822
 6715SOL    HW231779   1.530   2.914   2.935 -0.1938 -3.6496 -0.2593
 6716SOL     OW31780   2.326   3.956  12.584  0.3171 -0.2652  0.2965
 6716SOL    HW131781   2.384   3.880  12.569  0.1479 -0.3522  0.0837
 6716SOL    HW231782   2.391   4.026  12.584  0.4530 -0.3971 -2.4049
 6717SOL     OW31783   0.918   0.003  16.234 -0.0441  0.1303 -0.6627
 6717SOL    HW131784   0.970   4.707  16.308  0.5627 -1.5562 -1.8549
 6717SOL    HW231785   0.839   4.686  16.231  0.0578 -0.1304  1.1067
 6718SOL     OW31786   3.855   4.601   5.534 -0.0708  0.2375  0.0722
 6718SOL    HW131787   3.899   4.629   5.454 -0.1781  1.6199  0.4948
 6718SOL    HW231788   3.766   4.585   5.505  0.0341 -1.5527  0.7589
 6719SOL     OW31789   3.229   0.814   3.932 -0.7289 -0.2287  0.3061
 6719SOL    HW131790   3.159   0.798   3.996 -1.6915 -0.4626 -0.8161
 6719SOL    HW231791   3.242   0.726   3.896  1.1944 -0.2166  0.9649
 6720SOL     OW31792   3.631   1.160  11.888 -0.1799 -0.2687  0.1829
 6720SOL    HW131793   3.641   1.236  11.830 -0.4756 -2.1955 -2.4350
 6720SOL    HW231794   3.596   1.091  11.830  1.3161 -1.3016  0.5053
 6721SOL     OW31795   0.670   3.257   5.708  0.6910  0.2693 -0.0899
 6721SOL    HW131796   0.586   3.282   5.670  0.3971  0.5233  0.7235
 6721SOL    HW231797   0.663   3.302   5.792 -2.4654 -1.2139  0.4327
 6722SOL     OW31798   2.216   3.779   1.580 -0.0037  0.1171 -0.5598
 6722SOL    HW131799   2.137   3.801   1.530 -0.5739  0.0716  0.3175
 6722SOL    HW231800   2.240   3.690   1.552  0.1734 -0.4384  1.3454
 6723SOL     OW31801   3.192   1.615   5.914  0.6687 -0.2361  0.0161
 6723SOL    HW131802   3.264   1.564   5.952  1.5113  0.5388 -0.5557
 6723SOL    HW231803   3.164   1.663   5.992 -3.7677 -0.7370 -1.2564
 6724SOL     OW31804   4.122   0.875   7.630  0.2911 -0.2578  0.3690
 6724SOL    HW131805   4.161   0.797   7.590 -1.4903 -0.5829 -0.7421
 6724SOL    HW231806   4.171   0.873   7.712  0.6287  0.3114  0.1819
 6725SOL     OW31807   3.538   0.070  14.367  0.0737 -0.1190 -0.5709
 6725SOL    HW131808   3.470   0.119  14.320  0.6933  0.4095 -0.9289
 6725SOL    HW231809   3.485   0.027  14.434  0.9491 -0.8354 -0.3393
 6726SOL     OW31810   1.227   1.888   6.337 -0.0709 -0.4239  0.8117
 6726SOL    HW131811   1.314   1.850   6.345 -0.0300 -0.1716  1.5933
 6726SOL    HW231812   1.214   1.843   6.254  1.4615  0.9997 -0.1802
 6727SOL     OW31813   2.506   2.525   2.155 -0.0579 -0.4173 -0.1630
 6727SOL    HW131814   2.416   2.501   2.179 -1.3660  3.6432 -0.9386
 6727SOL    HW231815   2.539   2.443   2.119 -1.6031 -0.1896 -2.1395
 6728SOL     OW31816   1.539   4.312   3.173  0.0830  0.2738 -0.1033
 6728SOL    HW131817   1.532   4.408   3.167 -1.1315  0.1396 -0.9574
 6728SOL    HW231818   1.572   4.286   3.087  3.7630  1.2940  1.0018
 6729SOL     OW31819   1.563   3.411   0.110 -0.3209  0.0432  0.4398
 6729SOL    HW131820   1.574   3.381   0.019  2.7576  0.8483  0.5478
 6729SOL    HW231821   1.648   3.453   0.120 -0.4299  0.1390  0.9657
 6730SOL     OW31822   0.841   0.111   8.311 -0.2957  0.4344  0.2919
 6730SOL    HW131823   0.820   0.088   8.402  0.4318  0.4094  0.4561
 6730SOL    HW231824   0.933   0.087   8.301 -0.1430  0.6033  1.2516
 6731SOL     OW31825   1.112   3.706   8.348 -0.6710  0.5351 -0.4529
 6731SOL    HW131826   1.171   3.754   8.406  0.1717 -0.4779 -0.4819
 6731SOL    HW231827   1.114   3.751   8.264 -2.1009 -1.4133 -1.5399
 6732SOL     OW31828   0.226   3.493   8.662 -0.5616 -0.5685  0.0606
 6732SOL    HW131829   0.168   3.557   8.620 -0.5733 -1.1921 -0.9031
 6732SOL    HW231830   0.170   3.415   8.666 -0.8355 -0.4097 -0.6517
 6733SOL     OW31831   0.898   4.023   5.489  0.3749  0.1696 -0.2633
 6733SOL    HW131832   0.929   3.998   5.402 -1.6359 -0.8062 -0.7088
 6733SOL    HW231833   0.805   4.004   5.474  0.0787  1.5685 -0.1552
 6734SOL     OW31834   0.665   1.308   2.388  0.1132  0.1741 -0.2292
 6734SOL    HW131835   0.640   1.220   2.416 -0.1087  0.0708 -0.7544
 6734SOL    HW231836   0.732   1.328   2.454 -2.6401 -1.0536  2.9338
 6735SOL     OW31837   1.013   3.777   4.313  0.0359 -0.1073  0.2582
 6735SOL    HW131838   0.972   3.862   4.298  0.6838  0.4408  1.6431
 6735SOL    HW231839   1.074   3.813   4.377 -0.8453  0.1084  0.9698
 6736SOL     OW31840   4.392   1.477   6.163 -0.7939 -0.1437  0.2571
 6736SOL    HW131841   4.429   1.494   6.249  1.2399  3.0259 -1.2380
 6736SOL    HW231842   4.327   1.546   6.159  1.6851  2.1855  0.4244
 6737SOL     OW31843   3.506   0.527   7.794 -0.8884  0.4710 -0.1745
 6737SOL    HW131844   3.440   0.589   7.827 -3.6672 -1.6076 -1.8913
 6737SOL    HW231845   3.552   0.596   7.745  1.4765  0.2883  1.7406
 6738SOL     OW31846   3.809   3.218   6.258  0.3566 -0.0436 -0.2695
 6738SOL    HW131847   3.770   3.303   6.279  1.6869  0.8853 -1.5008
 6738SOL    HW231848   3.853   3.236   6.175  3.1679  1.3301  1.5131
 6739SOL     OW31849   1.019   2.101   6.114 -0.0163  0.4230  0.6706
 6739SOL    HW131850   1.089   2.161   6.085 -0.1234 -0.4744 -1.4504
 6739SOL    HW231851   1.037   2.095   6.207  0.3818  1.7569  0.6902
 6740SOL     OW31852   2.887   3.453  13.496 -0.0032 -0.2874 -0.0666
 6740SOL    HW131853   2.866   3.457  13.590  1.3891  2.2487  0.1290
 6740SOL    HW231854   2.824   3.383  13.480 -1.0621  0.1636  2.0575
 6741SOL     OW31855   3.106   4.405   5.653  0.0458  0.3516  0.5117
 6741SOL    HW131856   3.030   4.347   5.655 -0.0164  0.4569  1.3834
 6741SOL    HW231857   3.155   4.375   5.577  0.3197 -0.9353  1.2051
 6742SOL     OW31858   0.398   4.730   3.428 -0.8199 -0.0828 -0.1506
 6742SOL    HW131859   0.490   4.735   3.451 -0.5357 -1.6712 -0.9202
 6742SOL    HW231860   0.401   4.733   3.333 -2.0251 -0.7046 -0.2130
 6743SOL     OW31861   2.943   0.006   2.775  0.2306  0.2220  0.2133
 6743SOL    HW131862   2.939   4.673   2.840 -0.9487  0.4836  0.4317
 6743SOL    HW231863   3.005   4.705   2.713 -0.6585  1.0943 -1.1967
 6744SOL     OW31864   4.397   1.851   7.011  0.0324 -0.2726  0.8307
 6744SOL    HW131865   4.361   1.936   6.984  1.3673  0.4992  1.4187
 6744SOL    HW231866   4.435   1.873   7.097 -0.0077  0.0932  0.7583
 6745SOL     OW31867   0.537   3.086  17.148  0.0140 -0.1527  0.2591
 6745SOL    HW131868   0.561   3.148  17.217  0.5405 -0.2219  0.1319
 6745SOL    HW231869   0.616   3.085  17.094  0.2374 -2.3184  0.6232
 6746SOL     OW31870   0.555   4.189   7.045  0.3863  0.4176 -0.0450
 6746SOL    HW131871   0.618   4.144   7.103 -0.3795  1.6918  1.7894
 6746SOL    HW231872   0.472   4.161   7.083 -0.5041  0.6155 -1.8679
 6747SOL     OW31873   1.475   3.179   0.248  0.5064  0.4201 -0.1495
 6747SOL    HW131874   1.501   3.265   0.214  0.9619  0.4705  0.3214
 6747SOL    HW231875   1.415   3.151   0.179 -0.9045 -4.7381  3.2014
 6748SOL     OW31876   1.852   0.606   7.123 -0.1098 -0.1453  0.3459
 6748SOL    HW131877   1.841   0.658   7.203 -1.6941  1.5915 -1.0004
 6748SOL    HW231878   1.846   0.521   7.166 -0.5095  0.4774  1.5390
 6749SOL     OW31879   1.347   3.258   2.285  0.0928  0.2112 -0.0705
 6749SOL    HW131880   1.441   3.249   2.275 -0.3538 -3.6544 -0.8171
 6749SOL    HW231881   1.322   3.307   2.207  0.2643  0.2742 -0.0859
 6750SOL     OW31882   1.652   2.205   5.039  0.0917  0.0612  0.5222
 6750SOL    HW131883   1.685   2.154   5.114  1.2841 -0.0394 -0.0618
 6750SOL    HW231884   1.630   2.286   5.084 -0.0165 -0.5599  1.5782
 6751SOL     OW31885   3.466   0.175   3.740  0.6870  0.4744  0.1570
 6751SOL    HW131886   3.546   0.160   3.791  0.6549  0.1167  0.1013
 6751SOL    HW231887   3.497   0.238   3.675  1.4354 -0.8745 -0.7911
 6752SOL     OW31888   1.953   2.792   3.118 -0.2535 -0.2538  0.1674
 6752SOL    HW131889   1.905   2.759   3.042  2.5116 -1.1236 -1.2180
 6752SOL    HW231890   1.987   2.706   3.143 -3.1918 -1.7987 -1.0713
 6753SOL     OW31891   1.032   1.688   2.126 -0.3781 -0.3597  0.8047
 6753SOL    HW131892   0.973   1.752   2.086  2.3163  0.9915 -0.9407
 6753SOL    HW231893   1.115   1.731   2.106  0.2828 -2.5238 -1.0016
 6754SOL     OW31894   0.136   3.202   3.445 -0.1063  0.0195 -0.2046
 6754SOL    HW131895   0.207   3.218   3.383 -0.9512 -2.8511 -1.9256
 6754SOL    HW231896   0.146   3.108   3.464  1.0302  0.2268  0.2049
 6755SOL     OW31897   4.261   2.841   2.340 -0.0021 -1.1945 -0.2024
 6755SOL    HW131898   4.356   2.828   2.346  0.1443 -1.7149 -3.3906
 6755SOL    HW231899   4.250   2.885   2.256  0.3113 -2.9473 -1.1695
 6756SOL     OW31900   4.125   0.216   2.812 -0.7152  0.3021  0.0917
 6756SOL    HW131901   4.158   0.284   2.754  0.1283 -1.3372 -1.3464
 6756SOL    HW231902   4.136   0.252   2.900  1.1009  0.2566 -0.1239
 6757SOL     OW31903   2.652   1.543  12.509 -0.1127  0.2193 -0.5294
 6757SOL    HW131904   2.684   1.632  12.523 -3.7780  1.2626  1.3232
 6757SOL    HW231905   2.612   1.529  12.595  0.1972  0.1782 -0.3951
 6758SOL     OW31906   3.311   3.055   8.700  0.3891  0.5745 -0.0848
 6758SOL    HW131907   3.228   3.084   8.738  0.3659  0.1695  0.1768
 6758SOL    HW231908   3.281   3.068   8.610  1.5336 -2.1720 -0.8794
 6759SOL     OW31909   1.224   1.041   6.275  0.4024 -0.1825  0.0648
 6759SOL    HW131910   1.257   1.047   6.186  2.1441 -1.4692  0.6222
 6759SOL    HW231911   1.236   1.132   6.301 -5.1785  0.2414  1.1424
 6760SOL     OW31912   2.897   1.172   8.551 -0.0641  0.4534 -0.0323
 6760SOL    HW131913   2.955   1.231   8.599  0.9333 -0.9317  0.4655
 6760SOL    HW231914   2.874   1.231   8.479  3.1849  0.9861 -0.6423
 6761SOL     OW31915   4.258   3.944   6.822  0.4974  0.0529  0.5544
 6761SOL    HW131916   4.174   3.913   6.856  1.6129 -2.7162  0.7415
 6761SOL    HW231917   4.291   3.995   6.896 -0.5015  1.4838  0.0307
 6762SOL     OW31918   3.823   3.522   5.499  0.0241  0.4661 -0.5724
 6762SOL    HW131919   3.829   3.430   5.522  0.4549  1.2111  2.2266
 6762SOL    HW231920   3.844   3.516   5.405 -0.2063 -1.5672 -0.4824
 6763SOL     OW31921   0.495   0.519   6.856 -0.3138  0.0953  0.5564
 6763SOL    HW131922   0.471   0.594   6.911  1.2918  0.1780  1.1518
 6763SOL    HW231923   0.455   0.544   6.773  0.8365 -2.6213 -0.8177
 6764SOL     OW31924   2.511   4.425   6.524  0.0906 -0.0442 -0.0555
 6764SOL    HW131925   2.555   4.351   6.483  0.8826  0.5220 -0.2407
 6764SOL    HW231926   2.422   4.396   6.542  0.0377  0.0022 -0.2371
 6765SOL     OW31927   0.122   4.076   5.827  0.2467  0.4401  0.1052
 6765SOL    HW131928   0.108   3.982   5.839  1.6458  0.2595  0.2390
 6765SOL    HW231929   0.187   4.088   5.896 -1.3448 -0.3023  1.7318
 6766SOL     OW31930   0.686   1.735   4.681  0.1089  0.5784  0.9501
 6766SOL    HW131931   0.684   1.802   4.613 -1.3551 -1.3646 -0.9535
 6766SOL    HW231932   0.603   1.768   4.715  0.4593  0.7680  1.6126
 6767SOL     OW31933   1.504   2.439  16.328 -0.4931  0.3131 -0.6776
 6767SOL    HW131934   1.454   2.480  16.399  2.5235 -0.3888  1.8562
 6767SOL    HW231935   1.575   2.496  16.300  1.0660 -0.0207  2.5122
 6768SOL     OW31936   0.915   0.912   4.362  0.1137  0.8333 -0.0264
 6768SOL    HW131937   0.925   0.949   4.275 -2.2305 -0.8300 -1.0003
 6768SOL    HW231938   0.954   0.826   4.346  1.9926  1.3795  1.5741
 6769SOL     OW31939   0.474   4.612   0.444  0.2299  0.3174 -0.4792
 6769SOL    HW131940   0.526   4.565   0.510  4.0073 -0.6076 -4.1276
 6769SOL    HW231941   0.464   4.695   0.490 -2.3824  0.4623 -1.2944
 6770SOL     OW31942   3.337   3.608   6.015 -0.3075 -0.2129  0.4513
 6770SOL    HW131943   3.327   3.584   5.923 -1.5174 -0.4440  0.6505
 6770SOL    HW231944   3.291   3.536   6.058  0.1371 -0.2622  0.8557
 6771SOL     OW31945   0.328   1.450  14.909  0.7832 -0.0841  0.7228
 6771SOL    HW131946   0.333   1.544  14.897 -0.1100 -0.2380 -0.8009
 6771SOL    HW231947   0.269   1.424  14.839  0.6845  1.0206  0.4089
 6772SOL     OW31948   0.654   3.425  16.024 -0.4383  0.0183  0.2877
 6772SOL    HW131949   0.741   3.391  16.046 -0.9333 -1.9767 -0.7709
 6772SOL    HW231950   0.675   3.480  15.949 -2.8721  0.0326 -0.3904
 6773SOL     OW31951   4.458   4.659  16.375  0.6487  0.4959 -0.0396
 6773SOL    HW131952   4.453   4.604  16.297  1.2014  3.0801 -1.8994
 6773SOL    HW231953   4.486   4.596  16.442  1.4638  0.0272 -0.8253
 6774SOL     OW31954   3.625   1.663  15.593 -0.5090  0.2895  0.3410
 6774SOL    HW131955   3.596   1.595  15.533 -0.5518 -0.2935  1.0258
 6774SOL    HW231956   3.592   1.734  15.538 -1.8812  0.4300  1.3480
 6775SOL     OW31957   4.607   3.094   7.748 -0.3310 -0.3477  0.1051
 6775SOL    HW131958   4.536   3.081   7.685 -1.6601  0.6195  1.3786
 6775SOL    HW231959   4.633   3.174   7.702  0.0049 -0.2465  0.4758
 6776SOL     OW31960   3.238   2.207  11.445 -0.0028 -0.3011 -0.5155
 6776SOL    HW131961   3.258   2.239  11.533  0.4411 -1.1789 -0.3009
 6776SOL    HW231962   3.153   2.251  11.438 -0.8343 -2.0437 -1.2506
 6777SOL     OW31963   3.918   3.790   4.656  0.1927  0.9827 -0.3250
 6777SOL    HW131964   3.977   3.749   4.720 -0.6904 -2.9483 -2.0244
 6777SOL    HW231965   3.978   3.828   4.592  0.4067  0.6532 -0.3211
 6778SOL     OW31966   4.286   2.843   9.288  0.7307 -0.5021  0.1020
 6778SOL    HW131967   4.219   2.907   9.309 -0.4647 -1.3860 -1.0812
 6778SOL    HW231968   4.364   2.898   9.274  1.7187 -1.1280  3.1682
 6779SOL     OW31969   4.735   4.071   5.233 -0.2237 -0.2709 -0.2983
 6779SOL    HW131970   0.088   4.055   5.258  0.6065  2.0230 -1.8324
 6779SOL    HW231971   4.704   4.135   5.296  1.4815 -0.5232  0.7762
 6780SOL     OW31972   2.336   0.921   7.400  0.2671 -0.2553  0.3896
 6780SOL    HW131973   2.293   0.951   7.480  1.8626 -0.4247  1.3238
 6780SOL    HW231974   2.369   1.007   7.375  0.7212 -0.3142  0.7678
 6781SOL     OW31975   1.374   2.873   4.167 -0.1722  0.0655 -0.0357
 6781SOL    HW131976   1.331   2.954   4.139  2.1219  1.4656  0.4866
 6781SOL    HW231977   1.312   2.856   4.238  0.4285  1.9862  0.9521
 6782SOL     OW31978   1.150   2.353   2.086 -0.5460  0.1042  0.5587
 6782SOL    HW131979   1.170   2.318   2.173 -1.2076 -1.4334  0.0820
 6782SOL    HW231980   1.062   2.316   2.076 -0.5027  0.3541 -0.7104
 6783SOL     OW31981   1.405   2.558   1.850  0.3708 -0.3053 -0.0370
 6783SOL    HW131982   1.310   2.574   1.857  0.3756  0.1293 -0.9270
 6783SOL    HW231983   1.438   2.622   1.786  0.5956  0.1872  0.5758
 6784SOL     OW31984   2.906   1.038  15.071 -0.0168  0.2107  0.3596
 6784SOL    HW131985   2.881   1.114  15.017  2.8481  1.0065  0.1798
 6784SOL    HW231986   2.821   0.995  15.079  0.7104 -1.7357 -2.4178
 6785SOL     OW31987   4.331   0.139   8.017  0.0553 -0.0737  0.2886
 6785SOL    HW131988   4.295   0.106   8.099  1.1179  1.5597  1.4154
 6785SOL    HW231989   4.416   0.097   8.006  0.8445  1.6374 -0.1528
 6786SOL     OW31990   3.495   0.657   7.163  0.0259 -0.3197 -0.2545
 6786SOL    HW131991   3.483   0.644   7.069 -0.1553  0.1683 -0.2996
 6786SOL    HW231992   3.578   0.610   7.173 -0.0746 -0.7401 -1.3464
 6787SOL     OW31993   1.492   2.775   9.840 -0.4396 -0.3883 -0.5836
 6787SOL    HW131994   1.502   2.705   9.775 -1.1114 -1.2314  0.2327
 6787SOL    HW231995   1.472   2.730   9.922 -3.3582  1.1108 -0.4553
 6788SOL     OW31996   2.666   1.698   3.288  0.1371 -0.2441 -0.0475
 6788SOL    HW131997   2.679   1.672   3.379 -0.2988 -2.0040 -0.4817
 6788SOL    HW231998   2.627   1.785   3.298  0.3477 -0.2168  0.5174
 6789SOL     OW31999   0.805   4.417   2.468  0.2090  0.5445  0.0399
 6789SOL    HW132000   0.815   4.456   2.555 -0.4972 -1.1413  0.8827
 6789SOL    HW232001   0.843   4.330   2.481 -0.3671  0.2791 -0.0144
 6790SOL     OW32002   3.716   4.433   7.971  0.2652 -0.1713  0.1360
 6790SOL    HW132003   3.673   4.467   7.893 -0.2624 -1.9068 -0.3184
 6790SOL    HW232004   3.695   4.340   7.972 -0.2744 -0.0693 -1.9601
 6791SOL     OW32005   4.605   4.064  13.522 -0.3114  0.2237  0.0580
 6791SOL    HW132006   4.694   4.056  13.488  0.8590 -0.1609  3.1509
 6791SOL    HW232007   4.617   4.073  13.617  0.4612  2.2969 -0.2506
 6792SOL     OW32008   4.019   3.104   0.385 -0.2417  0.2075  0.3879
 6792SOL    HW132009   3.970   3.137   0.460  0.6077  0.0424  1.0109
 6792SOL    HW232010   4.056   3.022   0.416 -0.9181  0.4311  1.7664
 6793SOL     OW32011   3.151   4.468   2.855 -0.0159 -0.4195 -0.3862
 6793SOL    HW132012   3.081   4.449   2.918 -0.4356  0.9754 -0.4211
 6793SOL    HW232013   3.167   4.562   2.864  1.4646 -0.7521  0.4057
 6794SOL     OW32014   4.690   0.997  16.826 -0.4995 -0.4906  0.7582
 6794SOL    HW132015   4.663   1.074  16.876 -0.5689 -0.7962  1.1933
 6794SOL    HW232016   4.676   0.923  16.885  1.8816 -1.5772 -0.0539
 6795SOL     OW32017   3.368   3.662  12.038 -0.0441 -0.6301 -0.0999
 6795SOL    HW132018   3.437   3.636  11.978  0.6252 -1.0990  0.8734
 6795SOL    HW232019   3.370   3.757  12.023  3.0751 -0.1585  3.2250
 6796SOL     OW32020   1.784   3.101   9.608  0.0799 -0.1961 -0.2413
 6796SOL    HW132021   1.736   3.061   9.681  1.6260 -1.4570  0.0933
 6796SOL    HW232022   1.766   3.191   9.634 -0.1947 -0.6918  1.2458
 6797SOL     OW32023   2.819   3.703   2.610 -0.1318 -0.3085  0.8130
 6797SOL    HW132024   2.868   3.708   2.692 -0.3831  0.0204  0.9434
 6797SOL    HW232025   2.734   3.735   2.639 -0.4463  1.0720 -1.6047
 6798SOL     OW32026   1.899   2.780  14.967  0.2781 -0.1823  0.3237
 6798SOL    HW132027   1.821   2.725  14.963 -0.2961  0.6060  0.7423
 6798SOL    HW232028   1.941   2.741  15.043  0.0865 -0.8089  0.1092
 6799SOL     OW32029   1.760   2.588   1.833 -0.4559  0.0960  0.6519
 6799SOL    HW132030   1.757   2.538   1.914  1.3175  0.4111  0.8982
 6799SOL    HW232031   1.665   2.597   1.821 -0.1898  1.3514 -0.4533
 6800SOL     OW32032   4.690   1.752   6.255 -0.4233  0.1443 -0.2046
 6800SOL    HW132033   0.015   1.681   6.238 -0.2804  0.0450  0.7310
 6800SOL    HW232034   4.656   1.785   6.171 -2.3800  2.6344  1.5779
 6801SOL     OW32035   0.976   2.662   2.262  0.3206 -0.1788  0.0507
 6801SOL    HW132036   0.940   2.676   2.350 -0.0382 -0.9716  0.0278
 6801SOL    HW232037   0.941   2.735   2.211 -0.1129  0.3948  1.1630
 6802SOL     OW32038   4.702   1.750  10.737 -0.0423  0.1642 -0.1687
 6802SOL    HW132039   4.688   1.736  10.831 -1.5266 -0.3203 -0.4487
 6802SOL    HW232040   0.045   1.802  10.736 -0.5352  0.9445  0.6664
 6803SOL     OW32041   3.693   0.357  14.163  0.3326 -0.0454  0.3591
 6803SOL    HW132042   3.716   0.444  14.129  0.0109 -0.2769 -0.4534
 6803SOL    HW232043   3.597   0.362  14.172  0.4247  0.2217  1.2562
 6804SOL     OW32044   2.441   4.704   4.570 -0.1226  0.2487  0.3018
 6804SOL    HW132045   2.479   4.697   4.657 -2.1514 -0.7673  1.1026
 6804SOL    HW232046   2.518   4.672   4.522  0.4888  0.6672  1.0082
 6805SOL     OW32047   3.970   3.610   6.960  0.3382 -0.2727  0.2927
 6805SOL    HW132048   4.017   3.679   7.007 -0.3034  1.0853 -1.0668
 6805SOL    HW232049   4.030   3.537   6.970  0.1657 -0.4219  0.2384
 6806SOL     OW32050   2.331   2.381  11.345  0.3700  0.7873  0.1096
 6806SOL    HW132051   2.385   2.385  11.424 -1.7886  3.3181  1.4554
 6806SOL    HW232052   2.332   2.286  11.333 -2.5077  0.7132  0.4208
 6807SOL     OW32053   2.265   3.722  17.453  0.4482 -0.0638 -0.4550
 6807SOL    HW132054   2.247   3.628  17.461 -0.9177 -0.0005 -2.6049
 6807SOL    HW232055   2.183   3.763  17.479  0.6937 -1.0692  1.9138
 6808SOL     OW32056   1.509   1.947   2.999  0.0175 -0.1627  0.1121
 6808SOL    HW132057   1.563   1.951   2.919  0.1958 -3.2591  0.0630
 6808SOL    HW232058   1.499   1.852   3.013 -2.0443  0.2174  1.1511
 6809SOL     OW32059   2.929   4.266   4.402  0.4590  0.1479  0.0457
 6809SOL    HW132060   2.916   4.361   4.412 -0.7350  0.0167 -0.1703
 6809SOL    HW232061   2.986   4.242   4.475  0.5386 -2.2431 -0.8362
 6810SOL     OW32062   0.910   2.013   8.294 -0.2757  0.0645 -0.0517
 6810SOL    HW132063   0.949   2.097   8.317 -2.8752  1.1550  0.4065
 6810SOL    HW232064   0.976   1.953   8.329  0.0225  0.2137 -0.3619
 6811SOL     OW32065   3.446   2.624  14.727 -0.5258 -0.2319  0.6498
 6811SOL    HW132066   3.381   2.689  14.700 -1.3096 -1.0568  0.5579
 6811SOL    HW232067   3.455   2.630  14.822 -0.3953  2.0882  0.4924
 6812SOL     OW32068   4.601   2.029  10.553 -0.6154  0.4810 -0.0867
 6812SOL    HW132069   4.555   1.946  10.569 -0.0739  0.0530 -0.7382
 6812SOL    HW232070   4.693   2.004  10.565 -0.6441  0.3242 -0.1933
 6813SOL     OW32071   2.077   4.359   1.515  0.1101 -0.5326  0.4300
 6813SOL    HW132072   2.019   4.285   1.531  1.1961 -0.9003  2.7875
 6813SOL    HW232073   2.055   4.388   1.427 -0.0691 -1.5375  0.1496
 6814SOL     OW32074   2.089   2.930   8.709  0.5465 -0.1481  0.5353
 6814SOL    HW132075   2.115   2.839   8.722  1.5129 -0.0984 -1.0373
 6814SOL    HW232076   2.013   2.920   8.651  1.9904  1.3288 -1.6268
 6815SOL     OW32077   1.372   2.171   0.163 -0.1177 -0.5648 -0.3410
 6815SOL    HW132078   1.423   2.161   0.083 -2.4031 -1.1066 -1.7331
 6815SOL    HW232079   1.346   2.263   0.164 -2.2148 -1.1133 -2.1250
 6816SOL     OW32080   4.673   4.233   2.363 -0.0559 -0.2265  0.3075
 6816SOL    HW132081   4.735   4.306   2.361  0.8846 -1.0308 -0.1971
 6816SOL    HW232082   4.591   4.277   2.340  0.4904 -0.5139 -2.1452
 6817SOL     OW32083   2.290   0.433   5.503 -0.5343  0.3497  0.2971
 6817SOL    HW132084   2.245   0.466   5.581  2.4132 -0.1659  2.2581
 6817SOL    HW232085   2.219   0.409   5.444 -0.1656 -0.8609  0.3452
 6818SOL     OW32086   1.312   4.200  17.679  0.0436  0.3309 -0.0197
 6818SOL    HW132087   1.310   4.120  17.626  0.6579  0.5766 -0.4257
 6818SOL    HW232088   1.407   4.215  17.675 -0.0298  0.9915  0.8267
 6819SOL     OW32089   4.161   1.958   2.227 -0.4190 -0.5014 -0.6814
 6819SOL    HW132090   4.095   1.889   2.237 -0.1832 -0.7648 -0.9623
 6819SOL    HW232091   4.107   2.037   2.232  1.1936  0.5013  1.0613
 6820SOL     OW32092   4.094   3.907   4.483 -0.1510 -0.0418  0.2364
 6820SOL    HW132093   4.185   3.920   4.457  0.3470 -0.9841  1.4988
 6820SOL    HW232094   4.066   3.970   4.549  0.3520  2.0765 -1.5726
 6821SOL     OW32095   2.121   2.919   3.671 -0.3947  0.2593  0.4190
 6821SOL    HW132096   2.031   2.910   3.702  0.3295  0.1978  2.5274
 6821SOL    HW232097   2.157   2.979   3.736 -2.5177 -0.8863  2.6910
 6822SOL     OW32098   2.007   3.372  13.230  0.4803 -0.2843 -0.0657
 6822SOL    HW132099   1.935   3.351  13.170  0.8801  1.8911 -1.3082
 6822SOL    HW232100   2.049   3.438  13.175  0.0608  1.3583  1.6026
 6823SOL     OW32101   3.124   2.214   8.397  0.3594 -0.2104 -0.2748
 6823SOL    HW132102   3.211   2.235   8.363 -0.3244  1.0925 -1.2027
 6823SOL    HW232103   3.069   2.247   8.327  3.1035 -1.0687 -2.8176
 6824SOL     OW32104   0.687   1.390  10.790 -1.3028 -0.6820  0.1505
 6824SOL    HW132105   0.668   1.414  10.699 -0.5846  2.8635  0.9552
 6824SOL    HW232106   0.725   1.474  10.813 -1.8588 -0.9150  1.8972
 6825SOL     OW32107   3.478   2.893   6.803 -0.2648 -0.0819 -0.3505
 6825SOL    HW132108   3.545   2.841   6.758  0.9831  0.2849  1.1100
 6825SOL    HW232109   3.431   2.818   6.839  1.5330 -0.6222  0.8380
 6826SOL     OW32110   3.253   0.514   4.485 -0.4407 -0.1548 -0.0834
 6826SOL    HW132111   3.203   0.567   4.547 -1.8303 -2.6661  0.9077
 6826SOL    HW232112   3.267   0.431   4.530 -1.7159  1.7822  3.8352
 6827SOL     OW32113   4.473   0.112  17.507 -0.1291  0.0831  0.1116
 6827SOL    HW132114   4.452   0.145  17.420 -0.3015 -1.2414 -0.3508
 6827SOL    HW232115   4.562   0.078  17.498 -0.9731 -2.1136  0.0964
 6828SOL     OW32116   4.486   0.005   3.200 -0.4195  0.6364  0.1871
 6828SOL    HW132117   4.467   4.668   3.143  0.0739  0.1790  0.6248
 6828SOL    HW232118   4.452   4.702   3.280 -0.2645 -0.4234 -0.2835
 6829SOL     OW32119   1.778   4.183   4.106  0.0435 -0.0481  0.1381
 6829SOL    HW132120   1.700   4.238   4.113 -0.3096 -0.8105  2.0728
 6829SOL    HW232121   1.792   4.181   4.011  2.9549 -1.0077  0.5795
 6830SOL     OW32122   0.192   3.248   5.535  0.3020  0.0553 -0.0568
 6830SOL    HW132123   0.103   3.211   5.535  0.6299 -0.7291  0.0029
 6830SOL    HW232124   0.197   3.258   5.440  2.1802 -1.2158 -0.0958
 6831SOL     OW32125   2.706   3.675  14.760 -0.3744  0.0743  0.2924
 6831SOL    HW132126   2.707   3.580  14.759  1.1770  0.0807  0.9549
 6831SOL    HW232127   2.669   3.688  14.673  0.8241 -2.4237 -0.5717
 6832SOL     OW32128   3.218   3.619   7.021 -0.5412  0.2309 -0.2222
 6832SOL    HW132129   3.165   3.570   7.085 -0.6600  0.2607 -0.2999
 6832SOL    HW232130   3.276   3.551   6.985 -0.1542  1.1473 -1.3074
 6833SOL     OW32131   4.550   4.687  12.041 -0.0801 -0.2934  0.7303
 6833SOL    HW132132   4.507   4.622  12.096  1.5922 -0.0481  2.3403
 6833SOL    HW232133   4.631   4.677  12.091  0.5897 -0.1097 -0.3252
 6834SOL     OW32134   2.773   2.691  11.653  0.1458 -0.0868  0.1368
 6834SOL    HW132135   2.781   2.686  11.748 -0.3841  0.2588  0.1967
 6834SOL    HW232136   2.842   2.632  11.621 -0.5072 -0.3464 -0.8022
 6835SOL     OW32137   1.567   1.339   7.522  0.5005 -0.3709 -0.0418
 6835SOL    HW132138   1.525   1.415   7.560  1.2819 -0.2912  0.6697
 6835SOL    HW232139   1.495   1.280   7.544 -1.0084  2.6230  3.0449
 6836SOL     OW32140   1.807   3.790   7.461 -0.0597  0.5221  0.4551
 6836SOL    HW132141   1.784   3.738   7.538  3.8336 -1.9323 -0.0481
 6836SOL    HW232142   1.888   3.824   7.500 -0.0854  2.9442 -1.6232
 6837SOL     OW32143   0.342   1.112   2.853  0.3527  0.4754  0.0542
 6837SOL    HW132144   0.359   1.044   2.919  1.0385  3.6407  3.1320
 6837SOL    HW232145   0.425   1.127   2.808 -0.3985  0.8123 -1.2047
 6838SOL     OW32146   2.428   4.498   4.252 -0.1843  0.1938  0.1172
 6838SOL    HW132147   2.460   4.588   4.250 -0.5671  0.3436  0.7139
 6838SOL    HW232148   2.333   4.507   4.255 -0.1872  0.3774 -0.5035
 6839SOL     OW32149   3.946   2.344  14.317 -0.6634 -0.1915  0.4740
 6839SOL    HW132150   3.983   2.411  14.260 -2.2018 -0.8366 -1.2757
 6839SOL    HW232151   4.009   2.273  14.305  1.7232  2.0474 -0.2425
 6840SOL     OW32152   1.274   1.478   3.912  0.1755  0.5316  0.2820
 6840SOL    HW132153   1.356   1.484   3.863 -0.0589 -0.4224 -0.2193
 6840SOL    HW232154   1.285   1.520   3.997 -0.2400  0.3988  0.4024
 6841SOL     OW32155   3.592   2.454   2.193 -0.3036  0.0859 -0.5389
 6841SOL    HW132156   3.631   2.540   2.206  0.3873 -0.2758 -0.1951
 6841SOL    HW232157   3.554   2.440   2.280  1.8229  0.1757  0.3960
 6842SOL     OW32158   4.206   4.518  17.048  0.6299  0.0639  0.0000
 6842SOL    HW132159   4.248   4.433  17.038  1.9523  0.6786  0.3111
 6842SOL    HW232160   4.166   4.529  16.962  1.6656 -0.6095 -0.5542
 6843SOL     OW32161   2.106   3.961   7.404 -0.1051 -0.5572 -0.5743
 6843SOL    HW132162   2.201   3.953   7.405 -0.0157  0.5503  0.6658
 6843SOL    HW232163   2.096   3.936   7.496  0.5875  3.0441  0.4803
 6844SOL     OW32164   2.023   4.186  10.050  0.0477  0.4346  0.2651
 6844SOL    HW132165   2.086   4.225   9.989  2.0640  0.2432  2.2505
 6844SOL    HW232166   2.028   4.241  10.128 -0.1721  2.3455 -1.0482
 6845SOL     OW32167   4.329   0.164   6.758 -0.4813 -0.1524  0.0070
 6845SOL    HW132168   4.301   0.253   6.778  4.3722  0.6935  2.9922
 6845SOL    HW232169   4.369   0.167   6.671 -0.4249  0.0605  0.0387
 6846SOL     OW32170   3.752   0.198   4.777 -0.4721  0.0014 -0.2231
 6846SOL    HW132171   3.830   0.155   4.810  0.4502  2.4432  0.7216
 6846SOL    HW232172   3.693   0.197   4.852  0.8040  2.8572  0.7919
 6847SOL     OW32173   2.916   4.146  12.857  0.2893  0.6286 -0.2256
 6847SOL    HW132174   2.969   4.145  12.937  0.3044 -2.0059 -0.2765
 6847SOL    HW232175   2.828   4.133  12.891  0.2329  1.5569 -0.0253
 6848SOL     OW32176   1.113   3.553   8.032 -0.0474 -0.2222  0.1411
 6848SOL    HW132177   1.144   3.613   8.100 -1.2796 -0.6668  1.0988
 6848SOL    HW232178   1.147   3.468   8.058  1.2304  0.0925 -0.5342
 6849SOL     OW32179   0.063   3.261   8.699  0.7345  0.0994 -0.4621
 6849SOL    HW132180   0.085   3.172   8.670  0.0659 -1.3672  3.5617
 6849SOL    HW232181   4.724   3.244   8.754  0.8469 -0.8914 -0.6094
 6850SOL     OW32182   2.582   1.121   8.522 -0.9972  0.1164 -0.5216
 6850SOL    HW132183   2.582   1.200   8.576  2.2536 -0.2251 -0.0532
 6850SOL    HW232184   2.625   1.164   8.448  3.2353 -1.8963  0.7973
 6851SOL     OW32185   1.878   2.239  16.363 -0.7392 -0.0050  0.5001
 6851SOL    HW132186   1.963   2.203  16.390 -0.0630  0.3373 -1.1714
 6851SOL    HW232187   1.860   2.315  16.418  1.8985  0.9939 -0.0056
 6852SOL     OW32188   0.084   3.996  17.399  0.3196  0.3614  0.1517
 6852SOL    HW132189   0.111   4.023  17.487 -0.6689  1.3497  0.1469
 6852SOL    HW232190   0.140   4.055  17.348  1.3632  0.4948  1.4618
 6853SOL     OW32191   3.991   0.328   8.050  0.3818 -0.2245  0.6058
 6853SOL    HW132192   3.912   0.336   7.996  1.0389 -0.8021 -0.4386
 6853SOL    HW232193   4.061   0.316   7.986  0.0817  1.2360  0.0120
 6854SOL     OW32194   2.072   2.954  14.600  0.0267  0.3328  0.6211
 6854SOL    HW132195   2.089   2.986  14.511  1.1539 -1.7413  0.1010
 6854SOL    HW232196   2.071   3.041  14.639  0.2962  1.4394 -1.8196
 6855SOL     OW32197   0.084   1.351   6.595  0.2261  0.2770 -0.0668
 6855SOL    HW132198   0.101   1.282   6.660  0.8099 -0.6422 -1.1870
 6855SOL    HW232199   0.024   1.408   6.643  0.2004 -0.6959  1.0677
 6856SOL     OW32200   3.890   3.745  13.172  0.3185 -0.3010  0.6010
 6856SOL    HW132201   3.929   3.762  13.258  2.5962 -0.2846 -0.4421
 6856SOL    HW232202   3.909   3.823  13.121  0.4707 -0.7245  0.0055
 6857SOL     OW32203   1.378   0.620   2.293 -0.2329 -0.5347  0.0467
 6857SOL    HW132204   1.410   0.536   2.261 -0.0639  0.9217 -3.6255
 6857SOL    HW232205   1.412   0.618   2.383  0.0860  2.9890  0.0118
 6858SOL     OW32206   2.898   3.563   4.908 -0.1352 -0.2583 -0.1988
 6858SOL    HW132207   2.847   3.483   4.897 -1.0802  0.3443 -0.2478
 6858SOL    HW232208   2.904   3.593   4.817 -0.8382 -1.1874 -0.5508
 6859SOL     OW32209   4.386   1.753   9.706  0.1002  0.6903 -0.2105
 6859SOL    HW132210   4.363   1.844   9.689  0.6619  1.1463  1.5370
 6859SOL    HW232211   4.391   1.748   9.802 -3.7322  1.2913  0.0377
 6860SOL     OW32212   2.844   2.494   1.460 -0.1933 -0.6909 -0.2137
 6860SOL    HW132213   2.797   2.423   1.502  1.5469 -1.0055  1.2489
 6860SOL    HW232214   2.812   2.569   1.510  3.0040 -0.7407  1.9737
 6861SOL     OW32215   4.553   2.660   7.262 -0.3739 -0.1380  0.4144
 6861SOL    HW132216   4.549   2.609   7.181 -3.3429 -1.0725  1.1368
 6861SOL    HW232217   4.639   2.698   7.244 -0.2870  0.4865  2.1417
 6862SOL     OW32218   1.340   0.910   8.825  0.3758  0.0922  0.2808
 6862SOL    HW132219   1.385   0.887   8.906  0.2950 -1.9514 -0.2633
 6862SOL    HW232220   1.251   0.892   8.855  0.7306 -0.9705  0.6867
 6863SOL     OW32221   0.620   2.989   7.186 -0.4579 -0.2253 -0.1371
 6863SOL    HW132222   0.664   2.986   7.101 -1.3886  1.5847 -0.7034
 6863SOL    HW232223   0.675   3.048   7.238  1.7442 -2.0817 -0.3915
 6864SOL     OW32224   1.308   1.300   6.284  0.1993  0.4972  0.4553
 6864SOL    HW132225   1.331   1.308   6.192  0.1401 -0.4938  0.3479
 6864SOL    HW232226   1.257   1.380   6.295  2.6236  2.2748 -1.1474
 6865SOL     OW32227   4.706   1.683   7.651  0.7329  0.3328  0.2777
 6865SOL    HW132228   4.621   1.643   7.634  0.9646  0.9560 -2.4245
 6865SOL    HW232229   4.709   1.763   7.599 -0.8406  0.0389 -0.2606
 6866SOL     OW32230   0.701   2.913   4.827  0.3209 -0.3098  0.0116
 6866SOL    HW132231   0.714   2.824   4.860 -1.1436 -0.7306 -0.5803
 6866SOL    HW232232   0.746   2.908   4.743 -2.9944 -2.3698 -1.6269
 6867SOL     OW32233   1.807   3.534   5.942  1.1511 -0.1463  0.0061
 6867SOL    HW132234   1.781   3.444   5.925 -0.4391 -0.0845  2.1089
 6867SOL    HW232235   1.882   3.532   5.882 -0.6550  1.5345 -2.3064
 6868SOL     OW32236   2.390   0.602  14.413  0.5800 -0.1625 -0.2925
 6868SOL    HW132237   2.376   0.696  14.428 -3.2775 -0.7524 -0.1338
 6868SOL    HW232238   2.306   0.583  14.370  1.8125 -1.9162 -1.9102
 6869SOL     OW32239   3.369   1.121  10.547  0.5002 -0.1437  1.0827
 6869SOL    HW132240   3.438   1.148  10.607  1.0040  1.5119 -0.2346
 6869SOL    HW232241   3.309   1.195  10.558  0.8840  0.5965 -1.8423
 6870SOL     OW32242   2.129   4.072   1.963 -0.0180 -0.3375  0.3829
 6870SOL    HW132243   2.062   4.042   1.902 -1.3182  0.6461  1.3315
 6870SOL    HW232244   2.193   4.007   1.934 -2.1927 -1.6541 -1.5426
 6871SOL     OW32245   3.268   2.427   7.741  0.2215 -0.0625  0.4102
 6871SOL    HW132246   3.258   2.333   7.752  0.4496 -0.2183 -0.8130
 6871SOL    HW232247   3.261   2.429   7.646 -0.0377  1.6197  0.4633
 6872SOL     OW32248   1.154   2.111   0.344  0.2849  0.6564 -0.3342
 6872SOL    HW132249   1.233   2.093   0.394  1.4469  1.5923 -1.8505
 6872SOL    HW232250   1.176   2.073   0.259  1.1372 -0.5826  0.4470
 6873SOL     OW32251   1.920   3.617   2.099  0.6012  0.2757  0.1954
 6873SOL    HW132252   1.849   3.630   2.162 -0.6489  1.7980 -1.5207
 6873SOL    HW232253   1.873   3.620   2.015 -0.1238 -0.1874  0.5815
 6874SOL     OW32254   2.685   4.347   2.464  0.0367  0.1726 -0.0654
 6874SOL    HW132255   2.620   4.391   2.520  1.8265  0.8180  1.5084
 6874SOL    HW232256   2.673   4.401   2.386 -0.8399 -0.9508 -0.7067
 6875SOL     OW32257   1.479   4.129   6.550 -0.1898  0.3821  0.5013
 6875SOL    HW132258   1.475   4.034   6.551  0.1347  0.3600 -0.9348
 6875SOL    HW232259   1.390   4.158   6.531 -0.5389 -0.0860  1.3866
 6876SOL     OW32260   0.024   1.710  17.228  0.0848 -0.3162 -0.1530
 6876SOL    HW132261   4.686   1.650  17.225 -1.9139  2.2475 -0.9512
 6876SOL    HW232262   4.726   1.793  17.261 -0.4719 -0.2963 -0.7830
 6877SOL     OW32263   3.210   1.680   7.124 -0.1126 -0.2794  0.4862
 6877SOL    HW132264   3.124   1.699   7.087  0.0635  0.0031  0.2225
 6877SOL    HW232265   3.257   1.695   7.042  3.3540  1.6392  2.8335
 6878SOL     OW32266   1.952   3.056   8.934  0.3559 -0.3127  0.0780
 6878SOL    HW132267   2.010   3.086   9.003 -3.0398 -1.6025  3.5144
 6878SOL    HW232268   2.018   3.032   8.869  0.4416 -0.6867  0.3028
 6879SOL     OW32269   0.438   4.517   4.534  0.0916 -0.0810  0.1812
 6879SOL    HW132270   0.433   4.484   4.444 -0.2672  0.1563  0.1130
 6879SOL    HW232271   0.435   4.434   4.581 -2.4103  1.3375  2.5261
 6880SOL     OW32272   2.349   1.210   1.887  0.1085 -0.3802 -0.4439
 6880SOL    HW132273   2.424   1.161   1.922 -1.9330 -3.0786  0.1844
 6880SOL    HW232274   2.303   1.154   1.825  0.0204  0.2433 -0.9403
 6881SOL     OW32275   3.655   2.744   1.008  0.5072  0.5875  0.0181
 6881SOL    HW132276   3.630   2.752   1.100 -3.1070 -0.4919 -0.8727
 6881SOL    HW232277   3.688   2.832   0.994  1.9277 -0.1742 -1.4629
 6882SOL     OW32278   3.646   4.328  14.717  0.1638 -0.3789  0.2598
 6882SOL    HW132279   3.657   4.372  14.633 -2.7020 -0.0695  0.0526
 6882SOL    HW232280   3.693   4.245  14.706 -0.8433 -1.2228  2.4577
 6883SOL     OW32281   1.957   1.738   3.823  0.2987 -0.4797  0.2417
 6883SOL    HW132282   1.887   1.742   3.888  2.0218 -0.1347  2.0778
 6883SOL    HW232283   1.918   1.707   3.741  0.6907  0.5585 -0.3378
 6884SOL     OW32284   2.603   1.612  12.799  0.2534  0.3470 -0.1072
 6884SOL    HW132285   2.676   1.672  12.817  1.2239 -1.0270  0.5525
 6884SOL    HW232286   2.646   1.526  12.794 -0.5715 -0.0477 -0.4349
 6885SOL     OW32287   2.197   0.292   0.803 -0.4646  0.3350 -0.3090
 6885SOL    HW132288   2.259   0.270   0.733  1.2418 -0.5164  1.4747
 6885SOL    HW232289   2.110   0.298   0.764 -2.1817  0.2815  3.6024
 6886SOL     OW32290   0.115   3.698   5.447 -0.8406 -0.0258  0.4996
 6886SOL    HW132291   0.146   3.650   5.524  1.8068  0.2688 -0.3986
 6886SOL    HW232292   0.165   3.655   5.378  0.8124 -1.2224  2.4208
 6887SOL     OW32293   1.985   3.460   3.464 -0.7826  0.4015  0.2869
 6887SOL    HW132294   1.948   3.380   3.502 -0.0727 -0.2255 -0.3512
 6887SOL    HW232295   1.948   3.462   3.376 -3.1507 -0.6504  1.2523
 6888SOL     OW32296   0.469   1.309   3.460  0.2689 -0.0131  0.1934
 6888SOL    HW132297   0.395   1.249   3.445  2.1348 -2.2350 -0.0682
 6888SOL    HW232298   0.524   1.256   3.517  0.3632  0.1237  0.2277
 6889SOL     OW32299   0.272   0.901  12.118 -0.7203 -0.3191 -0.6279
 6889SOL    HW132300   0.345   0.880  12.176 -0.9195 -1.6617 -0.8466
 6889SOL    HW232301   0.210   0.830  12.137 -0.2818 -0.6551 -0.4688
 6890SOL     OW32302   4.517   1.552   6.385  0.0594  0.5330 -0.1712
 6890SOL    HW132303   4.553   1.527   6.469 -1.6580 -2.1878 -0.2281
 6890SOL    HW232304   4.570   1.626   6.356  1.9255 -1.2107 -1.1611
 6891SOL     OW32305   4.325   2.878   6.365 -0.4562  0.1259 -0.2262
 6891SOL    HW132306   4.312   2.875   6.459  2.1891  0.5930  0.1496
 6891SOL    HW232307   4.387   2.806   6.354 -0.1708  0.4879 -1.0348
 6892SOL     OW32308   3.670   4.710   6.267  0.0110 -0.0593  0.3625
 6892SOL    HW132309   3.576   4.722   6.254 -0.0268 -0.1489  0.5564
 6892SOL    HW232310   3.665   4.629   6.318 -1.8676 -0.5029 -0.5316
 6893SOL     OW32311   2.281   2.750   3.516  0.2448  0.1218 -0.1193
 6893SOL    HW132312   2.207   2.793   3.559  0.0836 -2.6641  2.3765
 6893SOL    HW232313   2.309   2.830   3.471  0.5565  1.3708  2.3147
 6894SOL     OW32314   3.957   1.475   9.500  0.2768  0.6434 -0.4305
 6894SOL    HW132315   3.978   1.384   9.481  0.2091 -0.0736  3.0034
 6894SOL    HW232316   4.040   1.514   9.529 -1.5596  2.9053  1.7646
 6895SOL     OW32317   0.182   1.281  15.425  0.5487 -0.0755  0.3043
 6895SOL    HW132318   0.202   1.191  15.401  0.5801 -0.1771  0.7091
 6895SOL    HW232319   0.264   1.323  15.402  1.0763 -0.1948  1.9340
 6896SOL     OW32320   4.057   0.290   6.939  0.5480 -0.0798  0.0746
 6896SOL    HW132321   3.986   0.249   6.890 -1.0064  0.7232  1.6352
 6896SOL    HW232322   4.015   0.266   7.021  0.6137 -0.0989  0.1022
 6897SOL     OW32323   1.307   1.221   2.845 -0.4546  0.1142 -0.2500
 6897SOL    HW132324   1.353   1.232   2.761 -0.0866 -0.8130 -0.1751
 6897SOL    HW232325   1.290   1.127   2.846 -0.7509  0.1687 -0.3109
 6898SOL     OW32326   1.121   1.188   9.554  1.0832 -0.0896 -0.1318
 6898SOL    HW132327   1.106   1.143   9.471 -1.4659  0.8641 -0.1686
 6898SOL    HW232328   1.061   1.137   9.609  0.5416 -0.3175 -0.9314
 6899SOL     OW32329   4.067   2.493   7.358 -0.4991 -0.0835 -0.5315
 6899SOL    HW132330   4.028   2.560   7.302 -0.0810 -0.0134 -0.7320
 6899SOL    HW232331   4.074   2.554   7.431  2.5006 -0.3311 -0.6160
 6900SOL     OW32332   4.713   2.383   6.294  0.1523  0.2006 -0.7924
 6900SOL    HW132333   4.653   2.333   6.238  0.8640 -2.6433  1.0026
 6900SOL    HW232334   0.016   2.436   6.225  0.7224 -0.8530 -1.2697
 6901SOL     OW32335   0.352   0.148  17.056  0.5372 -0.3785  0.0987
 6901SOL    HW132336   0.376   0.240  17.046  0.2917 -0.4036 -0.7249
 6901SOL    HW232337   0.308   0.126  16.974  0.3817  0.0392  0.0700
 6902SOL     OW32338   3.860   2.467   2.770  0.2160 -0.1198  0.1510
 6902SOL    HW132339   3.776   2.513   2.774 -0.5069 -1.4927  0.5618
 6902SOL    HW232340   3.871   2.476   2.675  1.3715  1.3538  0.4223
 6903SOL     OW32341   3.668   0.027   3.213  0.2973  0.0994 -0.3218
 6903SOL    HW132342   3.705   4.690   3.165 -1.0943 -0.5995 -0.3237
 6903SOL    HW232343   3.694   0.002   3.302  0.1731  1.8431  0.2018
 6904SOL     OW32344   2.914   2.859   5.062  0.3748 -0.1490 -0.0624
 6904SOL    HW132345   2.849   2.865   4.992  0.6758 -1.8557 -0.4695
 6904SOL    HW232346   2.916   2.765   5.079  0.9033 -0.0640  0.3687
 6905SOL     OW32347   1.721   2.946  16.185  0.2628 -0.1095  0.3021
 6905SOL    HW132348   1.657   2.961  16.116  1.5283  1.3909 -0.5395
 6905SOL    HW232349   1.805   2.964  16.142 -0.2533  0.2554 -0.5455
 6906SOL     OW32350   4.626   1.128   4.023 -0.7637  0.4388 -0.9627
 6906SOL    HW132351   4.600   1.183   3.949 -0.8040 -0.8617 -1.8963
 6906SOL    HW232352   4.722   1.130   4.020 -0.6670 -0.5561  1.4430
 6907SOL     OW32353   0.708   2.459   8.182  0.5308 -0.1582  0.0129
 6907SOL    HW132354   0.734   2.423   8.267 -1.6983 -1.8921 -0.0317
 6907SOL    HW232355   0.626   2.411   8.168 -1.1167  2.2570  1.3439
 6908SOL     OW32356   2.335   2.837   5.964 -0.0962  0.3397  0.5184
 6908SOL    HW132357   2.284   2.875   6.036  1.5486  1.7093  0.9712
 6908SOL    HW232358   2.294   2.751   5.962  0.3852  0.0984  0.8441
 6909SOL     OW32359   3.369   3.838   7.006 -0.3233  0.0445 -0.2823
 6909SOL    HW132360   3.334   3.751   6.987  0.1879 -0.4235  0.9048
 6909SOL    HW232361   3.432   3.820   7.075 -1.6731  0.3557  1.0418
 6910SOL     OW32362   1.968   0.572   3.971  0.2584  0.4189  0.6700
 6910SOL    HW132363   2.023   0.648   3.950  0.2413  0.6872  1.6102
 6910SOL    HW232364   1.880   0.607   3.953  0.7877  2.1244  1.3476
 6911SOL     OW32365   0.621   1.466  16.391  0.0817  0.1450 -0.2139
 6911SOL    HW132366   0.571   1.544  16.413  1.6653  0.7972  1.1647
 6911SOL    HW232367   0.599   1.449  16.300 -0.6319 -1.3499  0.2362
 6912SOL     OW32368   0.651   1.115  10.808  0.3607  0.0782  0.2702
 6912SOL    HW132369   0.707   1.109  10.886  3.2809  1.2849 -1.7393
 6912SOL    HW232370   0.647   1.210  10.802  1.0587  0.2606  2.7067
 6913SOL     OW32371   4.628   3.830   5.344  0.5454 -0.3699  0.5733
 6913SOL    HW132372   4.649   3.908   5.293 -1.5325 -0.5563 -0.6039
 6913SOL    HW232373   4.704   3.806   5.396 -0.3000 -0.6422  1.6876
 6914SOL     OW32374   1.348   1.858   5.501 -0.1261 -0.3564  0.1149
 6914SOL    HW132375   1.420   1.800   5.522  0.1671  0.0148  0.1354
 6914SOL    HW232376   1.319   1.814   5.421  0.0461  0.1780 -0.2370
 6915SOL     OW32377   3.094   1.198   3.224  0.5020 -0.3175 -0.5857
 6915SOL    HW132378   3.026   1.141   3.260  1.9397 -0.4764  1.9531
 6915SOL    HW232379   3.115   1.252   3.301 -0.8317 -0.4694 -0.1263
 6916SOL     OW32380   4.332   2.613   4.954 -0.2356  0.0813 -0.1432
 6916SOL    HW132381   4.274   2.685   4.930 -1.7224 -0.6559  1.2313
 6916SOL    HW232382   4.407   2.664   4.983  0.8804 -1.4577 -0.2963
 6917SOL     OW32383   2.452   1.851   8.340  1.6053 -0.0205 -0.4350
 6917SOL    HW132384   2.531   1.904   8.332  1.4096  0.2915 -0.2710
 6917SOL    HW232385   2.490   1.788   8.401  0.5772 -0.1955  0.0267
 6918SOL     OW32386   4.271   3.981  11.725 -0.1811  0.0269 -0.2265
 6918SOL    HW132387   4.279   3.946  11.637  0.1393 -1.5231  0.4059
 6918SOL    HW232388   4.303   4.070  11.713  2.0686 -0.7057  0.2269
 6919SOL     OW32389   1.742   3.678  12.570 -0.1332  0.6632 -0.2083
 6919SOL    HW132390   1.730   3.763  12.529 -0.7718  1.0948  0.8566
 6919SOL    HW232391   1.795   3.700  12.647 -0.0580 -2.0610  0.5503
 6920SOL     OW32392   0.499   3.189  16.762  0.1683  0.1709  0.0859
 6920SOL    HW132393   0.465   3.201  16.674 -0.7287  1.8202  0.6592
 6920SOL    HW232394   0.442   3.250  16.809  0.0924  0.2182 -0.0701
 6921SOL     OW32395   0.449   2.029   4.651 -0.0628 -0.1616 -0.8757
 6921SOL    HW132396   0.431   2.037   4.745 -0.3885 -0.4905 -0.9127
 6921SOL    HW232397   0.519   2.095   4.647 -0.7002  0.5599 -0.2789
 6922SOL     OW32398   3.686   2.991  16.851 -0.3572 -0.0377  0.0365
 6922SOL    HW132399   3.712   2.921  16.912  2.1462  1.1181  0.2886
 6922SOL    HW232400   3.763   3.008  16.797 -0.1446  1.5024  0.8296
 6923SOL     OW32401   3.912   3.371   8.246  0.0833  0.5378 -0.3049
 6923SOL    HW132402   3.891   3.292   8.196 -2.9174  1.1821 -0.0498
 6923SOL    HW232403   3.864   3.441   8.203 -0.8993  0.2377  0.2958
 6924SOL     OW32404   4.637   2.842   6.057 -0.7476 -0.0598 -0.1338
 6924SOL    HW132405   4.684   2.819   5.977 -2.0140 -1.2253 -0.5531
 6924SOL    HW232406   4.708   2.867   6.115 -1.1130  1.0866 -0.1876
 6925SOL     OW32407   3.205   0.788  14.675 -0.0389 -0.8139 -0.2097
 6925SOL    HW132408   3.160   0.857  14.724  0.2422  0.9969 -2.4729
 6925SOL    HW232409   3.213   0.834  14.591 -0.7998 -1.6057 -0.7200
 6926SOL     OW32410   2.236   3.642   5.793 -0.0809  0.4992  0.3053
 6926SOL    HW132411   2.302   3.586   5.752  0.6321  1.4562  0.1289
 6926SOL    HW232412   2.263   3.628   5.884  0.0517 -2.1873 -0.1424
 6927SOL     OW32413   1.086   1.890  13.903 -0.3394  0.2299 -0.6229
 6927SOL    HW132414   1.126   1.898  13.990  0.4346  1.3232 -1.0878
 6927SOL    HW232415   1.167   1.906  13.856 -1.2314  0.2512 -2.1650
 6928SOL     OW32416   3.272   2.656   2.749 -0.3999 -0.2467  0.3534
 6928SOL    HW132417   3.226   2.649   2.665  1.2346 -1.6984 -0.3966
 6928SOL    HW232418   3.338   2.590   2.729 -1.3613 -1.8613  2.4908
 6929SOL     OW32419   4.231   1.492   9.354 -0.0503  0.2499  0.0409
 6929SOL    HW132420   4.207   1.512   9.264  2.0883 -1.2772 -0.8461
 6929SOL    HW232421   4.308   1.548   9.360  0.4276 -0.3275 -0.7163
 6930SOL     OW32422   3.091   3.683   1.568  0.1157  0.1519  0.2883
 6930SOL    HW132423   3.031   3.718   1.503  1.2653  0.7700 -0.4257
 6930SOL    HW232424   3.157   3.752   1.564 -0.9723  1.2106  0.5917
 6931SOL     OW32425   0.276   2.794   2.536 -0.0699 -0.0939 -0.5163
 6931SOL    HW132426   0.334   2.843   2.477  0.6890  0.7991  0.9688
 6931SOL    HW232427   0.198   2.789   2.481 -0.1565 -2.1968 -0.2252
 6932SOL     OW32428   0.954   3.726   4.749 -0.3272  0.0494  0.1315
 6932SOL    HW132429   1.040   3.762   4.768  0.8282 -2.3041 -0.5750
 6932SOL    HW232430   0.958   3.656   4.814  2.2812 -2.3783 -2.6182
 6933SOL     OW32431   0.058   4.354   0.680  0.4566 -0.4812 -0.0567
 6933SOL    HW132432   0.037   4.426   0.740 -0.4493 -2.6644  2.2372
 6933SOL    HW232433   0.063   4.410   0.602 -0.3540 -0.0315  0.2119
 6934SOL     OW32434   0.035   0.477  12.618 -0.2141 -0.2751 -0.3308
 6934SOL    HW132435   0.123   0.492  12.582 -0.1208  1.0275  0.4241
 6934SOL    HW232436   0.056   0.467  12.711  0.6150 -0.7678 -0.5673
 6935SOL     OW32437   4.712   4.373   6.857  0.5087  0.1230  0.2410
 6935SOL    HW132438   0.007   4.414   6.777  2.3927 -0.1915  0.8557
 6935SOL    HW232439   4.618   4.391   6.843  0.4013 -0.0268  0.7608
 6936SOL     OW32440   2.645   3.531   5.261 -0.4946 -0.2454  0.4282
 6936SOL    HW132441   2.591   3.507   5.186 -1.3006  0.4384  0.7925
 6936SOL    HW232442   2.674   3.443   5.284 -0.3600 -0.0659  0.9555
 6937SOL     OW32443   2.538   0.995   6.005  0.0323 -0.0501  0.3203
 6937SOL    HW132444   2.626   1.033   6.016 -0.1313  0.8821 -1.4527
 6937SOL    HW232445   2.520   0.969   6.095 -0.1069  3.0380  1.1750
 6938SOL     OW32446   2.567   1.673   7.070  0.5749  0.2778 -0.2764
 6938SOL    HW132447   2.652   1.715   7.064  1.0790 -1.0927 -2.7759
 6938SOL    HW232448   2.553   1.666   7.165  0.7268  0.8954 -0.2053
 6939SOL     OW32449   1.347   1.449   6.720 -0.0032  0.1259  0.3695
 6939SOL    HW132450   1.302   1.388   6.661 -0.8741  0.2593  0.9006
 6939SOL    HW232451   1.395   1.381   6.767 -0.3240 -2.2733 -2.7503
 6940SOL     OW32452   1.726   1.034   8.839  0.2564 -0.1998  0.0351
 6940SOL    HW132453   1.817   1.027   8.867  0.2478  1.4807  0.4522
 6940SOL    HW232454   1.702   0.942   8.825  0.7100 -0.3736  0.4362
 6941SOL     OW32455   2.873   4.169  13.280  0.0286 -0.2468 -0.6673
 6941SOL    HW132456   2.870   4.087  13.230 -1.8323 -0.8452  0.4231
 6941SOL    HW232457   2.869   4.235  13.211 -1.7054  0.9058  0.5453
 6942SOL     OW32458   2.428   3.864   4.903  0.0145 -0.3730  0.5436
 6942SOL    HW132459   2.355   3.802   4.902  0.2365 -0.6089 -0.7220
 6942SOL    HW232460   2.504   3.808   4.890 -1.1079 -1.7011 -0.1876
 6943SOL     OW32461   2.825   1.350   4.868 -0.7078 -0.0142  0.7316
 6943SOL    HW132462   2.762   1.420   4.881 -0.2932  0.1858  1.7048
 6943SOL    HW232463   2.909   1.390   4.894  1.7175 -2.2242 -3.7525
 6944SOL     OW32464   3.761   0.327   2.618  0.2715 -0.0363  0.1425
 6944SOL    HW132465   3.751   0.338   2.712 -2.2196 -2.2770  0.1209
 6944SOL    HW232466   3.743   0.415   2.584  0.3365 -0.3808 -0.8073
 6945SOL     OW32467   2.206   2.228   4.579 -0.2324 -0.4374 -0.0689
 6945SOL    HW132468   2.185   2.169   4.651 -3.4675 -0.9951 -1.4584
 6945SOL    HW232469   2.241   2.165   4.515 -1.6502 -0.1577 -1.1294
 6946SOL     OW32470   0.869   1.607   8.704 -0.4539  0.0617 -0.1248
 6946SOL    HW132471   0.865   1.688   8.754 -0.1331 -0.0233  0.0425
 6946SOL    HW232472   0.910   1.558   8.776  0.9894  2.5150  0.7117
 6947SOL     OW32473   3.982   2.859  17.300 -0.0141  0.0409 -0.2480
 6947SOL    HW132474   3.890   2.869  17.326  0.1582  0.4001  0.2225
 6947SOL    HW232475   4.026   2.939  17.329 -1.4226  0.4522  0.7640
 6948SOL     OW32476   3.847   4.222   3.877  0.1883 -0.4190  0.2365
 6948SOL    HW132477   3.756   4.244   3.861 -0.3758 -1.6320  1.7524
 6948SOL    HW232478   3.860   4.263   3.963  1.5331  1.2535 -0.7545
 6949SOL     OW32479   2.977   3.962   6.537 -0.1541  0.0181 -0.1180
 6949SOL    HW132480   2.979   4.057   6.532  0.7075  0.0775  1.4960
 6949SOL    HW232481   2.902   3.945   6.479 -0.1832 -2.0776  0.5341
 6950SOL     OW32482   4.420   3.710   7.829 -0.6887 -0.5340  0.2443
 6950SOL    HW132483   4.364   3.768   7.777 -2.0121  0.7171  3.0857
 6950SOL    HW232484   4.401   3.626   7.786 -0.2540 -0.4474 -0.1147
 6951SOL     OW32485   0.775   0.387  14.239 -0.1779 -0.1213 -0.4463
 6951SOL    HW132486   0.689   0.382  14.196  0.7184  0.0597 -2.2513
 6951SOL    HW232487   0.834   0.340  14.180 -1.1020 -0.2748 -1.2555
 6952SOL     OW32488   4.197   2.269   9.580  0.4057  0.1237  0.5602
 6952SOL    HW132489   4.276   2.278   9.527 -0.4637  0.3937 -0.6880
 6952SOL    HW232490   4.227   2.326   9.650  0.4943  2.1118 -1.1162
 6953SOL     OW32491   2.706   3.625   7.597  0.2300  0.1555 -0.2870
 6953SOL    HW132492   2.634   3.596   7.654 -0.0031  0.0730 -0.6248
 6953SOL    HW232493   2.765   3.550   7.606 -0.6955 -0.3766  1.4144
 6954SOL     OW32494   2.686   4.088   8.958 -0.3732  0.4762 -0.2572
 6954SOL    HW132495   2.712   3.999   8.983  0.4568  1.5731  2.7804
 6954SOL    HW232496   2.752   4.114   8.893 -1.0006  0.2838 -0.9693
 6955SOL     OW32497   0.966   4.703  16.630 -0.4428 -0.7283  0.0710
 6955SOL    HW132498   0.903   4.642  16.591 -1.4559 -0.9403  2.0291
 6955SOL    HW232499   1.047   4.679  16.586 -0.3894 -0.5332  0.0608
 6956SOL     OW32500   0.387   1.906   1.972 -0.8866 -0.2137  0.1018
 6956SOL    HW132501   0.312   1.850   1.955 -0.3379 -1.7374  2.7431
 6956SOL    HW232502   0.437   1.852   2.033  0.3670  0.6856 -0.1178
 6957SOL     OW32503   2.186   4.592   5.865 -0.2745 -0.8216  0.1925
 6957SOL    HW132504   2.167   4.617   5.956 -2.2881  0.0428 -0.4790
 6957SOL    HW232505   2.222   4.503   5.863 -2.2466 -1.5988 -0.3758
 6958SOL     OW32506   3.104   4.195   6.184  0.5744  0.2987  0.0003
 6958SOL    HW132507   3.074   4.242   6.262  1.1291  0.7817 -0.0746
 6958SOL    HW232508   3.138   4.114   6.222 -1.0353  0.3216  1.4877
 6959SOL     OW32509   4.680   1.249  11.018 -0.3366  0.0754 -0.4324
 6959SOL    HW132510   4.717   1.337  11.006  1.4852 -0.5636  0.4708
 6959SOL    HW232511   0.018   1.197  11.048 -0.9847 -0.5514  0.0706
 6960SOL     OW32512   1.440   0.219   6.383 -0.1571 -0.2771 -0.0421
 6960SOL    HW132513   1.359   0.207   6.432  0.5939 -2.4579  0.6579
 6960SOL    HW232514   1.445   0.315   6.379  0.6579 -0.3440 -0.7749
 6961SOL     OW32515   2.686   4.110   4.707  0.5119 -1.0707 -0.3809
 6961SOL    HW132516   2.671   4.139   4.797 -0.0526 -2.3168 -0.0729
 6961SOL    HW232517   2.745   4.179   4.675  0.0036 -0.5796 -0.2596
 6962SOL     OW32518   0.593   3.275   7.442  0.1945  0.2734  0.2892
 6962SOL    HW132519   0.532   3.345   7.466  1.5496  1.5277  0.0558
 6962SOL    HW232520   0.656   3.271   7.514 -0.8374 -0.1135  1.1662
 6963SOL     OW32521   1.024   2.197   6.963  0.1937 -0.2777  0.2639
 6963SOL    HW132522   1.032   2.102   6.975  0.5056 -0.2987 -0.1066
 6963SOL    HW232523   1.110   2.235   6.945  0.9808 -1.4967  1.4489
 6964SOL     OW32524   4.399   3.576  16.786  0.0650  0.9266  0.5289
 6964SOL    HW132525   4.449   3.655  16.807  2.4363 -0.5002  0.2419
 6964SOL    HW232526   4.317   3.592  16.832 -0.4068 -2.9434  1.0013
 6965SOL     OW32527   1.023   2.471   2.825  0.1792 -0.1141  0.1817
 6965SOL    HW132528   1.086   2.543   2.834 -0.0632 -0.1413  1.9243
 6965SOL    HW232529   1.070   2.388   2.830 -1.2739 -0.9314  0.0489
 6966SOL     OW32530   2.803   3.189   7.439  0.4904 -0.4714 -0.1416
 6966SOL    HW132531   2.722   3.138   7.432  0.0104  0.4033 -1.0322
 6966SOL    HW232532   2.867   3.121   7.460  3.1377  1.0520 -3.2714
 6967SOL     OW32533   4.175   3.319  10.862  0.0337 -0.1733 -0.0659
 6967SOL    HW132534   4.129   3.350  10.784  0.4915  2.6272  0.7727
 6967SOL    HW232535   4.153   3.390  10.923 -1.2364  0.1561 -0.9015
 6968SOL     OW32536   4.400   2.685  15.618  0.7497  0.4096  0.5323
 6968SOL    HW132537   4.481   2.733  15.600  2.5766 -2.9985 -0.2884
 6968SOL    HW232538   4.360   2.677  15.531  1.7480  0.2935  0.0909
 6969SOL     OW32539   4.522   3.499   6.710 -0.5973  0.0020 -0.2484
 6969SOL    HW132540   4.522   3.486   6.615 -0.5782 -1.5666 -0.0368
 6969SOL    HW232541   4.516   3.594   6.716  3.5826  0.1326  2.0898
 6970SOL     OW32542   1.550   2.345   4.454  0.0691 -0.2996  0.0007
 6970SOL    HW132543   1.590   2.265   4.419  1.4827  0.3682  0.1042
 6970SOL    HW232544   1.460   2.348   4.421 -0.6941 -0.8323  2.0536
 6971SOL     OW32545   0.567   3.469   6.180  0.4653  0.1225 -0.7812
 6971SOL    HW132546   0.474   3.447   6.190  0.2791  1.5886  0.6822
 6971SOL    HW232547   0.607   3.430   6.258  0.0455 -0.6060 -0.9278
 6972SOL     OW32548   0.435   0.874  13.979  0.0123 -0.2074  0.1886
 6972SOL    HW132549   0.465   0.868  14.070  0.3731  0.7584  0.1298
 6972SOL    HW232550   0.353   0.921  13.996 -0.1436 -1.2566  2.3399
 6973SOL     OW32551   2.069   3.436   7.209  0.2549 -0.1623  0.0920
 6973SOL    HW132552   1.978   3.440   7.238  0.3139 -0.6812  0.3420
 6973SOL    HW232553   2.079   3.532   7.210  0.4435 -0.1095 -3.6211
 6974SOL     OW32554   2.891   3.220  17.258  0.0152 -0.0533 -0.3647
 6974SOL    HW132555   2.941   3.237  17.178 -0.7194 -0.7315 -0.9596
 6974SOL    HW232556   2.938   3.141  17.285 -2.3725 -0.5636  2.3141
 6975SOL     OW32557   1.124   3.574   9.251 -0.3273 -0.0846  0.0895
 6975SOL    HW132558   1.183   3.546   9.321  0.5572 -2.1137 -1.4553
 6975SOL    HW232559   1.046   3.593   9.304  0.8031  0.7296  1.4718
 6976SOL     OW32560   4.288   2.171   4.811  0.2333 -0.4248  0.2061
 6976SOL    HW132561   4.327   2.257   4.796  0.2695 -0.5033 -0.1395
 6976SOL    HW232562   4.196   2.199   4.815  0.4521  0.1200  1.2819
 6977SOL     OW32563   0.376   4.495   1.872 -0.0397  0.0930 -0.3780
 6977SOL    HW132564   0.446   4.537   1.921  0.0413 -0.4028 -0.0776
 6977SOL    HW232565   0.418   4.462   1.793 -1.1947  1.0910 -1.4224
 6978SOL     OW32566   2.070   0.304  12.615 -0.4960 -0.3051 -0.5079
 6978SOL    HW132567   2.127   0.319  12.539  0.4370 -0.8191  0.0918
 6978SOL    HW232568   2.094   0.380  12.667  2.7153 -1.5361 -0.1856
 6979SOL     OW32569   4.707   0.215  11.717 -0.0140 -0.7586  0.4296
 6979SOL    HW132570   4.677   0.304  11.702 -2.1727 -1.4448  0.6116
 6979SOL    HW232571   4.670   0.201  11.804  2.2681 -1.2055  1.3074
 6980SOL     OW32572   1.144   1.253   6.622  0.1908 -0.2830  0.7662
 6980SOL    HW132573   1.098   1.274   6.541  1.1655  1.3876  0.6364
 6980SOL    HW232574   1.113   1.163   6.635  1.2175 -0.2305  3.5665
 6981SOL     OW32575   2.235   4.207   5.577 -0.1708 -0.1769  0.1141
 6981SOL    HW132576   2.256   4.210   5.484 -1.2702 -1.6115 -0.1821
 6981SOL    HW232577   2.312   4.162   5.612  0.4482 -1.4449 -2.9494
 6982SOL     OW32578   1.446   3.341   5.817  0.8075  0.1981  0.2129
 6982SOL    HW132579   1.433   3.247   5.806 -0.2514  0.4383 -0.5178
 6982SOL    HW232580   1.464   3.336   5.911  4.3022  2.1481 -0.3386
 6983SOL     OW32581   2.295   3.252   6.568 -0.1819 -0.2749 -0.1271
 6983SOL    HW132582   2.218   3.199   6.549 -0.7601  1.1982 -1.9050
 6983SOL    HW232583   2.361   3.207   6.515 -0.3957 -1.1515  0.3372
 6984SOL     OW32584   1.091   4.483  11.311  0.4037  0.2022 -0.4094
 6984SOL    HW132585   1.174   4.525  11.289  0.1539  0.7269 -0.3695
 6984SOL    HW232586   1.026   4.547  11.280  1.0525  0.8463 -0.4414
 6985SOL     OW32587   0.749   3.459   0.965  0.3334  0.0686 -0.2128
 6985SOL    HW132588   0.755   3.550   0.993  1.4359 -0.4138  1.1276
 6985SOL    HW232589   0.836   3.426   0.989 -0.6707 -4.2209 -2.4414
 6986SOL     OW32590   3.392   1.648   5.053  0.3177  0.0256 -0.1867
 6986SOL    HW132591   3.418   1.607   4.971 -4.8249 -1.8907 -0.8779
 6986SOL    HW232592   3.349   1.571   5.091  0.0792  0.0740 -0.3586
 6987SOL     OW32593   1.197   3.278   8.085 -0.4390 -0.6885 -0.3050
 6987SOL    HW132594   1.287   3.281   8.052 -1.6216  2.0421 -3.2719
 6987SOL    HW232595   1.186   3.184   8.101 -0.4551 -0.9297 -1.8053
 6988SOL     OW32596   1.098   1.639   9.168  0.0449  0.0063  0.0219
 6988SOL    HW132597   1.185   1.665   9.197 -0.7452  2.8018 -0.1551
 6988SOL    HW232598   1.096   1.555   9.214  0.7636  0.7335  1.3912
 6989SOL     OW32599   3.420   0.129   2.832 -0.4249  0.9481  0.1783
 6989SOL    HW132600   3.392   0.138   2.741  0.9822 -2.7683 -0.6690
 6989SOL    HW232601   3.389   0.212   2.867  1.8942  1.9573 -0.1657
 6990SOL     OW32602   0.408   0.105  15.555  0.2760  0.0077  0.2431
 6990SOL    HW132603   0.459   0.181  15.527  0.6510  0.7247  2.8760
 6990SOL    HW232604   0.341   0.119  15.488 -0.3853 -1.4169  0.6192
 6991SOL     OW32605   0.847   0.052  16.867  0.2896  0.0463 -0.0254
 6991SOL    HW132606   0.889   0.048  16.781 -0.2317 -0.3795 -0.2588
 6991SOL    HW232607   0.888   4.714  16.910  0.5138 -0.2233 -0.7141
 6992SOL     OW32608   4.325   4.613  16.766 -0.5165 -0.1349  0.3689
 6992SOL    HW132609   4.253   4.555  16.742  1.0341 -1.3260 -1.4089
 6992SOL    HW232610   4.279   4.693  16.793  2.5970  1.8576 -0.3326
 6993SOL     OW32611   1.412   3.736   8.307 -0.3886 -0.8329  0.8406
 6993SOL    HW132612   1.411   3.655   8.256  1.3180  0.4483 -1.2275
 6993SOL    HW232613   1.350   3.712   8.376 -1.1218  0.0759  0.5077
 6994SOL     OW32614   1.756   4.218   6.588  0.4466  0.1670 -0.1556
 6994SOL    HW132615   1.761   4.300   6.540  0.6456 -1.1671 -2.4243
 6994SOL    HW232616   1.669   4.185   6.566 -0.4121  0.9434  2.1056
 6995SOL     OW32617   3.084   0.987   4.365 -0.0771  0.1197  0.1310
 6995SOL    HW132618   3.150   0.923   4.339  0.2822  0.6539 -0.2548
 6995SOL    HW232619   3.072   0.971   4.458  0.9832  2.7675  0.7009
 6996SOL     OW32620   3.392   4.436  14.159 -0.0542  0.0508 -0.8761
 6996SOL    HW132621   3.453   4.507  14.182  0.5279 -0.8309  0.2929
 6996SOL    HW232622   3.334   4.478  14.095 -1.0603  1.8400  1.2007
 6997SOL     OW32623   3.275   2.963   3.917  0.2925 -0.2014  0.1308
 6997SOL    HW132624   3.311   2.999   3.836  4.0382 -0.4339  1.7017
 6997SOL    HW232625   3.345   2.983   3.979 -0.2604  0.2849  0.6090
 6998SOL     OW32626   2.484   4.279  16.551 -0.5933  0.2914 -0.5252
 6998SOL    HW132627   2.566   4.240  16.520 -0.5797 -0.0460 -0.0642
 6998SOL    HW232628   2.426   4.268  16.476  0.8355  2.9845 -2.0502
 6999SOL     OW32629   1.647   3.055   6.321 -0.0984 -0.3105 -0.0267
 6999SOL    HW132630   1.722   3.036   6.379  0.3579  1.5772 -0.0059
 6999SOL    HW232631   1.676   3.125   6.263 -0.5900  2.1018  2.6138
 7000SOL     OW32632   4.682   3.276  10.077  0.6100  0.1425  0.5672
 7000SOL    HW132633   4.638   3.194  10.097 -1.7968  1.3246  0.0594
 7000SOL    HW232634   0.032   3.245  10.049 -0.1054  0.6996 -2.2977
 7001SOL     OW32635   3.918   1.121   6.505 -0.6962 -0.4105  0.7683
 7001SOL    HW132636   3.956   1.157   6.585  0.2379  2.1173 -0.8216
 7001SOL    HW232637   3.879   1.044   6.547 -0.7890 -0.6103  0.3083
 7002SOL     OW32638   1.024   3.279  16.395  0.3726  1.1694 -0.1151
 7002SOL    HW132639   1.118   3.296  16.391  0.2154  2.5379  1.7490
 7002SOL    HW232640   0.988   3.328  16.469 -0.8212  0.6967 -0.3828
 7003SOL     OW32641   4.164   1.288  14.197 -0.2471 -0.4655 -0.8760
 7003SOL    HW132642   4.247   1.330  14.221 -0.1302 -0.7511 -0.7846
 7003SOL    HW232643   4.128   1.358  14.143  0.2806  1.5081  1.2934
 7004SOL     OW32644   2.040   0.984   6.305 -0.1831 -0.7720 -0.2171
 7004SOL    HW132645   1.995   0.968   6.388 -1.2113 -0.9875 -0.8216
 7004SOL    HW232646   2.087   1.064   6.329 -0.2500 -0.1203 -2.1848
 7005SOL     OW32647   3.070   4.163   2.768 -0.1345 -0.3453 -0.0676
 7005SOL    HW132648   3.079   4.247   2.813 -2.1844 -0.2491  0.1740
 7005SOL    HW232649   2.982   4.166   2.729 -0.2908 -0.3513  0.2834
 7006SOL     OW32650   2.511   0.862   6.272  0.2535 -0.2259 -0.1039
 7006SOL    HW132651   2.593   0.820   6.298 -1.4366 -1.7686  2.7836
 7006SOL    HW232652   2.506   0.932   6.337  2.5675  0.0665 -0.2355
 7007SOL     OW32653   1.766   1.942   2.414 -0.0705  0.2455 -0.5436
 7007SOL    HW132654   1.763   1.949   2.319  0.4693 -0.0503 -0.5865
 7007SOL    HW232655   1.757   1.847   2.414 -1.3616  0.3761 -1.2998
 7008SOL     OW32656   1.556   2.410   1.077 -0.3347  0.1385  0.7181
 7008SOL    HW132657   1.498   2.449   1.142  0.3116  1.6082  0.4009
 7008SOL    HW232658   1.522   2.448   0.996  1.4035 -2.6709 -1.3644
 7009SOL     OW32659   0.517   1.370   6.758  0.3488  0.0104  0.1470
 7009SOL    HW132660   0.609   1.343   6.754  0.6365  0.7486  1.5782
 7009SOL    HW232661   0.504   1.397   6.849 -0.5458 -2.4719  0.7507
 7010SOL     OW32662   1.015   1.739   3.013  0.7826  0.3059 -0.4763
 7010SOL    HW132663   0.986   1.648   3.004 -0.8748  0.7456  0.4489
 7010SOL    HW232664   0.972   1.761   3.095  0.7494 -0.2059 -0.3518
 7011SOL     OW32665   0.149   2.041   6.092 -0.3555  0.0891  0.0676
 7011SOL    HW132666   0.210   2.114   6.082 -0.8566  0.1889 -2.2467
 7011SOL    HW232667   0.071   2.096   6.087 -0.3329  0.0007 -1.1087
 7012SOL     OW32668   1.577   2.888   2.476  0.2308 -0.0877 -0.0044
 7012SOL    HW132669   1.533   2.853   2.554  1.2016 -0.0046  0.5810
 7012SOL    HW232670   1.503   2.884   2.416 -0.8759  1.7198  1.2690
 7013SOL     OW32671   1.825   2.953   4.791  0.1433 -0.1711  0.6044
 7013SOL    HW132672   1.904   2.997   4.821  1.3242 -1.7966 -0.0945
 7013SOL    HW232673   1.770   2.967   4.868 -2.1313  1.6274 -1.3312
 7014SOL     OW32674   1.526   1.176  15.089  0.0792 -0.0067  0.0720
 7014SOL    HW132675   1.437   1.182  15.054  0.4787 -0.4227 -1.0181
 7014SOL    HW232676   1.537   1.087  15.055 -0.3304 -0.1773  0.3862
 7015SOL     OW32677   1.492   0.866  12.105  1.0807 -0.3316 -0.0764
 7015SOL    HW132678   1.585   0.879  12.124  1.0087  0.6197 -0.3762
 7015SOL    HW232679   1.453   0.944  12.145  0.7354 -1.4514  1.7622
 7016SOL     OW32680   0.655   2.569   1.381 -0.2373 -0.1848 -0.4278
 7016SOL    HW132681   0.637   2.643   1.438  1.0912  0.9469 -1.4916
 7016SOL    HW232682   0.748   2.567   1.358 -0.4920  2.7743 -1.6324
 7017SOL     OW32683   4.422   0.195   2.673  0.3258  0.1103 -0.4102
 7017SOL    HW132684   4.433   0.217   2.766  3.8284  0.4737 -0.8990
 7017SOL    HW232685   4.457   0.266   2.620 -0.9261  0.2542 -1.0404
 7018SOL     OW32686   4.311   4.262   6.430 -0.3909 -0.1410 -0.4026
 7018SOL    HW132687   4.406   4.262   6.419 -0.4436 -0.9153 -0.8903
 7018SOL    HW232688   4.296   4.308   6.347  0.5935  1.8045  0.5007
 7019SOL     OW32689   2.654   0.219  16.245  0.6400 -0.0579  0.7456
 7019SOL    HW132690   2.580   0.203  16.188 -0.6307  2.4030  1.7187
 7019SOL    HW232691   2.717   0.157  16.207  0.5134 -0.1738  0.7274
 7020SOL     OW32692   3.283   3.052  17.644 -0.2765  0.2404  0.0411
 7020SOL    HW132693   3.351   3.119  17.646 -0.7683  0.7373  0.1841
 7020SOL    HW232694   3.255   3.080  17.556 -1.9683 -2.6638 -0.3408
 7021SOL     OW32695   1.473   2.436   6.573 -0.2029  0.3377  0.1472
 7021SOL    HW132696   1.485   2.522   6.533  1.2132 -0.2294 -0.6712
 7021SOL    HW232697   1.566   2.418   6.591 -0.4684 -1.8226 -0.6880
 7022SOL     OW32698   2.906   2.667   7.633 -0.7907 -0.1082 -0.4834
 7022SOL    HW132699   2.927   2.733   7.566  0.4186 -0.1527 -0.1491
 7022SOL    HW232700   2.949   2.695   7.714 -2.4307 -0.8258  0.6463
 7023SOL     OW32701   3.311   1.389   5.217  0.6513 -0.2883 -0.1458
 7023SOL    HW132702   3.326   1.296   5.234 -1.2583 -0.2943  1.5088
 7023SOL    HW232703   3.368   1.426   5.285  0.8331 -0.6400 -0.1076
 7024SOL     OW32704   0.182   1.709  12.325  0.2491  0.0303 -0.1972
 7024SOL    HW132705   0.204   1.707  12.232 -0.2528  2.7270 -0.3774
 7024SOL    HW232706   0.091   1.681  12.330  0.1288  0.2825 -1.0006
 7025SOL     OW32707   2.496   0.221   6.845  0.5640  0.2496  0.1088
 7025SOL    HW132708   2.546   0.166   6.784 -0.0014 -1.4209  1.1618
 7025SOL    HW232709   2.412   0.177   6.832  1.0700 -0.3248 -1.2256
 7026SOL     OW32710   0.084   1.640   3.618  0.1969 -0.3250 -0.1199
 7026SOL    HW132711   0.166   1.673   3.654  0.3414  0.1062 -0.8400
 7026SOL    HW232712   0.115   1.584   3.547  0.2812  0.0569 -0.3876
 7027SOL     OW32713   3.154   4.463   1.713 -0.1903 -0.0864  0.5826
 7027SOL    HW132714   3.157   4.546   1.759  2.2135 -0.2311  0.7080
 7027SOL    HW232715   3.230   4.417   1.748 -1.0064 -0.8893  1.2924
 7028SOL     OW32716   2.374   2.127   3.102  0.0409 -0.0030  0.9368
 7028SOL    HW132717   2.384   2.165   3.015  1.1813 -1.6604  0.3466
 7028SOL    HW232718   2.467   2.134   3.123  0.2434 -0.2395  0.0826
 7029SOL     OW32719   4.373   3.195   2.141  0.3232 -0.1200 -0.1979
 7029SOL    HW132720   4.468   3.197   2.125  0.4850 -0.5608  0.7362
 7029SOL    HW232721   4.376   3.229   2.230 -3.6904 -0.3881  0.0401
 7030SOL     OW32722   1.516   2.614   7.337 -0.2764 -0.0682 -0.6066
 7030SOL    HW132723   1.546   2.673   7.406 -0.3168 -0.8825  0.0988
 7030SOL    HW232724   1.514   2.527   7.376  2.0462 -0.1290 -0.6369
 7031SOL     OW32725   4.177   0.824   9.382 -0.1191 -0.3737 -0.1884
 7031SOL    HW132726   4.251   0.832   9.442  0.8258  1.2085 -1.5447
 7031SOL    HW232727   4.182   0.731   9.364  0.2037 -0.2340 -0.8269
 7032SOL     OW32728   1.935   2.979   1.815  0.4895  0.6071  0.0915
 7032SOL    HW132729   1.950   3.048   1.879  1.3452 -0.7114  1.2862
 7032SOL    HW232730   2.001   3.008   1.752  0.5334 -2.3103 -1.2147
 7033SOL     OW32731   1.994   0.361   4.904 -0.2236 -0.3504 -0.8047
 7033SOL    HW132732   2.014   0.435   4.960 -1.2464 -0.9275  0.3246
 7033SOL    HW232733   2.067   0.365   4.843 -0.4584  0.8433 -1.0050
 7034SOL     OW32734   0.368   0.900   5.910 -0.3649 -0.1760  0.0504
 7034SOL    HW132735   0.439   0.856   5.957 -0.1334  1.4116  1.1876
 7034SOL    HW232736   0.372   0.856   5.825 -1.0330  1.3961 -0.7889
 7035SOL     OW32737   0.382   3.997   0.808 -0.2534 -0.3815  0.0124
 7035SOL    HW132738   0.442   4.016   0.735  0.0515  0.3913  0.4608
 7035SOL    HW232739   0.423   3.921   0.848 -0.9797 -2.0897 -2.4672
 7036SOL     OW32740   3.158   1.966   6.265 -0.1144 -0.1914 -0.0878
 7036SOL    HW132741   3.112   1.986   6.347  0.1002 -1.8898  0.4297
 7036SOL    HW232742   3.250   1.975   6.289 -0.1628  1.3559 -0.4414
 7037SOL     OW32743   2.340   0.100   8.487 -0.3851 -0.0476 -0.0826
 7037SOL    HW132744   2.413   0.153   8.455 -1.3081  0.9369 -0.5641
 7037SOL    HW232745   2.347   0.027   8.426 -1.4866 -1.9712  2.0367
 7038SOL     OW32746   2.090   3.588   3.124 -0.2748 -0.3312 -0.3580
 7038SOL    HW132747   2.104   3.674   3.164 -3.1557  0.2013 -0.5448
 7038SOL    HW232748   2.021   3.551   3.178  1.4004 -0.0759  1.9691
 7039SOL     OW32749   4.072   3.634   5.109 -0.1241 -0.5339 -0.3806
 7039SOL    HW132750   4.114   3.565   5.058  1.0240  1.0236 -1.5537
 7039SOL    HW232751   4.147   3.676   5.151 -3.1602  1.9308  2.6575
 7040SOL     OW32752   0.037   4.297   9.603  0.5246 -0.3858  0.1757
 7040SOL    HW132753   4.696   4.352   9.605 -0.3025 -1.6070  1.1187
 7040SOL    HW232754   4.737   4.209   9.594  1.1673 -0.8293  1.9183
 7041SOL     OW32755   0.227   1.015   4.576 -0.3316  0.3413  0.0850
 7041SOL    HW132756   0.315   1.046   4.554 -0.7639 -0.4428 -2.6874
 7041SOL    HW232757   0.222   0.923   4.550 -1.0223  0.3582  0.1675
 7042SOL     OW32758   2.463   0.386   6.201 -0.4244 -0.1944 -0.3054
 7042SOL    HW132759   2.464   0.293   6.223  1.4183 -0.5519 -1.9361
 7042SOL    HW232760   2.383   0.410   6.249  1.6043  4.0380  0.9695
 7043SOL     OW32761   1.109   1.665   8.573  0.2408  0.2830  0.3894
 7043SOL    HW132762   1.023   1.665   8.616 -0.5683 -1.0793 -1.2223
 7043SOL    HW232763   1.166   1.648   8.648 -0.0520 -0.1875  0.5056
 7044SOL     OW32764   0.866   0.282  13.992  0.0592  0.2635 -0.1673
 7044SOL    HW132765   0.796   0.267  13.928  0.0689  2.3440 -0.6690
 7044SOL    HW232766   0.937   0.222  13.967  0.5017  0.7049  0.0361
 7045SOL     OW32767   3.351   3.942   8.253 -0.0950  0.3606  0.4632
 7045SOL    HW132768   3.375   3.851   8.268  0.7168  0.4696 -0.2375
 7045SOL    HW232769   3.265   3.945   8.297 -0.4530 -0.6076 -0.1798
 7046SOL     OW32770   3.235   0.893  16.497  0.1831  0.0993 -0.2146
 7046SOL    HW132771   3.291   0.817  16.513 -0.3827 -0.3937 -0.5517
 7046SOL    HW232772   3.277   0.968  16.537  0.8818  0.3516 -1.4168
 7047SOL     OW32773   0.428   4.326   4.714  0.3276  0.6283  0.0897
 7047SOL    HW132774   0.386   4.359   4.793  2.3014  2.6302  0.2893
 7047SOL    HW232775   0.513   4.299   4.748  0.4700  1.4419  0.3947
 7048SOL     OW32776   1.556   0.713   6.753 -0.2682 -0.9476  0.0805
 7048SOL    HW132777   1.569   0.808   6.744 -2.5895 -0.6767 -0.6632
 7048SOL    HW232778   1.641   0.671   6.758 -0.7745 -1.9650  0.2439
 7049SOL     OW32779   1.912   1.440  15.019 -0.4150 -0.0884  0.2485
 7049SOL    HW132780   1.861   1.421  15.097  0.9596  2.4184  1.7532
 7049SOL    HW232781   1.869   1.523  14.998 -1.1869 -1.0330 -1.9178
 7050SOL     OW32782   3.830   2.874  14.316 -0.0255  0.1017  0.2503
 7050SOL    HW132783   3.776   2.818  14.261  0.0572  1.8115 -1.5476
 7050SOL    HW232784   3.803   2.840  14.402 -3.3584  0.1436 -0.7930
 7051SOL     OW32785   1.229   3.769  17.685 -0.6881  0.7682 -0.5202
 7051SOL    HW132786   1.178   3.833  17.736  0.1530 -0.3393  1.7233
 7051SOL    HW232787   1.291   3.730  17.746 -0.0468  2.8927  0.1864
 7052SOL     OW32788   0.165   3.944   4.869 -0.4105 -0.5792  0.3744
 7052SOL    HW132789   0.204   4.004   4.805 -0.6024  0.1026  0.9008
 7052SOL    HW232790   0.085   3.992   4.891 -0.4936 -0.7722  0.4940
 7053SOL     OW32791   2.987   2.103  16.999  0.2917  0.4154 -0.3026
 7053SOL    HW132792   3.014   2.192  16.975  2.6372  0.1574  1.4244
 7053SOL    HW232793   2.919   2.115  17.065 -1.6920  0.3359 -2.3353
 7054SOL     OW32794   3.745   0.366  13.232  0.1899 -0.2164  0.0181
 7054SOL    HW132795   3.743   0.334  13.142  0.1380  1.3299 -0.5318
 7054SOL    HW232796   3.693   0.301  13.279 -0.1881  0.7870  1.0051
 7055SOL     OW32797   0.251   3.609   3.360  0.1085 -0.1990  0.4788
 7055SOL    HW132798   0.344   3.607   3.338 -0.1924  0.8015 -0.8897
 7055SOL    HW232799   0.263   3.570   3.446  0.0403 -0.9314  0.1594
 7056SOL     OW32800   0.561   2.614   9.738  0.3422  0.2900 -0.0518
 7056SOL    HW132801   0.605   2.530   9.730 -0.1998  0.1459 -1.5697
 7056SOL    HW232802   0.538   2.618   9.831 -2.7491  0.1842 -0.7895
 7057SOL     OW32803   3.649   1.103   7.682 -0.0397 -0.3123  0.3736
 7057SOL    HW132804   3.725   1.146   7.643 -0.5155  0.2074  0.0144
 7057SOL    HW232805   3.680   1.015   7.659 -1.2141 -0.2109 -1.5919
 7058SOL     OW32806   2.851   3.437   3.351  0.1082  0.3151  0.2726
 7058SOL    HW132807   2.852   3.454   3.445 -2.3912 -4.0885  1.0675
 7058SOL    HW232808   2.904   3.510   3.318  0.9819 -0.9605 -1.1189
 7059SOL     OW32809   2.615   0.229   3.534  0.2962  0.0289  0.3442
 7059SOL    HW132810   2.535   0.223   3.482  0.5751  0.2177 -0.1086
 7059SOL    HW232811   2.672   0.189   3.468  1.3001 -1.4569  2.1195
 7060SOL     OW32812   2.509   3.668   9.053 -0.1783 -0.5432 -0.3306
 7060SOL    HW132813   2.594   3.626   9.037  0.1484  0.0953 -0.2588
 7060SOL    HW232814   2.473   3.682   8.965  1.1925 -1.0286 -0.9758
 7061SOL     OW32815   4.584   3.521   3.887  0.1056  0.2411  0.5799
 7061SOL    HW132816   4.649   3.503   3.820  1.5266  2.1971  1.4537
 7061SOL    HW232817   4.629   3.583   3.943 -0.7766 -0.2029  1.7880
 7062SOL     OW32818   1.197   3.377   2.858 -0.8927  0.0487 -0.0317
 7062SOL    HW132819   1.280   3.332   2.872 -1.2099 -0.2057  1.0551
 7062SOL    HW232820   1.225   3.463   2.827 -0.4086  0.2258  0.8827
 7063SOL     OW32821   0.899   2.854   8.050 -0.2504  0.2756 -0.1227
 7063SOL    HW132822   0.924   2.777   8.101 -0.4980 -0.6379 -1.3765
 7063SOL    HW232823   0.962   2.832   7.982 -0.6107 -1.9477  0.2742
 7064SOL     OW32824   3.168   4.251   0.262  0.3570 -0.3848 -0.4917
 7064SOL    HW132825   3.162   4.342   0.233 -0.9476 -0.3199  0.0105
 7064SOL    HW232826   3.261   4.246   0.285 -0.1830 -2.6268  1.2437
 7065SOL     OW32827   1.654   1.969   9.559 -0.3060  0.1045 -0.5705
 7065SOL    HW132828   1.696   2.015   9.631 -1.0456  0.1756 -0.1883
 7065SOL    HW232829   1.680   1.881   9.586  1.4391  0.8148  0.0665
 7066SOL     OW32830   2.401   1.820   1.217  0.5145 -0.7095  0.2865
 7066SOL    HW132831   2.487   1.814   1.175  0.2648  1.0844 -0.4837
 7066SOL    HW232832   2.398   1.914   1.198  1.6020 -0.4479  1.3267
 7067SOL     OW32833   0.499   4.353   6.197  0.6352 -0.3051  0.3353
 7067SOL    HW132834   0.573   4.386   6.146  0.6413 -1.6188 -0.5050
 7067SOL    HW232835   0.416   4.383   6.161 -0.8388 -1.6015  2.6880
 7068SOL     OW32836   2.240   0.811  17.227 -0.3434 -0.0780 -0.9917
 7068SOL    HW132837   2.243   0.812  17.131  0.0917 -0.6491 -0.9818
 7068SOL    HW232838   2.202   0.725  17.243 -2.0627  0.5155 -1.9031
 7069SOL     OW32839   0.145   3.367   9.724  0.5173  0.3125  0.0246
 7069SOL    HW132840   0.136   3.303   9.795  4.4052 -0.2456  0.0076
 7069SOL    HW232841   0.111   3.322   9.647 -1.2752  0.1438  0.9014
 7070SOL     OW32842   4.205   3.934   8.426 -0.4422 -0.3611  0.3823
 7070SOL    HW132843   4.221   3.968   8.514 -2.8536  3.1722 -0.5425
 7070SOL    HW232844   4.292   3.926   8.386 -0.2179 -0.4120  0.8868
 7071SOL     OW32845   1.409   1.450   9.845 -0.0148 -0.0003 -0.1336
 7071SOL    HW132846   1.431   1.540   9.869  0.1394  0.0884 -0.6034
 7071SOL    HW232847   1.314   1.448   9.835 -0.3299  2.9622  2.4548
 7072SOL     OW32848   2.044   3.293   5.155  0.7105 -0.1285  0.6041
 7072SOL    HW132849   1.966   3.334   5.192  1.9712  0.5870  2.5029
 7072SOL    HW232850   2.087   3.261   5.235  1.5375 -1.1951 -0.2761
 7073SOL     OW32851   4.180   3.778   9.129 -0.1701 -0.3383 -0.5413
 7073SOL    HW132852   4.271   3.764   9.104 -1.0618 -0.5706 -3.6681
 7073SOL    HW232853   4.181   3.734   9.214 -0.2651  1.7488  0.5410
 7074SOL     OW32854   3.768   3.521  15.204 -0.8871  0.4672 -0.1612
 7074SOL    HW132855   3.768   3.534  15.299  1.3117 -0.3849 -0.0366
 7074SOL    HW232856   3.689   3.467  15.196  0.9289 -2.1224 -0.4556
 7075SOL     OW32857   2.807   0.451   2.548  0.8416 -0.1992  0.4604
 7075SOL    HW132858   2.735   0.506   2.518  0.8719 -1.7613 -2.4776
 7075SOL    HW232859   2.798   0.375   2.490  0.9480  0.3762 -0.3057
 7076SOL     OW32860   3.998   4.489   2.228  0.8372  0.6620  0.0760
 7076SOL    HW132861   4.025   4.550   2.297  0.5122 -0.1131  0.8919
 7076SOL    HW232862   3.966   4.543   2.156 -1.4253 -2.2243 -1.0447
 7077SOL     OW32863   2.049   2.520   6.997  0.5645 -0.1369 -0.0697
 7077SOL    HW132864   2.098   2.595   6.963  0.9201 -1.0211 -1.4884
 7077SOL    HW232865   2.050   2.540   7.091  0.4295 -1.7679  0.2744
 7078SOL     OW32866   1.515   1.609  11.212  0.3902 -0.3679  0.2733
 7078SOL    HW132867   1.553   1.665  11.144 -1.7378  1.0621  0.2235
 7078SOL    HW232868   1.489   1.537  11.154  3.7207 -0.7862 -0.7163
 7079SOL     OW32869   4.499   4.437   8.991  0.2537  0.2788 -0.2468
 7079SOL    HW132870   4.421   4.437   9.047  0.9161  1.3729  0.6773
 7079SOL    HW232871   4.487   4.500   8.920  0.3758  0.7428  0.1451
 7080SOL     OW32872   3.845   1.402   8.340  0.0182  0.5731 -0.0280
 7080SOL    HW132873   3.814   1.490   8.357  0.0971  0.7195 -0.6423
 7080SOL    HW232874   3.917   1.386   8.401 -1.3130 -2.1554  0.8254
 7081SOL     OW32875   1.862   4.609   4.243  0.4644  0.4626  0.4641
 7081SOL    HW132876   1.803   4.647   4.178 -0.1146  0.0807  0.7709
 7081SOL    HW232877   1.861   4.516   4.221 -1.3821  0.3385  1.0724
 7082SOL     OW32878   2.141   0.986   3.374 -0.4301 -0.5400  0.7879
 7082SOL    HW132879   2.171   0.897   3.359 -1.3063 -0.8589  0.9691
 7082SOL    HW232880   2.129   1.023   3.286  1.9904  0.2974  0.8057
 7083SOL     OW32881   3.692   3.233   5.422 -0.1865  0.2531 -0.1805
 7083SOL    HW132882   3.619   3.221   5.362 -1.1922 -0.2086  1.1272
 7083SOL    HW232883   3.763   3.204   5.364  0.3801 -0.7040  0.9724
 7084SOL     OW32884   2.176   1.828  15.629  0.3383 -0.0963 -0.6407
 7084SOL    HW132885   2.130   1.902  15.590  1.0088  0.4232 -0.4362
 7084SOL    HW232886   2.265   1.864  15.631 -1.1129  3.4072  0.0916
 7085SOL     OW32887   1.533   1.016  14.157  0.6698 -0.2070 -0.2718
 7085SOL    HW132888   1.546   0.959  14.081 -0.3945 -2.2296  1.0575
 7085SOL    HW232889   1.612   1.070  14.162  0.9356 -0.5782 -0.4673
 7086SOL     OW32890   2.378   0.675   3.950 -0.3960 -0.1734  0.1396
 7086SOL    HW132891   2.438   0.650   3.880 -0.7899  0.7889 -0.5430
 7086SOL    HW232892   2.312   0.607   3.960 -3.2331  2.3045 -1.8005
 7087SOL     OW32893   0.219   4.534   8.237 -0.3256  0.3216 -0.2869
 7087SOL    HW132894   0.238   4.541   8.143 -0.3458  0.5950 -0.2711
 7087SOL    HW232895   0.237   4.442   8.257  3.1037  1.1755  0.5309
 7088SOL     OW32896   4.453   3.406   7.168 -0.2916 -0.1799 -0.1504
 7088SOL    HW132897   4.499   3.322   7.174  2.0008  1.1305  0.4258
 7088SOL    HW232898   4.410   3.403   7.083 -2.0837 -2.9951  0.8430
 7089SOL     OW32899   1.077   1.058   6.943 -0.0456 -0.0628 -0.1116
 7089SOL    HW132900   1.027   0.979   6.966  1.6336 -1.2066 -0.3884
 7089SOL    HW232901   1.101   1.031   6.854 -4.1038  0.9338 -1.5291
 7090SOL     OW32902   0.568   3.287   3.478 -0.3875 -0.1275 -0.3268
 7090SOL    HW132903   0.505   3.216   3.486 -0.6653  0.1924  0.3298
 7090SOL    HW232904   0.523   3.348   3.420 -0.0590 -0.5118 -0.9832
 7091SOL     OW32905   1.224   3.804   8.585 -0.5136  0.8062 -0.0432
 7091SOL    HW132906   1.270   3.741   8.640  0.5671  0.9867 -0.7277
 7091SOL    HW232907   1.136   3.811   8.622  0.7380  0.8284  2.9342
 7092SOL     OW32908   3.264   2.858  14.694 -0.0752  0.2049  0.0724
 7092SOL    HW132909   3.342   2.900  14.656  0.0244 -1.5911 -1.7109
 7092SOL    HW232910   3.224   2.824  14.614 -1.6739 -2.1768  1.8702
 7093SOL     OW32911   1.078   0.423   7.244 -0.8934  0.0183 -0.2945
 7093SOL    HW132912   1.139   0.374   7.188  2.1809  1.8347  1.5019
 7093SOL    HW232913   1.067   0.509   7.203  0.7153  0.2942 -0.1112
 7094SOL     OW32914   1.714   1.195  17.576  0.4671  0.0020  0.4891
 7094SOL    HW132915   1.776   1.134  17.614  2.3093  2.3533  1.2857
 7094SOL    HW232916   1.769   1.261  17.534 -0.6047 -0.4039 -1.5502
 7095SOL     OW32917   2.201   4.592   2.289  0.4179 -0.4062  0.0589
 7095SOL    HW132918   2.237   4.568   2.203 -0.0313 -1.7872  0.2686
 7095SOL    HW232919   2.204   4.688   2.288 -2.2606 -0.3422 -2.8022
 7096SOL     OW32920   3.798   0.661   5.820  0.0346  0.4217  0.1377
 7096SOL    HW132921   3.833   0.572   5.818  1.2292  0.8855  0.6541
 7096SOL    HW232922   3.708   0.640   5.795  0.2076 -1.6552  1.2088
 7097SOL     OW32923   2.818   3.205   2.502 -1.0587 -0.8658  0.1685
 7097SOL    HW132924   2.807   3.266   2.429 -3.5195 -1.2300  0.2366
 7097SOL    HW232925   2.762   3.245   2.568 -1.8512 -2.8829  0.7151
 7098SOL     OW32926   0.596   3.330   4.392 -0.1861  0.2999  0.2297
 7098SOL    HW132927   0.617   3.273   4.465  0.7759  1.2393  0.6859
 7098SOL    HW232928   0.612   3.420   4.420  3.8282 -0.3680  0.0335
 7099SOL     OW32929   4.376   2.161   3.410  0.4249 -0.1321 -0.4861
 7099SOL    HW132930   4.398   2.223   3.480  2.8157  1.3345 -2.5233
 7099SOL    HW232931   4.463   2.129   3.387  1.4969  1.5080  1.3237
 7100SOL     OW32932   3.141   1.514   0.824 -0.0327  0.5087  0.3429
 7100SOL    HW132933   3.093   1.508   0.906 -0.0657 -2.3955  0.1157
 7100SOL    HW232934   3.232   1.493   0.846 -0.5501  0.0010  2.0186
 7101SOL     OW32935   1.215   0.758   3.036 -0.1502  0.2355 -0.3223
 7101SOL    HW132936   1.290   0.816   3.030 -0.4485  0.7455  0.7498
 7101SOL    HW232937   1.237   0.689   2.974  1.5443  0.0254  0.5201
 7102SOL     OW32938   0.252   0.173   0.410  0.7552  0.1524  0.5939
 7102SOL    HW132939   0.181   0.157   0.473  0.5501  1.9946  0.8321
 7102SOL    HW232940   0.331   0.158   0.462 -0.1102 -0.9240  1.5967
 7103SOL     OW32941   0.710   0.738   8.756  0.3436  0.0223  0.2527
 7103SOL    HW132942   0.754   0.762   8.838 -1.1846  2.9914  0.1779
 7103SOL    HW232943   0.655   0.816   8.758  2.3972  1.4133  2.1241
 7104SOL     OW32944   3.398   1.110   2.864  0.6043 -0.1783 -0.1791
 7104SOL    HW132945   3.411   1.185   2.922 -2.8581 -1.2309  1.9828
 7104SOL    HW232946   3.310   1.078   2.884  0.6443 -1.4665 -2.1232
 7105SOL     OW32947   2.210   1.408  17.185  0.5324  0.3948 -0.2032
 7105SOL    HW132948   2.247   1.470  17.122 -0.4797  1.8975  0.7029
 7105SOL    HW232949   2.204   1.325  17.137  1.9078 -0.2734  0.8086
 7106SOL     OW32950   3.544   1.151   6.831 -0.0424  0.7401  0.1815
 7106SOL    HW132951   3.587   1.070   6.805 -0.0113  0.7360  0.2477
 7106SOL    HW232952   3.614   1.194   6.881 -0.0925 -0.2133  1.0453
 7107SOL     OW32953   1.912   4.438  17.658 -0.4535 -0.4968  0.1089
 7107SOL    HW132954   1.852   4.513  17.663  1.6542  1.2256 -0.3809
 7107SOL    HW232955   1.972   4.464  17.728 -1.3271  1.0769  0.2740
 7108SOL     OW32956   2.201   1.823   5.789 -0.1819 -0.1879 -0.3428
 7108SOL    HW132957   2.250   1.753   5.746 -0.7921 -0.3229 -0.8306
 7108SOL    HW232958   2.227   1.823   5.881 -0.6298 -0.3357 -0.2148
 7109SOL     OW32959   4.542   3.229   4.967 -0.2777  0.1419  0.2434
 7109SOL    HW132960   4.506   3.313   4.940 -0.0615  0.6612  1.6289
 7109SOL    HW232961   4.478   3.165   4.936  4.0880 -2.4674 -3.4419
 7110SOL     OW32962   1.689   2.114   5.928  0.1443  0.6805  0.4520
 7110SOL    HW132963   1.723   2.193   5.971  0.7346 -0.3951  1.9611
 7110SOL    HW232964   1.638   2.086   6.004 -2.7847  1.7881 -1.0871
 7111SOL     OW32965   3.819   1.708   1.224 -0.7622 -0.4101 -0.1110
 7111SOL    HW132966   3.798   1.733   1.134 -0.6199 -1.3354 -0.4002
 7111SOL    HW232967   3.868   1.627   1.209  1.2945  1.0075 -1.0249
 7112SOL     OW32968   2.035   0.012  16.204  0.0153 -0.2026 -0.2674
 7112SOL    HW132969   2.010   0.083  16.144 -1.7002  0.3896  1.1524
 7112SOL    HW232970   2.091   0.058  16.267  1.4363  0.3516 -1.9550
 7113SOL     OW32971   2.267   1.892   4.617  0.2968 -0.5395  0.4847
 7113SOL    HW132972   2.176   1.889   4.588  0.4301 -0.3717  0.0555
 7113SOL    HW232973   2.311   1.875   4.533 -1.0844  3.4028 -1.0194
 7114SOL     OW32974   1.444   2.754   2.282  0.4623 -0.0744 -0.2588
 7114SOL    HW132975   1.388   2.677   2.294 -1.9204  1.7503  0.4076
 7114SOL    HW232976   1.388   2.812   2.229 -1.4831  0.0243  1.9240
 7115SOL     OW32977   1.798   1.205   5.560 -0.4183  0.3864 -0.3917
 7115SOL    HW132978   1.849   1.216   5.641 -1.0742 -0.5408  0.1529
 7115SOL    HW232979   1.835   1.267   5.497 -0.0915  0.0226 -0.5576
 7116SOL     OW32980   1.058   0.237   7.986  0.1855 -0.0112  0.4040
 7116SOL    HW132981   0.989   0.304   7.986  1.7643  1.5983 -0.1056
 7116SOL    HW232982   1.122   0.289   8.036  0.3835 -0.9066  1.0700
 7117SOL     OW32983   3.323   4.625  14.494 -0.2272 -0.5237 -0.2404
 7117SOL    HW132984   3.333   4.530  14.491  1.0198 -0.4231  0.2872
 7117SOL    HW232985   3.358   4.656  14.578  0.2618 -0.9061 -0.3028
 7118SOL     OW32986   1.495   1.135   5.214 -0.1349 -0.2175 -0.5313
 7118SOL    HW132987   1.584   1.135   5.179 -0.1626 -1.9818 -0.6198
 7118SOL    HW232988   1.486   1.229   5.227 -0.6024 -0.2498 -0.6119
 7119SOL     OW32989   3.596   2.894   0.213 -0.3950  0.1601  0.9545
 7119SOL    HW132990   3.684   2.882   0.249 -0.3754  0.5196  1.0345
 7119SOL    HW232991   3.536   2.887   0.287 -1.4946  0.3716  0.0854
 7120SOL     OW32992   2.442   1.140  12.222  0.1383 -0.3215 -0.0811
 7120SOL    HW132993   2.494   1.197  12.278 -1.0106  1.3649 -0.7172
 7120SOL    HW232994   2.405   1.079  12.287  1.1008 -0.9836 -0.1597
 7121SOL     OW32995   2.092   0.110  10.853 -0.4316 -0.2210  0.0068
 7121SOL    HW132996   2.166   0.090  10.911  1.3027 -1.2672 -2.5937
 7121SOL    HW232997   2.141   0.126  10.773 -0.6200  0.6884  0.0678
 7122SOL     OW32998   2.228   2.546   9.697 -0.0929  0.0578  0.2069
 7122SOL    HW132999   2.322   2.532   9.687 -0.2463 -0.4795 -0.5752
 7122SOL    HW233000   2.222   2.632   9.737  1.1990 -0.1321  0.7935
 7123SOL     OW33001   0.971   0.222   4.164 -0.7029  0.5880 -0.3567
 7123SOL    HW133002   0.948   0.129   4.160 -2.9443  1.2151 -1.9564
 7123SOL    HW233003   0.943   0.258   4.248 -1.6801  1.1468 -0.9235
 7124SOL     OW33004   2.831   4.150   2.649  0.5945  0.7904  0.6295
 7124SOL    HW133005   2.783   4.225   2.613 -0.2575  0.4940  1.1401
 7124SOL    HW233006   2.801   4.088   2.583 -0.0055 -0.4865  2.0860
 7125SOL     OW33007   0.441   1.427  10.063 -0.0784  0.2302 -0.5326
 7125SOL    HW133008   0.497   1.351  10.044  0.2212  0.0207  1.2316
 7125SOL    HW233009   0.379   1.403   9.993 -2.9046  0.8109  1.7497
 7126SOL     OW33010   4.032   0.702  12.365  0.2331  0.0134 -0.4416
 7126SOL    HW133011   4.079   0.633  12.412  2.4353  1.6937 -0.1851
 7126SOL    HW233012   3.941   0.681  12.387  0.5292  0.9423  1.7536
 7127SOL     OW33013   1.729   0.068   8.053 -0.2737 -0.5623  0.4465
 7127SOL    HW133014   1.663   0.015   8.008  0.9073 -1.8403  0.2030
 7127SOL    HW233015   1.803   0.010   8.034 -0.4923 -0.9766  0.8805
 7128SOL     OW33016   3.478   2.086   5.478  0.4890  0.1190  0.2649
 7128SOL    HW133017   3.405   2.028   5.500  0.8120 -0.6263 -0.6415
 7128SOL    HW233018   3.441   2.172   5.499 -0.1684  0.2185 -1.3675
 7129SOL     OW33019   3.981   3.874  14.679  0.3436  0.5142 -0.3137
 7129SOL    HW133020   3.905   3.853  14.733 -0.4038  0.4667 -1.3763
 7129SOL    HW233021   3.928   3.872  14.600  0.9961 -0.9783 -0.7290
 7130SOL     OW33022   4.230   2.370   6.251  0.6231  0.0154 -0.2562
 7130SOL    HW133023   4.143   2.409   6.248 -0.0356 -1.5647 -1.5216
 7130SOL    HW233024   4.244   2.322   6.169 -1.0217  0.6975 -0.9441
 7131SOL     OW33025   1.167   0.204   5.681  0.4380 -0.4196  0.0139
 7131SOL    HW133026   1.207   0.286   5.653 -0.6604  0.3877  0.7931
 7131SOL    HW233027   1.106   0.187   5.609 -0.3583  0.4194  0.4967
 7132SOL     OW33028   3.893   4.585   2.869 -0.1510  0.5754  0.3279
 7132SOL    HW133029   3.799   4.604   2.866 -0.3134 -0.3752 -0.4266
 7132SOL    HW233030   3.921   4.656   2.928  2.3546  0.0725 -0.2357
 7133SOL     OW33031   3.075   0.017   2.105  0.1640 -0.0260 -0.2766
 7133SOL    HW133032   3.145   4.699   2.070  0.1955 -0.1390 -0.0362
 7133SOL    HW233033   3.054   4.703   2.183 -0.6969 -2.2165 -1.9513
 7134SOL     OW33034   0.031   3.340   6.257  0.1340  0.3998 -0.0526
 7134SOL    HW133035   4.690   3.387   6.287 -0.5532  0.7993 -2.4546
 7134SOL    HW233036   4.737   3.277   6.193 -0.0836 -2.0588  2.5030
 7135SOL     OW33037   0.614   1.103   2.798 -0.0479 -0.0699 -0.5172
 7135SOL    HW133038   0.672   1.034   2.830  0.8721  1.6904  1.5846
 7135SOL    HW233039   0.636   1.177   2.855 -3.0442  0.6477 -0.2483
 7136SOL     OW33040   1.195   2.153   9.389  0.3692 -0.0242 -0.5389
 7136SOL    HW133041   1.210   2.241   9.423 -1.8201  0.0098  0.3882
 7136SOL    HW233042   1.099   2.155   9.387  0.3494  0.4501  0.6677
 7137SOL     OW33043   0.274   3.863   2.511  0.3645 -0.4278  0.6655
 7137SOL    HW133044   0.183   3.868   2.483  0.2981 -0.5261  0.8731
 7137SOL    HW233045   0.270   3.768   2.510  2.4033 -0.5205  0.8526
 7138SOL     OW33046   0.468   0.253   2.267  0.2389  0.3121  0.7783
 7138SOL    HW133047   0.386   0.221   2.232 -0.5928  1.5870  1.5491
 7138SOL    HW233048   0.507   0.172   2.300 -0.3882 -1.4498 -2.7719
 7139SOL     OW33049   0.947   0.008   8.900 -0.2500  0.1989  0.0640
 7139SOL    HW133050   1.018   0.057   8.942 -1.0940  0.5688  1.0638
 7139SOL    HW233051   0.944   0.053   8.816  1.0073 -2.2980 -1.2869
 7140SOL     OW33052   4.634   4.560   3.506  0.7756  0.0981 -0.3666
 7140SOL    HW133053   4.665   4.518   3.425 -0.1870 -1.0876 -0.1302
 7140SOL    HW233054   4.545   4.585   3.479  0.0181 -2.2284 -0.0791
 7141SOL     OW33055   0.540   4.096  12.714 -0.3788  0.4400 -0.2480
 7141SOL    HW133056   0.590   4.085  12.632  2.1382  2.1714  1.0432
 7141SOL    HW233057   0.613   4.124  12.769  0.3497 -0.4941 -0.7296
 7142SOL     OW33058   4.653   0.784   6.902  0.1501  0.0263  0.2801
 7142SOL    HW133059   4.676   0.777   6.809  0.0316 -1.9296  0.4166
 7142SOL    HW233060   4.718   0.841   6.944  1.0644 -1.6631  1.1342
 7143SOL     OW33061   2.982   0.321   1.615  0.9053  0.0219 -0.1495
 7143SOL    HW133062   3.038   0.275   1.552 -0.6137 -1.4556 -0.4410
 7143SOL    HW233063   2.901   0.276   1.591  0.3017  0.9111  0.2070
 7144SOL     OW33064   2.030   2.277   2.764 -0.2856  0.3398  0.4615
 7144SOL    HW133065   1.969   2.205   2.775 -2.6458  2.0543 -1.2814
 7144SOL    HW233066   2.107   2.229   2.734 -0.7172 -1.1072  1.6882
 7145SOL     OW33067   3.342   0.017   9.592 -0.0397 -0.2684  0.4960
 7145SOL    HW133068   3.305   4.710   9.516 -2.5661  1.4670  0.7398
 7145SOL    HW233069   3.410   4.690   9.615  0.5720 -0.3212 -1.5150
 7146SOL     OW33070   0.850   4.197   3.507 -0.2831  0.1747 -0.0187
 7146SOL    HW133071   0.924   4.222   3.451  0.3357  1.9467  1.5741
 7146SOL    HW233072   0.852   4.104   3.483  1.6215  0.8875 -2.6218
 7147SOL     OW33073   1.121   1.365   2.977  0.4863 -0.5155  0.0766
 7147SOL    HW133074   1.173   1.315   2.913  0.3421 -2.2872  1.3545
 7147SOL    HW233075   1.057   1.395   2.912  1.4161 -2.1068 -1.5943
 7148SOL     OW33076   3.947   3.060   5.852  0.7295 -0.4135 -0.1110
 7148SOL    HW133077   3.914   3.089   5.937  0.8955 -0.9207  0.1221
 7148SOL    HW233078   3.868   3.019   5.816  1.3545 -0.1628 -1.8049
 7149SOL     OW33079   2.113   2.358   5.763  0.6090 -0.0412  0.2235
 7149SOL    HW133080   2.187   2.312   5.725 -0.3562  0.0309 -1.7235
 7149SOL    HW233081   2.046   2.295   5.736  0.7937 -1.5159  3.1961
 7150SOL     OW33082   3.708   0.664   9.924 -1.0696  0.0646  0.2836
 7150SOL    HW133083   3.680   0.606   9.995 -0.1573  1.2405  1.6118
 7150SOL    HW233084   3.697   0.746   9.972  0.9381  0.1722  0.5607
 7151SOL     OW33085   2.633   3.407   4.626 -0.9817 -0.3071  0.2580
 7151SOL    HW133086   2.677   3.326   4.598  0.0247  0.5426 -0.6242
 7151SOL    HW233087   2.708   3.466   4.635  1.5330 -3.6177  1.1996
 7152SOL     OW33088   4.276   3.102   5.924 -0.7386  0.2014  0.2120
 7152SOL    HW133089   4.267   3.010   5.899  0.3886 -0.0866  0.8578
 7152SOL    HW233090   4.316   3.092   6.011 -0.1081  0.2294 -0.0694
 7153SOL     OW33091   0.745   2.456   8.433 -0.1150  0.0292  0.2435
 7153SOL    HW133092   0.719   2.546   8.453 -0.9179 -0.2601  0.5021
 7153SOL    HW233093   0.839   2.461   8.419 -0.2255  0.7352 -0.2762
 7154SOL     OW33094   4.558   4.281  17.518 -0.1709 -0.1753  0.5363
 7154SOL    HW133095   4.625   4.294  17.451 -1.0937  0.6767 -0.2214
 7154SOL    HW233096   4.543   4.371  17.549  0.5938  0.6539 -1.4915
 7155SOL     OW33097   4.148   3.042   4.685 -0.5132  0.0769  0.4733
 7155SOL    HW133098   4.117   2.988   4.612 -0.3672  0.6532 -0.0182
 7155SOL    HW233099   4.087   3.115   4.684 -0.3769  0.1763 -1.0180
 7156SOL     OW33100   4.652   2.804   1.141 -0.1233 -0.0991 -0.1480
 7156SOL    HW133101   4.587   2.858   1.187  1.0732  1.5274 -0.3713
 7156SOL    HW233102   4.599   2.773   1.068  0.5664  0.0762 -0.7171
 7157SOL     OW33103   4.429   2.192   3.693 -0.1534 -0.5286  0.4469
 7157SOL    HW133104   4.438   2.170   3.786  0.6402 -1.9633  0.0265
 7157SOL    HW233105   4.419   2.099   3.674 -0.6401 -0.2234 -0.7424
 7158SOL     OW33106   0.350   0.797  13.119 -0.0289 -0.4347 -0.0806
 7158SOL    HW133107   0.323   0.888  13.132 -0.1362 -0.3390 -0.9251
 7158SOL    HW233108   0.311   0.781  13.033  0.5865  0.4054 -0.5180
 7159SOL     OW33109   2.311   1.144   8.936 -0.1588 -0.0273  0.3063
 7159SOL    HW133110   2.369   1.111   8.867 -3.6661 -1.2145 -2.1218
 7159SOL    HW233111   2.288   1.059   8.975  0.5527 -0.3165  0.0855
 7160SOL     OW33112   3.998   1.384   6.774 -0.1749  0.0255  0.2223
 7160SOL    HW133113   4.022   1.291   6.783 -0.6759 -0.3475 -2.3424
 7160SOL    HW233114   4.092   1.404   6.768 -0.5121  0.8833 -2.0659
 7161SOL     OW33115   4.596   1.105   5.060 -0.3146  0.3440 -0.0800
 7161SOL    HW133116   4.552   1.064   4.985  0.4415 -0.6107  0.0043
 7161SOL    HW233117   4.636   1.026   5.097 -0.8115  0.2529  0.2620
 7162SOL     OW33118   1.632   1.206   4.028 -0.4597 -0.1511 -0.4071
 7162SOL    HW133119   1.604   1.118   4.002 -2.3687 -0.5278  2.9541
 7162SOL    HW233120   1.687   1.178   4.100  0.4614 -5.6292 -3.2410
 7163SOL     OW33121   2.631   0.057   3.050  0.2514  0.0158  0.2768
 7163SOL    HW133122   2.592   0.139   3.080 -0.5656 -0.2116 -0.1803
 7163SOL    HW233123   2.669   0.084   2.966  0.4095 -0.1586  0.2913
 7164SOL     OW33124   4.374   4.517   8.435 -0.0217  0.2115 -0.7804
 7164SOL    HW133125   4.347   4.528   8.526  0.7339 -0.9211 -0.4227
 7164SOL    HW233126   4.326   4.587   8.390  1.3279  1.8987  0.4369
 7165SOL     OW33127   0.378   2.934   5.424  0.0834  0.0483 -0.3726
 7165SOL    HW133128   0.338   2.984   5.353 -1.3269  1.1771  1.2039
 7165SOL    HW233129   0.305   2.887   5.464 -0.7033  1.3675 -0.2538
 7166SOL     OW33130   1.842   4.187   1.641  0.3516 -0.2915  0.7761
 7166SOL    HW133131   1.756   4.162   1.675  0.4583 -1.7507 -0.0495
 7166SOL    HW233132   1.852   4.261   1.701  0.0822  1.6597 -1.5471
 7167SOL     OW33133   4.146   2.951  14.703 -0.3925  0.5114  0.2529
 7167SOL    HW133134   4.206   2.927  14.632 -0.7611 -2.8973  1.0883
 7167SOL    HW233135   4.109   2.867  14.729  0.1536  0.2890  0.3072
 7168SOL     OW33136   0.500   0.204   5.705  0.4960 -0.5251  0.1495
 7168SOL    HW133137   0.471   0.223   5.794 -0.1347 -0.3188 -0.0980
 7168SOL    HW233138   0.589   0.239   5.706  0.2588  0.0637  0.5352
 7169SOL     OW33139   0.490   4.203   9.084  0.3008  1.1483 -0.2530
 7169SOL    HW133140   0.538   4.226   9.004 -0.9048  2.8013 -0.5115
 7169SOL    HW233141   0.564   4.231   9.138 -0.8126  0.4427  1.6106
 7170SOL     OW33142   1.893   2.069   8.215 -0.0087 -0.0999  0.1845
 7170SOL    HW133143   1.908   2.149   8.165  2.8957 -1.0847 -0.5250
 7170SOL    HW233144   1.874   2.013   8.140 -2.0306  0.3179  0.3898
 7171SOL     OW33145   3.888   2.536   1.581 -0.0880  0.0794  0.0911
 7171SOL    HW133146   3.858   2.547   1.491 -0.8345  0.2659  0.3568
 7171SOL    HW233147   3.972   2.492   1.583  1.1474  2.4282 -0.3335
 7172SOL     OW33148   3.772   3.668   7.521 -0.4697  0.5800 -0.2457
 7172SOL    HW133149   3.790   3.687   7.429  1.0724 -1.5277 -0.3879
 7172SOL    HW233150   3.821   3.586   7.529  1.1434  1.2195 -3.6890
 7173SOL     OW33151   0.753   2.465   7.285  0.5996  0.0794  0.7555
 7173SOL    HW133152   0.735   2.557   7.266 -0.1355 -0.2901 -0.3053
 7173SOL    HW233153   0.678   2.443   7.340  1.3469 -1.5538  1.1181
 7174SOL     OW33154   2.610   2.112  11.736  0.1205 -0.7325  0.1779
 7174SOL    HW133155   2.520   2.079  11.730 -0.0744 -0.2789  0.5392
 7174SOL    HW233156   2.650   2.030  11.706  0.7048 -0.4330  0.1450
 7175SOL     OW33157   2.415   0.590   5.988 -0.0198  0.2038 -0.9147
 7175SOL    HW133158   2.432   0.594   6.082  0.0799  0.9700 -0.9721
 7175SOL    HW233159   2.326   0.556   5.986 -0.4187  1.3415 -2.1046
 7176SOL     OW33160   4.718   1.013   6.521  0.3829  0.0507 -0.5563
 7176SOL    HW133161   0.045   1.012   6.592  0.7007  0.1135 -0.8425
 7176SOL    HW233162   4.728   0.922   6.496  0.9385 -0.4869  1.5799
 7177SOL     OW33163   3.406   4.287   7.287  0.3672 -0.0286 -0.2281
 7177SOL    HW133164   3.409   4.291   7.191  1.9954  0.3423 -0.1741
 7177SOL    HW233165   3.415   4.192   7.301  0.5746  0.1201  0.6678
 7178SOL     OW33166   2.237   2.562  15.155  0.0423  0.0086  0.6776
 7178SOL    HW133167   2.268   2.629  15.094 -0.0304  0.3266  0.9920
 7178SOL    HW233168   2.142   2.573  15.158  0.0642  0.1412  0.8559
 7179SOL     OW33169   3.094   0.286  16.850 -0.3987 -0.1387  0.4998
 7179SOL    HW133170   3.070   0.331  16.931  1.3691  1.1664  0.2880
 7179SOL    HW233171   3.189   0.277  16.858 -0.5799 -1.8853  0.6347
 7180SOL     OW33172   4.567   2.266   5.075  0.2102  0.3069 -0.1034
 7180SOL    HW133173   4.516   2.194   5.037 -3.9340  2.9268  0.5851
 7180SOL    HW233174   4.563   2.323   4.998 -2.1860  3.1309  2.0967
 7181SOL     OW33175   4.205   2.821   2.842  0.7076  0.2300 -0.1519
 7181SOL    HW133176   4.114   2.812   2.873  0.3095 -2.2757 -2.0165
 7181SOL    HW233177   4.246   2.877   2.908 -1.8121  1.3505  0.4842
 7182SOL     OW33178   3.066   1.137   5.743  0.0318  0.1809  0.2475
 7182SOL    HW133179   3.137   1.165   5.686 -0.5626  0.7467 -0.2178
 7182SOL    HW233180   3.075   1.195   5.818  2.1523 -0.4150  0.4445
 7183SOL     OW33181   0.866   4.298  12.468 -0.7037  0.0419  0.3722
 7183SOL    HW133182   0.945   4.286  12.416 -1.3358  0.9720 -0.8155
 7183SOL    HW233183   0.849   4.392  12.456 -2.1865 -0.3841 -0.8118
 7184SOL     OW33184   2.085   4.697   5.110  0.0254  0.0027 -0.0240
 7184SOL    HW133185   2.053   0.005   5.031 -3.2973 -1.0444  0.7320
 7184SOL    HW233186   2.034   0.004   5.177  1.1466  0.2131  0.6867
 7185SOL     OW33187   3.522   2.036   7.466  0.2273  0.0327  0.1295
 7185SOL    HW133188   3.446   2.026   7.409  0.0435  0.4643  0.2989
 7185SOL    HW233189   3.571   2.101   7.416  0.8102  0.5478  1.3478
 7186SOL     OW33190   3.795   3.991   3.595 -0.3907  0.0015  0.5065
 7186SOL    HW133191   3.850   4.031   3.528 -3.1115  0.7090 -1.3133
 7186SOL    HW233192   3.740   4.064   3.624 -1.5166 -1.1303  1.2138
 7187SOL     OW33193   4.418   1.513  12.738 -0.3487 -0.6517  0.0881
 7187SOL    HW133194   4.389   1.597  12.773  0.1345 -1.4056  2.3620
 7187SOL    HW233195   4.423   1.455  12.815  0.5311 -1.4765 -0.5923
 7188SOL     OW33196   0.136   0.017  13.025  0.1693 -0.1547  0.0047
 7188SOL    HW133197   0.090   0.066  13.093  1.5217  1.5735 -0.3376
 7188SOL    HW233198   0.145   4.666  13.062 -1.8332  0.9226  3.0927
 7189SOL     OW33199   0.520   4.326   4.310 -0.5144  0.8895 -0.5555
 7189SOL    HW133200   0.583   4.270   4.356  2.0480  2.2800 -2.3530
 7189SOL    HW233201   0.578   4.380   4.255  1.0202 -0.2984 -0.1018
 7190SOL     OW33202   3.134   3.327  13.835  0.2464 -0.7745 -0.0841
 7190SOL    HW133203   3.183   3.380  13.898  1.0974 -0.2061 -1.2218
 7190SOL    HW233204   3.045   3.360  13.823  0.3681 -0.4135  0.0276
 7191SOL     OW33205   4.612   3.706   5.735 -0.2208  0.3151  0.1886
 7191SOL    HW133206   4.561   3.750   5.666 -0.2401 -1.1143 -0.7105
 7191SOL    HW233207   4.688   3.764   5.735  0.3973 -0.4909 -0.3318
 7192SOL     OW33208   2.079   0.025  12.641  0.4111  0.0351  0.1652
 7192SOL    HW133209   2.054   0.116  12.651  0.0716 -0.2973  2.2838
 7192SOL    HW233210   2.158   0.019  12.695  0.6547  2.6630  0.0841
 7193SOL     OW33211   0.395   1.508   0.580  0.4468 -1.2514  0.0718
 7193SOL    HW133212   0.456   1.468   0.518  2.2188  1.6718 -0.0441
 7193SOL    HW233213   0.461   1.520   0.647  0.3109  1.2604 -0.2468
 7194SOL     OW33214   3.411   1.853  13.993  0.2244 -0.2513 -0.3638
 7194SOL    HW133215   3.383   1.868  14.084  0.2436  2.0205 -0.7120
 7194SOL    HW233216   3.399   1.759  13.981  2.0556 -0.3002 -1.7022
 7195SOL     OW33217   2.533   1.183   0.063 -0.3519 -0.1523 -0.1885
 7195SOL    HW133218   2.539   1.248  17.739  0.2724  1.4512  1.3264
 7195SOL    HW233219   2.586   1.226   0.131  0.2760  1.3620 -1.6412
 7196SOL     OW33220   4.714   4.588  14.857 -0.1078  0.4731 -0.0567
 7196SOL    HW133221   4.720   4.581  14.952 -0.0045  1.7880  0.0343
 7196SOL    HW233222   4.709   4.683  14.841  0.5841  0.4449 -0.4234
 7197SOL     OW33223   3.719   2.264  13.159  0.4764 -0.8683 -0.3402
 7197SOL    HW133224   3.655   2.327  13.193 -0.6031 -1.7246 -0.7787
 7197SOL    HW233225   3.795   2.285  13.213 -0.8737  1.1271  0.7638
 7198SOL     OW33226   4.334   0.870   7.818  0.6280 -0.2543 -0.3018
 7198SOL    HW133227   4.406   0.932   7.815  0.0026  0.4515 -0.5289
 7198SOL    HW233228   4.374   0.784   7.836  2.3708  0.7511  0.7047
 7199SOL     OW33229   0.879   1.470  14.280  0.4136 -0.1892 -0.1167
 7199SOL    HW133230   0.924   1.470  14.365 -0.0237 -0.2555  0.1133
 7199SOL    HW233231   0.947   1.512  14.227 -1.2387  0.6686 -1.5250
 7200SOL     OW33232   0.600   4.004   4.032  0.1968 -0.1564 -0.4116
 7200SOL    HW133233   0.678   4.060   4.043  0.9507 -1.5708  1.4986
 7200SOL    HW233234   0.566   3.999   4.121  0.1287  1.9637 -0.3192
 7201SOL     OW33235   2.763   0.052   9.329 -0.3340  0.2094 -0.0930
 7201SOL    HW133236   2.729   0.111   9.396 -2.7727 -1.5396  0.2074
 7201SOL    HW233237   2.774   4.708   9.378  0.0057  0.0283 -0.4732
 7202SOL     OW33238   3.531   2.514   9.116  0.1425  0.4654  0.4421
 7202SOL    HW133239   3.601   2.466   9.159  1.5449  1.0151 -1.2324
 7202SOL    HW233240   3.562   2.605   9.109  1.4919 -0.0342 -0.1292
 7203SOL     OW33241   2.778   0.136   4.667  0.2776  0.1193  0.2580
 7203SOL    HW133242   2.751   0.167   4.753  1.0981 -0.0373  0.5773
 7203SOL    HW233243   2.840   0.208   4.654 -0.2358  0.2782 -1.3053
 7204SOL     OW33244   3.254   3.741   9.706 -0.0263 -0.2504  0.5589
 7204SOL    HW133245   3.172   3.759   9.659  0.4651 -0.7435 -0.4973
 7204SOL    HW233246   3.250   3.646   9.713 -0.9138 -0.0981  1.9614
 7205SOL     OW33247   2.600   2.557   7.140  0.4075  0.0327  0.8820
 7205SOL    HW133248   2.663   2.579   7.071  0.3927 -0.0636  0.8387
 7205SOL    HW233249   2.531   2.623   7.127 -0.5610 -0.7771  1.8674
 7206SOL     OW33250   0.442   4.444   5.236 -0.1947 -0.3751 -0.2593
 7206SOL    HW133251   0.384   4.379   5.277 -1.3194 -0.4938 -2.0546
 7206SOL    HW233252   0.452   4.511   5.304  1.4118 -0.4029 -0.4719
 7207SOL     OW33253   3.708   1.864   9.532 -0.0083  0.5517  0.0416
 7207SOL    HW133254   3.640   1.848   9.467 -0.6948 -0.1404  0.9310
 7207SOL    HW233255   3.790   1.837   9.490 -0.1459 -0.6289  0.5307
 7208SOL     OW33256   3.050   0.735  11.373 -0.6888 -0.5236  0.0832
 7208SOL    HW133257   3.128   0.782  11.345 -0.1644 -0.5822  1.4434
 7208SOL    HW233258   3.011   0.697  11.295  0.5410 -1.5966 -0.0090
 7209SOL     OW33259   2.965   2.015   8.295  0.1165  0.0939  0.1349
 7209SOL    HW133260   3.017   2.055   8.366 -2.5992  1.2700  1.4530
 7209SOL    HW233261   3.033   1.955   8.263 -0.9142 -0.0702 -1.6981
 7210SOL     OW33262   3.082   4.023   5.731 -0.1060 -0.0905  0.1166
 7210SOL    HW133263   3.092   4.081   5.807 -0.6322  1.4305 -0.9768
 7210SOL    HW233264   3.014   4.072   5.685 -0.3220  0.1434  0.6859
 7211SOL     OW33265   3.192   3.205  11.487 -0.0291  0.2244  0.5401
 7211SOL    HW133266   3.267   3.146  11.483 -0.1868 -0.1225  2.7608
 7211SOL    HW233267   3.238   3.287  11.504  1.4347 -0.2411 -1.2364
 7212SOL     OW33268   2.363   2.898  11.150  0.0673 -0.1830 -0.1430
 7212SOL    HW133269   2.355   2.806  11.174  1.0455 -0.2895 -0.2227
 7212SOL    HW233270   2.450   2.916  11.186  0.8537 -0.6677 -1.8213
 7213SOL     OW33271   0.819   2.830  13.146 -0.4157  0.1257 -0.0909
 7213SOL    HW133272   0.813   2.926  13.147 -2.5778 -0.0024 -0.0246
 7213SOL    HW233273   0.744   2.800  13.198 -1.2536  3.3039  0.5374
 7214SOL     OW33274   2.659   0.898  15.067  0.1609 -0.1657 -0.3776
 7214SOL    HW133275   2.630   0.836  15.133  1.6131  0.7798  1.1464
 7214SOL    HW233276   2.576   0.944  15.058  0.7058  0.8008 -0.4827
 7215SOL     OW33277   4.565   1.124   6.749 -0.0486 -0.4222  0.3096
 7215SOL    HW133278   4.647   1.089   6.714  0.3721  1.1773 -0.2977
 7215SOL    HW233279   4.509   1.110   6.673 -0.1852 -2.1492  0.7307
 7216SOL     OW33280   0.425   4.722   3.715 -0.4228  0.0880 -0.1378
 7216SOL    HW133281   0.424   4.724   3.619  0.9414 -3.3845 -0.2268
 7216SOL    HW233282   0.448   4.630   3.729 -0.7699  0.0408  0.1169
 7217SOL     OW33283   1.491   0.880   5.353  0.4464 -0.6899  0.7683
 7217SOL    HW133284   1.469   0.971   5.330 -0.2409 -1.2275 -0.6753
 7217SOL    HW233285   1.585   0.893   5.369  0.4377  1.3186 -0.7710
 7218SOL     OW33286   3.819   1.196   4.089  0.1245 -0.2417 -0.0437
 7218SOL    HW133287   3.758   1.133   4.050  1.0173 -1.7962  1.0999
 7218SOL    HW233288   3.822   1.176   4.182  0.5680  0.5294  0.1103
 7219SOL     OW33289   0.575   0.885   8.381  0.2281  0.9193  0.1320
 7219SOL    HW133290   0.650   0.942   8.398  0.9041  0.1709 -0.3762
 7219SOL    HW233291   0.614   0.847   8.303  3.1670  4.2562 -0.0605
 7220SOL     OW33292   3.535   1.206  14.667  0.0156 -0.2622 -0.2391
 7220SOL    HW133293   3.515   1.256  14.745 -0.0925 -0.6642 -0.0101
 7220SOL    HW233294   3.629   1.201  14.682 -0.1109  2.5191  1.3417
 7221SOL     OW33295   2.667   4.294   0.422  0.9198 -0.1910 -0.9100
 7221SOL    HW133296   2.642   4.304   0.514 -0.5136 -0.2093 -1.2919
 7221SOL    HW233297   2.597   4.234   0.396  0.5256 -0.1681  0.1168
 7222SOL     OW33298   4.221   3.983  14.558 -0.4597  0.0715  0.3337
 7222SOL    HW133299   4.146   3.936  14.594 -2.3636  1.5101 -1.7115
 7222SOL    HW233300   4.186   4.026  14.480  0.4088  1.2376  0.5755
 7223SOL     OW33301   2.909   3.066   7.812  0.1952  0.2629  0.1695
 7223SOL    HW133302   3.000   3.081   7.786 -0.2190  0.6245 -1.0613
 7223SOL    HW233303   2.902   3.137   7.875 -0.4749  1.1267 -0.9018
 7224SOL     OW33304   3.515   2.769  11.186 -0.2150 -1.0350 -0.2501
 7224SOL    HW133305   3.540   2.798  11.274 -2.5520  1.1292 -0.2932
 7224SOL    HW233306   3.456   2.835  11.149 -0.9451 -0.4496  1.9821
 7225SOL     OW33307   1.557   0.269   2.718  0.7189 -0.0215  0.1875
 7225SOL    HW133308   1.588   0.205   2.654 -2.3533 -1.0021 -0.2990
 7225SOL    HW233309   1.630   0.331   2.708  1.4714 -0.6232  1.8517
 7226SOL     OW33310   4.183   2.628   7.007 -0.1662  0.1656  0.5607
 7226SOL    HW133311   4.096   2.641   7.045  0.6847  0.6803  2.3331
 7226SOL    HW233312   4.203   2.547   7.055 -0.6421  0.1393  0.7110
 7227SOL     OW33313   4.250   0.277   4.295 -0.2841  0.1814 -0.5199
 7227SOL    HW133314   4.166   0.243   4.264 -1.0837  0.2791  1.4985
 7227SOL    HW233315   4.306   0.267   4.219 -0.4730  0.2606 -0.6681
 7228SOL     OW33316   4.253   2.127   4.210 -0.2457  0.2156 -0.0140
 7228SOL    HW133317   4.293   2.046   4.179 -0.5027  0.9578 -2.2284
 7228SOL    HW233318   4.203   2.153   4.133 -0.3040 -1.2947 -0.4835
 7229SOL     OW33319   3.700   0.742   8.353  0.0256 -0.0253 -0.2375
 7229SOL    HW133320   3.673   0.753   8.445  2.4814  0.1543  0.4542
 7229SOL    HW233321   3.651   0.661   8.334  0.3988 -0.5148  0.8680
 7230SOL     OW33322   3.616   4.452  14.484 -0.1116  0.1078  0.0158
 7230SOL    HW133323   3.526   4.432  14.460  0.5957 -0.9917 -1.6932
 7230SOL    HW233324   3.645   4.501  14.408  1.0749  0.2316  0.5478
 7231SOL     OW33325   1.973   2.081   6.564 -0.0417  0.2947 -0.8533
 7231SOL    HW133326   1.936   2.075   6.652  1.4385  0.2896 -0.2216
 7231SOL    HW233327   2.066   2.086   6.587 -0.6399 -2.3128  2.1676
 7232SOL     OW33328   2.223   2.134   2.637  0.6674 -0.0324 -0.5912
 7232SOL    HW133329   2.203   2.156   2.546  1.8935  2.4103 -0.2411
 7232SOL    HW233330   2.206   2.039   2.633  1.9281 -0.3097  0.5069
 7233SOL     OW33331   0.562   0.529   7.638 -0.2113  0.1120  0.6083
 7233SOL    HW133332   0.573   0.471   7.563 -0.3430 -1.1982  1.5976
 7233SOL    HW233333   0.644   0.516   7.686 -1.2203  0.2936  2.3907
 7234SOL     OW33334   1.662   0.861   0.144 -0.1983  0.6258 -0.1006
 7234SOL    HW133335   1.656   0.951   0.111 -0.6210  0.8317  0.5579
 7234SOL    HW233336   1.571   0.832   0.146 -0.2985  0.9071 -0.5318
 7235SOL     OW33337   2.840   3.603  13.014  0.4651  0.0586  0.1269
 7235SOL    HW133338   2.889   3.530  12.975 -1.6624 -0.7559 -0.9862
 7235SOL    HW233339   2.888   3.631  13.092  1.2791 -1.2510  0.1001
 7236SOL     OW33340   0.349   0.076   7.450  0.1707 -0.0724  0.3226
 7236SOL    HW133341   0.438   0.098   7.480  0.0946 -0.1603  0.6089
 7236SOL    HW233342   0.364   4.720   7.440  2.3292  0.5300 -2.0407
 7237SOL     OW33343   3.789   2.883  11.685  0.0727 -0.1070 -0.3934
 7237SOL    HW133344   3.849   2.862  11.756 -0.6935 -2.3477 -0.3840
 7237SOL    HW233345   3.854   2.895  11.616  0.0075 -0.0808 -0.4504
 7238SOL     OW33346   0.621   3.532   7.720  0.0435  0.3056  0.3200
 7238SOL    HW133347   0.696   3.550   7.776 -0.6550  2.5809  0.5140
 7238SOL    HW233348   0.671   3.512   7.640  0.6186  0.4237  0.6536
 7239SOL     OW33349   0.918   3.630   2.062  0.3851 -0.3678  0.2610
 7239SOL    HW133350   0.835   3.647   2.018  0.2703  0.3981  0.7640
 7239SOL    HW233351   0.934   3.539   2.036 -1.2166  0.2090 -2.7508
 7240SOL     OW33352   4.113   3.743   8.723 -0.3886  0.4144 -0.2018
 7240SOL    HW133353   4.114   3.825   8.672 -1.1225 -0.1962 -1.1847
 7240SOL    HW233354   4.067   3.772   8.802 -0.2194  0.6818 -0.1985
 7241SOL     OW33355   2.616   3.905   6.122  0.2122  0.3593  0.2585
 7241SOL    HW133356   2.573   3.904   6.207 -2.8917 -0.3288 -1.3080
 7241SOL    HW233357   2.564   3.967   6.070 -1.3626 -2.5736 -1.6806
 7242SOL     OW33358   1.393   1.445   8.938  0.1063 -0.3952 -0.5095
 7242SOL    HW133359   1.479   1.451   8.979  0.2797 -3.4059 -0.4934
 7242SOL    HW233360   1.385   1.354   8.911 -0.8665 -0.1487 -1.0679
 7243SOL     OW33361   3.480   4.492   0.853  0.4989  0.4608  0.5838
 7243SOL    HW133362   3.472   4.417   0.912 -0.8409  0.0509 -0.1173
 7243SOL    HW233363   3.551   4.544   0.890 -0.0028  2.5419 -1.4014
 7244SOL     OW33364   4.067   0.194   6.048 -0.0870 -0.6568 -0.2802
 7244SOL    HW133365   4.003   0.166   6.113 -0.0311 -0.7131 -0.2507
 7244SOL    HW233366   4.064   0.120   5.987  1.6908 -1.8879  1.1679
 7245SOL     OW33367   1.183   4.641  15.902 -0.5277  0.4648  0.0092
 7245SOL    HW133368   1.278   4.626  15.895 -0.6827  0.5091 -2.0843
 7245SOL    HW233369   1.155   4.658  15.812 -0.1571 -0.8200 -0.3518
 7246SOL     OW33370   2.902   2.957   8.200 -0.0243  0.0959 -0.3365
 7246SOL    HW133371   2.901   2.868   8.236  2.0525 -0.9931 -3.0232
 7246SOL    HW233372   2.819   2.996   8.228  0.2091  1.3232 -1.3667
 7247SOL     OW33373   3.784   4.533   5.109 -0.4088  0.3077 -0.0029
 7247SOL    HW133374   3.735   4.469   5.162  0.3788  0.5459  0.9964
 7247SOL    HW233375   3.719   4.598   5.083 -1.2947 -0.3867  0.4420
 7248SOL     OW33376   3.001   2.361   9.633  0.1367 -0.3072  0.0753
 7248SOL    HW133377   2.921   2.371   9.685  1.3845  0.6421  1.8006
 7248SOL    HW233378   3.010   2.450   9.598  0.1553 -0.6451 -0.7826
 7249SOL     OW33379   1.649   1.194  10.916 -0.1744  0.2427  0.2541
 7249SOL    HW133380   1.729   1.241  10.894 -1.1220  1.4854 -0.4835
 7249SOL    HW233381   1.685   1.106  10.932  2.0063  0.9624 -0.7852
 7250SOL     OW33382   1.810   3.433   4.491  0.0559  0.1085 -0.2855
 7250SOL    HW133383   1.762   3.390   4.562  0.5527  0.9543  0.5672
 7250SOL    HW233384   1.895   3.426   4.536 -0.8537  2.1259  1.7552
 7251SOL     OW33385   0.822   1.693  11.182  0.0435  0.3738  0.2441
 7251SOL    HW133386   0.871   1.690  11.265 -0.7527 -1.2491  0.6550
 7251SOL    HW233387   0.731   1.692  11.211 -0.5471  0.4296 -1.5939
 7252SOL     OW33388   3.920   4.564   3.919  0.1827 -0.5150  0.6685
 7252SOL    HW133389   3.920   4.510   3.998  1.5542 -0.9730  0.3392
 7252SOL    HW233390   3.830   4.596   3.932  0.0815 -1.3042  1.8576
 7253SOL     OW33391   4.130   1.894   2.807  0.1129 -0.0576  0.4064
 7253SOL    HW133392   4.160   1.981   2.781  0.6296 -0.9744 -2.0791
 7253SOL    HW233393   4.080   1.911   2.887 -2.6811 -0.4796 -1.2423
 7254SOL     OW33394   0.220   0.621   5.842 -0.5598  0.6387 -0.0797
 7254SOL    HW133395   0.248   0.632   5.751  0.4831  0.2507  0.1890
 7254SOL    HW233396   0.136   0.666   5.841 -0.0978  1.4625 -1.1269
 7255SOL     OW33397   4.402   2.252   9.789 -0.7584  0.2165 -0.0110
 7255SOL    HW133398   4.474   2.315   9.797 -0.7510  0.2028  0.0315
 7255SOL    HW233399   4.351   2.279   9.865  1.7439 -1.0077  2.0989
 7256SOL     OW33400   0.540   2.263   8.419 -0.0743  0.3493  0.1732
 7256SOL    HW133401   0.610   2.328   8.432 -0.1014  1.0061 -2.9620
 7256SOL    HW233402   0.507   2.281   8.331 -0.4646 -1.3490 -0.0153
 7257SOL     OW33403   0.256   2.915  12.171  0.4979  0.2465  0.5645
 7257SOL    HW133404   0.177   2.962  12.144 -0.7472 -1.5267  1.0860
 7257SOL    HW233405   0.323   2.970  12.130 -1.5331  1.5148 -1.0539
 7258SOL     OW33406   2.231   3.054   7.674  0.4329 -0.2099 -0.1576
 7258SOL    HW133407   2.322   3.075   7.696  0.0455  0.8659  0.4176
 7258SOL    HW233408   2.224   3.100   7.590 -3.7160  1.7456  1.2280
 7259SOL     OW33409   1.932   2.497   3.589  0.1938  0.1338  0.2740
 7259SOL    HW133410   1.952   2.407   3.562  1.0534  0.3797  0.0832
 7259SOL    HW233411   1.931   2.505   3.685  1.7092 -0.4215  0.3469
 7260SOL     OW33412   2.750   2.706   0.490  0.4602 -0.3681  0.3020
 7260SOL    HW133413   2.775   2.728   0.581 -0.7329 -0.6551  0.6951
 7260SOL    HW233414   2.835   2.701   0.445  0.0822  1.2696 -0.5858
 7261SOL     OW33415   3.950   4.409   2.663  0.2683 -0.3159  0.5699
 7261SOL    HW133416   3.936   4.469   2.736  0.3593 -0.9623  1.1080
 7261SOL    HW233417   4.034   4.436   2.625 -0.1585 -1.3493 -1.1153
 7262SOL     OW33418   4.083   2.229  10.872 -0.3442 -0.0977 -0.2900
 7262SOL    HW133419   4.060   2.278  10.951  1.3480  1.9733 -1.1171
 7262SOL    HW233420   4.005   2.241  10.818  1.4795  0.4459 -2.7802
 7263SOL     OW33421   0.379   1.391   0.146  0.3991  0.2734 -0.2564
 7263SOL    HW133422   0.322   1.422   0.076 -0.6310  0.2142  0.5587
 7263SOL    HW233423   0.421   1.329   0.086  1.0399  1.3606 -0.9420
 7264SOL     OW33424   1.934   4.488   2.024 -0.3854 -0.0121 -0.1705
 7264SOL    HW133425   1.886   4.442   2.092  1.2103  0.0394  1.0079
 7264SOL    HW233426   2.026   4.475   2.050 -0.6572 -0.9396  0.2953
 7265SOL     OW33427   1.973   3.618   1.401  0.4378 -0.5130 -0.0963
 7265SOL    HW133428   1.904   3.608   1.335 -1.1862  1.0110  1.3682
 7265SOL    HW233429   2.050   3.573   1.366  0.8508  0.3569 -0.3093
 7266SOL     OW33430   1.366   0.181   2.903 -0.0286  0.6723 -0.2455
 7266SOL    HW133431   1.430   0.225   2.848  0.1783 -0.4114 -0.8668
 7266SOL    HW233432   1.330   0.117   2.842 -0.3959  0.9243 -0.2879
 7267SOL     OW33433   3.040   1.964   4.451  0.0206  0.0677 -0.2625
 7267SOL    HW133434   2.971   1.981   4.516  0.4479  1.8344 -0.2712
 7267SOL    HW233435   2.997   1.969   4.366  1.7007 -0.9036 -1.1612
 7268SOL     OW33436   1.541   0.569  12.076 -0.1662  0.4597  0.1681
 7268SOL    HW133437   1.518   0.660  12.093 -0.5546  0.3941  0.0027
 7268SOL    HW233438   1.458   0.540  12.036  0.9502 -1.5669 -0.6902
 7269SOL     OW33439   1.224   2.501   8.593  1.1059 -0.2231 -0.1884
 7269SOL    HW133440   1.318   2.510   8.605  1.0848  0.5672 -0.6125
 7269SOL    HW233441   1.196   2.590   8.612 -0.0152  0.0352 -2.9722
 7270SOL     OW33442   2.802   4.390   7.275 -0.4193 -0.5280 -0.4456
 7270SOL    HW133443   2.750   4.431   7.206 -0.5580 -0.2676 -0.1844
 7270SOL    HW233444   2.773   4.428   7.358  0.8101  0.3288 -0.3997
 7271SOL     OW33445   1.353   4.221   5.765  0.4908  0.7029 -0.7974
 7271SOL    HW133446   1.333   4.226   5.672  1.7138  2.3026 -0.9729
 7271SOL    HW233447   1.296   4.287   5.803  0.1226  0.3961 -0.8088
 7272SOL     OW33448   0.931   3.661   6.404  0.1321  0.1410 -0.2818
 7272SOL    HW133449   0.895   3.748   6.389 -2.0199 -0.3816  1.8558
 7272SOL    HW233450   0.861   3.616   6.451  1.1402  0.4038  1.4584
 7273SOL     OW33451   4.539   4.229  14.468  0.4154  0.4440 -0.0184
 7273SOL    HW133452   4.518   4.152  14.520 -1.9898  0.8406 -0.3744
 7273SOL    HW233453   4.612   4.268  14.515  3.1135 -3.9824 -0.4846
 7274SOL     OW33454   3.907   1.804  10.721  0.4083  0.1559 -0.1075
 7274SOL    HW133455   3.872   1.881  10.767 -0.2389 -0.7703  0.9476
 7274SOL    HW233456   3.904   1.848  10.636  1.7876  0.0460 -0.2016
 7275SOL     OW33457   3.352   2.366   5.481 -0.0949 -0.1979  0.1025
 7275SOL    HW133458   3.272   2.353   5.532  0.4785 -1.4759  0.6494
 7275SOL    HW233459   3.327   2.341   5.392  3.7387 -3.5244 -0.0460
 7276SOL     OW33460   1.252   1.197   8.158  0.7039  0.5327  0.9003
 7276SOL    HW133461   1.322   1.135   8.136  0.5674  0.4813  0.6070
 7276SOL    HW233462   1.290   1.238   8.235 -1.5940  0.2191  2.1906
 7277SOL     OW33463   2.190   0.668   1.811  0.5397 -0.3410  0.6086
 7277SOL    HW133464   2.263   0.724   1.783 -1.4157  2.0060  0.2501
 7277SOL    HW233465   2.238   0.593   1.845  2.3364  1.4569  2.0958
 7278SOL     OW33466   2.496   2.210   9.065 -0.0539 -0.0928 -0.4361
 7278SOL    HW133467   2.462   2.131   9.108  1.5373 -0.3922  0.2873
 7278SOL    HW233468   2.571   2.233   9.120 -0.1837  1.3329 -0.8670
 7279SOL     OW33469   0.356   2.395   2.624  0.3294  0.4687  0.5840
 7279SOL    HW133470   0.412   2.318   2.629 -1.8080 -1.2647 -2.2339
 7279SOL    HW233471   0.268   2.358   2.624  0.8079 -0.6943 -0.2528
 7280SOL     OW33472   1.260   2.735  13.334 -0.0161 -0.4176  0.2430
 7280SOL    HW133473   1.171   2.769  13.329 -0.1372 -1.1474 -2.9195
 7280SOL    HW233474   1.262   2.726  13.239  0.5174 -2.0331  0.4217
 7281SOL     OW33475   0.036   4.660   4.950  0.3535  0.0646  0.2533
 7281SOL    HW133476   4.704   4.696   5.006 -0.6114 -1.4815  0.0717
 7281SOL    HW233477   0.113   4.700   4.988 -0.0472  1.2584 -0.1951
 7282SOL     OW33478   0.158   1.326   4.766  0.2895  0.0848 -0.2087
 7282SOL    HW133479   0.227   1.390   4.785  0.2010  1.0192 -3.0009
 7282SOL    HW233480   0.126   1.308   4.854  1.6157 -1.4227 -0.0366
 7283SOL     OW33481   4.211   3.195   6.536 -0.3720  0.4555  0.7290
 7283SOL    HW133482   4.132   3.143   6.523 -1.0852  2.0320 -1.2820
 7283SOL    HW233483   4.173   3.280   6.514  1.2073  0.8146 -0.5946
 7284SOL     OW33484   2.205   0.131   2.345  0.5655  0.1864  0.4258
 7284SOL    HW133485   2.136   0.179   2.391  0.0153 -1.1662  1.0191
 7284SOL    HW233486   2.262   0.121   2.422  1.6827 -0.2803 -0.4564
 7285SOL     OW33487   0.911   2.887   3.893  0.2891  0.2885  0.1030
 7285SOL    HW133488   0.883   2.815   3.950 -0.0250  0.1133 -0.2747
 7285SOL    HW233489   0.929   2.956   3.957 -0.2803  0.5710 -0.0359
 7286SOL     OW33490   3.602   1.405  14.845  0.6723 -0.1231 -0.0205
 7286SOL    HW133491   3.663   1.349  14.894  0.7444 -0.1545 -0.1455
 7286SOL    HW233492   3.668   1.470  14.820  0.3769  0.5417  0.9187
 7287SOL     OW33493   0.082   2.044  15.229 -0.0250 -0.2552  0.4163
 7287SOL    HW133494   0.168   2.072  15.260 -0.4294  0.4250  0.9271
 7287SOL    HW233495   0.083   1.949  15.238  2.7790 -0.4424 -1.9343
 7288SOL     OW33496   4.341   3.921   7.653 -0.0830  0.6243  0.0174
 7288SOL    HW133497   4.349   4.008   7.691 -1.7084  0.9045 -0.2711
 7288SOL    HW233498   4.254   3.941   7.617 -1.4576 -0.4871  2.7506
 7289SOL     OW33499   2.370   1.941   4.018 -0.2097  0.0105 -0.0355
 7289SOL    HW133500   2.276   1.923   4.025 -0.3874  1.0584  0.3114
 7289SOL    HW233501   2.380   1.913   3.927  2.4241  1.5240 -0.2029
 7290SOL     OW33502   3.318   2.864   2.900 -0.5779 -0.1030 -0.0589
 7290SOL    HW133503   3.283   2.799   2.839 -2.8571 -1.9341  3.2050
 7290SOL    HW233504   3.268   2.840   2.978  2.7812  0.9356  2.4220
 7291SOL     OW33505   2.209   1.380   2.534  0.0742  0.5142  0.2889
 7291SOL    HW133506   2.200   1.469   2.499  3.0561  0.3815 -0.8096
 7291SOL    HW233507   2.254   1.338   2.461  0.0040 -1.2589  1.2877
 7292SOL     OW33508   3.305   0.172   8.171 -0.3985 -0.1902  0.4965
 7292SOL    HW133509   3.328   0.262   8.149  2.2803 -0.8948  0.3914
 7292SOL    HW233510   3.225   0.169   8.120 -0.1752  2.1348  0.0028
 7293SOL     OW33511   1.282   0.982   5.133 -0.2728  0.7572 -0.4714
 7293SOL    HW133512   1.283   0.909   5.195  0.0012 -0.2417 -1.6527
 7293SOL    HW233513   1.364   1.026   5.157 -0.1664  1.0986 -1.4796
 7294SOL     OW33514   4.260   2.694   0.792 -0.1843  0.0167 -0.4212
 7294SOL    HW133515   4.186   2.717   0.849 -1.5447  0.0506 -2.2124
 7294SOL    HW233516   4.222   2.625   0.737  1.9714 -0.5172 -1.2647
 7295SOL     OW33517   4.043   3.903   0.208  0.0499  0.2134 -1.1386
 7295SOL    HW133518   3.958   3.943   0.190  0.0460  1.0313  0.5916
 7295SOL    HW233519   4.074   3.969   0.272  0.1112 -0.3855 -0.5497
 7296SOL     OW33520   3.055   4.004   7.908 -0.0227  1.2157  0.2306
 7296SOL    HW133521   2.974   4.055   7.910 -0.7567  0.0559 -0.1596
 7296SOL    HW233522   3.042   3.969   7.820  1.4627  2.4667 -0.5030
 7297SOL     OW33523   1.572   4.645   6.550  0.1500 -0.5971 -0.1867
 7297SOL    HW133524   1.534   4.581   6.609 -0.6045  1.3006  1.3900
 7297SOL    HW233525   1.611   4.694   6.623 -0.5481 -1.4685  0.7620
 7298SOL     OW33526   1.146   4.265   7.608 -0.2158  0.1480  0.0827
 7298SOL    HW133527   1.232   4.224   7.615 -0.3835 -0.4813 -1.4640
 7298SOL    HW233528   1.102   4.251   7.692  1.1989 -1.2340  0.5808
 7299SOL     OW33529   2.107   2.607   0.309 -0.2162 -0.6629 -0.5650
 7299SOL    HW133530   2.077   2.521   0.339 -1.6420 -0.0332 -0.1893
 7299SOL    HW233531   2.189   2.615   0.357 -0.5926  0.0462 -0.0366
 7300SOL     OW33532   0.937   4.698   3.002  0.2182  0.2416  0.4914
 7300SOL    HW133533   1.022   4.655   3.013 -0.5445 -1.0904  1.2724
 7300SOL    HW233534   0.876   4.633   3.038  0.3265  0.2559  0.6999
 7301SOL     OW33535   4.251   1.247   6.099  0.4732 -0.3754  0.8409
 7301SOL    HW133536   4.272   1.339   6.114 -0.1523 -0.5041  2.4666
 7301SOL    HW233537   4.333   1.205   6.126  0.6599 -0.5084  0.0632
 7302SOL     OW33538   0.173   3.148   8.953 -0.6507 -0.2616  0.3688
 7302SOL    HW133539   0.244   3.112   9.007 -1.1425 -0.8484  0.6101
 7302SOL    HW233540   0.188   3.095   8.875 -1.3477 -0.4290  0.3514
 7303SOL     OW33541   4.130   3.979  14.279 -0.2999 -0.7543  0.1048
 7303SOL    HW133542   4.198   3.995  14.213  1.3578  0.3899  2.1151
 7303SOL    HW233543   4.083   3.917  14.223 -1.9684  0.9573 -0.4063
 7304SOL     OW33544   3.637   4.688   2.308  0.2802 -0.7692 -0.1758
 7304SOL    HW133545   3.669   4.613   2.359 -0.4645 -1.9143 -1.3763
 7304SOL    HW233546   3.603   0.013   2.373 -2.3650 -0.7734 -1.5318
 7305SOL     OW33547   0.952   1.609  11.996 -0.4771 -0.2304 -0.5915
 7305SOL    HW133548   0.944   1.658  12.078 -2.0724 -1.3282 -0.1013
 7305SOL    HW233549   0.882   1.545  11.994 -1.5188  0.8741  0.3181
 7306SOL     OW33550   1.699   2.494   7.539 -0.2348 -0.0744  0.4198
 7306SOL    HW133551   1.637   2.516   7.609  0.0661  0.8957  0.3802
 7306SOL    HW233552   1.750   2.573   7.525  3.6026 -2.5454  0.3725
 7307SOL     OW33553   2.820   2.949   4.188  0.0972 -0.7392  0.1801
 7307SOL    HW133554   2.848   2.975   4.100  0.9614 -0.9939  0.3837
 7307SOL    HW233555   2.725   2.945   4.180  0.3680 -2.3785 -2.1990
 7308SOL     OW33556   0.658   3.033   2.712  0.1313 -0.1577 -0.0704
 7308SOL    HW133557   0.690   3.056   2.799 -1.9848  0.6208  0.5046
 7308SOL    HW233558   0.625   2.944   2.722  2.0376 -0.6633  1.6072
 7309SOL     OW33559   1.134   4.003   9.607  0.6645  0.1911 -0.3994
 7309SOL    HW133560   1.161   4.078   9.660  0.9235  1.1096 -1.8395
 7309SOL    HW233561   1.100   3.943   9.674 -1.2267  0.6440 -0.9627
 7310SOL     OW33562   0.312   4.203   7.453 -0.1832 -0.4404 -0.4099
 7310SOL    HW133563   0.298   4.131   7.515 -1.4836 -0.9510 -1.3126
 7310SOL    HW233564   0.260   4.184   7.375  0.2727 -1.1636 -0.5421
 7311SOL     OW33565   3.525   2.260   8.098  0.0413  0.1757  0.1737
 7311SOL    HW133566   3.513   2.303   8.013  2.3223  0.7025  0.1110
 7311SOL    HW233567   3.621   2.258   8.100  0.0521  1.1548  0.9179
 7312SOL     OW33568   1.710   4.156   6.317  0.2286 -0.3383  0.3679
 7312SOL    HW133569   1.743   4.244   6.335 -0.5702 -0.2845  1.6298
 7312SOL    HW233570   1.626   4.181   6.278  0.0044  0.9885  1.6691
 7313SOL     OW33571   1.518   3.676   6.777 -0.4092  0.0853 -0.3636
 7313SOL    HW133572   1.566   3.709   6.853  1.7859  1.2391 -2.2392
 7313SOL    HW233573   1.564   3.597   6.751 -2.4205 -1.0605 -0.4242
 7314SOL     OW33574   2.381   4.148   4.863  0.2629  0.3721 -0.0871
 7314SOL    HW133575   2.467   4.191   4.862  0.2138  0.5041  0.7671
 7314SOL    HW233576   2.402   4.064   4.824 -0.8211  0.4189 -0.7862
 7315SOL     OW33577   2.558   1.430  13.340  0.0036  0.4027  0.4925
 7315SOL    HW133578   2.483   1.422  13.281  2.0098 -2.1207 -1.7548
 7315SOL    HW233579   2.629   1.423  13.276  0.0320  1.2798  0.4280
 7316SOL     OW33580   0.926   1.726   1.222 -0.3225 -0.4237  0.2047
 7316SOL    HW133581   0.914   1.746   1.130 -0.0734  0.8130  0.4398
 7316SOL    HW233582   0.844   1.762   1.257  0.3571  1.4703 -0.1632
 7317SOL     OW33583   1.590   4.583   3.160 -0.7219 -0.0264  0.9097
 7317SOL    HW133584   1.614   4.576   3.253 -2.4150 -1.7713  1.2343
 7317SOL    HW233585   1.676   4.572   3.120  0.2923  0.6578  2.9059
 7318SOL     OW33586   1.199   4.009   4.952 -0.6253 -0.5816 -0.1915
 7318SOL    HW133587   1.290   3.992   4.927 -0.4888 -1.6876  1.0738
 7318SOL    HW233588   1.164   4.001   4.863 -1.0087 -1.2230  0.0184
 7319SOL     OW33589   1.061   3.360   3.990  0.2169 -0.0054 -0.1253
 7319SOL    HW133590   1.107   3.285   3.953  0.7247  0.6034 -0.7214
 7319SOL    HW233591   1.060   3.426   3.921  0.8173 -0.3611 -0.4690
 7320SOL     OW33592   0.257   0.064  15.798  0.4592  0.2113  0.1110
 7320SOL    HW133593   0.293   0.076  15.710 -1.2197 -0.1008 -0.6028
 7320SOL    HW233594   0.163   0.052  15.790  0.2721  0.4017  1.9704
 7321SOL     OW33595   0.900   3.657  11.116  0.3106  0.3767  0.7044
 7321SOL    HW133596   0.923   3.705  11.036 -2.9467  2.5517  1.0682
 7321SOL    HW233597   0.892   3.728  11.179  1.7543 -0.9274  2.3807
 7322SOL     OW33598   1.889   1.333  10.917  0.1384 -0.0003  0.0316
 7322SOL    HW133599   1.947   1.364  10.986  1.2086 -0.3626 -0.7120
 7322SOL    HW233600   1.939   1.364  10.842 -1.7685  3.2287  0.1049
 7323SOL     OW33601   1.026   0.064   7.520  0.4785  0.9864 -0.0493
 7323SOL    HW133602   1.081   0.110   7.457  1.5770  2.1280  1.7329
 7323SOL    HW233603   1.011   0.139   7.577 -1.1188  1.4179 -1.0365
 7324SOL     OW33604   0.908   0.870   7.936  0.2410  0.9269 -0.8894
 7324SOL    HW133605   0.931   0.947   7.988  2.1466 -0.0921 -0.2137
 7324SOL    HW233606   0.985   0.816   7.952  0.5165  1.8882  0.9919
 7325SOL     OW33607   2.301   1.155   0.269  0.2560 -0.9398 -0.1229
 7325SOL    HW133608   2.260   1.069   0.269  0.6231 -1.1125 -0.1777
 7325SOL    HW233609   2.386   1.134   0.230  0.5725 -1.2925  0.7816
 7326SOL     OW33610   2.659   1.386   7.369  0.6568 -0.1759 -0.1801
 7326SOL    HW133611   2.580   1.339   7.343  0.2009 -0.3159  1.5077
 7326SOL    HW233612   2.637   1.478   7.355  1.2400 -0.0638 -0.3902
 7327SOL     OW33613   0.092   3.717   1.166 -1.0484 -0.6976  0.2172
 7327SOL    HW133614   0.080   3.806   1.132 -0.7799 -0.7153  0.0758
 7327SOL    HW233615   0.156   3.691   1.099 -0.9087 -1.6935  0.7417
 7328SOL     OW33616   2.850   1.339   5.639 -1.0877 -0.0042 -0.0408
 7328SOL    HW133617   2.789   1.410   5.621  2.3232  2.3043 -2.3856
 7328SOL    HW233618   2.921   1.391   5.675 -2.4354  2.1142 -0.4016
 7329SOL     OW33619   1.814   3.508   0.129  0.6468  0.3060 -0.1777
 7329SOL    HW133620   1.841   3.599   0.136 -0.8596  0.6574  0.8043
 7329SOL    HW233621   1.865   3.463   0.196 -0.0805 -0.1170  0.0848
 7330SOL     OW33622   4.619   0.952  10.342  0.1480  0.3774 -0.1247
 7330SOL    HW133623   4.687   0.904  10.390 -0.7851 -1.3439 -0.5408
 7330SOL    HW233624   4.603   1.016  10.411  0.1650  0.5927 -0.3194
 7331SOL     OW33625   1.595   0.300   6.944  0.0101 -0.2330  0.1949
 7331SOL    HW133626   1.665   0.275   6.884 -1.8394 -1.2837 -1.5319
 7331SOL    HW233627   1.548   0.217   6.935  1.4768 -1.0207 -0.1805
 7332SOL     OW33628   3.129   3.089   1.862  0.2784  0.1584  0.2718
 7332SOL    HW133629   3.047   3.135   1.845  1.8861  3.0101  0.1575
 7332SOL    HW233630   3.109   3.043   1.944 -0.6331  0.7244  0.3701
 7333SOL     OW33631   0.392   4.158   5.611  0.1670  0.3389  0.5324
 7333SOL    HW133632   0.485   4.163   5.634  0.0085  0.3335  1.1952
 7333SOL    HW233633   0.352   4.243   5.630 -2.0622 -0.8577  1.2172
 7334SOL     OW33634   4.477   2.628   2.466 -0.1483  0.6877  0.1377
 7334SOL    HW133635   4.413   2.557   2.477 -1.4249  1.9598  0.9063
 7334SOL    HW233636   4.523   2.581   2.397 -1.5243  0.1786 -0.4335
 7335SOL     OW33637   3.316   2.981  10.644  0.5972 -0.2620 -0.3948
 7335SOL    HW133638   3.331   2.888  10.661  1.6651 -0.2985 -1.5424
 7335SOL    HW233639   3.239   2.994  10.699  0.5676  0.7722 -0.6680
 7336SOL     OW33640   0.429   1.660  12.464  0.3502  0.2582 -0.3097
 7336SOL    HW133641   0.405   1.736  12.517 -0.1995 -0.2487  0.1663
 7336SOL    HW233642   0.347   1.651  12.415  0.6428 -1.3664 -0.5118
 7337SOL     OW33643   3.627   0.854   8.055  0.0901  0.1764 -0.2537
 7337SOL    HW133644   3.665   0.768   8.042  0.5916  0.3825 -0.1255
 7337SOL    HW233645   3.688   0.900   8.113  1.6310 -0.5190 -1.3447
 7338SOL     OW33646   4.228   3.228   1.908  0.2387 -0.2441 -0.3008
 7338SOL    HW133647   4.200   3.298   1.967  0.4466  0.4517 -1.0159
 7338SOL    HW233648   4.311   3.206   1.951 -0.7156 -0.6590  1.3371
 7339SOL     OW33649   0.616   2.385   1.609  0.6666  0.1831 -0.3317
 7339SOL    HW133650   0.599   2.440   1.532 -2.5835  1.1924  1.0903
 7339SOL    HW233651   0.535   2.334   1.604 -0.7947  2.3320  1.2210
 7340SOL     OW33652   1.773   0.309   4.738  0.1365 -0.1162  0.4892
 7340SOL    HW133653   1.851   0.285   4.788  0.2978  0.4537  0.5107
 7340SOL    HW233654   1.730   0.364   4.803 -1.5697  0.0437 -0.8038
 7341SOL     OW33655   2.606   2.973  11.198 -0.0569 -0.3655 -0.4827
 7341SOL    HW133656   2.654   2.947  11.277 -1.2942  0.0703  0.4273
 7341SOL    HW233657   2.657   3.053  11.185 -0.8640  0.3511  0.7504
 7342SOL     OW33658   0.336   2.814   3.016  0.0695  0.5307 -0.2875
 7342SOL    HW133659   0.360   2.804   2.924  0.1017  1.6853 -0.4053
 7342SOL    HW233660   0.358   2.723   3.038 -1.2990  0.3400  0.3483
 7343SOL     OW33661   0.689   0.564   4.069 -0.4493  0.3014 -0.1582
 7343SOL    HW133662   0.619   0.536   4.011 -0.2831 -0.5009  0.0308
 7343SOL    HW233663   0.749   0.491   4.054 -0.6017 -0.2367  1.8535
 7344SOL     OW33664   2.433   2.844   3.932 -0.0759 -0.3908  0.1548
 7344SOL    HW133665   2.395   2.760   3.958  1.0467 -0.9985 -0.1579
 7344SOL    HW233666   2.469   2.826   3.845 -3.9237  1.9224 -1.9028
 7345SOL     OW33667   0.674   3.716   8.528  0.6752 -0.1289  0.1519
 7345SOL    HW133668   0.599   3.737   8.584  0.6980  0.3118  0.0163
 7345SOL    HW233669   0.681   3.621   8.543  0.8756 -0.5053 -2.4257
 7346SOL     OW33670   3.804   2.078   3.823 -0.5329  0.3357  0.5174
 7346SOL    HW133671   3.714   2.104   3.844 -0.3265 -0.0779  1.9072
 7346SOL    HW233672   3.844   2.054   3.907 -2.6825 -0.7109  1.2547
 7347SOL     OW33673   3.553   0.631   1.940  0.6521  0.0857 -0.1812
 7347SOL    HW133674   3.636   0.649   1.986 -0.2980  0.8118  1.2334
 7347SOL    HW233675   3.577   0.551   1.893 -0.7278 -1.4518  1.7279
 7348SOL     OW33676   3.536   3.128   4.454 -0.5843  0.0297 -0.2810
 7348SOL    HW133677   3.538   3.036   4.482  0.3896  0.7658  1.9977
 7348SOL    HW233678   3.625   3.142   4.421 -0.6270 -1.3530 -0.9966
 7349SOL     OW33679   1.894   4.526   0.878  0.4280  0.4884 -0.1863
 7349SOL    HW133680   1.926   4.447   0.922  3.0636  1.2394 -0.7520
 7349SOL    HW233681   1.810   4.541   0.922  0.6043 -0.1187  0.3415
 7350SOL     OW33682   1.680   0.925   1.458  0.5499  0.1417 -0.5261
 7350SOL    HW133683   1.657   0.895   1.370  0.1408  0.3630 -0.4939
 7350SOL    HW233684   1.772   0.900   1.462  1.0581  1.9526 -1.0099
 7351SOL     OW33685   3.546   0.232   4.164  0.5161 -0.1563 -0.3184
 7351SOL    HW133686   3.533   0.326   4.148 -1.3790  0.2685  3.7111
 7351SOL    HW233687   3.583   0.186   4.089  0.2204 -3.5077  1.6213
 7352SOL     OW33688   3.781   3.953   9.090 -0.7374 -0.2395  0.0014
 7352SOL    HW133689   3.699   3.985   9.053 -0.9308 -1.0673 -0.2825
 7352SOL    HW233690   3.741   3.922   9.172  1.2578 -0.4566  0.9143
 7353SOL     OW33691   2.893   1.710   3.127 -0.0958 -0.1450  0.1682
 7353SOL    HW133692   2.913   1.617   3.126  0.7569 -0.0001  2.2574
 7353SOL    HW233693   2.814   1.711   3.182 -0.9674  0.8824 -1.1107
 7354SOL     OW33694   1.612   4.394   6.907 -0.2137  0.0211  0.6653
 7354SOL    HW133695   1.677   4.369   6.972  1.3770 -0.7245 -1.1929
 7354SOL    HW233696   1.527   4.389   6.952 -0.1167 -1.3715  0.6838
 7355SOL     OW33697   2.930   4.011   4.820  0.1120 -0.0078  0.8912
 7355SOL    HW133698   2.974   3.952   4.759 -0.3929  2.0113 -1.3970
 7355SOL    HW233699   2.867   4.057   4.766  1.7937 -0.0333 -1.1156
 7356SOL     OW33700   1.435   3.254  10.072 -0.1582  0.5976 -0.2447
 7356SOL    HW133701   1.482   3.298  10.143 -0.9134 -0.2225  0.7661
 7356SOL    HW233702   1.507   3.193  10.058 -1.2997 -0.4747 -1.4085
 7357SOL     OW33703   3.394   2.916   9.452 -0.0243 -0.1802 -0.3155
 7357SOL    HW133704   3.481   2.879   9.441 -0.0149 -0.7182  1.6895
 7357SOL    HW233705   3.370   2.873   9.534 -0.6319 -0.9977 -0.9157
 7358SOL     OW33706   0.618   3.028   8.366 -0.2182  0.3594  0.1170
 7358SOL    HW133707   0.532   3.068   8.351 -0.5093 -0.5825 -0.7167
 7358SOL    HW233708   0.597   2.934   8.366 -1.5822  0.6583 -0.7387
 7359SOL     OW33709   1.583   4.356   5.543 -0.1133 -0.1091 -0.9646
 7359SOL    HW133710   1.607   4.335   5.633  2.0579  2.5332 -0.9278
 7359SOL    HW233711   1.658   4.404   5.510  0.2640  0.6724  1.0448
 7360SOL     OW33712   4.634   2.398  15.756 -0.0991 -0.5911 -0.1852
 7360SOL    HW133713   4.544   2.387  15.726 -0.9825  2.5705  1.3213
 7360SOL    HW233714   4.629   2.324  15.817  0.7982 -0.0376  0.5660
 7361SOL     OW33715   0.586   3.107   5.415 -0.5562 -0.5808 -0.1175
 7361SOL    HW133716   0.515   3.048   5.390  0.5633 -1.7570 -0.4935
 7361SOL    HW233717   0.573   3.140   5.504 -1.2158 -0.3054 -0.3073
 7362SOL     OW33718   2.668   2.179   6.806 -0.0193  0.2367  0.4209
 7362SOL    HW133719   2.709   2.128   6.877 -0.5962 -0.4295  0.2801
 7362SOL    HW233720   2.697   2.264   6.839  1.7363 -0.1185 -0.1857
 7363SOL     OW33721   1.052   2.932  11.125 -0.6170  0.4036  0.3508
 7363SOL    HW133722   1.110   2.904  11.196  0.6654  0.7478 -0.5576
 7363SOL    HW233723   1.043   3.024  11.147  0.7406  0.9353 -1.2550
 7364SOL     OW33724   2.254   4.655   2.783  0.3368  0.0609  0.3008
 7364SOL    HW133725   2.273   4.671   2.875  0.8765 -0.4747  0.2812
 7364SOL    HW233726   2.340   4.667   2.742  0.6568 -3.2593  0.0421
 7365SOL     OW33727   0.092   3.542   8.265  0.5677  0.0951 -0.3126
 7365SOL    HW133728   0.039   3.622   8.265  1.0509  0.4133  0.9717
 7365SOL    HW233729   0.185   3.567   8.264  0.4407  0.5791 -0.1398
 7366SOL     OW33730   0.505   2.089   5.720 -0.1308  0.3426 -0.1950
 7366SOL    HW133731   0.541   2.004   5.693 -0.6544  0.2009 -0.4364
 7366SOL    HW233732   0.411   2.076   5.714 -0.0435 -0.2902 -0.2004
 7367SOL     OW33733   0.102   4.370   8.482  0.3183 -0.3358  0.1840
 7367SOL    HW133734   0.173   4.349   8.543  2.7285  0.3634 -2.4016
 7367SOL    HW233735   0.133   4.322   8.406  1.6767 -0.5964  0.8941
 7368SOL     OW33736   2.381   1.272   4.291 -0.2073 -0.0612 -0.4620
 7368SOL    HW133737   2.411   1.349   4.339  2.2983 -1.2650 -0.0898
 7368SOL    HW233738   2.438   1.261   4.215  0.1228 -0.9470 -0.0880
 7369SOL     OW33739   0.712   1.969   1.629  0.0238 -0.1530 -0.2620
 7369SOL    HW133740   0.782   2.015   1.676 -1.1032  0.1609  1.1324
 7369SOL    HW233741   0.718   2.006   1.541  1.7906 -5.4284 -2.3333
 7370SOL     OW33742   2.671   3.355   8.612  0.0832 -0.0426  0.3182
 7370SOL    HW133743   2.618   3.280   8.585  1.1290 -0.2008 -1.3031
 7370SOL    HW233744   2.685   3.402   8.529 -0.4136 -1.1833 -0.4153
 7371SOL     OW33745   3.272   2.560   9.167 -0.1125 -0.4674  0.7971
 7371SOL    HW133746   3.309   2.565   9.255  0.1831  1.0523  0.5767
 7371SOL    HW233747   3.349   2.518   9.127  0.7317  0.8904  0.9935
 7372SOL     OW33748   0.621   0.011   2.860  0.0775  0.0961 -0.1596
 7372SOL    HW133749   0.536   4.725   2.821 -1.0981  0.6634  2.0909
 7372SOL    HW233750   0.603   0.094   2.902 -2.3915 -0.4321 -0.1348
 7373SOL     OW33751   3.772   0.621   6.599  0.4297  0.2269 -0.3250
 7373SOL    HW133752   3.719   0.542   6.589 -1.5993  1.6975 -1.1378
 7373SOL    HW233753   3.811   0.629   6.512 -1.2850  0.4775 -1.0668
 7374SOL     OW33754   3.277   1.458   4.455 -0.6804 -0.5481  0.3977
 7374SOL    HW133755   3.222   1.468   4.533 -1.8714 -2.8878 -0.1404
 7374SOL    HW233756   3.256   1.371   4.420  0.9303 -0.6567 -0.2930
 7375SOL     OW33757   1.416   1.350  16.032  0.4619  0.3366  0.4592
 7375SOL    HW133758   1.352   1.315  15.971  2.0053  2.0697 -2.1349
 7375SOL    HW233759   1.430   1.440  16.004  1.5894 -0.4454 -1.4491
 7376SOL     OW33760   1.479   4.230  16.178  0.0646 -0.1319 -0.0225
 7376SOL    HW133761   1.409   4.278  16.134  0.5623  0.5700 -0.0528
 7376SOL    HW233762   1.525   4.180  16.110  0.2417 -0.5671  0.4117
 7377SOL     OW33763   2.203   2.759  14.981  0.0998 -0.6094 -0.3689
 7377SOL    HW133764   2.199   2.845  15.023  0.4448 -1.2131  0.9019
 7377SOL    HW233765   2.130   2.767  14.920  1.3057 -0.7389 -1.8289
 7378SOL     OW33766   1.679   1.170   8.606 -0.3979 -0.4105  1.0380
 7378SOL    HW133767   1.757   1.220   8.628 -1.2644 -0.3571  3.9870
 7378SOL    HW233768   1.694   1.122   8.687 -1.7896  0.0348  1.5586
 7379SOL     OW33769   4.181   1.670   5.119 -0.4800  0.1676  0.0983
 7379SOL    HW133770   4.127   1.734   5.164 -1.8032 -0.5700 -0.4114
 7379SOL    HW233771   4.163   1.588   5.165 -0.1165  1.2851  2.1968
 7380SOL     OW33772   0.996   4.534   5.591 -0.3577 -0.3023  0.3626
 7380SOL    HW133773   0.914   4.498   5.556 -0.8398  0.9175  0.2322
 7380SOL    HW233774   1.039   4.452   5.568  1.5987  0.3575  1.7305
 7381SOL     OW33775   2.171   1.183   3.697 -0.1209  0.0438  0.4499
 7381SOL    HW133776   2.113   1.205   3.623 -0.2193  0.0980  0.5420
 7381SOL    HW233777   2.100   1.163   3.759 -1.3972 -2.1623 -1.7085
 7382SOL     OW33778   4.572   3.494   6.419  0.3073 -0.1088 -0.0066
 7382SOL    HW133779   4.514   3.567   6.396  0.9847  0.9976  1.8358
 7382SOL    HW233780   4.511   3.420   6.411 -0.7603  0.6971  0.6004
 7383SOL     OW33781   1.151   0.728  15.606 -0.7309  0.2125 -0.1379
 7383SOL    HW133782   1.124   0.657  15.664 -0.4466 -0.4056 -0.7583
 7383SOL    HW233783   1.244   0.709  15.621 -0.8329  1.5671  2.0988
 7384SOL     OW33784   1.090   2.500   3.876 -0.3345  0.1772  0.6523
 7384SOL    HW133785   1.038   2.560   3.823  0.2272  0.8765  0.8943
 7384SOL    HW233786   1.135   2.446   3.811  0.3960 -0.3626  1.6074
 7385SOL     OW33787   2.271   1.768   3.412  0.6293  0.1228  0.2167
 7385SOL    HW133788   2.183   1.805   3.424  0.9910 -0.0361  3.2430
 7385SOL    HW233789   2.260   1.686   3.364 -2.6950  0.6166  0.1244
 7386SOL     OW33790   4.395   4.142  16.078  0.0545  0.3506  0.0855
 7386SOL    HW133791   4.460   4.188  16.132  1.0065 -1.2412  0.3049
 7386SOL    HW233792   4.406   4.056  16.117 -2.3203  0.0687  0.1313
 7387SOL     OW33793   2.875   0.595   5.380  0.0372  0.2373  0.1624
 7387SOL    HW133794   2.842   0.684   5.394  0.0413  0.5500 -1.8570
 7387SOL    HW233795   2.846   0.550   5.459 -0.8729 -0.7472 -0.7265
 7388SOL     OW33796   4.170   2.365   2.257 -0.3552 -0.3203 -0.1839
 7388SOL    HW133797   4.088   2.325   2.288 -0.1328 -1.3355 -0.9070
 7388SOL    HW233798   4.146   2.457   2.271 -1.9151 -0.8206  0.4261
 7389SOL     OW33799   3.705   2.802   7.771  0.1026 -0.0315  0.2020
 7389SOL    HW133800   3.712   2.721   7.823 -0.3862 -0.4550 -0.3968
 7389SOL    HW233801   3.783   2.849   7.801  0.8574 -0.2482 -1.4192
 7390SOL     OW33802   0.441   3.426  15.496  0.2009 -0.0536  0.5099
 7390SOL    HW133803   0.463   3.391  15.582  0.1414 -1.1626  0.0755
 7390SOL    HW233804   0.443   3.352  15.435 -2.3435 -0.4068  0.8485
 7391SOL     OW33805   4.306   4.429   7.909 -0.5036  0.1509  0.3417
 7391SOL    HW133806   4.241   4.482   7.954  1.1561  2.0234  0.5639
 7391SOL    HW233807   4.375   4.495   7.899  0.6146 -0.7752  1.9852
 7392SOL     OW33808   2.668   1.836   7.829 -0.0775 -0.1317 -0.2074
 7392SOL    HW133809   2.601   1.780   7.869  1.3023 -1.3880  0.3462
 7392SOL    HW233810   2.749   1.799   7.864 -0.4079 -1.0236 -0.3751
 7393SOL     OW33811   0.400   4.729  17.264  0.2190  0.1335 -0.2297
 7393SOL    HW133812   0.366   0.037  17.187 -2.2333  2.1063  2.0165
 7393SOL    HW233813   0.453   0.065  17.297 -0.4453 -0.1206  1.4236
 7394SOL     OW33814   1.102   3.426   0.212 -0.0280  0.2837 -0.5911
 7394SOL    HW133815   1.170   3.359   0.216  1.0278  1.5338  1.9951
 7394SOL    HW233816   1.082   3.408   0.120 -1.9076 -0.0526 -0.1085
 7395SOL     OW33817   4.198   0.128  14.520 -0.4755 -0.4921 -0.2219
 7395SOL    HW133818   4.134   0.070  14.478 -1.7863  2.1159 -1.8399
 7395SOL    HW233819   4.246   0.157  14.442  1.4711 -0.9409  0.8175
 7396SOL     OW33820   3.007   2.176  14.441  0.6414 -0.0401 -0.6142
 7396SOL    HW133821   2.964   2.261  14.437 -0.4463 -0.5477  0.2855
 7396SOL    HW233822   2.935   2.114  14.430  0.2458  0.1770  0.7547
 7397SOL     OW33823   1.874   2.064   3.226  0.1607 -0.1837  0.4017
 7397SOL    HW133824   1.878   2.148   3.181 -2.6800  0.0034  0.4943
 7397SOL    HW233825   1.913   2.000   3.167 -1.8625  0.6232 -1.8447
 7398SOL     OW33826   2.450   3.449  15.330  0.3902  0.0717 -0.1185
 7398SOL    HW133827   2.479   3.520  15.274 -1.3690  0.4325 -0.5774
 7398SOL    HW233828   2.356   3.467  15.325 -0.2275 -3.2318 -0.1912
 7399SOL     OW33829   0.996   2.930   9.905 -0.4659  0.0338  0.8838
 7399SOL    HW133830   1.026   2.911   9.816 -0.3103 -0.5340  1.0558
 7399SOL    HW233831   0.925   2.867   9.917  0.6167 -0.7909  2.9764
 7400SOL     OW33832   2.060   3.852   5.886 -0.0746 -0.0671 -0.4561
 7400SOL    HW133833   1.987   3.814   5.838 -0.4615  0.9697 -0.6830
 7400SOL    HW233834   2.117   3.774   5.892 -1.2555 -0.8316  0.7766
 7401SOL     OW33835   0.825   3.229   8.474  0.7964  0.0199  0.3137
 7401SOL    HW133836   0.837   3.321   8.450 -0.0940 -0.1983 -0.9481
 7401SOL    HW233837   0.756   3.195   8.417  1.6827  1.9997 -1.9245
 7402SOL     OW33838   4.546   1.386  11.503 -0.1093  0.1871  0.1203
 7402SOL    HW133839   4.609   1.316  11.483 -0.2979  0.4472 -1.4167
 7402SOL    HW233840   4.509   1.388  11.415 -0.0678  2.2233  0.1480
 7403SOL     OW33841   3.397   2.188   8.374 -0.1668 -0.2854  0.2841
 7403SOL    HW133842   3.395   2.208   8.280 -0.9875 -0.9281  0.1635
 7403SOL    HW233843   3.491   2.175   8.387 -0.2251 -0.9121  0.0966
 7404SOL     OW33844   4.506   3.449   9.192  0.0024  0.1371  0.6695
 7404SOL    HW133845   4.510   3.458   9.096  0.0351  1.2122  0.7676
 7404SOL    HW233846   4.584   3.395   9.202  0.6650  1.5003  2.9278
 7405SOL     OW33847   0.583   1.684  16.612  0.8144  0.5322  0.6191
 7405SOL    HW133848   0.662   1.737  16.604 -0.8325  2.7717 -1.0735
 7405SOL    HW233849   0.608   1.619  16.677  1.8066 -0.3801 -0.6790
 7406SOL     OW33850   0.932   3.641  15.340  0.0028 -0.1035 -0.3172
 7406SOL    HW133851   0.982   3.583  15.398 -1.8773 -2.2533 -0.8581
 7406SOL    HW233852   0.854   3.587  15.325 -0.5195  0.5618  0.0038
 7407SOL     OW33853   1.089   2.395   6.386  0.1014  0.0100  0.4015
 7407SOL    HW133854   1.125   2.400   6.298  0.5748 -0.6135  0.5535
 7407SOL    HW233855   1.052   2.307   6.375  0.8318 -0.2240 -0.1445
 7408SOL     OW33856   2.595   4.287   4.117  0.2141  0.4831  0.0809
 7408SOL    HW133857   2.538   4.360   4.139  0.4198  0.3293  1.1238
 7408SOL    HW233858   2.614   4.255   4.205  0.9580  0.5150 -0.0656
 7409SOL     OW33859   0.009   0.898  14.928  0.2226 -0.3619  0.0489
 7409SOL    HW133860   4.708   0.812  14.943  2.5464 -1.1584  1.2950
 7409SOL    HW233861   0.066   0.911  15.003 -1.3681  0.1530  1.1508
 7410SOL     OW33862   3.190   2.896   7.580  0.5402 -0.2930 -1.5209
 7410SOL    HW133863   3.258   2.829   7.579 -1.7052 -2.5757  1.0387
 7410SOL    HW233864   3.228   2.951   7.649 -0.3001 -0.7947 -0.6746
 7411SOL     OW33865   1.453   2.773  13.974  0.4159  0.1256  0.2863
 7411SOL    HW133866   1.520   2.734  14.031  1.7177  2.3453  0.2701
 7411SOL    HW233867   1.500   2.853  13.951 -0.0967  0.4728  0.4442
 7412SOL     OW33868   3.473   3.906   5.006  0.3541  0.6000 -0.1125
 7412SOL    HW133869   3.441   3.912   4.917  0.2877 -0.2138 -0.1493
 7412SOL    HW233870   3.460   3.996   5.034  0.0096  0.8409 -1.0913
 7413SOL     OW33871   2.745   2.511   6.545 -0.0894 -0.0596  0.2406
 7413SOL    HW133872   2.721   2.562   6.622  0.8213  1.6252 -0.5880
 7413SOL    HW233873   2.836   2.483   6.558 -1.4681 -4.3230  0.7436
 7414SOL     OW33874   3.375   2.988  11.525  0.2165  0.1807  0.4523
 7414SOL    HW133875   3.421   3.028  11.600  0.1169 -0.0745  0.6478
 7414SOL    HW233876   3.448   2.974  11.464  0.5312 -1.7514  1.2958
 7415SOL     OW33877   4.213   0.579  12.535  0.3781  0.0912  0.0035
 7415SOL    HW133878   4.153   0.512  12.569 -0.5155 -0.4751 -2.6870
 7415SOL    HW233879   4.265   0.608  12.610 -1.4336  0.4061  1.1298
 7416SOL     OW33880   0.725   4.470   6.692  0.3915 -0.0684  0.0323
 7416SOL    HW133881   0.717   4.563   6.712  2.4784 -0.2184  1.6185
 7416SOL    HW233882   0.664   4.448   6.621  2.7397  1.1689 -2.3917
 7417SOL     OW33883   2.934   3.315   6.913 -0.0213  0.2804 -0.0176
 7417SOL    HW133884   3.013   3.355   6.949 -1.5693  1.6921  1.8536
 7417SOL    HW233885   2.957   3.292   6.823  0.1272 -0.6969  0.2714
 7418SOL     OW33886   0.704   2.519   4.194 -0.5193 -0.1055 -0.4364
 7418SOL    HW133887   0.736   2.515   4.105 -1.6228 -1.4684 -0.7646
 7418SOL    HW233888   0.752   2.594   4.230 -0.6443  0.0542 -0.5999
 7419SOL     OW33889   3.165   1.498  10.789  0.3362 -0.0997  0.6863
 7419SOL    HW133890   3.092   1.560  10.794 -0.7079 -1.2729  0.0635
 7419SOL    HW233891   3.222   1.541  10.852  0.6419 -0.1717  0.4574
 7420SOL     OW33892   4.527   2.158   4.399  0.4533  0.4917  0.0389
 7420SOL    HW133893   4.623   2.165   4.392  0.5618  0.1242  1.1036
 7420SOL    HW233894   4.522   2.063   4.411  0.0489  0.4769 -0.2517
 7421SOL     OW33895   3.760   2.649   7.343 -0.4501 -0.7146  0.3266
 7421SOL    HW133896   3.689   2.713   7.347  0.8800  0.7902 -0.1540
 7421SOL    HW233897   3.758   2.602   7.427  1.4812  1.2055  1.4622
 7422SOL     OW33898   1.341   3.916   7.067  0.4214  0.2598 -0.3453
 7422SOL    HW133899   1.313   3.880   6.982 -2.2613 -0.9503  1.0455
 7422SOL    HW233900   1.278   3.988   7.073 -0.4850 -0.5300 -0.4520
 7423SOL     OW33901   3.578   1.882   7.939  0.6818  0.1415 -0.3803
 7423SOL    HW133902   3.603   1.790   7.931 -1.8722 -0.3129 -2.9102
 7423SOL    HW233903   3.553   1.895   7.848 -0.4318 -1.1072 -0.2562
 7424SOL     OW33904   4.123   1.805   1.529 -0.5038 -0.0417 -0.1587
 7424SOL    HW133905   4.102   1.851   1.448 -1.7077 -3.1089 -1.5639
 7424SOL    HW233906   4.089   1.861   1.599 -0.9406 -1.0729  0.4548
 7425SOL     OW33907   3.720   2.423   6.110 -0.1597 -0.2259  0.2652
 7425SOL    HW133908   3.740   2.358   6.178 -2.2534 -0.1334  0.9807
 7425SOL    HW233909   3.720   2.502   6.164 -2.5246 -0.4257  0.5527
 7426SOL     OW33910   3.097   1.339   8.664  0.1426  0.3496  0.6089
 7426SOL    HW133911   3.156   1.276   8.706  0.3424  0.3388  0.3109
 7426SOL    HW233912   3.127   1.424   8.695 -0.3760  1.0162 -0.7203
 7427SOL     OW33913   0.698   2.980   9.750 -0.9060  0.2047  0.9120
 7427SOL    HW133914   0.761   2.910   9.764 -1.4073 -0.6886 -1.2373
 7427SOL    HW233915   0.630   2.962   9.815 -1.9982 -0.0341 -0.3031
 7428SOL     OW33916   4.346   0.190   7.341  0.0722  0.5505 -0.0310
 7428SOL    HW133917   4.438   0.167   7.326  0.0963 -0.5994  1.8837
 7428SOL    HW233918   4.308   0.131   7.277 -0.0391  0.2897  0.2726
 7429SOL     OW33919   0.001   2.272   6.630 -0.9110 -0.4033  0.7005
 7429SOL    HW133920   4.681   2.302   6.560 -1.3914  0.9959  1.6791
 7429SOL    HW233921   0.064   2.342   6.647 -1.1136 -0.1767  0.5077
 7430SOL     OW33922   4.643   0.884  16.303  0.0485 -0.2535  0.2166
 7430SOL    HW133923   4.680   0.928  16.227 -1.0176 -1.2164 -0.8751
 7430SOL    HW233924   4.585   0.951  16.340  1.7551  1.9638 -1.1394
 7431SOL     OW33925   1.748   0.399   6.167  0.7134  0.0302  0.3992
 7431SOL    HW133926   1.736   0.308   6.196 -0.2759 -0.3282 -1.1438
 7431SOL    HW233927   1.840   0.391   6.142  0.6888 -0.8965  0.5966
 7432SOL     OW33928   0.571   4.022   2.420 -0.1028 -0.6277  0.2887
 7432SOL    HW133929   0.541   4.107   2.387  2.0878 -0.5558 -1.5061
 7432SOL    HW233930   0.528   4.022   2.505  1.1915 -1.5747  0.9225
 7433SOL     OW33931   1.888   0.515  15.113  0.5257  0.4119  0.3796
 7433SOL    HW133932   1.900   0.541  15.204  2.5287  1.7264 -0.2520
 7433SOL    HW233933   1.862   0.423  15.116 -0.3338  0.6025 -1.1862
 7434SOL     OW33934   3.412   2.946  13.096 -0.0840 -0.4290  0.1801
 7434SOL    HW133935   3.392   2.953  13.189  1.5999 -3.7757  0.7751
 7434SOL    HW233936   3.361   3.015  13.052 -0.8237 -1.7399 -1.0045
 7435SOL     OW33937   0.453   2.540   2.270 -0.1344 -0.1091  0.6723
 7435SOL    HW133938   0.403   2.501   2.198 -0.8793  3.0127 -0.5376
 7435SOL    HW233939   0.417   2.627   2.289 -0.0647  0.2989 -0.9924
 7436SOL     OW33940   2.452   0.070  14.546 -0.3843 -0.0809  0.0068
 7436SOL    HW133941   2.491   0.099  14.464  2.0183 -0.3129  1.0704
 7436SOL    HW233942   2.470   0.135  14.614 -1.5672 -0.1577  0.3983
 7437SOL     OW33943   3.818   2.361   7.171  0.3852  0.4353 -0.5140
 7437SOL    HW133944   3.889   2.304   7.142  0.1378 -0.7489  1.1850
 7437SOL    HW233945   3.864   2.430   7.217 -0.8980  0.4272  0.7968
 7438SOL     OW33946   2.805   1.499   8.635  0.7178  0.4384  0.2765
 7438SOL    HW133947   2.889   1.505   8.681 -0.4085  0.2078  2.3310
 7438SOL    HW233948   2.839   1.456   8.556 -1.0243  3.1732 -1.9526
 7439SOL     OW33949   3.625   3.850   1.701  0.5817  0.2325  0.0721
 7439SOL    HW133950   3.543   3.829   1.744  1.6194 -1.2812  1.3289
 7439SOL    HW233951   3.662   3.762   1.686 -0.0419  0.2237 -1.4052
 7440SOL     OW33952   2.347   3.599   9.246  0.0028  0.3868  0.4668
 7440SOL    HW133953   2.409   3.614   9.175  0.2944  2.2695  1.1166
 7440SOL    HW233954   2.382   3.630   9.330  0.5013 -0.3644  0.5343
 7441SOL     OW33955   0.721   2.863   5.875 -0.4497 -0.0376  0.3827
 7441SOL    HW133956   0.769   2.924   5.820 -1.6041  0.5757  0.0490
 7441SOL    HW233957   0.787   2.826   5.933  1.3163  0.2136 -1.4718
 7442SOL     OW33958   3.172   1.765   4.304  0.1285  0.0150  0.1310
 7442SOL    HW133959   3.108   1.710   4.348  1.1909 -1.5942 -0.3417
 7442SOL    HW233960   3.161   1.845   4.356  1.2086 -0.5581  1.2531
 7443SOL     OW33961   1.924   4.312   4.329  0.4973 -0.2301  0.5373
 7443SOL    HW133962   2.016   4.285   4.333  0.4074 -0.7124 -0.5608
 7443SOL    HW233963   1.900   4.262   4.251 -1.0308  1.6167 -0.1735
 7444SOL     OW33964   1.780   3.698   0.935  0.2306  0.2530  0.5832
 7444SOL    HW133965   1.837   3.639   0.886  0.5389  0.6148  0.5099
 7444SOL    HW233966   1.788   3.783   0.892 -1.0043  0.3424  0.5250
 7445SOL     OW33967   0.173   2.797   9.459  0.3729 -0.3544 -0.1138
 7445SOL    HW133968   0.078   2.804   9.447  0.2179 -2.6526 -0.3116
 7445SOL    HW233969   0.200   2.868   9.517  1.4765  0.8998 -2.1573
 7446SOL     OW33970   4.491   0.737  13.163  0.0839 -1.2012  0.3804
 7446SOL    HW133971   4.524   0.766  13.248 -0.9409  0.0324  0.3759
 7446SOL    HW233972   4.422   0.677  13.192 -1.7082  1.3456  1.4813
 7447SOL     OW33973   2.261   3.433   8.897 -0.0191  0.2591 -0.3082
 7447SOL    HW133974   2.349   3.472   8.900  0.2792 -0.2580 -2.5534
 7447SOL    HW233975   2.282   3.340   8.887 -1.1409  0.1681 -1.7282
 7448SOL     OW33976   0.420   0.301   4.083 -0.3185  0.1512  0.0893
 7448SOL    HW133977   0.426   0.368   4.015  0.6023  1.0914  1.0869
 7448SOL    HW233978   0.478   0.235   4.045  0.3855  0.2981  0.8959
 7449SOL     OW33979   0.563   0.129   6.336 -0.2356 -0.4971  0.7352
 7449SOL    HW133980   0.650   0.089   6.339 -0.5083 -1.2711 -1.6939
 7449SOL    HW233981   0.553   0.097   6.246 -1.0561 -2.2767  1.4693
 7450SOL     OW33982   1.184   0.397  13.845  0.5266  0.3663  0.8617
 7450SOL    HW133983   1.239   0.451  13.902  0.1576  0.8233  0.7862
 7450SOL    HW233984   1.098   0.428  13.871  0.4445 -0.2374  1.3006
 7451SOL     OW33985   4.184   4.309   2.194  0.3315  0.3765  0.1462
 7451SOL    HW133986   4.175   4.281   2.103 -0.9086  0.8974  0.0914
 7451SOL    HW233987   4.117   4.378   2.201  0.1965  0.2807 -0.1710
 7452SOL     OW33988   0.236   3.261   4.853  0.4479 -0.1121  0.6230
 7452SOL    HW133989   0.286   3.239   4.773  1.9489 -2.6842  2.2550
 7452SOL    HW233990   0.302   3.303   4.908 -0.6708  2.3098  0.0774
 7453SOL     OW33991   3.668   2.208   3.477 -0.5188  0.0675 -0.5435
 7453SOL    HW133992   3.708   2.123   3.459  1.0610  0.7375 -0.1601
 7453SOL    HW233993   3.722   2.270   3.429 -1.2057  2.3261  1.6426
 7454SOL     OW33994   4.077   0.956  12.402 -0.6221  0.5620 -0.0190
 7454SOL    HW133995   4.097   0.862  12.399  0.0226  0.6882  0.1148
 7454SOL    HW233996   3.982   0.946  12.398 -0.6044  0.0490  0.9196
 7455SOL     OW33997   0.601   2.115   7.034  0.3862 -0.2810  0.2829
 7455SOL    HW133998   0.676   2.145   7.085 -0.4244  0.9101  0.7769
 7455SOL    HW233999   0.555   2.197   7.019  1.3837  0.3455  0.6528
 7456SOL     OW34000   3.294   4.695   4.791  0.1693 -0.0786  0.4456
 7456SOL    HW134001   3.214   4.644   4.803 -0.3947  0.9256  0.9156
 7456SOL    HW234002   3.282   0.028   4.855  2.9749 -0.0902  0.9755
 7457SOL     OW34003   3.067   1.507   5.653 -0.8861  0.0109 -0.0710
 7457SOL    HW134004   3.113   1.555   5.584  0.7413  0.7740  1.5502
 7457SOL    HW234005   3.074   1.568   5.727  1.9347 -2.9023  2.0785
 7458SOL     OW34006   2.529   2.645   8.033  0.1657 -0.5290  0.5835
 7458SOL    HW134007   2.484   2.596   7.965  0.4398 -1.5108  1.1067
 7458SOL    HW234008   2.620   2.616   8.023  0.7982  1.1452  1.4686
 7459SOL     OW34009   3.288   3.681   6.437  0.3012 -0.3045 -0.1484
 7459SOL    HW134010   3.204   3.639   6.452 -0.6828  1.0392 -1.8302
 7459SOL    HW234011   3.302   3.672   6.343  0.4662 -3.3955  0.1979
 7460SOL     OW34012   1.845   2.561   2.436  0.6255  0.4991 -0.2471
 7460SOL    HW134013   1.841   2.525   2.524  0.1403  0.4155 -0.3071
 7460SOL    HW234014   1.905   2.634   2.457 -0.8226  1.5814  0.1280
 7461SOL     OW34015   2.548   0.255  16.615 -0.5631 -0.6565  0.4301
 7461SOL    HW134016   2.467   0.252  16.666 -1.2533  1.9096 -0.5292
 7461SOL    HW234017   2.604   0.195  16.663  0.9474 -0.6743 -1.3381
 7462SOL     OW34018   4.560   2.414  17.419 -0.0806  0.2290  0.5024
 7462SOL    HW134019   4.566   2.504  17.449 -1.1718  0.9405 -1.4048
 7462SOL    HW234020   4.465   2.421  17.414  0.0399  2.1703  0.9307
 7463SOL     OW34021   0.070   1.306   9.267  0.2156 -0.2071  0.4301
 7463SOL    HW134022   0.068   1.240   9.337  0.6113  2.5484  3.0546
 7463SOL    HW234023   0.101   1.249   9.197  2.6254  0.0936  1.2243
 7464SOL     OW34024   3.471   3.402   3.382 -0.3388 -0.4508  0.2642
 7464SOL    HW134025   3.419   3.426   3.459 -0.2520  0.1018  0.1474
 7464SOL    HW234026   3.498   3.486   3.345 -2.9156  0.4589  0.4164
 7465SOL     OW34027   0.230   2.553   6.098 -0.1800  0.0623  0.2421
 7465SOL    HW134028   0.267   2.467   6.079  1.1474  0.8370 -0.6612
 7465SOL    HW234029   0.170   2.560   6.024 -0.2740  0.7622  0.3827
 7466SOL     OW34030   3.336   1.834   5.888 -0.5580  0.4014  0.1868
 7466SOL    HW134031   3.292   1.848   5.804 -1.6023  1.0404  0.8331
 7466SOL    HW234032   3.293   1.751   5.910  1.5015 -0.1322  2.1434
 7467SOL     OW34033   2.218   4.225   9.856 -0.0020  0.0530 -0.0429
 7467SOL    HW134034   2.288   4.278   9.894 -0.7776  0.5885  0.6388
 7467SOL    HW234035   2.191   4.268   9.775  0.1613 -2.3410 -1.3815
 7468SOL     OW34036   4.228   1.794  17.356  0.1730  0.3526 -0.4658
 7468SOL    HW134037   4.248   1.795  17.262 -1.6154  2.3207 -0.8452
 7468SOL    HW234038   4.315   1.823  17.383  0.6175 -2.2483  0.8779
 7469SOL     OW34039   1.660   1.760   6.609 -0.1935 -0.3295  0.2533
 7469SOL    HW134040   1.577   1.771   6.656  0.0529 -3.8457  1.5379
 7469SOL    HW234041   1.710   1.721   6.682  3.8990  2.4235 -1.0935
 7470SOL     OW34042   1.419   0.628   7.263  0.7275  0.2342  0.0615
 7470SOL    HW134043   1.451   0.644   7.352  0.6074 -3.2431  0.7166
 7470SOL    HW234044   1.324   0.625   7.276  0.8392  0.4350  0.9557
 7471SOL     OW34045   1.772   2.882   8.831 -0.3926 -1.0960 -0.0741
 7471SOL    HW134046   1.807   2.830   8.758  0.1697 -0.7152 -0.0711
 7471SOL    HW234047   1.842   2.946   8.841 -1.6974  0.0581  1.8148
 7472SOL     OW34048   0.399   0.075   8.138 -0.4968 -0.0800 -0.1220
 7472SOL    HW134049   0.375   4.733   8.091  0.1688 -0.6626  0.5146
 7472SOL    HW234050   0.493   0.065   8.156  0.0017  0.5831 -2.4540
 7473SOL     OW34051   2.717   0.606   9.422  0.5114  0.3306 -0.3831
 7473SOL    HW134052   2.628   0.602   9.459  1.2033 -3.2756  0.9194
 7473SOL    HW234053   2.762   0.639   9.500 -0.7244  1.5266 -0.1667
 7474SOL     OW34054   2.925   3.687  13.291  0.0855  0.5421  0.0983
 7474SOL    HW134055   2.980   3.612  13.311  0.1228  1.0725  1.9565
 7474SOL    HW234056   2.836   3.654  13.304  0.6643 -0.5612  1.1958
 7475SOL     OW34057   2.210   2.312   6.892 -0.0451 -0.0683  0.4917
 7475SOL    HW134058   2.289   2.325   6.946 -0.2382 -1.2023  1.0367
 7475SOL    HW234059   2.147   2.337   6.960 -1.6496  1.5687 -1.6062
 7476SOL     OW34060   0.609   4.011  16.370  0.5897  0.2407  0.4301
 7476SOL    HW134061   0.530   3.999  16.318  0.3761 -1.7238  1.1740
 7476SOL    HW234062   0.579   4.078  16.432  1.5670  0.0430  1.1266
 7477SOL     OW34063   1.361   0.203   1.797 -0.4376 -0.1631  0.2267
 7477SOL    HW134064   1.439   0.257   1.809 -0.8876  0.6092 -0.3454
 7477SOL    HW234065   1.368   0.144   1.872  1.7046  0.0841  0.2085
 7478SOL     OW34066   4.461   1.615   9.444 -0.4167 -0.0522  0.7039
 7478SOL    HW134067   4.534   1.554   9.453  0.3525  0.6145 -0.8562
 7478SOL    HW234068   4.452   1.659   9.529  0.4675  1.9754 -0.2434
 7479SOL     OW34069   1.548   3.861   7.793  0.5762 -0.3151  0.5626
 7479SOL    HW134070   1.488   3.872   7.719  1.7212  1.7179 -0.0442
 7479SOL    HW234071   1.636   3.842   7.763  0.3798  0.4424 -0.4820
 7480SOL     OW34072   1.415   4.367   7.839 -0.2600  0.5082 -0.2498
 7480SOL    HW134073   1.434   4.274   7.853  0.9624  1.1396  2.3081
 7480SOL    HW234074   1.455   4.410   7.915 -0.3464  0.6727 -0.2977
 7481SOL     OW34075   1.528   2.334   9.148  0.5319 -0.2487  0.0006
 7481SOL    HW134076   1.616   2.330   9.110  0.2784 -0.4584 -0.5578
 7481SOL    HW234077   1.534   2.260   9.210  1.8235 -0.2689 -0.1293
 7482SOL     OW34078   1.144   3.518  17.578 -0.2231  0.0674 -0.2956
 7482SOL    HW134079   1.084   3.553  17.512 -0.4376 -0.1262 -0.2038
 7482SOL    HW234080   1.169   3.597  17.627  0.5645 -1.1714  1.2833
 7483SOL     OW34081   3.699   0.121  10.426  1.0156 -0.4089  0.7203
 7483SOL    HW134082   3.766   0.054  10.416  0.8494 -0.3304 -0.8996
 7483SOL    HW234083   3.626   0.060  10.439  0.3878  0.1493 -0.1288
 7484SOL     OW34084   4.329   1.175   2.551 -0.4359 -0.2413 -0.8509
 7484SOL    HW134085   4.299   1.219   2.471 -0.1222  1.5121 -0.0143
 7484SOL    HW234086   4.248   1.132   2.578  0.3179  0.9714  3.3404
 7485SOL     OW34087   2.522   1.876  16.737  0.0374 -0.2480 -0.4189
 7485SOL    HW134088   2.568   1.900  16.817 -0.1746 -0.5928 -0.1955
 7485SOL    HW234089   2.588   1.880  16.668  2.7717  0.4664  2.2683
 7486SOL     OW34090   4.378   2.317   7.854  0.0464 -0.1322 -0.4930
 7486SOL    HW134091   4.472   2.301   7.847  0.1508 -0.0082  0.6090
 7486SOL    HW234092   4.341   2.234   7.823 -1.1961  0.7397 -1.3172
 7487SOL     OW34093   0.620   0.233   3.356  0.4048  0.2316 -0.9415
 7487SOL    HW134094   0.699   0.282   3.380 -0.1932  0.9970 -0.5226
 7487SOL    HW234095   0.644   0.145   3.384  2.6233  1.9960  2.7379
 7488SOL     OW34096   3.484   3.567   2.551 -0.4466  0.3522  0.1308
 7488SOL    HW134097   3.453   3.477   2.539 -0.7172  0.4088  0.4049
 7488SOL    HW234098   3.411   3.625   2.571 -0.2864  0.0247  1.7229
 7489SOL     OW34099   4.037   1.506  14.070 -0.1408  0.2916 -0.4486
 7489SOL    HW134100   4.030   1.522  13.976 -1.2082  0.6940 -0.3045
 7489SOL    HW234101   3.951   1.542  14.092  0.3235  1.8787 -1.2228
 7490SOL     OW34102   0.516   0.935  15.299  0.1970  0.3745  0.0341
 7490SOL    HW134103   0.500   0.849  15.260 -0.1227 -0.9905  3.1489
 7490SOL    HW234104   0.606   0.925  15.328 -0.6116 -0.4221  2.2633
 7491SOL     OW34105   2.203   4.704   9.085 -0.4053  0.5051 -0.1993
 7491SOL    HW134106   2.233   4.646   9.014  0.5892  1.9887 -0.9870
 7491SOL    HW234107   2.136   0.020   9.043 -1.3044 -1.0871 -0.7669
 7492SOL     OW34108   2.025   3.336   4.589  0.1136  0.3137  0.7293
 7492SOL    HW134109   2.095   3.400   4.601  1.0346 -0.2948 -1.4493
 7492SOL    HW234110   2.050   3.261   4.645 -0.1101 -0.6985 -0.5241
 7493SOL     OW34111   2.774   1.484  17.240 -0.1780  0.3038 -0.1298
 7493SOL    HW134112   2.830   1.433  17.299  3.3607  1.2649 -2.6750
 7493SOL    HW234113   2.827   1.494  17.162  0.3872  1.0000  0.3474
 7494SOL     OW34114   1.173   4.189   6.551  0.1060  0.6805 -0.0249
 7494SOL    HW134115   1.125   4.131   6.610 -0.0951  1.2815  0.3982
 7494SOL    HW234116   1.174   4.151   6.463  1.5325 -0.4930  0.5027
 7495SOL     OW34117   0.082   4.000   8.835 -0.0950 -0.0637 -0.1746
 7495SOL    HW134118   0.152   4.061   8.857 -0.4990  0.1677  0.4716
 7495SOL    HW234119   0.000   4.048   8.846  1.0890  1.3952  2.2597
 7496SOL     OW34120   2.712   3.501   1.013  0.2876  0.1111  0.0619
 7496SOL    HW134121   2.680   3.460   0.933  0.7418 -0.9311  0.4070
 7496SOL    HW234122   2.784   3.555   0.979  1.1443  0.3303  2.2223
 7497SOL     OW34123   0.646   3.906   5.415  0.0740  0.9055  0.1459
 7497SOL    HW134124   0.565   3.907   5.467 -0.4302 -1.4439 -0.5872
 7497SOL    HW234125   0.637   3.972   5.346  0.3024  1.3089  0.5038
 7498SOL     OW34126   2.590   1.668   9.868  0.1211 -0.6242  0.8583
 7498SOL    HW134127   2.533   1.691   9.942  0.4316 -1.1562  1.2617
 7498SOL    HW234128   2.538   1.599   9.827 -0.5359  0.5180 -0.2245
 7499SOL     OW34129   3.235   1.632   5.493 -0.3196  0.0644  0.2712
 7499SOL    HW134130   3.317   1.616   5.541 -1.2575 -2.4517  1.0343
 7499SOL    HW234131   3.253   1.711   5.443  0.3808  0.5664  1.3182
 7500SOL     OW34132   3.994   1.467   6.216 -0.1268  0.3364 -0.0952
 7500SOL    HW134133   4.065   1.529   6.198  1.8004 -0.9055  3.0627
 7500SOL    HW234134   3.996   1.459   6.311 -0.8297  0.4350 -0.0754
 7501SOL     OW34135   3.539   2.927   5.283  0.2980 -0.0910  0.2693
 7501SOL    HW134136   3.601   2.933   5.211  1.8866 -0.5024  1.5950
 7501SOL    HW234137   3.509   3.017   5.290 -2.4089 -0.8522 -1.5615
 7502SOL     OW34138   1.915   1.175  16.559  0.3007 -0.2013  0.2240
 7502SOL    HW134139   1.857   1.175  16.635  0.9276  0.3691  0.7095
 7502SOL    HW234140   1.860   1.160  16.482  1.7642  1.2319 -1.1127
 7503SOL     OW34141   3.911   3.793   2.764 -0.8656  0.2402 -0.6904
 7503SOL    HW134142   3.951   3.776   2.849 -2.9887  0.0713  0.2756
 7503SOL    HW234143   3.987   3.833   2.720 -1.5830  1.8133 -0.4844
 7504SOL     OW34144   3.470   3.662   3.270  0.5249  0.2816  0.0641
 7504SOL    HW134145   3.503   3.746   3.238  0.4445 -0.4295 -1.9051
 7504SOL    HW234146   3.419   3.687   3.347 -0.8193 -2.1937 -0.0038
 7505SOL     OW34147   0.990   4.080   3.024 -0.8861 -0.0307  0.1422
 7505SOL    HW134148   0.920   4.135   3.061  0.1205  0.8372  0.7663
 7505SOL    HW234149   0.951   4.028   2.954  0.4307 -1.3305  0.3905
 7506SOL     OW34150   1.104   1.483  14.835 -0.4907  0.3721  0.0012
 7506SOL    HW134151   1.113   1.575  14.811 -0.5586  0.2923 -0.3301
 7506SOL    HW234152   1.171   1.445  14.778 -0.1961  0.5257  0.2462
 7507SOL     OW34153   1.980   2.642  15.179 -0.1255  0.5016  0.1031
 7507SOL    HW134154   1.953   2.681  15.263  0.4799 -0.5408  0.7863
 7507SOL    HW234155   1.921   2.567  15.176  0.8818 -0.2263 -1.5477
 7508SOL     OW34156   4.514   3.376   0.187 -0.2077 -0.1343 -0.1802
 7508SOL    HW134157   4.420   3.384   0.205  0.1714  0.6660  1.4007
 7508SOL    HW234158   4.531   3.470   0.179  2.2384 -0.5927 -0.1221
 7509SOL     OW34159   2.463   4.446   0.649 -0.1738 -0.1125  0.1155
 7509SOL    HW134160   2.424   4.491   0.575 -0.6453  3.7704  2.7020
 7509SOL    HW234161   2.388   4.466   0.706 -0.2792 -2.8901  0.9390
 7510SOL     OW34162   3.892   3.241   1.910  0.0689  0.2038  0.6908
 7510SOL    HW134163   3.975   3.202   1.935  0.4381  0.7422  0.3110
 7510SOL    HW234164   3.870   3.288   1.990 -1.5075 -1.5324  1.2601
 7511SOL     OW34165   0.845   2.535   4.564 -0.1108  0.1277 -0.1060
 7511SOL    HW134166   0.835   2.560   4.656  0.7539  0.4882 -0.0992
 7511SOL    HW234167   0.770   2.588   4.538  0.6932  0.5416 -1.5906
 7512SOL     OW34168   2.579   3.596   3.573  0.8456 -0.0762 -0.5658
 7512SOL    HW134169   2.586   3.612   3.479  2.3778 -0.0011 -0.4370
 7512SOL    HW234170   2.672   3.596   3.594  0.6287  1.7845  0.4274
 7513SOL     OW34171   1.217   2.418   3.658 -0.1829 -0.2353  0.5499
 7513SOL    HW134172   1.191   2.330   3.628 -1.3844  0.6903 -1.0846
 7513SOL    HW234173   1.171   2.472   3.594 -0.3328  0.5522  1.3178
 7514SOL     OW34174   4.719   0.054  12.824 -0.4432  0.0244  0.2215
 7514SOL    HW134175   0.046   0.048  12.895 -1.0031 -2.0329  0.5506
 7514SOL    HW234176   4.690   4.700  12.814 -0.0111 -0.0724 -0.1443
 7515SOL     OW34177   3.152   0.601   3.160  0.4273 -0.3227  0.8912
 7515SOL    HW134178   3.137   0.669   3.226 -0.6900  1.3909 -1.1170
 7515SOL    HW234179   3.173   0.647   3.079  0.7836 -0.3312  0.9798
 7516SOL     OW34180   3.460   4.297   8.432  0.0237 -0.5826 -0.3310
 7516SOL    HW134181   3.394   4.340   8.378  0.9226 -1.4911 -2.1367
 7516SOL    HW234182   3.445   4.343   8.515  0.1418 -1.6043  0.2577
 7517SOL     OW34183   3.103   3.864  10.020  0.2628  0.1808  0.2233
 7517SOL    HW134184   3.124   3.771  10.008  0.6776  0.5979 -2.2342
 7517SOL    HW234185   3.045   3.872   9.944  0.0435 -1.0687  0.2502
 7518SOL     OW34186   4.507   1.447   3.446 -0.3937 -0.1949 -0.0443
 7518SOL    HW134187   4.492   1.492   3.529  0.8708  2.0284 -1.0040
 7518SOL    HW234188   4.513   1.355   3.469  0.9542  0.2217  1.2892
 7519SOL     OW34189   2.458   3.746   3.096  0.1473 -0.0335  0.3335
 7519SOL    HW134190   2.553   3.743   3.097  0.1675  0.5175 -0.1826
 7519SOL    HW234191   2.432   3.756   3.187 -0.4076 -0.1610  0.1915
 7520SOL     OW34192   2.859   0.596   1.388 -0.0432 -0.1505 -0.5591
 7520SOL    HW134193   2.796   0.652   1.343 -0.0467 -0.2128 -0.6305
 7520SOL    HW234194   2.925   0.600   1.319  0.7197  0.0563  0.1724
 7521SOL     OW34195   3.540   3.289  17.442  0.2635 -0.1924 -0.0850
 7521SOL    HW134196   3.511   3.300  17.532  0.3907  0.5673 -0.1304
 7521SOL    HW234197   3.618   3.233  17.449  1.8133  2.2118  2.0089
 7522SOL     OW34198   2.365   3.383   7.542 -0.2302 -0.1362 -0.4411
 7522SOL    HW134199   2.350   3.470   7.504 -0.3861  0.7553  1.6818
 7522SOL    HW234200   2.312   3.321   7.492  0.7007 -0.4387 -1.0442
 7523SOL     OW34201   4.144   1.725   8.882 -0.0797  0.7898  0.1179
 7523SOL    HW134202   4.199   1.756   8.810  1.8493  1.3879  1.8392
 7523SOL    HW234203   4.074   1.789   8.890 -1.8407 -1.1005  0.0306
 7524SOL     OW34204   0.586   4.399   5.847  0.3339 -0.1615  0.1005
 7524SOL    HW134205   0.578   4.307   5.870  0.8993 -0.7583 -2.0807
 7524SOL    HW234206   0.574   4.396   5.752 -0.8170  0.1392  0.2384
 7525SOL     OW34207   2.862   0.926   2.987 -0.3782 -0.2057 -0.1242
 7525SOL    HW134208   2.851   0.899   3.078 -0.9321 -0.1057 -0.1613
 7525SOL    HW234209   2.957   0.920   2.977 -0.4407 -2.7633  0.6364
 7526SOL     OW34210   2.411   3.762  13.134 -0.2565 -0.0429 -0.1945
 7526SOL    HW134211   2.506   3.764  13.130 -0.2010  0.0558  1.0368
 7526SOL    HW234212   2.383   3.838  13.083 -1.5924 -1.2741 -1.3177
 7527SOL     OW34213   2.586   3.919  11.461  0.4517 -0.8809  0.1030
 7527SOL    HW134214   2.679   3.899  11.470  0.1519 -2.3668 -0.1961
 7527SOL    HW234215   2.552   3.848  11.516 -0.1081 -1.6063 -1.1746
 7528SOL     OW34216   1.103   2.573   7.189 -0.1664 -0.0998  0.3394
 7528SOL    HW134217   1.111   2.548   7.096 -1.0213  2.6194 -0.4549
 7528SOL    HW234218   1.115   2.666   7.169 -0.3523  0.3630  2.3645
 7529SOL     OW34219   2.935   4.225   0.421 -0.0865 -0.4299 -0.3708
 7529SOL    HW134220   2.988   4.256   0.348 -0.7619  3.8879  0.9729
 7529SOL    HW234221   2.848   4.249   0.390 -0.0732  1.0002  0.6811
 7530SOL     OW34222   0.363   4.278   6.418  0.2632  0.2410  0.3956
 7530SOL    HW134223   0.409   4.317   6.343  1.9457  1.9024  2.2994
 7530SOL    HW234224   0.423   4.299   6.490 -0.6913 -0.4516  1.3864
 7531SOL     OW34225   3.145   1.205   1.194 -0.0113  0.2378 -0.9365
 7531SOL    HW134226   3.228   1.158   1.198 -0.7692 -0.8399  2.0062
 7531SOL    HW234227   3.172   1.294   1.172 -2.1119  1.3978  1.1791
 7532SOL     OW34228   2.800   1.682  10.454  0.0420 -0.4099  0.3983
 7532SOL    HW134229   2.756   1.697  10.537  1.3566  2.8779  0.4753
 7532SOL    HW234230   2.857   1.605  10.458 -0.8494 -1.0366  0.9669
 7533SOL     OW34231   4.111   0.356  13.040 -0.0793  0.4384  0.1015
 7533SOL    HW134232   4.087   0.263  13.046  0.3944  0.2105 -1.7118
 7533SOL    HW234233   4.075   0.382  12.955 -2.3703  0.0485  0.9522
 7534SOL     OW34234   1.433   3.517   7.861 -0.7309  0.7168 -0.0697
 7534SOL    HW134235   1.405   3.569   7.785 -3.1121  1.5444  1.3562
 7534SOL    HW234236   1.510   3.471   7.828 -1.7628 -2.5435  2.1452
 7535SOL     OW34237   1.151   1.846   7.551 -0.3824  0.0838 -0.1757
 7535SOL    HW134238   1.234   1.893   7.544  0.3830 -1.2605 -0.1217
 7535SOL    HW234239   1.108   1.872   7.633  0.2356  0.4811  0.0160
 7536SOL     OW34240   3.840   3.596   5.943  0.2883  0.2683  0.2128
 7536SOL    HW134241   3.832   3.640   6.028  0.0047  0.4321  0.1016
 7536SOL    HW234242   3.769   3.639   5.895 -1.4942 -1.7575  1.0396
 7537SOL     OW34243   2.681   1.549   5.523 -0.6018  0.6046 -0.4375
 7537SOL    HW134244   2.587   1.550   5.539 -0.6618 -0.2673 -0.7406
 7537SOL    HW234245   2.701   1.625   5.578  0.6087  0.2927 -0.4484
 7538SOL     OW34246   4.061   1.122   5.167 -0.0565  0.0278 -0.2772
 7538SOL    HW134247   4.132   1.108   5.230  1.3494  1.6562 -1.4828
 7538SOL    HW234248   4.103   1.174   5.098 -0.2595  0.7113  0.1083
 7539SOL     OW34249   2.581   3.482   6.120 -0.2450 -0.2878 -0.2580
 7539SOL    HW134250   2.648   3.435   6.170 -0.1956  0.9699  0.8782
 7539SOL    HW234251   2.554   3.412   6.061 -1.8968 -0.6928  0.9920
 7540SOL     OW34252   4.571   3.439  17.343  0.3342 -0.5755 -0.4839
 7540SOL    HW134253   4.635   3.388  17.394 -2.1337 -0.8905  2.2788
 7540SOL    HW234254   4.492   3.431  17.397  0.2997 -1.5368 -0.6740
 7541SOL     OW34255   0.010   1.389   6.074  0.0571 -0.1093  0.1191
 7541SOL    HW134256   4.694   1.337   6.135 -0.0001  1.2065  1.1769
 7541SOL    HW234257   0.053   1.445   6.139 -1.9622  1.2771  0.2407
 7542SOL     OW34258   3.777   1.063  14.749  0.1285 -0.0383  0.7082
 7542SOL    HW134259   3.862   1.060  14.704 -1.1592 -1.3639 -1.6626
 7542SOL    HW234260   3.724   0.989  14.719 -1.0077  0.3855  1.6650
 7543SOL     OW34261   2.856   2.795   4.507  0.2529 -0.3995 -0.5337
 7543SOL    HW134262   2.835   2.769   4.417  0.1806 -1.4624 -0.2092
 7543SOL    HW234263   2.951   2.789   4.503  0.1888 -0.2867 -2.4764
 7544SOL     OW34264   1.417   2.339  12.906 -0.5868  0.2042 -0.1603
 7544SOL    HW134265   1.402   2.349  12.812 -1.1549  1.1542  0.0373
 7544SOL    HW234266   1.393   2.422  12.945 -0.9619  0.0728 -0.1138
 7545SOL     OW34267   4.448   1.263   2.090  0.4838  0.0502  0.9202
 7545SOL    HW134268   4.388   1.255   2.163 -0.4704  1.3835  0.2706
 7545SOL    HW234269   4.520   1.313   2.128  2.8130 -2.7796  0.2794
 7546SOL     OW34270   0.086   1.919   7.156 -0.0183  0.0657  0.6032
 7546SOL    HW134271   0.068   1.874   7.074 -0.5631  2.8791 -0.7852
 7546SOL    HW234272   0.181   1.934   7.152  0.1829 -0.1443  4.0832
 7547SOL     OW34273   0.373   4.685   0.950  0.2996  0.3889  0.0936
 7547SOL    HW134274   0.399   4.619   0.886 -2.0542  1.6959 -2.2191
 7547SOL    HW234275   0.407   4.647   1.031 -0.5702 -1.6772 -0.5367
 7548SOL     OW34276   4.593   2.085   1.801  0.1706 -0.7478  0.3036
 7548SOL    HW134277   4.561   2.054   1.885 -0.5738  2.0837  1.0699
 7548SOL    HW234278   4.647   2.156   1.837 -0.1758 -0.5217  0.3766
 7549SOL     OW34279   1.708   2.858   1.946 -0.4567  0.2592 -0.4601
 7549SOL    HW134280   1.749   2.782   1.904 -1.4446  0.6892 -2.1878
 7549SOL    HW234281   1.773   2.924   1.922 -0.6918  0.2611 -1.0839
 7550SOL     OW34282   4.513   4.150   8.201 -0.3108 -0.1317 -0.3024
 7550SOL    HW134283   4.510   4.057   8.226 -3.2625  0.3447  1.0953
 7550SOL    HW234284   4.590   4.157   8.145  0.5275 -1.9748  0.6224
 7551SOL     OW34285   0.199   3.347   1.674  0.1923  0.5609 -0.0856
 7551SOL    HW134286   0.273   3.408   1.677 -0.0899  1.0582 -3.5887
 7551SOL    HW234287   0.123   3.400   1.698 -1.0019 -0.1040 -2.4538
 7552SOL     OW34288   2.590   3.429   0.399  0.0350  0.2616  0.8016
 7552SOL    HW134289   2.621   3.379   0.475  2.3977  0.2807 -0.1568
 7552SOL    HW234290   2.605   3.361   0.333  1.4975  0.8216  0.5633
 7553SOL     OW34291   0.234   2.100   3.363  1.0147  0.3150  0.0411
 7553SOL    HW134292   0.294   2.051   3.419  2.0623  0.7227 -0.7258
 7553SOL    HW234293   0.265   2.187   3.385 -1.2524  0.8946  0.9456
 7554SOL     OW34294   2.031   0.174   2.815  0.0518 -0.2393  0.1471
 7554SOL    HW134295   2.030   0.215   2.902  0.6452 -0.8190  0.4291
 7554SOL    HW234296   2.105   0.116   2.830  0.8483  1.2131  1.8400
 7555SOL     OW34297   4.293   1.201   9.340 -0.0170  1.0855 -0.1971
 7555SOL    HW134298   4.255   1.289   9.338 -0.0452  1.1030  0.8578
 7555SOL    HW234299   4.217   1.143   9.335 -0.0765  1.3969 -2.4706
 7556SOL     OW34300   3.146   2.765  14.918  0.0771  0.4462  0.0765
 7556SOL    HW134301   3.199   2.806  14.849 -0.4614 -0.3213 -0.7948
 7556SOL    HW234302   3.086   2.837  14.936 -0.2300  0.9641 -3.0707
 7557SOL     OW34303   1.453   0.194   9.702 -0.5640  0.1662 -0.2326
 7557SOL    HW134304   1.520   0.129   9.682 -0.3768  0.1908  0.3066
 7557SOL    HW234305   1.430   0.162   9.789  0.3147  0.0876 -0.0349
 7558SOL     OW34306   0.688   1.578   6.074  0.3618 -0.4829 -0.1303
 7558SOL    HW134307   0.700   1.484   6.071  0.6512 -0.4505  0.0542
 7558SOL    HW234308   0.593   1.590   6.067  0.6431  1.0321 -1.5371
 7559SOL     OW34309   3.330   3.280  13.199  0.2910 -0.4678  0.1146
 7559SOL    HW134310   3.341   3.224  13.122  2.4584  0.2064 -0.0631
 7559SOL    HW234311   3.304   3.364  13.162  2.6911  1.5982  3.0799
 7560SOL     OW34312   4.572   4.351  11.934  0.0732 -0.6955  0.0211
 7560SOL    HW134313   4.615   4.333  12.018 -3.1620 -0.6700  1.6874
 7560SOL    HW234314   4.619   4.290  11.877  1.1104 -1.5811  1.8236
 7561SOL     OW34315   3.618   0.311   3.138  0.5884 -0.0981  0.5885
 7561SOL    HW134316   3.546   0.358   3.180  0.5234  0.7751 -0.5060
 7561SOL    HW234317   3.645   0.245   3.202  3.5313 -0.4534 -1.0154
 7562SOL     OW34318   1.018   4.532   7.466 -0.0274 -0.2873 -0.1596
 7562SOL    HW134319   0.999   4.626   7.462 -1.8118 -0.6413  0.0999
 7562SOL    HW234320   1.052   4.515   7.554 -1.6880 -0.3763  0.4629
 7563SOL     OW34321   3.229   3.041   6.733 -0.3046  0.0875  0.1238
 7563SOL    HW134322   3.324   3.050   6.734 -0.2074 -0.8511 -1.3217
 7563SOL    HW234323   3.212   2.985   6.809  0.9665 -1.0198 -0.3986
 7564SOL     OW34324   1.406   3.800   9.326 -0.1411 -0.4989  0.7508
 7564SOL    HW134325   1.375   3.757   9.406  0.1725 -2.6207 -0.2652
 7564SOL    HW234326   1.386   3.892   9.343 -2.9821 -0.8031 -1.0818
 7565SOL     OW34327   2.075   3.822   7.011  0.3155 -0.8116  0.2264
 7565SOL    HW134328   2.071   3.917   7.019  0.9420 -0.9852  2.7656
 7565SOL    HW234329   2.014   3.812   6.938  1.4285 -2.8146 -0.4073
 7566SOL     OW34330   1.684   3.768   3.116 -0.4287 -0.1233  0.3896
 7566SOL    HW134331   1.644   3.751   3.202  0.3129  1.8823  1.1198
 7566SOL    HW234332   1.606   3.784   3.063 -0.5793  1.6089  1.1291
 7567SOL     OW34333   4.625   0.594   5.157 -0.3574  0.0116  0.5114
 7567SOL    HW134334   4.534   0.605   5.184 -0.4557 -0.4416  0.3711
 7567SOL    HW234335   4.642   0.506   5.192  0.1210 -0.5711 -1.1703
 7568SOL     OW34336   0.510   4.705   7.036 -0.1519 -0.2829  0.5168
 7568SOL    HW134337   0.427   4.682   6.995  1.1896 -2.3677 -1.0821
 7568SOL    HW234338   0.505   0.053   7.079 -0.3017 -1.4842  2.8879
 7569SOL     OW34339   0.989   1.823   4.238  0.2552  0.6877 -0.1215
 7569SOL    HW134340   0.947   1.893   4.288 -1.0369 -0.4735  0.4028
 7569SOL    HW234341   0.978   1.873   4.157 -0.9860 -1.2686 -1.1483
 7570SOL     OW34342   1.850   0.934   7.749 -0.4485 -0.5520  0.0396
 7570SOL    HW134343   1.763   0.956   7.718 -1.5574 -2.1346  2.0160
 7570SOL    HW234344   1.846   0.992   7.825  1.3233 -0.0102 -0.2764
 7571SOL     OW34345   4.305   2.664  14.860  0.0876 -0.0825  0.3770
 7571SOL    HW134346   4.335   2.753  14.880  0.4765 -0.5707  2.0069
 7571SOL    HW234347   4.222   2.682  14.816  0.0217  0.2089  0.6142
 7572SOL     OW34348   1.281   0.147   7.384 -0.5492 -0.4213  0.7656
 7572SOL    HW134349   1.365   0.101   7.394 -0.5332 -0.4883  0.3028
 7572SOL    HW234350   1.257   0.158   7.292 -0.1021  1.7083  0.8972
 7573SOL     OW34351   2.375   2.995   1.701 -0.1152 -0.2771 -0.7651
 7573SOL    HW134352   2.375   3.085   1.669 -0.1180 -0.5082 -1.4121
 7573SOL    HW234353   2.317   2.958   1.634  0.0772  0.4261 -1.3164
 7574SOL     OW34354   1.237   3.950  13.909 -0.1319 -0.7083 -0.2806
 7574SOL    HW134355   1.181   3.872  13.909 -2.1567  0.7565  1.8237
 7574SOL    HW234356   1.170   4.011  13.878 -0.0127 -0.6930 -0.5081
 7575SOL     OW34357   3.938   3.995   8.567 -0.1921  0.1252  0.2111
 7575SOL    HW134358   3.995   4.067   8.541 -1.1318  0.7868  0.0236
 7575SOL    HW234359   3.877   3.977   8.495  0.6080 -0.4082 -0.3446
 7576SOL     OW34360   4.527   4.250   9.260  0.3923  0.0402  0.2873
 7576SOL    HW134361   4.571   4.333   9.278  0.8098 -0.0883 -0.1423
 7576SOL    HW234362   4.439   4.279   9.283 -0.4787 -2.4767  0.1256
 7577SOL     OW34363   0.714   3.084   2.992 -0.3191  0.2150 -0.3965
 7577SOL    HW134364   0.789   3.032   3.022 -0.3901  0.9607  1.0695
 7577SOL    HW234365   0.647   3.064   3.057  1.1168 -0.4672  0.8812
 7578SOL     OW34366   2.558   0.408   2.875 -0.4604  0.4660  0.3349
 7578SOL    HW134367   2.645   0.377   2.852 -0.4428  1.4453 -0.8855
 7578SOL    HW234368   2.573   0.468   2.949  1.1867  0.3484  0.0895
 7579SOL     OW34369   0.790   0.854   4.746  0.0491 -0.1074  0.3060
 7579SOL    HW134370   0.804   0.791   4.817  0.6056 -0.1345  0.1742
 7579SOL    HW234371   0.861   0.913   4.769 -0.5802 -0.3742  2.9265
 7580SOL     OW34372   0.507   0.661   4.440 -0.1078  0.1339 -0.0626
 7580SOL    HW134373   0.584   0.652   4.497 -1.0805 -0.6547  1.1186
 7580SOL    HW234374   0.493   0.567   4.424 -0.9606  0.1441  0.6110
 7581SOL     OW34375   3.022   2.542  15.017 -0.0754  0.7804 -0.3001
 7581SOL    HW134376   3.070   2.486  14.956 -0.3876  0.6814 -0.4540
 7581SOL    HW234377   3.061   2.629  15.010  1.1121  0.1659 -1.5018
 7582SOL     OW34378   4.616   1.807   5.970  0.4890  0.2182 -0.5885
 7582SOL    HW134379   4.695   1.827   5.921 -0.2808 -1.0646 -2.3767
 7582SOL    HW234380   4.578   1.895   5.965 -2.7981 -1.1119  0.4646
 7583SOL     OW34381   3.738   1.454   3.378  0.3272 -0.2611 -0.0407
 7583SOL    HW134382   3.776   1.542   3.384 -2.2270  0.7872  0.3612
 7583SOL    HW234383   3.648   1.481   3.392  0.8200  1.6190 -0.4513
 7584SOL     OW34384   4.173   2.694  11.086 -0.1943  0.4639  0.3211
 7584SOL    HW134385   4.267   2.677  11.097 -0.9029 -3.2670  0.5276
 7584SOL    HW234386   4.161   2.658  10.998 -1.2862 -0.5488  0.8754
 7585SOL     OW34387   3.079   2.824   9.390 -0.0666  0.2925  0.6920
 7585SOL    HW134388   3.052   2.767   9.462 -0.5081 -0.8989 -0.4138
 7585SOL    HW234389   3.090   2.759   9.321 -1.8603 -0.4858  1.1366
 7586SOL     OW34390   3.259   4.172   9.227 -0.2220 -0.7525  0.3359
 7586SOL    HW134391   3.310   4.097   9.259  1.6903  0.5315  0.2881
 7586SOL    HW234392   3.175   4.165   9.273 -0.3905  0.5158  0.2324
 7587SOL     OW34393   1.571   2.489   3.076  0.5503 -0.0159  0.2086
 7587SOL    HW134394   1.613   2.424   3.021 -0.8544 -0.9291  0.2041
 7587SOL    HW234395   1.488   2.448   3.103 -0.6822  1.7382 -0.9258
 7588SOL     OW34396   0.464   0.691  15.189  0.5584  0.1772  0.2434
 7588SOL    HW134397   0.454   0.605  15.149  0.2012 -0.0181  0.7540
 7588SOL    HW234398   0.482   0.661  15.279 -1.5094  0.3412  0.7087
 7589SOL     OW34399   3.318   3.994   3.092 -0.2273  0.5003 -0.1758
 7589SOL    HW134400   3.399   3.956   3.126  0.3025  0.7313 -1.1919
 7589SOL    HW234401   3.337   3.968   3.002  0.6366  1.0502 -0.1565
 7590SOL     OW34402   2.656   2.582   4.726 -0.0893  0.4223 -0.0545
 7590SOL    HW134403   2.585   2.522   4.701 -0.3773  0.7018  0.0843
 7590SOL    HW234404   2.729   2.531   4.692 -0.7024 -0.8889  0.6192
 7591SOL     OW34405   0.363   1.592   5.243 -0.3896  0.4481  0.1018
 7591SOL    HW134406   0.354   1.523   5.310 -2.6445 -0.0579 -0.7017
 7591SOL    HW234407   0.270   1.615   5.243 -0.9043 -1.5909 -2.1531
 7592SOL     OW34408   4.031   2.917  11.101 -0.2435 -0.1009 -0.2009
 7592SOL    HW134409   3.946   2.899  11.061  0.2484  0.6758 -1.5939
 7592SOL    HW234410   4.076   2.832  11.097  1.7551  0.9376  0.2284
 7593SOL     OW34411   2.101   1.433  11.092  0.2436  0.7380 -0.4536
 7593SOL    HW134412   2.185   1.392  11.115  0.8487  1.5987 -1.1120
 7593SOL    HW234413   2.090   1.483  11.173  0.1031 -0.1004  0.0463
 7594SOL     OW34414   3.118   2.401   5.641 -0.3667 -0.0415  0.4401
 7594SOL    HW134415   3.046   2.443   5.594 -1.1124  0.2286  1.8247
 7594SOL    HW234416   3.071   2.326   5.678 -2.0513  0.7855 -0.0353
 7595SOL     OW34417   2.288   3.426   9.741 -0.0363 -0.4833  0.4618
 7595SOL    HW134418   2.280   3.521   9.733  0.9619 -0.5498 -1.1704
 7595SOL    HW234419   2.366   3.401   9.791  0.5493 -1.0324 -0.7477
 7596SOL     OW34420   2.155   2.385   9.497 -0.1107 -0.0874  0.2533
 7596SOL    HW134421   2.070   2.417   9.467  0.3564 -0.3719 -1.3781
 7596SOL    HW234422   2.176   2.463   9.548 -1.6261  0.4650  0.0141
 7597SOL     OW34423   0.255   2.678  16.904  0.0355  0.3950 -0.3618
 7597SOL    HW134424   0.267   2.722  16.988 -0.5914 -0.7887  0.3586
 7597SOL    HW234425   0.287   2.746  16.845 -0.6958  2.2528  1.3879
 7598SOL     OW34426   2.398   2.529   7.796 -0.0490 -0.2785 -0.6700
 7598SOL    HW134427   2.395   2.513   7.702 -2.1660  0.6756 -0.7618
 7598SOL    HW234428   2.381   2.623   7.803 -0.2934 -0.5519  2.4120
 7599SOL     OW34429   2.515   2.256   7.867 -0.1446  0.6208 -0.0343
 7599SOL    HW134430   2.472   2.334   7.832  1.6318  1.3553 -0.5790
 7599SOL    HW234431   2.466   2.231   7.945 -0.8572  0.5005 -0.5230
 7600SOL     OW34432   4.174   1.567   7.860  0.3269 -0.1720 -0.5592
 7600SOL    HW134433   4.092   1.615   7.871 -0.9930 -2.3735 -0.9293
 7600SOL    HW234434   4.229   1.643   7.839 -1.3538  1.3436  0.4713
 7601SOL     OW34435   3.556   0.784  10.946  0.3546  0.1929 -0.2153
 7601SOL    HW134436   3.607   0.826  11.016 -0.6586  1.1669 -0.0641
 7601SOL    HW234437   3.476   0.832  10.966 -0.2629 -0.8926 -0.0832
 7602SOL     OW34438   0.237   4.144  11.431  0.0242 -0.2152  0.0088
 7602SOL    HW134439   0.305   4.130  11.496  3.6083  1.1923 -3.4445
 7602SOL    HW234440   0.171   4.079  11.457  0.0027 -0.3567 -0.4017
 7603SOL     OW34441   1.498   2.097   4.855  0.3273  0.4534 -0.3415
 7603SOL    HW134442   1.547   2.096   4.938 -0.8827  0.3389  0.3763
 7603SOL    HW234443   1.417   2.115   4.902  1.1679  1.6633  0.6578
 7604SOL     OW34444   0.794   1.388   7.488  0.1098  0.0987  0.1627
 7604SOL    HW134445   0.863   1.356   7.546 -2.0597 -2.1383  1.5515
 7604SOL    HW234446   0.770   1.475   7.519  3.5770  1.5684 -1.4263
 7605SOL     OW34447   2.557   4.504   5.736  0.7373 -0.0960 -0.3453
 7605SOL    HW134448   2.634   4.542   5.779 -0.3715  0.7105  0.9163
 7605SOL    HW234449   2.493   4.575   5.749 -0.5231 -1.7991  2.6416
 7606SOL     OW34450   4.125   1.869  10.181 -0.3508  0.5239 -0.0689
 7606SOL    HW134451   4.090   1.959  10.186  0.8679  0.8252  2.8785
 7606SOL    HW234452   4.097   1.837  10.095  2.3458 -0.4071 -0.5943
 7607SOL     OW34453   4.563   0.017  16.874 -0.7482  0.3826  0.0733
 7607SOL    HW134454   4.504   4.681  16.859 -2.0859  1.4989 -0.1820
 7607SOL    HW234455   4.622   0.006  16.799  0.1545  0.5652  0.7565
 7608SOL     OW34456   3.418   2.393   7.252 -0.1154  0.1926  0.1032
 7608SOL    HW134457   3.499   2.356   7.286  0.1338  1.1840  0.6019
 7608SOL    HW234458   3.405   2.326   7.184  1.7797 -0.0265 -0.0487
 7609SOL     OW34459   1.703   3.644   6.445 -0.1855  0.3923  0.2559
 7609SOL    HW134460   1.768   3.605   6.387 -0.7667  0.1681 -0.2415
 7609SOL    HW234461   1.714   3.736   6.422 -1.7617  0.1679 -1.3395
 7610SOL     OW34462   2.366   3.418   7.890 -0.4243  0.2258  0.3112
 7610SOL    HW134463   2.391   3.402   7.981  0.2857  1.4461  0.3173
 7610SOL    HW234464   2.271   3.420   7.900 -0.6325  2.0855 -2.2560
 7611SOL     OW34465   2.681   4.616   8.467 -0.7898 -0.3401  0.1711
 7611SOL    HW134466   2.597   4.659   8.454 -0.5311 -0.8094 -2.9274
 7611SOL    HW234467   2.682   4.556   8.393 -0.4908 -1.0119  0.7185
 7612SOL     OW34468   1.205   1.238   8.654  0.1488 -0.5539 -0.4571
 7612SOL    HW134469   1.284   1.254   8.602  1.1189  0.1857  1.2525
 7612SOL    HW234470   1.141   1.266   8.590  1.4305  1.0920 -1.0258
 7613SOL     OW34471   3.418   2.520   8.145  0.7021 -0.5497 -0.1069
 7613SOL    HW134472   3.482   2.450   8.129  0.2028 -1.6005  2.5169
 7613SOL    HW234473   3.428   2.567   8.063  0.2434 -0.2164  0.0290
 7614SOL     OW34474   1.952   0.692   1.134  0.8304  0.8823  0.1659
 7614SOL    HW134475   2.031   0.745   1.130  1.5165  0.0042  2.3377
 7614SOL    HW234476   1.989   0.627   1.193 -0.0579 -2.4272 -2.8835
 7615SOL     OW34477   4.567   0.432   6.503  0.3490 -1.0799 -0.0983
 7615SOL    HW134478   4.525   0.347   6.516 -1.5805  0.0887  1.3023
 7615SOL    HW234479   4.638   0.407   6.444  2.4508  0.6614  1.6727
 7616SOL     OW34480   0.086   1.616   7.086 -0.1851 -0.3543  0.2708
 7616SOL    HW134481   0.141   1.686   7.121  0.0518  0.5372 -1.9169
 7616SOL    HW234482   0.020   1.662   7.034 -0.0198 -0.3375  0.0780
 7617SOL     OW34483   4.142   2.903   9.638  0.0729  0.3009 -0.7987
 7617SOL    HW134484   4.050   2.921   9.660 -0.6650 -3.5568 -0.7743
 7617SOL    HW234485   4.137   2.821   9.588 -0.2564  1.2775 -2.3682
 7618SOL     OW34486   0.264   1.046  13.024 -0.9841  0.7326 -0.6840
 7618SOL    HW134487   0.192   1.032  13.086  0.2223 -1.3041  0.2735
 7618SOL    HW234488   0.210   1.049  12.945 -0.5674 -2.8043 -1.1049
 7619SOL     OW34489   3.596   3.801   8.069  0.0762  0.7669  0.5917
 7619SOL    HW134490   3.535   3.776   8.139 -1.2465  1.0676 -0.4442
 7619SOL    HW234491   3.529   3.799   8.001  1.7374  0.0580 -1.0279
 7620SOL     OW34492   3.985   3.800   9.795 -0.1464 -0.0280 -0.1099
 7620SOL    HW134493   4.033   3.864   9.743  0.1448 -0.2373 -0.0984
 7620SOL    HW234494   3.963   3.856   9.869 -1.5739  0.6990 -1.0780
 7621SOL     OW34495   2.365   2.905   6.362 -0.0960  0.2149 -0.2324
 7621SOL    HW134496   2.398   2.946   6.442  1.8188 -0.8638 -0.4456
 7621SOL    HW234497   2.429   2.836   6.343  1.1519  0.6899  2.3272
 7622SOL     OW34498   4.355   1.338   3.073 -0.6008  0.7114  0.5811
 7622SOL    HW134499   4.442   1.315   3.105 -2.0149 -1.3793  3.0257
 7622SOL    HW234500   4.347   1.267   3.010 -0.0302  0.6763  0.5529
 7623SOL     OW34501   1.583   4.211  12.069 -0.3761  0.0493 -0.7186
 7623SOL    HW134502   1.618   4.299  12.085  0.3276 -0.4306  0.3518
 7623SOL    HW234503   1.561   4.223  11.976  2.1079  0.7344 -1.2153
 7624SOL     OW34504   3.573   2.185   9.064 -0.3207  0.0316 -0.1183
 7624SOL    HW134505   3.516   2.168   9.139  0.8900 -1.4334  0.4600
 7624SOL    HW234506   3.507   2.232   9.013 -0.2826 -0.9965 -1.1065
 7625SOL     OW34507   1.627   1.467   5.614  0.1537  0.0342  0.4378
 7625SOL    HW134508   1.657   1.390   5.663  1.4816  1.0017  1.1448
 7625SOL    HW234509   1.546   1.432   5.577 -0.0573 -0.6041  1.4739
 7626SOL     OW34510   0.595   1.905   8.667 -0.1688 -0.1930 -0.3027
 7626SOL    HW134511   0.507   1.870   8.682 -0.8961  1.6308 -0.2378
 7626SOL    HW234512   0.577   1.999   8.679  1.1751  0.1220 -0.6911
 7627SOL     OW34513   4.434   2.225  16.758  0.4165 -0.6659 -0.1306
 7627SOL    HW134514   4.348   2.241  16.719  0.3220 -0.3287  0.2162
 7627SOL    HW234515   4.412   2.183  16.841 -0.2288 -2.0666 -1.0181
 7628SOL     OW34516   1.548   1.753   2.473 -0.0310  0.3632 -0.1938
 7628SOL    HW134517   1.525   1.846   2.463 -2.0293 -0.3440 -2.0353
 7628SOL    HW234518   1.482   1.715   2.416  1.3737 -1.0705 -0.8483
 7629SOL     OW34519   3.045   2.528   4.357 -0.3167 -0.3693  0.2503
 7629SOL    HW134520   3.121   2.581   4.333  0.0162 -0.0171  2.0204
 7629SOL    HW234521   2.985   2.577   4.301  1.4713  0.7359 -0.7183
 7630SOL     OW34522   1.579   0.987   7.818 -0.0360  0.0814 -1.1715
 7630SOL    HW134523   1.580   1.005   7.912 -2.0104 -0.5163 -1.0265
 7630SOL    HW234524   1.540   0.899   7.818 -0.2980  0.1977 -0.2439
 7631SOL     OW34525   1.309   3.488   9.892  0.1817  0.0126  0.1477
 7631SOL    HW134526   1.320   3.454   9.981 -0.4368  0.8535  0.5388
 7631SOL    HW234527   1.373   3.559   9.888  1.6178 -1.2767  0.1492
 7632SOL     OW34528   0.135   2.946   1.936  0.7066  0.1306  0.3478
 7632SOL    HW134529   0.156   2.947   1.843 -1.6467  0.0716 -0.1621
 7632SOL    HW234530   0.174   3.028   1.967 -0.0308 -0.2772  2.3749
 7633SOL     OW34531   3.807   3.331   6.557 -0.6426 -0.3187 -0.0850
 7633SOL    HW134532   3.805   3.306   6.649 -1.0860  1.0639  0.2779
 7633SOL    HW234533   3.767   3.418   6.551  0.5428  0.2187 -0.0577
 7634SOL     OW34534   2.169   4.276  16.670 -0.3867 -0.5084 -0.2773
 7634SOL    HW134535   2.151   4.188  16.637  2.2061 -1.4787  0.9384
 7634SOL    HW234536   2.189   4.313  16.584  1.4709 -3.1999 -1.0055
 7635SOL     OW34537   2.426   2.303   7.280 -0.5181  0.2205 -0.2045
 7635SOL    HW134538   2.426   2.207   7.275 -1.0876  0.2487 -0.8403
 7635SOL    HW234539   2.441   2.314   7.374 -1.6881 -0.0978  0.0148
 7636SOL     OW34540   4.641   3.594   2.285 -0.0655  0.2420  0.4943
 7636SOL    HW134541   4.676   3.668   2.335  0.0450 -0.0125  0.7988
 7636SOL    HW234542   4.547   3.610   2.293  0.0634  0.7575  0.9743
 7637SOL     OW34543   0.170   1.926   2.253  0.0927 -0.0179 -0.0367
 7637SOL    HW134544   0.087   1.917   2.299  0.9313  2.3055  1.9546
 7637SOL    HW234545   0.152   1.873   2.176 -1.6811  0.5102  0.0082
 7638SOL     OW34546   0.110   1.238   3.765  0.2227 -0.1432 -0.4773
 7638SOL    HW134547   0.165   1.309   3.797 -2.7301  0.6464  2.8911
 7638SOL    HW234548   0.022   1.276   3.765 -0.1412 -0.9985 -2.6045
 7639SOL     OW34549   4.609   0.123  14.521  0.8739  0.3010  0.4472
 7639SOL    HW134550   4.556   0.200  14.501  0.8370  0.3911  0.8966
 7639SOL    HW234551   4.686   0.158  14.565  1.2606 -1.1040  0.8740
 7640SOL     OW34552   4.535   3.190   4.269  0.3044 -0.4200 -0.0287
 7640SOL    HW134553   4.605   3.192   4.203 -1.4380  2.1725 -1.8084
 7640SOL    HW234554   4.570   3.119   4.323  0.6854 -0.4161 -0.2696
 7641SOL     OW34555   0.152   2.988   8.735 -0.5573 -0.2881  0.2354
 7641SOL    HW134556   0.136   2.900   8.768 -1.2638  0.1933  1.1629
 7641SOL    HW234557   0.193   2.978   8.648 -0.5989  0.9045  0.0852
 7642SOL     OW34558   3.900   3.735  10.086 -0.3624 -0.3155  0.3283
 7642SOL    HW134559   3.991   3.761  10.097 -0.4604 -0.6218  1.8410
 7642SOL    HW234560   3.861   3.821  10.075 -2.7811 -1.3034  1.2012
 7643SOL     OW34561   2.261   3.308   4.994 -0.0747  0.1081 -0.2175
 7643SOL    HW134562   2.241   3.395   4.958  0.7257 -0.1769 -1.3472
 7643SOL    HW234563   2.180   3.296   5.043  0.2930  0.0209  0.3604
 7644SOL     OW34564   1.327   3.996   8.281 -0.5746 -0.4197 -0.5374
 7644SOL    HW134565   1.368   3.911   8.296 -2.8416 -1.5220 -0.5990
 7644SOL    HW234566   1.261   3.976   8.215  0.6039 -0.6340 -1.6516
 7645SOL     OW34567   0.964   0.129  10.541  0.2997 -0.0433 -0.5140
 7645SOL    HW134568   0.881   0.097  10.577 -0.4943  0.6063 -1.7906
 7645SOL    HW234569   0.933   0.185  10.470 -1.1345 -2.0687 -1.4915
 7646SOL     OW34570   4.624   2.854   3.716  0.1306  0.3696  0.2448
 7646SOL    HW134571   4.546   2.897   3.682 -0.7420  0.1076  1.9352
 7646SOL    HW234572   4.661   2.794   3.651 -1.2557  0.5866 -0.7534
 7647SOL     OW34573   2.688   2.287   6.198  0.1905  0.5716 -0.2007
 7647SOL    HW134574   2.763   2.340   6.226  0.1862 -0.0878  1.0609
 7647SOL    HW234575   2.641   2.284   6.281 -0.6740 -0.2923 -0.7216
 7648SOL     OW34576   1.814   3.251  10.827 -0.5320 -0.1848  0.3941
 7648SOL    HW134577   1.749   3.312  10.791 -0.3012 -1.1508 -1.6346
 7648SOL    HW234578   1.836   3.212  10.743  1.5678 -2.1772  1.8821
 7649SOL     OW34579   2.895   3.124   0.954  0.9769  0.0371 -0.3401
 7649SOL    HW134580   2.962   3.193   0.956  0.2139  0.7780 -0.3296
 7649SOL    HW234581   2.873   3.105   1.045  0.0158  0.0244 -0.5814
 7650SOL     OW34582   3.161   2.824   4.518  0.5042 -0.3167 -0.1859
 7650SOL    HW134583   3.249   2.816   4.483 -0.2266 -1.3726 -1.7676
 7650SOL    HW234584   3.157   2.916   4.546 -0.3151 -0.2463 -0.5266
 7651SOL     OW34585   1.548   3.551  17.576 -0.1281  0.0084 -0.5272
 7651SOL    HW134586   1.559   3.646  17.569 -0.9958  0.0426 -1.4905
 7651SOL    HW234587   1.633   3.524  17.541  0.7892 -0.2953  1.9760
 7652SOL     OW34588   3.433   4.706   1.337 -0.2647  0.0459  0.1151
 7652SOL    HW134589   3.356   0.026   1.345  0.1745  0.5260  0.9912
 7652SOL    HW234590   3.408   4.641   1.403  2.7881 -0.6029  0.6619
 7653SOL     OW34591   4.028   4.118   8.094  0.3612  0.5293  0.0342
 7653SOL    HW134592   3.975   4.194   8.116 -0.8992 -0.0397 -1.0473
 7653SOL    HW234593   3.965   4.046   8.099 -0.2225  1.0685  0.3757
 7654SOL     OW34594   3.002   4.457   9.487 -0.0980  0.0107 -0.5368
 7654SOL    HW134595   3.041   4.494   9.408 -0.0365 -1.4541 -1.1942
 7654SOL    HW234596   3.063   4.473   9.559 -0.6940  2.4424 -0.5980
 7655SOL     OW34597   0.554   4.219   7.799  0.0194 -0.2405  0.4029
 7655SOL    HW134598   0.592   4.197   7.714 -1.5139  1.3392 -0.6995
 7655SOL    HW234599   0.621   4.275   7.839  1.2521 -0.5375 -1.2607
 7656SOL     OW34600   1.559   0.752  14.376  0.0339 -0.2560 -0.7350
 7656SOL    HW134601   1.599   0.822  14.426 -2.8238  1.8980 -1.4275
 7656SOL    HW234602   1.467   0.779  14.370  0.3600  0.6845 -1.5578
 7657SOL     OW34603   0.768   2.632  13.432  0.6150 -0.4529 -0.0372
 7657SOL    HW134604   0.689   2.657  13.384  2.2044 -2.5617 -3.7332
 7657SOL    HW234605   0.729   2.618  13.518 -1.2488  0.6383 -0.6865
 7658SOL     OW34606   0.953   3.173  15.267  0.2478  0.3980 -0.6392
 7658SOL    HW134607   0.950   3.091  15.218 -0.8368 -0.6983  1.2769
 7658SOL    HW234608   0.983   3.222  15.190 -1.2160  0.5726 -1.0943
 7659SOL     OW34609   0.485   4.003   3.745  0.0178  0.3976 -0.0314
 7659SOL    HW134610   0.506   4.067   3.678  2.6876  0.3092  0.7234
 7659SOL    HW234611   0.558   4.005   3.806  0.5841  1.8342 -0.7705
 7660SOL     OW34612   0.958   3.681   2.792  0.0339 -0.2784 -0.2806
 7660SOL    HW134613   1.049   3.653   2.807  0.1126 -0.1832 -0.5844
 7660SOL    HW234614   0.913   3.672   2.876  2.9132 -0.3870  1.2793
 7661SOL     OW34615   2.189   0.097   1.628  0.3761 -0.3814 -0.5648
 7661SOL    HW134616   2.220   0.119   1.541 -0.1336 -2.8041 -1.3750
 7661SOL    HW234617   2.245   0.155   1.680  0.7771 -2.0378  0.8564
 7662SOL     OW34618   3.438   3.635   8.269 -0.1320 -0.0692 -0.3852
 7662SOL    HW134619   3.397   3.575   8.208 -1.1982  0.5235 -0.2541
 7662SOL    HW234620   3.461   3.582   8.345 -1.8329 -0.2602 -0.0029
 7663SOL     OW34621   4.436   1.421   4.931  0.0680 -0.4141 -0.0112
 7663SOL    HW134622   4.471   1.346   4.883  1.0561 -0.0638  0.1525
 7663SOL    HW234623   4.470   1.495   4.880  2.1163 -0.1896  1.7126
 7664SOL     OW34624   3.284   3.760   2.528  0.8106 -0.2650 -0.3538
 7664SOL    HW134625   3.280   3.845   2.572  0.2020 -0.4927  0.0270
 7664SOL    HW234626   3.194   3.735   2.505  0.3315 -0.6143  1.8857
 7665SOL     OW34627   4.352   1.781  11.997  0.0788  0.1269 -0.1155
 7665SOL    HW134628   4.396   1.780  11.912  2.5023  1.2418  1.1359
 7665SOL    HW234629   4.390   1.700  12.031  2.9881  0.8366 -1.7137
 7666SOL     OW34630   2.816   2.889   7.073 -0.3403 -0.7085 -0.0805
 7666SOL    HW134631   2.736   2.889   7.020  0.4429 -0.2177 -1.2729
 7666SOL    HW234632   2.828   2.982   7.095 -3.1548 -0.1641 -0.7876
 7667SOL     OW34633   3.633   3.568   1.651 -0.7562  0.7767  0.0681
 7667SOL    HW134634   3.553   3.515   1.646 -2.2153  2.9470  0.6598
 7667SOL    HW234635   3.635   3.579   1.746 -0.3961  3.8357 -0.3073
 7668SOL     OW34636   1.149   3.959   4.709  0.3616 -0.2853 -0.0801
 7668SOL    HW134637   1.069   3.995   4.672  1.4652  1.8547 -0.3587
 7668SOL    HW234638   1.172   3.912   4.628 -0.0901 -3.0302  1.3604
 7669SOL     OW34639   0.928   1.917  11.733 -0.1591 -0.1341  0.4950
 7669SOL    HW134640   0.865   1.954  11.795 -2.5716 -2.1858 -0.7453
 7669SOL    HW234641   1.009   1.909  11.783 -0.5218 -0.6475  1.0023
 7670SOL     OW34642   4.718   3.983   2.236 -0.2928  0.7902  0.3672
 7670SOL    HW134643   4.689   4.065   2.276  1.3848  0.6403  1.8987
 7670SOL    HW234644   0.070   4.005   2.212 -0.9489  3.4227  0.3543
 7671SOL     OW34645   0.404   3.246   8.671  0.7978 -0.9395 -0.4067
 7671SOL    HW134646   0.461   3.323   8.663 -1.4080  0.7699  0.2587
 7671SOL    HW234647   0.329   3.264   8.615  0.0297 -1.5172  0.4439
 7672SOL     OW34648   1.054   3.643   7.786 -0.4085  0.1610  0.5394
 7672SOL    HW134649   1.061   3.738   7.777 -0.4271 -0.1281 -2.5824
 7672SOL    HW234650   1.090   3.626   7.873  1.8295 -1.1809 -0.6219
 7673SOL     OW34651   0.448   3.618   7.286 -0.0577  0.6658 -0.4299
 7673SOL    HW134652   0.382   3.574   7.340 -0.2201 -3.2037 -3.7931
 7673SOL    HW234653   0.493   3.543   7.248 -1.4255 -0.5786  0.4199
 7674SOL     OW34654   4.545   1.433  11.237  0.5445  0.3537  0.2446
 7674SOL    HW134655   4.496   1.419  11.156  1.8422 -0.8933 -0.3232
 7674SOL    HW234656   4.608   1.500  11.208  1.4914 -0.5234  0.2930
 7675SOL     OW34657   3.077   2.861  11.806 -0.0246 -0.0854  0.2103
 7675SOL    HW134658   3.164   2.874  11.845 -0.6181  2.5968  0.6072
 7675SOL    HW234659   3.025   2.824  11.878 -1.7958 -0.6589 -1.3981
 7676SOL     OW34660   3.560   2.843   6.446 -0.7240 -0.6150 -0.1751
 7676SOL    HW134661   3.551   2.894   6.366  0.0204  1.1420  0.8614
 7676SOL    HW234662   3.471   2.810   6.456 -1.1442  0.4178 -0.5204
 7677SOL     OW34663   0.531   2.407   0.010 -0.2219 -0.1805 -0.1463
 7677SOL    HW134664   0.491   2.493   0.024 -0.3762 -0.2049 -0.4375
 7677SOL    HW234665   0.568   2.406  17.669  0.0081 -0.0945 -0.0508
 7678SOL     OW34666   2.755   1.844   9.742 -0.2299 -0.6337  0.6424
 7678SOL    HW134667   2.789   1.764   9.702  1.4849 -0.4446  1.7635
 7678SOL    HW234668   2.705   1.790   9.803 -0.6573  2.3340  2.8575
 7679SOL     OW34669   3.902   1.200  11.064 -0.2476  0.1210  0.4219
 7679SOL    HW134670   3.966   1.149  11.014 -0.3655 -0.4409  0.8472
 7679SOL    HW234671   3.834   1.136  11.043 -1.2115  1.1293  0.5050
 7680SOL     OW34672   3.200   0.076   1.338 -0.4414  0.0187  0.2133
 7680SOL    HW134673   3.142   0.102   1.266 -2.0878 -0.5005  1.3490
 7680SOL    HW234674   3.151   4.733   1.360  0.8162 -0.6721  0.4976
 7681SOL     OW34675   0.506   0.806  10.776 -0.0545  0.6392 -0.1501
 7681SOL    HW134676   0.450   0.741  10.820  0.0821  0.4097 -0.3149
 7681SOL    HW234677   0.519   0.753  10.697  3.9767  0.0028  0.9319
 7682SOL     OW34678   0.748   4.030   7.194  0.1320 -0.2131 -0.1403
 7682SOL    HW134679   0.735   3.940   7.222  0.6832 -1.1877 -3.0158
 7682SOL    HW234680   0.817   4.053   7.256 -1.0981 -0.0031  1.1480
 7683SOL     OW34681   1.318   0.989   7.330  0.2176 -0.1071 -0.0720
 7683SOL    HW134682   1.373   0.961   7.403  0.6073  2.1318  0.4651
 7683SOL    HW234683   1.239   0.936   7.344 -0.0320  0.5469  0.9774
 7684SOL     OW34684   4.202   4.478  17.730 -0.2752  0.2368  0.3690
 7684SOL    HW134685   4.144   4.476  17.654 -1.3832 -0.3667  1.2154
 7684SOL    HW234686   4.274   4.530  17.695 -0.5928 -1.4730 -2.8134
 7685SOL     OW34687   3.370   2.404  11.038  0.0856  0.1032 -0.0372
 7685SOL    HW134688   3.453   2.366  11.065 -0.2404 -0.7287 -0.1974
 7685SOL    HW234689   3.337   2.329  10.988  1.0841 -0.5390  0.2738
 7686SOL     OW34690   4.315   1.929   5.377 -0.5757 -0.0205  0.7752
 7686SOL    HW134691   4.320   2.023   5.363 -2.2645  0.2179  1.7508
 7686SOL    HW234692   4.338   1.898   5.290  1.0782 -0.4513  1.3440
 7687SOL     OW34693   3.980   0.803  16.729  0.4633  0.2017  0.6379
 7687SOL    HW134694   4.021   0.888  16.745 -0.0389  0.2284  1.7752
 7687SOL    HW234695   3.972   0.808  16.633  0.0993 -3.6712  0.4754
 7688SOL     OW34696   1.350   2.528   9.009  0.1279 -0.4890 -0.6078
 7688SOL    HW134697   1.257   2.517   9.027  1.0711 -3.7915  2.1841
 7688SOL    HW234698   1.379   2.466   9.076 -0.4428 -1.4759 -1.2707
 7689SOL     OW34699   3.975   2.009   5.535  0.2100 -0.1514 -0.1512
 7689SOL    HW134700   3.958   1.986   5.443 -1.1982  2.1565 -0.4416
 7689SOL    HW234701   3.961   2.103   5.527 -2.1068 -0.4925 -0.1195
 7690SOL     OW34702   2.277   2.034   1.654  0.2844 -0.0476 -0.1001
 7690SOL    HW134703   2.358   1.985   1.641 -0.4652 -1.4268  0.5134
 7690SOL    HW234704   2.218   1.976   1.701 -0.5976  0.1141 -0.9997
 7691SOL     OW34705   1.170   2.663  16.524 -0.7409 -0.0516  0.4317
 7691SOL    HW134706   1.135   2.589  16.474 -1.2687  0.6563 -0.2442
 7691SOL    HW234707   1.263   2.652  16.504  0.1095  0.4698  4.2125
 7692SOL     OW34708   3.704   2.058   2.239  0.0050 -0.3236  0.1605
 7692SOL    HW134709   3.684   2.013   2.156 -1.5181  2.8952 -1.2065
 7692SOL    HW234710   3.788   2.098   2.216  0.1306 -0.5990  0.1340
 7693SOL     OW34711   3.568   2.494   4.822  0.1300  0.3773 -0.0948
 7693SOL    HW134712   3.659   2.524   4.826  0.2111  0.0065  0.8595
 7693SOL    HW234713   3.548   2.497   4.728 -0.6996  0.4706  0.0889
 7694SOL     OW34714   0.623   1.180   9.957 -0.9643 -0.1272  0.0760
 7694SOL    HW134715   0.688   1.123   9.997 -0.3209  0.4498 -0.1324
 7694SOL    HW234716   0.681   1.241   9.910 -3.8863  1.4087 -1.4983
 7695SOL     OW34717   1.420   0.844   7.108  0.3074  0.2587  0.1819
 7695SOL    HW134718   1.441   0.769   7.162 -5.1774  0.4374  2.5159
 7695SOL    HW234719   1.384   0.911   7.166 -2.3614 -1.5697  0.5974
 7696SOL     OW34720   3.385   4.706   1.068 -0.8348  0.3410  0.2492
 7696SOL    HW134721   3.412   4.695   1.159  1.8941 -0.6753 -0.6689
 7696SOL    HW234722   3.467   4.707   1.018  0.8533 -2.2135  3.0074
 7697SOL     OW34723   3.610   3.453   3.007  0.1639 -0.6648  0.2334
 7697SOL    HW134724   3.638   3.500   2.929  3.2668 -1.5388  0.8128
 7697SOL    HW234725   3.533   3.505   3.028  0.4433  0.2694 -1.0326
 7698SOL     OW34726   3.687   2.347   6.906 -0.2657 -0.0055  0.0337
 7698SOL    HW134727   3.727   2.382   6.986 -0.7120 -0.2900  0.3823
 7698SOL    HW234728   3.664   2.424   6.855 -1.2557  0.2704  0.9155
 7699SOL     OW34729   3.414   0.446   5.863  0.4768  0.0834 -0.6499
 7699SOL    HW134730   3.410   0.519   5.926 -0.4551 -0.7073  0.2080
 7699SOL    HW234731   3.369   0.480   5.786  0.0286  1.5913  0.2758
 7700SOL     OW34732   4.320   3.594   9.960  0.1593 -0.1345 -0.6521
 7700SOL    HW134733   4.393   3.576  10.019 -0.8851  0.4703  0.8286
 7700SOL    HW234734   4.368   3.581   9.878 -0.1772 -0.1505 -0.8466
 7701SOL     OW34735   0.323   1.288   6.377 -0.1122 -0.0534  0.2313
 7701SOL    HW134736   0.299   1.272   6.468 -0.5618 -1.2792 -0.1058
 7701SOL    HW234737   0.337   1.200   6.343 -0.6334 -0.4904  1.1449
 7702SOL     OW34738   3.500   2.289   7.819 -0.5260 -0.3448 -0.3425
 7702SOL    HW134739   3.561   2.225   7.784 -1.0278 -1.7035  1.2320
 7702SOL    HW234740   3.415   2.246   7.807 -0.4188 -0.6802  0.1217
 7703SOL     OW34741   0.494   3.715   5.189  0.0339  0.4933 -0.5710
 7703SOL    HW134742   0.520   3.797   5.147  0.1727  1.6244  1.7072
 7703SOL    HW234743   0.581   3.682   5.212  0.2874  0.3675 -1.7298
 7704SOL     OW34744   2.678   3.946   0.513 -0.4469  0.6583 -0.2411
 7704SOL    HW134745   2.683   3.852   0.533  0.8102  0.5986 -0.8646
 7704SOL    HW234746   2.591   3.946   0.473 -0.4961 -2.2626 -0.1474
 7705SOL     OW34747   0.213   1.845   3.060 -0.3123 -0.5495 -0.0707
 7705SOL    HW134748   0.238   1.906   2.990  2.2223  0.4687  1.7316
 7705SOL    HW234749   0.286   1.856   3.121 -2.4679  1.3885  2.1303
 7706SOL     OW34750   1.011   4.030   7.321  0.3678 -0.3673 -0.1999
 7706SOL    HW134751   1.013   3.958   7.258 -0.9896 -0.3150 -0.2880
 7706SOL    HW234752   0.957   3.991   7.389  1.7487  2.0527  2.2946
 7707SOL     OW34753   3.873   4.398   9.305 -0.7936  0.4433  0.5376
 7707SOL    HW134754   3.812   4.359   9.368  1.4152  1.7792  3.5371
 7707SOL    HW234755   3.865   4.336   9.233 -0.6764  2.0311 -0.8607
 7708SOL     OW34756   3.095   3.860   4.162  0.2999  0.1421 -0.5425
 7708SOL    HW134757   3.136   3.937   4.202  0.2610 -0.2235  0.1959
 7708SOL    HW234758   3.014   3.901   4.131 -0.1384 -0.4322 -0.1475
 7709SOL     OW34759   4.661   3.462   4.227 -0.6204  0.0403  0.5212
 7709SOL    HW134760   4.661   3.418   4.142  0.0736 -0.3145  0.7026
 7709SOL    HW234761   0.010   3.504   4.224  0.5296 -2.4308 -1.3658
 7710SOL     OW34762   1.031   1.800   9.742 -0.2856 -0.2007 -0.4729
 7710SOL    HW134763   1.124   1.779   9.735 -0.2348  0.0676 -0.5906
 7710SOL    HW234764   1.016   1.862   9.670  1.4694  0.8968  0.1132
 7711SOL     OW34765   2.812   1.237  14.883 -0.0873 -0.6886 -0.4620
 7711SOL    HW134766   2.797   1.332  14.882  0.4089 -0.6228 -1.2198
 7711SOL    HW234767   2.720   1.211  14.872 -0.6850  0.7916  0.8887
 7712SOL     OW34768   2.416   2.362   4.226  0.3331  0.6112 -0.4176
 7712SOL    HW134769   2.479   2.296   4.197 -0.1556 -0.4578  0.9754
 7712SOL    HW234770   2.462   2.405   4.298  0.8335 -0.9831  0.2132
 7713SOL     OW34771   2.171   3.460   6.740  0.1495 -0.1362  0.2654
 7713SOL    HW134772   2.215   3.407   6.674  1.1958 -0.5181  1.2678
 7713SOL    HW234773   2.090   3.412   6.761 -1.8257  3.2260  0.3746
 7714SOL     OW34774   4.118   0.066   3.900  0.2182 -1.0957 -0.0955
 7714SOL    HW134775   4.099   4.710   3.915 -0.2013 -0.6161  2.3064
 7714SOL    HW234776   4.213   0.072   3.912 -0.0739  0.5154  1.3745
 7715SOL     OW34777   1.585   4.040   8.860  0.3387 -0.3799  0.2715
 7715SOL    HW134778   1.542   3.961   8.893 -1.4718 -0.2908 -1.8826
 7715SOL    HW234779   1.503   4.085   8.838  0.8854 -0.1244 -1.2324
 7716SOL     OW34780   4.199   4.318   7.598  0.0756 -0.0196 -0.8844
 7716SOL    HW134781   4.105   4.333   7.591  0.2914  0.4759 -2.7965
 7716SOL    HW234782   4.217   4.377   7.671  1.4578  0.2441 -1.4316
 7717SOL     OW34783   3.562   1.999  16.693 -0.5426 -0.5891  0.0654
 7717SOL    HW134784   3.612   1.952  16.759  0.9598  0.3227 -0.4309
 7717SOL    HW234785   3.492   1.938  16.667 -0.2135 -0.8129 -0.2896
 7718SOL     OW34786   0.689   2.757   7.434  0.3557 -0.2314  0.1507
 7718SOL    HW134787   0.707   2.784   7.344  2.0173 -0.6350  0.3641
 7718SOL    HW234788   0.651   2.836   7.472  0.8495  0.8886 -1.6862
 7719SOL     OW34789   3.119   3.962   5.180 -0.4047 -0.3996  0.1896
 7719SOL    HW134790   3.173   3.937   5.255 -1.0031 -3.1193 -0.2862
 7719SOL    HW234791   3.136   3.891   5.118 -0.1365  0.8686 -1.1972
 7720SOL     OW34792   4.374   1.418   7.978 -0.6293 -0.3196  0.5997
 7720SOL    HW134793   4.308   1.467   7.929 -1.0801 -0.5855  0.9402
 7720SOL    HW234794   4.374   1.454   8.067  0.9204 -0.5780  0.7031
 7721SOL     OW34795   3.314   4.003  11.044  0.1330  0.3037  0.4029
 7721SOL    HW134796   3.248   4.072  11.035  0.4554  0.7931  1.8297
 7721SOL    HW234797   3.253   3.936  11.075  2.2795 -2.7405 -1.9881
 7722SOL     OW34798   3.023   0.840  15.532 -0.7573 -0.0363 -0.8210
 7722SOL    HW134799   3.073   0.758  15.539 -0.1192  0.2765 -1.6552
 7722SOL    HW234800   3.052   0.879  15.449  1.7483  1.4704  0.7780
 7723SOL     OW34801   3.892   2.806  17.004  0.6109 -0.3095  0.1174
 7723SOL    HW134802   3.912   2.834  17.093 -1.3013 -0.4746  0.5973
 7723SOL    HW234803   3.955   2.738  16.982 -0.7172 -1.4598 -0.1516
 7724SOL     OW34804   1.705   0.397  13.237 -0.4241 -0.3338 -0.0961
 7724SOL    HW134805   1.628   0.348  13.207 -1.0191  1.8374 -2.1222
 7724SOL    HW234806   1.706   0.462  13.166  0.1669  0.1037  0.3220
 7725SOL     OW34807   1.616   1.828   7.880 -0.5562  0.3584 -0.8796
 7725SOL    HW134808   1.598   1.914   7.842 -1.5862  0.8193  0.6043
 7725SOL    HW234809   1.533   1.805   7.923  0.9856  0.2793  2.0808
 7726SOL     OW34810   1.975   3.993   1.762  0.5428 -0.6906  0.0766
 7726SOL    HW134811   1.945   4.076   1.725 -0.8029 -1.3362 -0.3058
 7726SOL    HW234812   1.970   3.929   1.691 -0.4957 -2.1506  1.4599
 7727SOL     OW34813   3.388   2.590   0.685  0.1228 -0.0048 -0.1792
 7727SOL    HW134814   3.317   2.543   0.728 -0.1080  0.8569  0.3803
 7727SOL    HW234815   3.352   2.679   0.686 -1.3842 -0.6208 -0.4798
 7728SOL     OW34816   1.679   2.105   3.781  0.3490  0.2705 -0.1241
 7728SOL    HW134817   1.692   2.199   3.797  0.0811  0.2493  0.2165
 7728SOL    HW234818   1.622   2.075   3.852 -0.1342  2.1747  0.2940
 7729SOL     OW34819   1.608   3.321   9.422 -0.1908  0.2872 -0.8401
 7729SOL    HW134820   1.657   3.356   9.496 -1.9527  0.0128  0.4549
 7729SOL    HW234821   1.589   3.405   9.380 -0.7413  1.0641  0.9362
 7730SOL     OW34822   1.130   2.333   8.843 -0.4070 -0.3679 -0.0767
 7730SOL    HW134823   1.186   2.294   8.776  2.3832  1.0717  1.4628
 7730SOL    HW234824   1.114   2.254   8.894  0.4206 -0.5043 -0.0395
 7731SOL     OW34825   3.787   3.326   0.837 -1.2067  0.1891  0.4973
 7731SOL    HW134826   3.833   3.262   0.783 -0.8783 -1.2915  2.5697
 7731SOL    HW234827   3.826   3.316   0.924 -0.1891 -1.1571 -0.1178
 7732SOL     OW34828   4.699   2.221   2.218  0.0341  0.4356 -0.2913
 7732SOL    HW134829   4.677   2.189   2.305 -1.1602  1.3727 -0.2594
 7732SOL    HW234830   4.680   2.141   2.168  0.3090 -0.3106  0.8034
 7733SOL     OW34831   2.788   2.287   9.186 -0.1408  0.0753  0.3365
 7733SOL    HW134832   2.837   2.238   9.120 -3.2565 -0.0174 -1.8974
 7733SOL    HW234833   2.746   2.214   9.231 -1.1869 -0.1106 -0.9398
 7734SOL     OW34834   3.543   3.597  13.145 -0.2043  0.6784 -0.2828
 7734SOL    HW134835   3.469   3.537  13.134  1.2362 -0.6065 -2.8476
 7734SOL    HW234836   3.594   3.549  13.080  1.4568  0.3442  1.2863
 7735SOL     OW34837   0.836   0.074  14.171 -0.1569  0.5948  0.5151
 7735SOL    HW134838   0.830   0.100  14.079  1.0847 -1.2579 -0.1020
 7735SOL    HW234839   0.751   0.102  14.204 -0.3803 -1.0879  1.3468
 7736SOL     OW34840   1.335   1.859   4.325  0.4614 -0.4562 -0.3024
 7736SOL    HW134841   1.295   1.900   4.402  1.2179  2.1831 -1.2856
 7736SOL    HW234842   1.325   1.929   4.260  3.1270 -1.5633 -1.8971
 7737SOL     OW34843   0.422   3.379   5.031 -0.0473  0.7844 -0.2341
 7737SOL    HW134844   0.468   3.395   5.114  0.6005 -0.8075 -0.2842
 7737SOL    HW234845   0.456   3.452   4.980  0.2251  1.2639  0.6353
 7738SOL     OW34846   3.348   3.621  16.734  0.0200  0.4211  0.6083
 7738SOL    HW134847   3.412   3.674  16.688  0.2845 -0.6300 -0.2342
 7738SOL    HW234848   3.359   3.646  16.826  1.1593 -0.3012  0.6654
 7739SOL     OW34849   1.875   0.895   6.102  0.4626  0.3537 -0.1769
 7739SOL    HW134850   1.845   0.844   6.177 -0.2616 -1.4218 -1.6531
 7739SOL    HW234851   1.926   0.955   6.156  1.0868 -1.1296  0.8668
 7740SOL     OW34852   2.928   0.894   8.720  0.5386  0.1799  0.1219
 7740SOL    HW134853   2.943   0.967   8.660  1.7600  0.8354  1.2326
 7740SOL    HW234854   2.910   0.826   8.654  0.6928  0.8177 -0.5760
 7741SOL     OW34855   0.178   0.114  13.659  0.0902  0.0887  0.0124
 7741SOL    HW134856   0.256   0.077  13.701 -1.5537 -3.3207  0.0615
 7741SOL    HW234857   0.124   0.038  13.642 -1.0193  0.8479  0.1586
 7742SOL     OW34858   1.750   4.227   0.486  0.5122 -0.1968  0.1195
 7742SOL    HW134859   1.731   4.278   0.407 -1.1267  0.8441  1.1924
 7742SOL    HW234860   1.768   4.295   0.550  0.7813  2.1699 -2.4666
 7743SOL     OW34861   2.807   1.128   5.991  0.7109 -0.2471 -0.6558
 7743SOL    HW134862   2.825   1.100   6.081  0.5570 -0.7295 -0.7721
 7743SOL    HW234863   2.851   1.213   5.991 -0.0811  0.1628  0.1065
 7744SOL     OW34864   0.185   3.843   9.370  0.2148  0.1822  0.2684
 7744SOL    HW134865   0.131   3.764   9.369 -0.1343  0.4157  0.5126
 7744SOL    HW234866   0.243   3.823   9.443 -1.0397 -2.0862  0.6321
 7745SOL     OW34867   2.863   4.276   3.464 -0.5441  0.0300  0.1739
 7745SOL    HW134868   2.845   4.332   3.539  1.6283  1.0326 -0.0689
 7745SOL    HW234869   2.848   4.187   3.498 -2.3780  0.6235  0.9039
 7746SOL     OW34870   1.331   4.703  14.815 -0.3967  0.4681  0.0275
 7746SOL    HW134871   1.324   4.703  14.720 -0.9774 -0.4346  0.0712
 7746SOL    HW234872   1.423   4.728  14.814 -0.5205  0.9112 -0.0301
 7747SOL     OW34873   3.119   3.083   6.158  0.0270  0.2501  0.5066
 7747SOL    HW134874   3.179   3.012   6.183 -0.6793 -0.2729  0.7153
 7747SOL    HW234875   3.164   3.114   6.080 -2.2124  0.7118 -0.5789
 7748SOL     OW34876   0.160   4.107  16.342 -0.3611  0.0125  0.2603
 7748SOL    HW134877   0.112   4.037  16.385  0.3376  0.6523  2.0910
 7748SOL    HW234878   0.206   4.063  16.271 -1.2410 -1.5247  0.6470
 7749SOL     OW34879   0.394   2.438  16.919 -0.1147 -0.3306 -0.5605
 7749SOL    HW134880   0.448   2.469  16.991 -3.4067  1.3949  1.1386
 7749SOL    HW234881   0.347   2.519  16.905  2.2971  0.9565 -1.2038
 7750SOL     OW34882   0.855   2.031  13.998  0.2046 -0.2573 -0.8631
 7750SOL    HW134883   0.920   1.973  13.958  0.5689 -0.1265 -0.4547
 7750SOL    HW234884   0.845   2.106  13.940 -2.4793  0.9768  1.2246
 7751SOL     OW34885   0.357   0.078   1.246 -0.1118  0.1423  0.5967
 7751SOL    HW134886   0.262   0.073   1.255 -0.2224 -0.9298 -1.1818
 7751SOL    HW234887   0.386   4.724   1.234 -0.3532  0.5993 -3.4177
 7752SOL     OW34888   1.183   1.219   0.322 -0.4112 -0.0062  0.5046
 7752SOL    HW134889   1.132   1.195   0.399 -1.9556 -0.3561 -0.6211
 7752SOL    HW234890   1.213   1.143   0.272 -0.6824 -1.2650  2.2628
 7753SOL     OW34891   0.673   4.052   5.151 -0.0165  0.1532 -0.8357
 7753SOL    HW134892   0.751   3.997   5.136  0.3188  0.3407  0.1947
 7753SOL    HW234893   0.611   4.005   5.095 -0.3686  1.3013 -1.3998
 7754SOL     OW34894   3.065   1.411  12.307 -0.0119 -0.5583 -0.3969
 7754SOL    HW134895   3.133   1.428  12.242  0.2795  2.3075  0.6927
 7754SOL    HW234896   3.128   1.391  12.376 -0.7693  0.6256  0.6264
 7755SOL     OW34897   4.482   1.740   8.225 -0.2053 -0.4820 -0.3324
 7755SOL    HW134898   4.436   1.700   8.299  2.3443  0.4626  1.7692
 7755SOL    HW234899   4.565   1.695   8.209 -0.0262 -0.7533  1.3416
 7756SOL     OW34900   0.221   1.934  17.430 -0.2513  0.3942 -0.1158
 7756SOL    HW134901   0.233   2.010  17.487 -1.3584  0.1358  0.4408
 7756SOL    HW234902   0.256   1.966  17.346 -0.3493  0.3552 -0.1717
 7757SOL     OW34903   3.967   3.380   8.524  0.5748 -0.9626  0.3401
 7757SOL    HW134904   4.007   3.460   8.491  0.4301 -0.7208  0.7528
 7757SOL    HW234905   3.935   3.340   8.443  0.1362  2.5373 -1.1880
 7758SOL     OW34906   2.016   3.923   7.884 -0.3396  0.0203 -0.0612
 7758SOL    HW134907   2.018   4.018   7.894 -0.9542  0.0596 -0.3705
 7758SOL    HW234908   1.999   3.895   7.974  2.1452 -2.1065 -0.2227
 7759SOL     OW34909   3.462   3.829   8.512 -0.0534 -0.1720 -0.1212
 7759SOL    HW134910   3.479   3.896   8.578 -2.8242  0.2645  0.1425
 7759SOL    HW234911   3.523   3.856   8.444  1.1456  2.0642  1.8351
 7760SOL     OW34912   3.569   4.719   5.089  0.3505  0.4507 -0.6052
 7760SOL    HW134913   3.511   4.708   5.165  2.4852 -1.4841  0.7477
 7760SOL    HW234914   3.505   4.683   5.027 -1.3776  0.5357  1.1069
 7761SOL     OW34915   4.010   1.520   3.820 -0.0231 -0.6462  0.5283
 7761SOL    HW134916   3.919   1.502   3.843 -0.2960  0.5122  0.3402
 7761SOL    HW234917   4.007   1.491   3.729  0.9467  0.1151  0.2482
 7762SOL     OW34918   3.330   0.375   2.871 -0.3647 -0.8108  0.2546
 7762SOL    HW134919   3.268   0.427   2.819 -1.2933 -1.8124  0.3687
 7762SOL    HW234920   3.372   0.438   2.929 -1.0411  0.4347 -0.6030
 7763SOL     OW34921   3.173   0.263   1.870 -0.3105 -0.1955  0.3874
 7763SOL    HW134922   3.105   0.302   1.815 -0.9708 -2.4347 -0.4209
 7763SOL    HW234923   3.165   0.318   1.947  0.7911 -2.6087  2.2439
 7764SOL     OW34924   1.565   2.332   2.590 -0.4789  0.7804 -0.3551
 7764SOL    HW134925   1.513   2.393   2.538 -0.0167  1.6374  0.1892
 7764SOL    HW234926   1.643   2.309   2.539 -0.1486  2.3098 -0.5391
 7765SOL     OW34927   2.923   1.826   9.149  0.2345  0.0632 -0.2481
 7765SOL    HW134928   2.932   1.902   9.206  0.2867  0.2135 -0.4558
 7765SOL    HW234929   2.923   1.869   9.064  0.9024  1.7777  0.6199
 7766SOL     OW34930   4.554   1.276   8.714  0.1201  0.0380  0.4183
 7766SOL    HW134931   4.570   1.312   8.801 -0.3952  1.6509 -0.1436
 7766SOL    HW234932   4.646   1.255   8.700  0.6670  2.0695  1.0702
 7767SOL     OW34933   0.651   4.137  12.446  0.0831  0.6516 -0.1967
 7767SOL    HW134934   0.724   4.196  12.463 -1.0513  1.1830  2.9464
 7767SOL    HW234935   0.695   4.083  12.381 -0.4878  0.5543 -0.5060
 7768SOL     OW34936   1.061   1.776   1.715 -0.3826  0.3925  0.2440
 7768SOL    HW134937   1.102   1.700   1.756  1.5850  0.6860 -1.1910
 7768SOL    HW234938   1.064   1.841   1.785 -0.9167  0.9751 -0.2671
 7769SOL     OW34939   4.005   1.099   7.235  0.0894 -0.1588 -0.0044
 7769SOL    HW134940   4.046   1.091   7.321  0.4570 -2.8731 -0.4209
 7769SOL    HW234941   4.041   1.185   7.213  0.3214 -1.0077 -2.9588
 7770SOL     OW34942   3.591   2.685   5.457  0.2120  0.1217  0.0441
 7770SOL    HW134943   3.632   2.760   5.499 -1.2875  0.1538  1.4803
 7770SOL    HW234944   3.566   2.722   5.373 -2.1780  2.2401  1.6725
 7771SOL     OW34945   4.328   2.067  10.912 -0.1705  0.4992 -0.4249
 7771SOL    HW134946   4.285   2.150  10.931  0.8320  1.1551 -0.9977
 7771SOL    HW234947   4.259   2.007  10.940 -0.2726  0.1345 -1.4382
 7772SOL     OW34948   1.101   0.155  13.929  0.2295 -0.0276  0.0371
 7772SOL    HW134949   1.169   0.115  13.874 -1.2265 -1.8340 -0.4319
 7772SOL    HW234950   1.114   0.240  13.885  2.4339  0.8001  2.2697
 7773SOL     OW34951   0.157   1.205   3.214 -0.0815  0.6723  0.3967
 7773SOL    HW134952   0.156   1.199   3.310 -2.6227  1.6569  0.4334
 7773SOL    HW234953   0.230   1.147   3.195 -0.3213  0.0290  1.4367
 7774SOL     OW34954   2.937   1.763   6.520 -0.2527 -0.0270  0.4703
 7774SOL    HW134955   3.006   1.829   6.508  1.0029 -1.6011 -0.8106
 7774SOL    HW234956   2.856   1.798   6.484 -0.6501  1.5469  2.8266
 7775SOL     OW34957   3.073   2.910   6.936  1.1000  0.0749 -0.2861
 7775SOL    HW134958   2.990   2.923   6.982  1.7730 -1.2669  1.3121
 7775SOL    HW234959   3.131   2.925   7.011  1.6212  0.2439 -0.7158
 7776SOL     OW34960   2.333   0.285   0.125 -0.6325 -0.0915 -0.0030
 7776SOL    HW134961   2.366   0.351   0.064 -1.4348  1.1943  0.9370
 7776SOL    HW234962   2.376   0.208   0.088 -1.5935 -0.5271 -0.2106
 7777SOL     OW34963   3.089   3.436   7.189 -0.3918  0.6631  0.6460
 7777SOL    HW134964   3.107   3.476   7.274  2.1306  1.3498 -0.2115
 7777SOL    HW234965   3.140   3.356   7.179  2.0964  2.0699  1.9607
 7778SOL     OW34966   0.682   0.871   3.935  0.2917 -0.4539  0.3180
 7778SOL    HW134967   0.613   0.927   3.901 -0.1207 -0.1687  1.6215
 7778SOL    HW234968   0.635   0.830   4.007  0.0130 -1.8819 -0.6768
 7779SOL     OW34969   1.090   0.356   6.210  0.1107  0.1757 -0.0233
 7779SOL    HW134970   1.019   0.420   6.212 -1.0718 -1.2002  2.4908
 7779SOL    HW234971   1.162   0.401   6.164  2.0026 -1.0774  1.7158
 7780SOL     OW34972   0.905   1.439   7.259  0.4707  0.2773 -0.2187
 7780SOL    HW134973   0.840   1.424   7.327 -0.7449  1.0223 -1.2169
 7780SOL    HW234974   0.969   1.368   7.269 -1.8177 -1.3428  2.9777
 7781SOL     OW34975   1.108   3.210   8.973  0.3065 -0.2030  0.5812
 7781SOL    HW134976   1.193   3.184   9.008  0.9765  2.0410  0.6685
 7781SOL    HW234977   1.129   3.297   8.940  1.3875  0.1246  2.1151
 7782SOL     OW34978   2.732   0.967   7.517 -0.2881  0.0183  0.5783
 7782SOL    HW134979   2.658   0.913   7.546 -0.7298  0.1484 -0.2890
 7782SOL    HW234980   2.708   1.058   7.536 -1.2717 -0.2154  0.4590
 7783SOL     OW34981   4.126   4.315   9.614  0.8035  1.1631 -0.0358
 7783SOL    HW134982   4.138   4.276   9.701 -0.9661 -0.5760 -0.5621
 7783SOL    HW234983   4.105   4.406   9.633  0.6780  1.3783 -1.1682
 7784SOL     OW34984   3.341   2.398   4.971 -0.1506  0.2772  0.1880
 7784SOL    HW134985   3.306   2.485   4.951 -2.2269 -1.0810 -2.0030
 7784SOL    HW234986   3.426   2.408   4.928 -0.3923 -0.3324 -0.4318
 7785SOL     OW34987   4.542   0.048   8.527  0.0775 -0.0530  0.0204
 7785SOL    HW134988   4.632   0.029   8.501 -0.5227 -1.9214 -0.6821
 7785SOL    HW234989   4.521   0.111   8.458  2.0032 -1.3519 -1.7837
 7786SOL     OW34990   3.502   0.578   5.131  0.6929 -0.2591  0.3253
 7786SOL    HW134991   3.559   0.653   5.112  1.5261 -0.6054  1.4828
 7786SOL    HW234992   3.446   0.591   5.054 -0.1234  0.8110  1.0924
 7787SOL     OW34993   0.492   2.867   9.940  0.3595  0.2487 -0.5046
 7787SOL    HW134994   0.454   2.919  10.010  0.6010 -1.5152  0.9272
 7787SOL    HW234995   0.443   2.786   9.927 -0.0894  0.5376 -0.6135
 7788SOL     OW34996   4.307   4.028   8.668  0.0132 -0.4933  0.2550
 7788SOL    HW134997   4.369   3.982   8.724 -0.6815 -0.6531  0.8909
 7788SOL    HW234998   4.278   4.088   8.736  1.3649  1.8317 -1.2326
 7789SOL     OW34999   0.149   3.984   3.499  0.1013  0.6718 -0.5018
 7789SOL    HW135000   0.056   3.979   3.518  0.4873  1.1089  1.5601
 7789SOL    HW235001   0.178   4.069   3.535 -0.5375  0.4119  0.6037
 7790SOL     OW35002   3.819   0.508   7.369 -0.4853  0.1953 -0.3661
 7790SOL    HW135003   3.740   0.479   7.322  0.5508 -1.3939 -1.1393
 7790SOL    HW235004   3.882   0.506   7.297  0.7615  0.5915  0.7204
 7791SOL     OW35005   2.181   3.036   7.184  0.0522  0.5580 -0.4233
 7791SOL    HW135006   2.188   2.957   7.237 -2.1962 -0.8468 -2.2052
 7791SOL    HW235007   2.250   3.035   7.118  0.0100  0.9397 -0.4782
 7792SOL     OW35008   1.479   3.792   5.179  0.4993 -0.1449  0.2365
 7792SOL    HW135009   1.429   3.720   5.218  1.7493 -1.9461 -1.5008
 7792SOL    HW235010   1.570   3.763   5.187  0.4478  0.2447  2.4825
 7793SOL     OW35011   2.643   3.154  15.089  0.0020  0.6406  0.5042
 7793SOL    HW135012   2.597   3.168  15.172 -1.0379  1.0980 -0.1435
 7793SOL    HW235013   2.663   3.060  15.094  1.1486  0.7488 -1.7842
 7794SOL     OW35014   1.441   4.365  14.766  0.3517  0.0230 -0.0701
 7794SOL    HW135015   1.474   4.295  14.710  1.1090 -1.2375  1.9477
 7794SOL    HW235016   1.367   4.387  14.710 -0.6460 -0.9648  0.8703
 7795SOL     OW35017   0.430   1.042   7.181 -0.5470  0.1216 -0.6303
 7795SOL    HW135018   0.490   1.051   7.255 -2.2847 -1.5851  0.9947
 7795SOL    HW235019   0.496   1.042   7.113  0.7353 -1.0922  0.6153
 7796SOL     OW35020   3.444   2.799   2.470  0.2732 -0.0848 -0.6260
 7796SOL    HW135021   3.377   2.867   2.480 -0.3373 -0.4670 -2.1155
 7796SOL    HW235022   3.383   2.726   2.482  0.6676  0.0084  1.9525
 7797SOL     OW35023   3.671   2.915   8.713 -0.3348 -0.1093  0.1746
 7797SOL    HW135024   3.764   2.912   8.735 -0.8719 -2.0985  2.1285
 7797SOL    HW235025   3.634   2.844   8.765 -2.2535  2.0336  1.7480
 7798SOL     OW35026   0.196   3.412   6.813 -0.0469 -0.1062 -0.3985
 7798SOL    HW135027   0.263   3.472   6.781  1.8494 -1.1174  1.6827
 7798SOL    HW235028   0.164   3.481   6.873  3.1607 -0.7575  2.0664
 7799SOL     OW35029   0.125   1.218   6.861 -0.4686 -0.4007 -0.4520
 7799SOL    HW135030   0.113   1.207   6.955 -0.2458  1.2965 -0.2256
 7799SOL    HW235031   0.167   1.304   6.862 -0.4086 -0.4290 -0.5338
 7800SOL     OW35032   2.292   1.441   9.265 -0.1064 -0.6171 -0.1138
 7800SOL    HW135033   2.368   1.386   9.251  0.8962  1.2013 -1.7327
 7800SOL    HW235034   2.315   1.520   9.217  2.5247 -1.7273 -0.6552
 7801SOL     OW35035   2.791   1.325  10.889 -0.2818 -0.2004  0.0665
 7801SOL    HW135036   2.828   1.341  10.976 -2.1091  1.2967  0.5714
 7801SOL    HW235037   2.873   1.301  10.846 -0.0938  2.4990 -1.0511
 7802SOL     OW35038   2.742   1.599   2.403  0.2065 -0.1236  0.3993
 7802SOL    HW135039   2.775   1.511   2.385  1.7508  1.0681 -2.5480
 7802SOL    HW235040   2.659   1.605   2.356 -0.6738 -0.6746  1.8911
 7803SOL     OW35041   3.099   1.806   3.823  0.1348 -0.7127  0.1713
 7803SOL    HW135042   3.035   1.764   3.880  0.6617  0.5211  1.6914
 7803SOL    HW235043   3.053   1.888   3.805 -0.4439 -0.7821  1.3338
 7804SOL     OW35044   0.466   0.606   9.438  1.1241 -0.4301  0.4494
 7804SOL    HW135045   0.438   0.647   9.356  0.6421  0.2715  0.9669
 7804SOL    HW235046   0.440   0.514   9.430  1.3943 -0.6455  2.0216
 7805SOL     OW35047   0.997   1.817   6.490 -0.3526 -0.8049 -0.2483
 7805SOL    HW135048   1.045   1.804   6.572 -2.2195 -2.8478  0.4954
 7805SOL    HW235049   1.072   1.836   6.433 -1.0786 -0.4500 -1.0797
 7806SOL     OW35050   1.317   4.211   2.004 -0.0648  0.0273  0.0977
 7806SOL    HW135051   1.345   4.302   2.015  0.2242 -0.0808  0.2322
 7806SOL    HW235052   1.328   4.193   1.910  0.1547 -0.8041  0.2850
 7807SOL     OW35053   4.224   3.541   4.525 -1.1667  0.3513  0.1430
 7807SOL    HW135054   4.305   3.510   4.485 -0.4666  0.9696  1.0732
 7807SOL    HW235055   4.248   3.614   4.582 -0.7809  0.2716  0.0819
 7808SOL     OW35056   2.162   3.438   1.273 -0.1054 -0.3084 -0.4227
 7808SOL    HW135057   2.221   3.370   1.241  0.6038 -1.3254  2.9752
 7808SOL    HW235058   2.227   3.508   1.265 -0.6559 -0.0038 -2.0704
 7809SOL     OW35059   3.186   3.252   8.259 -0.3996 -0.0748 -0.3657
 7809SOL    HW135060   3.111   3.293   8.302 -0.3209  0.6206 -0.8924
 7809SOL    HW235061   3.222   3.191   8.324  1.2081 -0.1602 -1.3257
 7810SOL     OW35062   1.765   3.271   1.719 -0.6880 -0.1263  0.0991
 7810SOL    HW135063   1.793   3.264   1.811  1.0012 -1.1241 -0.4825
 7810SOL    HW235064   1.842   3.314   1.681  0.7078 -1.7105  1.1091
 7811SOL     OW35065   0.122   0.853   9.008  0.1935 -0.3326 -0.4399
 7811SOL    HW135066   0.071   0.773   8.995  0.3277 -0.3705 -0.7295
 7811SOL    HW235067   0.172   0.858   8.926 -1.6296 -1.5309 -1.6178
 7812SOL     OW35068   4.267   2.068   8.551  0.6082 -0.3018  0.1810
 7812SOL    HW135069   4.283   2.162   8.558  1.8690 -0.4013 -1.3122
 7812SOL    HW235070   4.218   2.062   8.469  0.1157  0.0505  0.4472
 7813SOL     OW35071   3.794   2.594   1.333  0.0521  0.4218 -0.0728
 7813SOL    HW135072   3.782   2.686   1.309 -0.9595 -0.3567 -2.5046
 7813SOL    HW235073   3.805   2.550   1.248 -1.0427  2.8798 -1.4796
 7814SOL     OW35074   1.901   3.844  14.112 -0.0623 -0.6729 -0.3488
 7814SOL    HW135075   1.821   3.883  14.148 -0.0732 -0.3932 -0.6796
 7814SOL    HW235076   1.877   3.752  14.102 -0.0464 -0.6261 -0.8000
 7815SOL     OW35077   3.478   3.195  12.281  0.3391 -0.3704  0.3543
 7815SOL    HW135078   3.556   3.163  12.235  1.8328  1.4347  1.6429
 7815SOL    HW235079   3.412   3.175  12.215  0.2678 -1.2869  0.7027
 7816SOL     OW35080   1.368   2.733   7.107  0.1525  0.0558  0.7574
 7816SOL    HW135081   1.410   2.690   7.181 -0.7012  0.0391  1.2257
 7816SOL    HW235082   1.417   2.692   7.035 -0.6081 -1.5486  1.1548
 7817SOL     OW35083   0.795   3.683   0.319  0.2676 -0.0079 -0.4078
 7817SOL    HW135084   0.890   3.685   0.330  0.3492  1.2655 -1.3336
 7817SOL    HW235085   0.776   3.591   0.334 -0.1718 -0.2147 -2.2914
 7818SOL     OW35086   1.770   0.035   4.034 -0.0387 -0.4740 -0.3725
 7818SOL    HW135087   1.685   4.729   4.022  0.6765 -0.8637 -3.9708
 7818SOL    HW235088   1.744   0.109   3.979  0.0253  1.5854  2.3696
 7819SOL     OW35089   3.906   0.404   2.198  0.0303 -0.2362  0.3096
 7819SOL    HW135090   3.953   0.438   2.274 -0.4174 -1.0722  0.9641
 7819SOL    HW235091   3.899   0.312   2.223 -0.7855  0.1611  1.5941
 7820SOL     OW35092   0.783   0.310   5.658  0.5882 -0.1744  0.3474
 7820SOL    HW135093   0.819   0.393   5.625 -0.7512 -1.1084 -3.4757
 7820SOL    HW235094   0.799   0.316   5.752  1.6911  0.8597  0.0987
 7821SOL     OW35095   0.908   1.396   2.532  0.0268  0.1686  0.3002
 7821SOL    HW135096   0.901   1.438   2.446  1.5932 -2.8909 -1.3463
 7821SOL    HW235097   0.998   1.364   2.520  0.1204  0.9231 -0.9846
 7822SOL     OW35098   2.217   3.539   4.587  0.4524 -0.0549  0.1697
 7822SOL    HW135099   2.200   3.632   4.600  2.6827  0.5933 -1.5393
 7822SOL    HW235100   2.234   3.556   4.494  0.3934  0.9282  0.3395
 7823SOL     OW35101   0.967   1.706   3.459  0.0666 -0.3918 -0.7561
 7823SOL    HW135102   0.943   1.719   3.367  1.0068 -3.1013 -1.4014
 7823SOL    HW235103   0.880   1.707   3.499 -0.2342 -1.9028 -1.3801
 7824SOL     OW35104   2.706   3.878   7.894  0.0751  0.0869 -0.3567
 7824SOL    HW135105   2.725   3.881   7.988 -0.7872  2.2844 -0.2506
 7824SOL    HW235106   2.739   3.790   7.874  2.3826  0.8644 -0.0054
 7825SOL     OW35107   0.066   4.341  12.519  0.1025  0.1019  0.3809
 7825SOL    HW135108   0.085   4.256  12.559 -0.2417  0.6005  1.5983
 7825SOL    HW235109   0.148   4.347  12.470 -0.1804 -1.5803 -0.2935
 7826SOL     OW35110   3.388   0.997   5.990 -0.7300  0.1382 -0.5100
 7826SOL    HW135111   3.380   1.081   6.035 -1.6836 -0.4381  0.3969
 7826SOL    HW235112   3.458   0.962   6.046 -0.6494 -1.3134 -1.5323
 7827SOL     OW35113   3.325   3.963   1.924  0.1186 -0.0284  0.2007
 7827SOL    HW135114   3.235   3.989   1.939  0.6558  0.6377  2.2709
 7827SOL    HW235115   3.373   4.044   1.938 -0.0663  0.1758 -0.3344
 7828SOL     OW35116   0.398   0.348   9.380  0.1366 -0.3584  0.0253
 7828SOL    HW135117   0.359   0.263   9.399  0.2038 -0.8712 -2.1804
 7828SOL    HW235118   0.489   0.328   9.362 -0.8523 -2.1521 -2.9193
 7829SOL     OW35119   0.451   1.462   1.901  0.6507  0.4112 -0.2942
 7829SOL    HW135120   0.534   1.496   1.867 -0.5062  0.4219 -3.0838
 7829SOL    HW235121   0.441   1.536   1.962  1.2292  1.3097 -1.2877
 7830SOL     OW35122   0.248   4.337   7.754  0.0047  0.1693 -0.4459
 7830SOL    HW135123   0.336   4.300   7.750  1.1802  3.0921 -1.9055
 7830SOL    HW235124   0.208   4.305   7.673  0.4384 -0.3163 -0.4671
 7831SOL     OW35125   2.118   0.404   4.625 -0.3813 -0.1163  0.0396
 7831SOL    HW135126   2.140   0.311   4.613  0.1295  0.1410 -0.9574
 7831SOL    HW235127   2.196   0.426   4.676 -1.6787 -0.7987  2.3509
 7832SOL     OW35128   1.398   0.817   0.186  0.1602 -0.5784  0.1886
 7832SOL    HW135129   1.319   0.792   0.235  0.3662 -0.4010  0.6100
 7832SOL    HW235130   1.375   0.909   0.181 -1.4503 -0.9361  0.9972
 7833SOL     OW35131   1.885   1.314   8.714  0.0714  0.4119 -0.3715
 7833SOL    HW135132   1.919   1.362   8.790 -0.5822 -1.6659  1.2330
 7833SOL    HW235133   1.961   1.262   8.686  0.3999  1.0912 -0.7517
 7834SOL     OW35134   0.288   2.357  16.676  0.0771  0.7048 -0.1282
 7834SOL    HW135135   0.217   2.420  16.665 -0.3625 -0.1610 -2.1543
 7834SOL    HW235136   0.317   2.371  16.766 -0.3801 -1.4091  0.3458
 7835SOL     OW35137   2.486   1.528   0.269 -0.0193 -0.0367  0.1848
 7835SOL    HW135138   2.432   1.479   0.332 -2.7619  1.5422 -0.9498
 7835SOL    HW235139   2.483   1.616   0.306 -1.0384  0.0124 -0.0129
 7836SOL     OW35140   0.504   4.039   9.366  0.0151  0.2009  0.3574
 7836SOL    HW135141   0.422   4.080   9.392  0.3144  0.8988  0.1914
 7836SOL    HW235142   0.559   4.113   9.341 -1.6204  2.3953  3.2975
 7837SOL     OW35143   4.691   1.678   7.969 -0.4968  0.1267 -0.1115
 7837SOL    HW135144   4.682   1.715   7.881  0.4852 -0.9416 -0.6684
 7837SOL    HW235145   4.724   1.756   8.015  0.2895  0.4784 -1.2547
 7838SOL     OW35146   3.736   0.595   8.042  0.0330  0.4764 -0.3168
 7838SOL    HW135147   3.702   0.563   8.125  0.7061 -1.8508 -0.9309
 7838SOL    HW235148   3.755   0.516   7.991 -0.9003 -0.3230  0.5772
 7839SOL     OW35149   2.775   0.823   4.619 -0.4390  0.2360 -0.0929
 7839SOL    HW135150   2.782   0.863   4.532 -0.9069  0.9883  0.2194
 7839SOL    HW235151   2.684   0.841   4.641 -0.2397 -2.0485  2.5845
 7840SOL     OW35152   3.401   1.989   4.266 -0.7184 -0.5238  0.1494
 7840SOL    HW135153   3.454   1.937   4.327 -0.4546  0.5397  0.8328
 7840SOL    HW235154   3.356   1.918   4.220 -0.9696  0.1219 -0.6123
 7841SOL     OW35155   0.944   0.141   6.140 -0.2216 -0.1398  0.4148
 7841SOL    HW135156   0.998   0.212   6.176  0.5211 -0.8288  0.6779
 7841SOL    HW235157   0.877   0.132   6.207 -0.6457 -2.8170 -0.3701
 7842SOL     OW35158   1.494   4.289   8.614 -0.6133 -0.2171  0.6048
 7842SOL    HW135159   1.468   4.370   8.657  0.4159 -0.5717  1.9013
 7842SOL    HW235160   1.410   4.256   8.583 -0.5593 -0.5989  0.8550
 7843SOL     OW35161   1.273   4.178   8.477 -0.2602  0.0223 -0.3327
 7843SOL    HW135162   1.179   4.177   8.460 -0.8721  0.6874  3.2023
 7843SOL    HW235163   1.304   4.111   8.416  2.7034  0.1918  0.9582
 7844SOL     OW35164   0.960   3.985   5.221  0.6183 -0.3475 -0.0583
 7844SOL    HW135165   1.031   4.049   5.226 -0.7543  1.1125  1.0813
 7844SOL    HW235166   0.950   3.978   5.126  0.9827 -0.5226 -0.0802
 7845SOL     OW35167   3.678   3.934   4.600 -0.1415  0.0395 -0.1970
 7845SOL    HW135168   3.766   3.902   4.616 -0.0135  1.6639  2.3262
 7845SOL    HW235169   3.675   4.019   4.643  1.6170 -0.5006  0.9846
 7846SOL     OW35170   2.227   4.356  15.309 -0.0981 -0.0236 -0.2377
 7846SOL    HW135171   2.318   4.353  15.281 -0.0191  1.4200 -0.1150
 7846SOL    HW235172   2.200   4.266  15.292 -0.8025  0.5851 -2.3566
 7847SOL     OW35173   2.697   1.228   0.536 -0.0623  0.4206  0.1457
 7847SOL    HW135174   2.755   1.248   0.609 -1.1602  1.9532  0.6134
 7847SOL    HW235175   2.638   1.157   0.562  1.4165 -0.6170  0.6344
 7848SOL     OW35176   4.289   0.174  14.254 -0.3301 -0.0696 -0.2100
 7848SOL    HW135177   4.289   0.082  14.228 -0.0494 -0.0098 -0.4275
 7848SOL    HW235178   4.224   0.210  14.195 -0.4801 -0.7227 -0.4377
 7849SOL     OW35179   4.687   2.895   4.986 -0.1091  0.4776  0.8185
 7849SOL    HW135180   4.707   2.987   5.006  1.9402  0.0992  0.5214
 7849SOL    HW235181   4.663   2.901   4.893  0.4939 -0.4705  0.5990
 7850SOL     OW35182   3.354   3.972   6.776 -0.6367 -0.3143  0.0925
 7850SOL    HW135183   3.288   3.930   6.722  1.1977  0.2931 -2.6707
 7850SOL    HW235184   3.355   3.926   6.860  2.8459 -0.7654 -0.1963
 7851SOL     OW35185   0.736   4.487   6.303  0.8140 -0.2928 -0.2383
 7851SOL    HW135186   0.824   4.488   6.340  0.0661 -3.5774  1.6770
 7851SOL    HW235187   0.747   4.476   6.209 -0.9036 -1.3941 -0.3262
 7852SOL     OW35188   2.590   2.869  12.932 -0.0974 -0.7545  0.2802
 7852SOL    HW135189   2.509   2.840  12.975 -0.8177  0.0721 -0.5389
 7852SOL    HW235190   2.572   2.917  12.852 -1.3937  2.1744  2.3393
 7853SOL     OW35191   1.090   2.679   3.110  0.0515  0.7775 -0.0982
 7853SOL    HW135192   1.150   2.710   3.177 -0.9005  1.7271  0.3038
 7853SOL    HW235193   1.087   2.586   3.132  0.0634  0.6864 -0.4899
 7854SOL     OW35194   2.348   1.982  16.187 -0.1313  0.6296 -0.2325
 7854SOL    HW135195   2.392   1.965  16.104 -0.3285 -0.0896 -0.1963
 7854SOL    HW235196   2.306   1.897  16.206 -1.2173  1.2049 -0.0483
 7855SOL     OW35197   1.888   1.534   1.951  0.5024  0.8483  0.3870
 7855SOL    HW135198   1.864   1.442   1.966  0.7698  0.6580 -0.3210
 7855SOL    HW235199   1.898   1.570   2.039  0.6074 -0.9948  1.1334
 7856SOL     OW35200   3.020   4.454   8.286  0.1027  0.2137 -0.1223
 7856SOL    HW135201   3.016   4.542   8.250  1.3366  1.1168  1.9975
 7856SOL    HW235202   2.930   4.423   8.278  0.1302 -0.4222  2.1762
 7857SOL     OW35203   4.214   4.317   2.558 -0.2540 -0.0372  0.4390
 7857SOL    HW135204   4.176   4.235   2.526 -0.1815  0.3822 -0.7134
 7857SOL    HW235205   4.261   4.297   2.639  1.0339  0.3147 -0.2355
 7858SOL     OW35206   2.283   1.070   2.177  0.0166 -0.1321 -0.0371
 7858SOL    HW135207   2.377   1.088   2.180 -0.0263 -0.0334  0.7735
 7858SOL    HW235208   2.265   1.006   2.108  1.0584 -1.3459  0.8263
 7859SOL     OW35209   2.430   3.072   5.330 -0.0734  0.0617 -0.0323
 7859SOL    HW135210   2.337   3.077   5.310  0.0641 -1.8007 -1.1354
 7859SOL    HW235211   2.418   3.078   5.425  1.5598  0.3529  0.1554
 7860SOL     OW35212   0.774   1.461   9.504  0.1419  0.0854  0.2447
 7860SOL    HW135213   0.864   1.454   9.534  0.4880  2.2750 -0.2794
 7860SOL    HW235214   0.738   1.377   9.533 -0.3492  1.1454  2.6854
 7861SOL     OW35215   0.311   2.779  11.578  0.1749  0.9988  0.0671
 7861SOL    HW135216   0.301   2.851  11.516 -0.6197  0.2595 -0.6572
 7861SOL    HW235217   0.400   2.791  11.612 -0.5944  0.2412  2.3801
 7862SOL     OW35218   4.439   0.523   4.257  0.3836 -0.0917 -0.1675
 7862SOL    HW135219   4.378   0.503   4.329  0.5045  0.5214  0.1098
 7862SOL    HW235220   4.523   0.503   4.297 -0.0297 -1.3568  0.0866
 7863SOL     OW35221   0.784   4.319   5.173  0.2269  0.4238 -0.1449
 7863SOL    HW135222   0.748   4.230   5.179 -0.5742  0.8291  1.0497
 7863SOL    HW235223   0.762   4.360   5.257  0.5732  0.5185 -0.1027
 7864SOL     OW35224   3.994   0.707   7.091 -0.5788 -0.0266 -0.0568
 7864SOL    HW135225   4.011   0.799   7.071 -1.8154  1.0276  3.7614
 7864SOL    HW235226   3.983   0.666   7.005 -0.6999  0.1281 -0.1146
 7865SOL     OW35227   2.478   3.780  15.471 -0.2653 -0.2966 -0.2396
 7865SOL    HW135228   2.482   3.755  15.378 -1.4467 -0.3211 -0.2735
 7865SOL    HW235229   2.434   3.865  15.465  1.0729  0.6291  2.9540
 7866SOL     OW35230   0.421   2.001   6.172  0.0067 -0.6155 -0.5129
 7866SOL    HW135231   0.455   1.948   6.244  1.6714  0.5337 -0.4582
 7866SOL    HW235232   0.341   1.954   6.147 -1.8989  1.5352  1.5440
 7867SOL     OW35233   2.779   0.793   6.346 -0.0905  0.4874 -0.1273
 7867SOL    HW135234   2.748   0.705   6.328  1.9638 -0.5741  1.4621
 7867SOL    HW235235   2.852   0.802   6.284  0.7481 -2.7466  0.4090
 7868SOL     OW35236   1.116   3.413  12.491 -0.0588  0.0321 -0.1460
 7868SOL    HW135237   1.057   3.480  12.524 -0.6884  0.5147 -2.2839
 7868SOL    HW235238   1.102   3.417  12.397 -0.3197 -1.6848 -0.1795
 7869SOL     OW35239   4.207   3.831   3.603  0.0889  0.1875  0.3374
 7869SOL    HW135240   4.254   3.750   3.623 -0.3669  0.5215  2.7403
 7869SOL    HW235241   4.248   3.895   3.662 -1.2164 -0.6247  2.1141
 7870SOL     OW35242   2.367   3.075   4.911 -0.0081  0.5435 -0.0395
 7870SOL    HW135243   2.333   3.161   4.938  0.5635  0.8755 -0.3816
 7870SOL    HW235244   2.392   3.098   4.821 -1.8918  0.5694 -0.5587
 7871SOL     OW35245   1.520   2.376   2.025 -0.1472  0.4207 -0.0078
 7871SOL    HW135246   1.493   2.448   1.968  0.0286  0.7489  0.3233
 7871SOL    HW235247   1.525   2.419   2.110 -1.6100 -0.6340  0.6160
 7872SOL     OW35248   2.234   4.265  15.609  0.1947  0.0819  0.4554
 7872SOL    HW135249   2.313   4.259  15.555  0.2776  1.3189  0.4376
 7872SOL    HW235250   2.252   4.349  15.651 -1.0551  0.6674 -0.1901
 7873SOL     OW35251   0.573   1.550   9.058  0.1808 -0.2215 -0.6952
 7873SOL    HW135252   0.657   1.555   9.104 -0.8236  0.7590  1.0053
 7873SOL    HW235253   0.610   1.550   8.970  0.0643  3.1164 -0.7343
 7874SOL     OW35254   0.941   2.911  10.618 -0.0066 -0.0375 -0.6272
 7874SOL    HW135255   0.960   2.942  10.706  1.9309 -2.9441 -0.0243
 7874SOL    HW235256   1.028   2.916  10.579  0.1927  0.1016 -0.1631
 7875SOL     OW35257   0.047   0.904  11.184  0.6801 -0.3057 -0.1699
 7875SOL    HW135258   4.698   0.911  11.142  0.2542 -0.6577  0.6419
 7875SOL    HW235259   0.099   0.980  11.156 -0.7123  0.8316  0.3205
 7876SOL     OW35260   2.580   0.554   2.028  0.1282  0.8149 -0.1304
 7876SOL    HW135261   2.528   0.613   2.081 -1.0818  0.5502 -1.0166
 7876SOL    HW235262   2.665   0.574   2.067 -0.7809  1.4357  1.5532
 7877SOL     OW35263   2.372   0.491   2.551 -0.2984 -0.1614  0.3876
 7877SOL    HW135264   2.287   0.481   2.509 -0.4291  0.0961  0.5935
 7877SOL    HW235265   2.420   0.411   2.529  0.9632  0.7614 -0.2325
 7878SOL     OW35266   4.243   2.575   4.389 -0.4591  0.8772  0.2744
 7878SOL    HW135267   4.282   2.490   4.370  0.9340  1.2734  1.4230
 7878SOL    HW235268   4.317   2.633   4.410 -3.0040  3.2505  2.6925
 7879SOL     OW35269   2.917   1.532   6.988 -0.0546  0.9684  0.5531
 7879SOL    HW135270   2.959   1.500   6.908 -1.0446 -0.1433  0.4881
 7879SOL    HW235271   2.853   1.467   7.014  1.6495 -1.6769 -1.9137
 7880SOL     OW35272   1.565   1.207   4.341  0.4029 -0.4526 -0.2370
 7880SOL    HW135273   1.636   1.158   4.382  2.3821  1.8217 -0.9377
 7880SOL    HW235274   1.518   1.125   4.326  2.2511 -1.3479 -1.1477
 7881SOL     OW35275   2.509   4.523   8.845  0.1171  0.0480 -0.0460
 7881SOL    HW135276   2.535   4.607   8.884 -0.8279 -0.2588  1.2325
 7881SOL    HW235277   2.549   4.522   8.758 -0.6118  0.1408 -0.3795
 7882SOL     OW35278   4.420   3.975  11.019 -0.0797  0.5480 -0.8892
 7882SOL    HW135279   4.448   3.887  11.043  1.2726  0.6739 -2.0349
 7882SOL    HW235280   4.406   4.015  11.105 -0.4228 -2.8423  0.6248
 7883SOL     OW35281   1.219   0.119   2.457  0.4690 -0.4873 -0.3206
 7883SOL    HW135282   1.207   0.206   2.495 -1.5198 -0.6935 -0.4955
 7883SOL    HW235283   1.263   0.083   2.534 -2.5970  1.2217  2.2128
 7884SOL     OW35284   1.363   1.323   5.443 -0.0025  0.4934  0.5833
 7884SOL    HW135285   1.282   1.335   5.493 -1.6995 -0.9517 -1.7697
 7884SOL    HW235286   1.413   1.249   5.478 -0.0083  0.3855  0.3664
 7885SOL     OW35287   0.616   3.556   4.076 -0.1579  0.4088  0.1890
 7885SOL    HW135288   0.683   3.570   4.143  1.7945 -0.6244 -1.5324
 7885SOL    HW235289   0.665   3.556   3.994  1.8869 -2.2860  1.3926
 7886SOL     OW35290   0.893   2.773   4.211  0.0509  0.3848  0.1452
 7886SOL    HW135291   0.933   2.690   4.184 -0.0033  0.4933 -0.2809
 7886SOL    HW235292   0.973   2.812   4.247  1.1009 -0.7719 -0.9371
 7887SOL     OW35293   0.573   0.590   3.066  0.2002 -0.3074 -0.7259
 7887SOL    HW135294   0.605   0.509   3.028  1.1776 -0.3550  0.1951
 7887SOL    HW235295   0.514   0.609   2.993 -0.7076  1.6277  0.4862
 7888SOL     OW35296   3.121   4.191   1.881 -0.3394  0.0076  0.0308
 7888SOL    HW135297   3.099   4.192   1.788 -0.1027 -1.5639 -0.0420
 7888SOL    HW235298   3.034   4.209   1.918 -0.5602  0.1515 -0.5622
 7889SOL     OW35299   2.077   2.053   8.941 -0.0890 -0.3724 -0.3027
 7889SOL    HW135300   2.138   2.015   8.879 -0.2288 -1.2612  0.1069
 7889SOL    HW235301   2.112   2.139   8.968 -0.7206 -0.1894 -0.0644
 7890SOL     OW35302   1.135   3.426   9.686 -0.9332 -0.3301  0.0609
 7890SOL    HW135303   1.188   3.413   9.607 -0.5153 -0.1465  0.3137
 7890SOL    HW235304   1.192   3.429   9.762 -2.0557 -2.0782  0.9694
 7891SOL     OW35305   3.425   0.380   8.486 -0.0639 -0.1491 -0.6212
 7891SOL    HW135306   3.472   0.307   8.526 -0.2924 -0.9256 -1.7887
 7891SOL    HW235307   3.346   0.340   8.453 -2.0023  2.4225  0.8690
 7892SOL     OW35308   3.098   4.606  14.359  0.0733 -0.0124  0.6203
 7892SOL    HW135309   3.157   4.646  14.423  0.9434 -0.1476 -0.0911
 7892SOL    HW235310   3.096   4.513  14.382 -0.7572 -0.2762 -0.5322
 7893SOL     OW35311   0.252   0.742   4.528  0.0224  0.6919  0.3795
 7893SOL    HW135312   0.343   0.724   4.504 -1.0735 -2.2731 -1.5929
 7893SOL    HW235313   0.214   0.695   4.454  0.2585 -2.1077  2.0366
 7894SOL     OW35314   3.927   3.333   2.570 -0.5017 -0.0987  0.8011
 7894SOL    HW135315   3.869   3.331   2.494 -0.4767 -0.2053  0.7850
 7894SOL    HW235316   3.953   3.425   2.580  0.0181 -0.0154 -1.3705
 7895SOL     OW35317   2.822   4.518   6.520 -0.2057  0.5440 -0.2343
 7895SOL    HW135318   2.913   4.519   6.550 -1.2182 -0.9263  2.9442
 7895SOL    HW235319   2.795   4.444   6.574 -3.6504  2.1081  0.1788
 7896SOL     OW35320   4.211   2.721   7.850 -0.6472  0.4085  0.0094
 7896SOL    HW135321   4.306   2.707   7.854 -0.6626  0.3202  0.0855
 7896SOL    HW235322   4.207   2.792   7.914  1.1640  1.8932 -1.5516
 7897SOL     OW35323   3.834   4.592   4.210 -0.0126 -0.4673  0.2546
 7897SOL    HW135324   3.743   4.615   4.228 -0.3877  0.3509 -2.6526
 7897SOL    HW235325   3.880   4.673   4.233 -0.8831  0.6637 -1.9590
 7898SOL     OW35326   1.882   3.287   6.535 -0.1285 -0.0200 -0.3132
 7898SOL    HW135327   1.898   3.318   6.625  0.8530  0.2272 -0.5682
 7898SOL    HW235328   1.953   3.224   6.521  0.1282  0.5417 -1.5274
 7899SOL     OW35329   4.006   1.175   3.659  0.3750 -0.1015 -0.4253
 7899SOL    HW135330   4.093   1.156   3.695 -0.1361  0.9606  1.3363
 7899SOL    HW235331   4.009   1.271   3.656  1.1137 -0.0802  1.0540
 7900SOL     OW35332   1.100   0.599   7.032 -0.3061 -0.6853 -0.0267
 7900SOL    HW135333   1.170   0.635   6.978 -1.0488 -0.7720 -1.0248
 7900SOL    HW235334   1.042   0.549   6.975 -0.2601 -1.5757  0.6981
 7901SOL     OW35335   3.378   0.367  14.567  0.5591 -0.2519  0.4426
 7901SOL    HW135336   3.411   0.457  14.577 -1.1007  0.2267  1.6489
 7901SOL    HW235337   3.288   0.387  14.542  1.7277  0.6400 -3.1790
 7902SOL     OW35338   2.722   3.517   8.381 -0.7036 -0.0508  0.1182
 7902SOL    HW135339   2.762   3.593   8.423 -0.1102 -0.3280  0.0590
 7902SOL    HW235340   2.722   3.550   8.291 -2.5173  0.6825  0.3794
 7903SOL     OW35341   3.254   0.134   6.785 -0.1886 -0.1299 -0.3868
 7903SOL    HW135342   3.336   0.094   6.757  0.5448  0.6043  0.7052
 7903SOL    HW235343   3.283   0.165   6.871 -1.2857 -2.3573  0.7940
 7904SOL     OW35344   1.490   3.896   3.473  0.3008  0.5139 -0.2917
 7904SOL    HW135345   1.524   3.830   3.412 -1.3617 -0.4824 -0.1295
 7904SOL    HW235346   1.521   3.975   3.428 -0.2327  0.8408 -0.0827
 7905SOL     OW35347   3.423   0.611   2.241  0.2878  0.2833 -0.2614
 7905SOL    HW135348   3.517   0.613   2.259 -0.1117  1.6131  1.5958
 7905SOL    HW235349   3.424   0.612   2.145 -3.1680  0.0463 -0.3004
 7906SOL     OW35350   3.500   3.463   7.475  0.1966  0.5024 -0.0868
 7906SOL    HW135351   3.568   3.524   7.503  1.6554 -1.3065  0.3242
 7906SOL    HW235352   3.499   3.399   7.547 -2.5709 -1.2976 -1.6976
 7907SOL     OW35353   3.473   2.187   1.468 -0.6531  0.1507 -0.1026
 7907SOL    HW135354   3.419   2.250   1.419 -0.4742 -0.4406 -1.0414
 7907SOL    HW235355   3.414   2.153   1.536 -0.9471  0.6990 -0.0755
 7908SOL     OW35356   4.594   4.129   9.026  0.5291  0.3555  0.4362
 7908SOL    HW135357   4.611   4.219   9.000 -0.5600  0.6270  0.6712
 7908SOL    HW235358   4.560   4.140   9.114  2.7808 -0.0835  1.3771
 7909SOL     OW35359   1.390   0.073  12.091  0.3846  0.2188 -0.1146
 7909SOL    HW135360   1.474   0.118  12.082  1.6454 -2.2536 -0.8622
 7909SOL    HW235361   1.406   4.729  12.043 -1.8525 -0.4544  0.2956
 7910SOL     OW35362   4.141   1.613   3.458 -0.1253 -0.2208 -0.1719
 7910SOL    HW135363   4.176   1.685   3.406 -1.8029  0.9215  0.2493
 7910SOL    HW235364   4.131   1.545   3.391 -5.4358 -2.0040  2.3994
 7911SOL     OW35365   1.830   3.384   3.948 -0.1531  0.5463 -0.5483
 7911SOL    HW135366   1.766   3.454   3.939  1.2906  1.9605  0.2974
 7911SOL    HW235367   1.776   3.318   3.992 -0.4584  0.0724 -1.6171
 7912SOL     OW35368   2.068   4.205   6.531  0.2740  0.6308 -0.3880
 7912SOL    HW135369   2.110   4.154   6.462 -0.8535 -0.4424 -0.2889
 7912SOL    HW235370   1.977   4.187   6.507 -0.2178  0.6507  1.4734
 7913SOL     OW35371   1.627   2.513   3.955 -0.4320  0.0795  0.0867
 7913SOL    HW135372   1.579   2.453   3.899 -2.7347  1.7262  0.3345
 7913SOL    HW235373   1.561   2.523   4.024 -0.8337  2.1825 -0.6032
 7914SOL     OW35374   4.172   3.724  10.849 -0.4068  0.7828 -0.7360
 7914SOL    HW135375   4.103   3.749  10.788 -2.8730  0.4532  1.9411
 7914SOL    HW235376   4.131   3.765  10.925 -1.9880 -1.9204 -0.1277
 7915SOL     OW35377   3.990   4.018   4.949  0.2380 -0.1141 -0.5396
 7915SOL    HW135378   4.010   3.926   4.937 -0.8963 -0.4851  0.4799
 7915SOL    HW235379   3.972   4.048   4.860 -0.3036  1.9217  0.2387
 7916SOL     OW35380   1.943   1.857   5.711 -0.7094 -0.2941  0.3070
 7916SOL    HW135381   1.901   1.866   5.797 -0.7729 -1.6428  0.4191
 7916SOL    HW235382   2.035   1.871   5.733 -0.8389 -1.9662  1.9070
 7917SOL     OW35383   1.816   2.833   9.324 -0.3395  0.0363  0.2376
 7917SOL    HW135384   1.814   2.929   9.331 -0.7391  0.0343  0.1303
 7917SOL    HW235385   1.785   2.829   9.234 -2.9597  3.1596  1.0130
 7918SOL     OW35386   2.457   0.043   4.195 -0.6740 -0.0388  0.2682
 7918SOL    HW135387   2.418   0.112   4.249  2.5208  1.1042  1.1267
 7918SOL    HW235388   2.535   0.087   4.160 -1.0518  0.7431  0.4056
 7919SOL     OW35389   3.201   3.102   7.770 -0.1965  0.1336 -0.6413
 7919SOL    HW135390   3.192   3.196   7.752 -0.4709 -0.1096 -1.8022
 7919SOL    HW235391   3.254   3.105   7.849  0.4109 -0.1578 -1.0345
 7920SOL     OW35392   3.292   4.543   6.055  0.4230 -0.4151 -0.3315
 7920SOL    HW135393   3.324   4.477   5.994 -0.0208 -1.9760  1.1092
 7920SOL    HW235394   3.362   4.560   6.119 -0.0702  2.0167 -0.4454
 7921SOL     OW35395   3.008   2.356   8.904  0.0530 -0.5620  0.2807
 7921SOL    HW135396   2.934   2.296   8.898  0.5175 -1.1316  0.2983
 7921SOL    HW235397   3.041   2.349   8.814  0.2077 -0.4247  0.3268
 7922SOL     OW35398   4.205   0.093  16.842  0.2554 -0.0044 -0.4797
 7922SOL    HW135399   4.124   0.084  16.893  0.7295  0.8869  0.4314
 7922SOL    HW235400   4.192   0.182  16.809 -0.7132  0.6157  1.5432
 7923SOL     OW35401   1.382   3.334   6.736  0.1744  0.5448  0.8031
 7923SOL    HW135402   1.371   3.312   6.644  0.2258  2.6117  0.3059
 7923SOL    HW235403   1.473   3.362   6.738  0.1722  0.5951  0.2293
 7924SOL     OW35404   3.798   2.821   1.876  0.1840 -0.0595  0.0829
 7924SOL    HW135405   3.738   2.780   1.813 -1.0443  0.4949  0.8858
 7924SOL    HW235406   3.739   2.837   1.950 -0.3866 -4.4049  0.5778
 7925SOL     OW35407   3.814   0.594   2.010  0.1421  0.1024  0.4296
 7925SOL    HW135408   3.826   0.671   2.066  0.6626  0.0315  0.4114
 7925SOL    HW235409   3.862   0.529   2.061  0.5342 -0.1802 -0.3108
 7926SOL     OW35410   3.561   1.488   4.063 -0.1274 -0.7210 -0.6901
 7926SOL    HW135411   3.496   1.478   4.132  1.2825 -1.4589  0.5044
 7926SOL    HW235412   3.526   1.567   4.022 -0.5078 -0.5510 -0.0351
 7927SOL     OW35413   0.776   1.954   6.353  0.4811 -0.0950 -0.0663
 7927SOL    HW135414   0.845   1.937   6.417  0.1513 -1.6278 -0.1313
 7927SOL    HW235415   0.790   1.869   6.311 -2.0367 -0.2201 -0.6573
 7928SOL     OW35416   1.329   0.863   3.359  0.2193  0.0989 -0.5492
 7928SOL    HW135417   1.269   0.897   3.292 -0.0731 -1.4526 -1.0744
 7928SOL    HW235418   1.342   0.943   3.411  1.6059  1.7885 -3.4989
 7929SOL     OW35419   0.474   2.603   8.598 -0.1635 -0.5026  0.4172
 7929SOL    HW135420   0.565   2.578   8.612 -0.3309 -1.6150 -0.5184
 7929SOL    HW235421   0.476   2.683   8.651 -0.2599 -0.0489 -0.2679
 7930SOL     OW35422   4.603   2.645   7.727  0.5166 -0.2996 -0.7028
 7930SOL    HW135423   4.558   2.664   7.810  1.2765 -0.9845 -0.1358
 7930SOL    HW235424   4.694   2.636   7.754  0.6878 -0.3988 -1.3054
 7931SOL     OW35425   3.199   3.389   7.743 -0.1685  0.4967 -0.3380
 7931SOL    HW135426   3.262   3.448   7.785 -0.2827  1.0992 -1.0186
 7931SOL    HW235427   3.145   3.452   7.696  0.2514 -0.1280 -1.6792
 7932SOL     OW35428   0.093   4.603   9.005 -0.6639 -0.1036 -0.1093
 7932SOL    HW135429   0.111   4.674   8.943 -0.0550 -0.2687 -0.1129
 7932SOL    HW235430   0.179   4.589   9.043 -0.5337  1.9702  0.3631
 7933SOL     OW35431   1.486   2.284   8.797 -0.0912  0.1745 -0.2570
 7933SOL    HW135432   1.493   2.379   8.784  0.8163  0.2606  0.9147
 7933SOL    HW235433   1.407   2.268   8.745  0.0939  0.7882 -0.7226
 7934SOL     OW35434   0.340   3.771   4.476  0.2787 -0.3929  0.2466
 7934SOL    HW135435   0.366   3.744   4.389  0.8305  0.3301  0.1805
 7934SOL    HW235436   0.355   3.866   4.481 -0.5953 -0.2351 -0.0273
 7935SOL     OW35437   1.106   0.960   6.698 -0.0129  0.2896 -0.1816
 7935SOL    HW135438   1.178   0.921   6.649  0.3330 -0.1266  0.6393
 7935SOL    HW235439   1.039   0.892   6.696  0.6491 -0.3960  0.6285
 7936SOL     OW35440   1.120   0.368  17.519 -0.2194 -0.4573  0.2402
 7936SOL    HW135441   1.052   0.436  17.526 -1.1219 -1.2856 -0.5057
 7936SOL    HW235442   1.122   0.325  17.604  0.2797 -0.0763  0.4250
 7937SOL     OW35443   1.797   1.885   6.932  0.3480 -0.5595 -0.6580
 7937SOL    HW135444   1.788   1.955   6.867  0.9179  0.6933  0.6220
 7937SOL    HW235445   1.805   1.805   6.880  0.6226 -1.1560  0.2931
 7938SOL     OW35446   4.215   2.658   8.434  0.1584 -0.4214  0.3902
 7938SOL    HW135447   4.296   2.633   8.477 -0.0067 -0.0315  0.9392
 7938SOL    HW235448   4.146   2.645   8.500  1.2249 -2.3120  1.1278
 7939SOL     OW35449   1.410   0.592   1.297 -0.1953 -0.0419 -0.1444
 7939SOL    HW135450   1.488   0.647   1.303 -0.2267  0.2271 -2.3276
 7939SOL    HW235451   1.344   0.661   1.293 -1.8228 -1.5260  1.3912
 7940SOL     OW35452   1.859   0.156   1.170  0.3122  0.3040  0.0494
 7940SOL    HW135453   1.821   0.104   1.098  1.8054 -1.5237  0.5982
 7940SOL    HW235454   1.915   0.093   1.215  0.0071  0.9081  1.2781
 7941SOL     OW35455   0.797   3.027   5.685  0.3986  0.3605 -0.1149
 7941SOL    HW135456   0.751   3.108   5.704  2.2337  1.4863 -0.5387
 7941SOL    HW235457   0.736   2.993   5.619 -1.5812 -1.8746  2.8819
 7942SOL     OW35458   0.227   2.613   5.588 -0.0205  0.0364 -0.2055
 7942SOL    HW135459   0.164   2.671   5.547  1.2519  0.1553 -1.9701
 7942SOL    HW235460   0.253   2.548   5.523 -0.3725  0.2413 -0.5478
 7943SOL     OW35461   2.747   0.833   8.492  1.1640 -0.4777  0.4746
 7943SOL    HW135462   2.677   0.773   8.465  0.0353  1.1199 -0.1304
 7943SOL    HW235463   2.704   0.917   8.506 -0.7926 -0.8278 -3.5198
 7944SOL     OW35464   1.529   4.199   3.648 -0.1093 -0.0279 -0.5306
 7944SOL    HW135465   1.575   4.173   3.568  0.0718 -0.5773 -0.2411
 7944SOL    HW235466   1.445   4.154   3.638  0.0140  0.3464 -3.3954
 7945SOL     OW35467   3.106   3.446   9.347  0.6084 -0.0736  0.0753
 7945SOL    HW135468   3.183   3.403   9.386 -0.1790 -1.5562 -0.0072
 7945SOL    HW235469   3.075   3.369   9.299 -1.7530  0.6015  0.5542
 7946SOL     OW35470   4.563   2.351  10.580  0.4270 -0.3111  0.3419
 7946SOL    HW135471   4.561   2.259  10.554 -0.9735  0.0483 -0.8227
 7946SOL    HW235472   4.495   2.346  10.646 -0.5870 -1.0350 -0.7602
 7947SOL     OW35473   3.821   3.906   2.297  1.0583  0.3262  0.1120
 7947SOL    HW135474   3.827   3.816   2.327 -0.2303  0.4934  0.8634
 7947SOL    HW235475   3.837   3.951   2.380 -0.2642  2.5155 -0.8146
 7948SOL     OW35476   2.036   3.112   0.733  0.1405  0.3934  0.1119
 7948SOL    HW135477   2.127   3.084   0.725 -0.0491 -0.9515  2.7123
 7948SOL    HW235478   2.040   3.191   0.787 -2.9139 -0.8559  2.1591
 7949SOL     OW35479   1.565   0.304   5.119  0.4823 -0.1221 -0.6776
 7949SOL    HW135480   1.482   0.283   5.162  2.2001 -1.3595  1.9991
 7949SOL    HW235481   1.567   0.223   5.069  1.2060 -0.0013 -0.8403
 7950SOL     OW35482   2.386   0.124   6.540 -0.3708 -0.2060  0.2279
 7950SOL    HW135483   2.359   0.200   6.488  1.7979 -0.0923 -0.7389
 7950SOL    HW235484   2.313   0.104   6.597 -1.9489 -4.1407 -3.1981
 7951SOL     OW35485   2.604   0.272   8.599  0.1894  0.3703 -0.0824
 7951SOL    HW135486   2.563   0.258   8.513 -0.9008  0.8130  0.3711
 7951SOL    HW235487   2.569   0.360   8.612 -0.1278  0.1977  0.2305
 7952SOL     OW35488   2.813   4.394   6.204  0.4514 -0.1773  0.5082
 7952SOL    HW135489   2.843   4.444   6.280 -1.3370 -1.5100  2.0929
 7952SOL    HW235490   2.719   4.381   6.218  0.4325 -0.1872  0.3682
 7953SOL     OW35491   0.077   0.156   6.874 -0.2126  0.2125  0.3818
 7953SOL    HW135492   0.005   0.093   6.868  0.2402 -0.3891  1.3786
 7953SOL    HW235493   0.045   0.230   6.823 -0.0191 -0.8269 -1.2669
 7954SOL     OW35494   1.909   3.812   0.176  0.0413  0.2662  0.2269
 7954SOL    HW135495   1.838   3.872   0.198 -0.9312  0.1419 -2.5635
 7954SOL    HW235496   1.975   3.877   0.157 -1.1461  0.8276 -1.9377
 7955SOL     OW35497   2.803   2.887   9.258 -0.4348  0.2695  0.3339
 7955SOL    HW135498   2.717   2.921   9.234  0.6177  1.5745 -1.5908
 7955SOL    HW235499   2.799   2.793   9.241 -1.9074  0.5075 -0.6373
 7956SOL     OW35500   2.654   4.425   8.249  0.1659 -0.4641 -0.8667
 7956SOL    HW135501   2.613   4.479   8.181  1.8397  0.9999 -0.7067
 7956SOL    HW235502   2.580   4.372   8.277 -0.5553  0.5846 -0.7651
 7957SOL     OW35503   0.055   3.206   9.505 -0.3672  0.4668  0.3874
 7957SOL    HW135504   0.002   3.127   9.507  0.4343 -0.1201 -2.0447
 7957SOL    HW235505   0.002   3.257   9.444  0.1657  0.0163 -0.4584
 7958SOL     OW35506   4.133   2.510   5.809 -0.0370  0.9056  0.4280
 7958SOL    HW135507   4.060   2.508   5.746 -0.1345 -0.1868  0.5609
 7958SOL    HW235508   4.083   2.494   5.889 -0.4738  1.0000  0.1731
 7959SOL     OW35509   0.709   1.996   3.288  0.2668  0.1035  0.0032
 7959SOL    HW135510   0.736   2.001   3.196 -2.0408  0.8343 -0.6328
 7959SOL    HW235511   0.732   1.904   3.299  0.3633  0.3059  1.3836
 7960SOL     OW35512   2.632   0.837  12.230 -0.5475 -0.0721 -0.2461
 7960SOL    HW135513   2.563   0.874  12.284 -0.6991  0.0415 -0.5206
 7960SOL    HW235514   2.684   0.915  12.209 -1.1526 -0.0224 -1.5587
 7961SOL     OW35515   2.869   0.114   5.267 -0.0120  0.0832  0.2555
 7961SOL    HW135516   2.897   0.205   5.280 -0.1817  0.2737 -0.6772
 7961SOL    HW235517   2.821   0.125   5.185  0.2632 -0.9429 -0.0467
 7962SOL     OW35518   2.011   4.000   9.203 -0.1802  0.2274 -0.6698
 7962SOL    HW135519   2.095   3.959   9.223  0.0799  1.4918  0.7954
 7962SOL    HW235520   1.956   3.926   9.177 -1.9184  0.7960  1.3741
 7963SOL     OW35521   0.771   4.249   9.070  0.0794  0.3013 -0.4138
 7963SOL    HW135522   0.814   4.168   9.042  0.1466  0.5461 -1.0222
 7963SOL    HW235523   0.827   4.319   9.036 -1.3264  1.6140 -0.0599
 7964SOL     OW35524   1.776   1.600   7.526 -0.2253 -0.1091 -0.3062
 7964SOL    HW135525   1.685   1.604   7.497 -0.3551 -1.4854 -0.0750
 7964SOL    HW235526   1.781   1.693   7.546 -1.6324 -0.5100  1.8802
 7965SOL     OW35527   2.289   3.757   0.528 -0.3104  0.6127 -0.3150
 7965SOL    HW135528   2.256   3.737   0.440  0.6635  0.8975 -0.7579
 7965SOL    HW235529   2.356   3.817   0.495 -1.7652  0.0656 -4.3109
 7966SOL     OW35530   1.319   0.692   6.895  0.6502 -0.5452  0.1635
 7966SOL    HW135531   1.363   0.727   6.818  0.6616  2.5456  1.5879
 7966SOL    HW235532   1.361   0.749   6.959 -0.9588  1.0665 -0.2168
 7967SOL     OW35533   4.505   3.171  17.616 -0.2102 -0.3340 -0.1521
 7967SOL    HW135534   4.419   3.181  17.656  0.1930 -0.1056  0.6606
 7967SOL    HW235535   4.478   3.159  17.525 -0.1657 -0.6634 -0.1209
 7968SOL     OW35536   3.184   3.743   8.493  0.0611  0.8615  0.1210
 7968SOL    HW135537   3.197   3.724   8.586 -1.8301 -0.5007  0.0920
 7968SOL    HW235538   3.274   3.744   8.458  0.5171  0.5126  1.2975
 7969SOL     OW35539   3.993   0.021   3.080 -0.2887  0.6606  0.3524
 7969SOL    HW135540   4.072   0.073   3.065  0.3973 -0.1976  0.9690
 7969SOL    HW235541   4.025   4.690   3.140 -1.4882  1.8931  2.3973
 7970SOL     OW35542   1.914   2.953   6.390  0.2627 -0.3584  0.2635
 7970SOL    HW135543   1.953   2.868   6.409  1.9230  0.4183  0.3429
 7970SOL    HW235544   1.964   3.009   6.449  2.0752  0.1617 -1.7402
 7971SOL     OW35545   0.784   0.028   3.720 -0.5894  0.0325 -0.3519
 7971SOL    HW135546   0.751   0.085   3.790 -0.3812 -0.6641  0.3084
 7971SOL    HW235547   0.820   4.690   3.766 -0.6607 -0.5914 -1.2939
 7972SOL     OW35548   3.204   2.002   5.409 -0.3544  0.1497  0.4820
 7972SOL    HW135549   3.204   2.086   5.363 -0.2493  0.1859  0.5485
 7972SOL    HW235550   3.204   1.934   5.342  0.0958  1.1589 -0.5377
 7973SOL     OW35551   3.015   1.554   7.818  0.2713  0.2920  0.7344
 7973SOL    HW135552   2.967   1.474   7.794  1.9168  0.1024 -1.9403
 7973SOL    HW235553   3.073   1.539   7.893  0.7997  0.0542  0.2785
 7974SOL     OW35554   1.017   4.563   4.131  0.0020 -0.3157 -0.3809
 7974SOL    HW135555   1.019   4.517   4.215 -2.7786  0.6325  0.2451
 7974SOL    HW235556   1.102   4.541   4.094  1.6514  1.9158  2.1185
 7975SOL     OW35557   3.713   1.196   8.246  0.3080 -0.4736  0.6229
 7975SOL    HW135558   3.767   1.177   8.170  1.3149 -2.1143  1.7437
 7975SOL    HW235559   3.764   1.273   8.269 -0.5695 -0.5241  2.7510
 7976SOL     OW35560   1.357   4.614  13.498  0.1410 -0.1135  0.1780
 7976SOL    HW135561   1.379   4.614  13.592 -1.3273  3.8815  0.5203
 7976SOL    HW235562   1.310   4.530  13.490  1.1613 -0.5034 -1.5675
 7977SOL     OW35563   0.778   1.761   0.970 -0.4056  0.2020 -0.4773
 7977SOL    HW135564   0.785   1.770   0.875 -0.2445 -1.9534 -0.6554
 7977SOL    HW235565   0.740   1.843   1.001 -0.3799  0.4771 -1.1567
 7978SOL     OW35566   0.625   3.505   2.467  0.2701  0.4284 -0.5754
 7978SOL    HW135567   0.668   3.571   2.414 -3.1504  1.5927 -1.8832
 7978SOL    HW235568   0.544   3.479   2.423  0.3520  0.5549 -0.7976
 7979SOL     OW35569   1.334   3.562   5.276  0.4004  0.2858 -0.7938
 7979SOL    HW135570   1.333   3.521   5.362 -2.1848 -0.0716 -0.9854
 7979SOL    HW235571   1.247   3.603   5.280  0.5001  0.5150 -0.9436
 7980SOL     OW35572   3.331   3.337  16.634 -0.3987 -0.1349  0.1330
 7980SOL    HW135573   3.314   3.376  16.720  1.5804 -0.6860  0.7938
 7980SOL    HW235574   3.362   3.412  16.584 -3.0038  0.5552 -0.4319
 7981SOL     OW35575   4.324   2.920   1.841 -0.3558 -0.2578  0.3177
 7981SOL    HW135576   4.395   2.950   1.784 -0.4306 -1.1881 -0.2546
 7981SOL    HW235577   4.244   2.946   1.796 -1.6558 -3.2059  0.9425
 7982SOL     OW35578   1.501   2.579   7.697  0.3004  0.5091 -0.7686
 7982SOL    HW135579   1.421   2.541   7.660 -0.9442 -0.3865  2.8688
 7982SOL    HW235580   1.465   2.591   7.785 -0.7415  0.5279 -1.1924
 7983SOL     OW35581   4.207   4.495  15.159 -0.6103 -0.2543 -0.2197
 7983SOL    HW135582   4.137   4.494  15.093 -1.7893 -0.5000  1.0481
 7983SOL    HW235583   4.258   4.570  15.129 -0.6330 -0.8163 -1.6810
 7984SOL     OW35584   4.365   2.608   9.384  0.3553 -0.0697  0.1559
 7984SOL    HW135585   4.356   2.570   9.297  1.5344  1.5522 -0.6698
 7984SOL    HW235586   4.309   2.681   9.361 -0.8174 -1.2371 -0.7010
 7985SOL     OW35587   4.726   1.552   2.101  0.0108 -0.6621  0.2300
 7985SOL    HW135588   0.054   1.501   2.053  0.7436  1.4536 -1.0402
 7985SOL    HW235589   4.716   1.503   2.183 -1.8271  0.3028  0.5965
 7986SOL     OW35590   0.839   4.700   3.989  0.1060 -0.2158 -0.0282
 7986SOL    HW135591   0.768   4.636   3.978 -1.4510  1.5501 -0.3792
 7986SOL    HW235592   0.914   4.644   4.010  1.6827  1.5863 -0.9113
 7987SOL     OW35593   4.592   4.545   5.803 -0.0389  0.2314 -0.4789
 7987SOL    HW135594   4.614   4.638   5.811  0.0001  0.2462 -0.7506
 7987SOL    HW235595   4.511   4.550   5.752  0.9676 -0.0954 -2.1130
 7988SOL     OW35596   3.426   2.451  12.625 -0.4054  0.5907  0.4001
 7988SOL    HW135597   3.443   2.479  12.715 -0.5856  2.1078 -0.0403
 7988SOL    HW235598   3.422   2.358  12.647 -2.0997  0.3191 -1.0121
 7989SOL     OW35599   0.817   1.883   6.720 -0.3313 -0.4412  0.7006
 7989SOL    HW135600   0.855   1.815   6.776 -0.4594 -1.3943 -0.3667
 7989SOL    HW235601   0.858   1.869   6.634 -1.2785  2.5860 -0.2656
 7990SOL     OW35602   0.780   3.352  14.998  0.2688  0.2859 -0.2063
 7990SOL    HW135603   0.863   3.308  14.980  0.3245  0.5070 -0.4872
 7990SOL    HW235604   0.806   3.443  15.010  1.8423 -0.3101  0.9715
 7991SOL     OW35605   3.397   3.377   6.403 -0.3239 -0.9803 -0.5653
 7991SOL    HW135606   3.469   3.316   6.419  0.2193 -0.4302 -0.9252
 7991SOL    HW235607   3.354   3.358   6.487  2.9286 -1.6205  0.9620
 7992SOL     OW35608   2.642   4.247   1.380  0.2081 -0.0166  0.1144
 7992SOL    HW135609   2.658   4.276   1.290 -3.4839  1.4013 -0.0994
 7992SOL    HW235610   2.580   4.316   1.403 -1.9321 -2.5349  2.0287
 7993SOL     OW35611   4.446   0.346  14.386 -0.0780 -0.0162 -0.2639
 7993SOL    HW135612   4.395   0.414  14.429 -0.8883 -0.0132 -1.2524
 7993SOL    HW235613   4.386   0.295  14.333  2.1833 -1.6885 -1.2428
 7994SOL     OW35614   1.872   4.239   5.357 -0.3571  0.3850  0.5344
 7994SOL    HW135615   1.915   4.205   5.436 -1.9548 -1.8067  0.4633
 7994SOL    HW235616   1.865   4.327   5.392  2.8517  1.1663 -0.7836
 7995SOL     OW35617   2.827   2.981  14.108 -0.1847 -0.2190 -0.0334
 7995SOL    HW135618   2.795   3.068  14.083  0.2083 -0.8276 -2.6273
 7995SOL    HW235619   2.809   2.927  14.032  1.1090 -0.5156 -0.1191
 7996SOL     OW35620   1.836   0.243  14.838  0.2592 -0.0701  0.2180
 7996SOL    HW135621   1.870   0.252  14.927 -0.1446 -2.1390  0.5754
 7996SOL    HW235622   1.862   0.154  14.814 -0.4925  0.2207 -1.6466
 7997SOL     OW35623   2.424   3.276   8.121 -0.3639 -0.5923  0.6677
 7997SOL    HW135624   2.499   3.228   8.086  0.4948  0.2860  1.2981
 7997SOL    HW235625   2.462   3.338   8.183 -0.6889  0.6051 -0.3494
 7998SOL     OW35626   0.694   1.027  17.308 -0.1226  0.1058  0.5029
 7998SOL    HW135627   0.712   1.070  17.392 -1.8369  1.0801  0.3559
 7998SOL    HW235628   0.782   1.047  17.275 -0.8956 -0.2116 -1.6847
 7999SOL     OW35629   3.993   1.636   7.311 -0.7602  0.5647 -0.1850
 7999SOL    HW135630   4.021   1.725   7.293  2.7815  0.1778  3.6812
 7999SOL    HW235631   4.063   1.572   7.296 -1.6173 -0.1887 -1.0573
 8000SOL     OW35632   3.650   4.498   3.072 -0.1033 -0.5851 -0.0230
 8000SOL    HW135633   3.635   4.408   3.040  2.5725 -1.3809  0.9821
 8000SOL    HW235634   3.599   4.548   3.008  1.2473 -0.1041 -0.7191
 8001SOL     OW35635   1.496   0.971   2.713 -0.2207 -0.2592  0.3018
 8001SOL    HW135636   1.572   1.026   2.728  0.2685 -1.5255  2.4264
 8001SOL    HW235637   1.532   0.883   2.706  0.1876 -0.0631 -0.0844
 8002SOL     OW35638   2.294   1.837  16.410 -0.1767  0.4238  0.0748
 8002SOL    HW135639   2.250   1.759  16.444  1.8155 -1.3349 -1.3261
 8002SOL    HW235640   2.315   1.880  16.493  2.4697  0.1402 -0.4521
 8003SOL     OW35641   0.670   1.253   4.004 -0.1669 -0.0045 -0.1645
 8003SOL    HW135642   0.633   1.337   4.031  3.5784  1.0304  1.6801
 8003SOL    HW235643   0.634   1.199   4.075  0.3576 -1.3749 -0.9237
 8004SOL     OW35644   1.278   4.474   4.493 -0.0792 -0.3687  0.1989
 8004SOL    HW135645   1.275   4.565   4.523 -0.4119  0.0712 -1.1433
 8004SOL    HW235646   1.295   4.430   4.576  0.7994  0.6827  0.5840
 8005SOL     OW35647   3.061   3.172  16.303 -0.0872  0.4079 -0.0465
 8005SOL    HW135648   2.969   3.144  16.297 -0.0991  0.4856 -0.2117
 8005SOL    HW235649   3.103   3.121  16.373 -0.2934 -0.9571 -0.9111
 8006SOL     OW35650   1.093   0.878   8.905 -0.0779 -0.0564  0.3889
 8006SOL    HW135651   1.004   0.860   8.936 -0.2024 -1.4316 -0.7515
 8006SOL    HW235652   1.104   0.791   8.866 -0.4628 -0.7297  1.7684
 8007SOL     OW35653   3.421   4.393   9.248 -0.6401 -0.6338 -0.3981
 8007SOL    HW135654   3.490   4.367   9.186 -0.5580 -4.1903  1.1482
 8007SOL    HW235655   3.362   4.318   9.247 -0.6418 -0.6029 -2.0217
 8008SOL     OW35656   4.606   1.889  15.879 -0.2088 -0.2699  0.0003
 8008SOL    HW135657   4.670   1.942  15.832  2.5886 -0.4604  3.5970
 8008SOL    HW235658   4.648   1.886  15.965 -0.1182  0.1848 -0.0311
 8009SOL     OW35659   3.431   0.315   2.255 -0.6134 -0.6853  0.6448
 8009SOL    HW135660   3.374   0.391   2.268  0.2125 -0.2371  1.6982
 8009SOL    HW235661   3.371   0.248   2.288 -1.2753 -1.4998 -2.2355
 8010SOL     OW35662   3.798   2.445   7.538  0.1064 -0.2654 -0.5323
 8010SOL    HW135663   3.739   2.452   7.612  0.6527  2.6575 -0.3437
 8010SOL    HW235664   3.881   2.419   7.578 -0.6596  0.7152  1.6948
 8011SOL     OW35665   1.624   1.324   4.760 -0.2066 -0.4493  0.1740
 8011SOL    HW135666   1.571   1.245   4.749  0.5723 -0.9598  0.0972
 8011SOL    HW235667   1.696   1.303   4.701  0.4974 -1.3589  1.3551
 8012SOL     OW35668   3.071   0.598   4.848  0.3685  0.3337 -0.3725
 8012SOL    HW135669   3.082   0.691   4.869  0.9740 -0.6620  3.8336
 8012SOL    HW235670   3.119   0.551   4.916  2.3192 -1.4897 -3.0325
 8013SOL     OW35671   1.400   4.592   6.050  0.2088  0.0468 -1.0496
 8013SOL    HW135672   1.366   4.674   6.084  0.0878 -0.3015 -0.3186
 8013SOL    HW235673   1.333   4.529   6.076  1.0728  0.8676  3.2858
 8014SOL     OW35674   4.279   0.517   2.061 -0.3249  0.0521 -0.4544
 8014SOL    HW135675   4.231   0.600   2.068  2.2587  1.5241  0.1927
 8014SOL    HW235676   4.322   0.524   1.975 -0.2985 -0.1239 -0.4556
 8015SOL     OW35677   0.893   4.459   8.944  0.3291  0.0543  0.3144
 8015SOL    HW135678   0.987   4.445   8.947  0.2873 -0.0880  0.9542
 8015SOL    HW235679   0.881   4.544   8.902 -0.8487  0.0744  0.6665
 8016SOL     OW35680   2.157   3.977  14.163  0.8070  0.2302  0.5722
 8016SOL    HW135681   2.070   3.944  14.188  0.0759  2.1635  0.5797
 8016SOL    HW235682   2.168   4.044  14.230  1.9751  1.5667 -0.9445
 8017SOL     OW35683   0.092   3.274   5.872 -0.2575  0.4985 -0.0484
 8017SOL    HW135684   0.047   3.249   5.791 -1.1680  0.2299  0.5363
 8017SOL    HW235685   0.183   3.247   5.859 -0.3309  0.4257 -0.4207
 8018SOL     OW35686   2.512   3.089  16.297 -0.1492  0.2519 -0.8816
 8018SOL    HW135687   2.446   3.022  16.277  0.1582 -0.5759  0.8566
 8018SOL    HW235688   2.455   3.166  16.294 -0.4627  0.0292 -0.6797
 8019SOL     OW35689   2.132   4.217  17.618  0.1858  0.3461  0.1679
 8019SOL    HW135690   2.091   4.287  17.566  0.5980  0.5853  0.1675
 8019SOL    HW235691   2.196   4.269  17.665  0.8877  0.2807 -0.7147
 8020SOL     OW35692   4.209   2.541  17.653 -0.4698  0.3964 -0.3350
 8020SOL    HW135693   4.295   2.500  17.652 -0.9194 -0.5737  1.3422
 8020SOL    HW235694   4.222   2.605  17.722  1.0916 -0.9202  0.5894
 8021SOL     OW35695   0.841   2.596  17.392  0.0813  0.5238 -0.4629
 8021SOL    HW135696   0.826   2.591  17.298 -0.5813  0.9403 -0.3785
 8021SOL    HW235697   0.933   2.624  17.402  0.3717 -0.7712  0.5637
 8022SOL     OW35698   1.810   1.632   7.883 -0.1893 -0.2163 -0.2510
 8022SOL    HW135699   1.748   1.702   7.862  2.4008  1.8121 -1.1484
 8022SOL    HW235700   1.745   1.566   7.904  0.5937 -0.7064  0.6642
 8023SOL     OW35701   2.788   3.764   8.140 -0.1719 -0.4143  0.0894
 8023SOL    HW135702   2.869   3.813   8.155 -0.9663  1.3869 -1.5255
 8023SOL    HW235703   2.815   3.675   8.122 -0.7865 -0.4743 -0.5416
 8024SOL     OW35704   3.676   0.152  13.976 -0.8119  0.4980  0.3637
 8024SOL    HW135705   3.679   0.246  13.995 -1.7957  0.1535  2.2100
 8024SOL    HW235706   3.657   0.142  13.882 -0.7966 -0.0209  0.4179
 8025SOL     OW35707   4.406   0.630   6.686 -0.0673  0.3192  0.9036
 8025SOL    HW135708   4.365   0.554   6.727 -1.6284 -0.5556 -2.3255
 8025SOL    HW235709   4.486   0.600   6.643 -0.7269 -2.3706  1.5379
 8026SOL     OW35710   2.789   0.099   8.019 -0.5766 -0.5426 -0.0037
 8026SOL    HW135711   2.807   0.131   7.930 -3.7743 -1.5271 -1.0204
 8026SOL    HW235712   2.795   0.182   8.066 -0.0303  0.3702 -1.6668
 8027SOL     OW35713   3.316   3.753   4.001 -0.1822  0.2158 -0.3655
 8027SOL    HW135714   3.385   3.776   4.062 -0.9929  1.4259  0.0941
 8027SOL    HW235715   3.239   3.770   4.055  0.6966  2.5553  0.1026
 8028SOL     OW35716   3.748   2.831   3.185 -0.0077 -0.3217  0.2032
 8028SOL    HW135717   3.714   2.832   3.095  0.3588  3.2302  0.0734
 8028SOL    HW235718   3.689   2.880   3.242 -0.4073 -0.1404 -0.3694
 8029SOL     OW35719   1.044   3.280   2.206 -0.3153  0.1794  0.5705
 8029SOL    HW135720   1.106   3.348   2.231  0.7489 -1.4041  2.2161
 8029SOL    HW235721   0.964   3.315   2.245 -0.1736 -1.1413  2.0311
 8030SOL     OW35722   0.914   0.772   5.274  0.2045 -0.0622  0.3208
 8030SOL    HW135723   0.952   0.842   5.328  0.6280  0.3695 -0.5365
 8030SOL    HW235724   0.915   0.812   5.187  0.7168 -2.2571 -0.6696
 8031SOL     OW35725   2.149   0.783  10.072  0.1971  0.1606  0.1904
 8031SOL    HW135726   2.093   0.717  10.030  1.1121 -0.2640 -0.3559
 8031SOL    HW235727   2.195   0.821   9.997  2.2925 -0.0512  1.3773
 8032SOL     OW35728   4.315   1.876   5.891 -0.0307 -0.2640  0.2660
 8032SOL    HW135729   4.355   1.925   5.820  1.8420 -0.9156  0.8495
 8032SOL    HW235730   4.322   1.787   5.854 -2.3928 -0.7973  1.1302
 8033SOL     OW35731   4.598   1.435  12.538 -0.4854  0.7070  0.4415
 8033SOL    HW135732   4.535   1.374  12.499  2.0238 -1.9631  0.5082
 8033SOL    HW235733   4.541   1.471  12.605 -1.0652  0.9298 -0.1706
 8034SOL     OW35734   4.699   1.992   6.419  0.4165 -0.6586  0.1980
 8034SOL    HW135735   4.729   2.063   6.362  1.6142 -0.2568  1.3230
 8034SOL    HW235736   4.731   1.913   6.374 -0.0089  0.6088 -2.3606
 8035SOL     OW35737   0.277   0.953   3.094 -0.5142 -0.2721 -0.0400
 8035SOL    HW135738   0.349   0.990   3.144 -2.0672  1.4805  0.8856
 8035SOL    HW235739   0.222   0.918   3.164  1.0763  1.5183  2.1024
 8036SOL     OW35740   3.118   2.591   1.500 -0.2240 -0.0769  0.0335
 8036SOL    HW135741   3.072   2.673   1.518  0.1752  0.4641 -1.4677
 8036SOL    HW235742   3.065   2.551   1.431 -1.3435  0.8704  0.3435
 8037SOL     OW35743   4.223   2.380   7.164 -0.0563 -0.3741  0.0429
 8037SOL    HW135744   4.192   2.440   7.233  2.1316  1.8203 -0.8846
 8037SOL    HW235745   4.184   2.295   7.185  1.1219 -0.9399 -0.0670
 8038SOL     OW35746   0.205   2.351   8.397  0.1347 -0.1497 -0.1797
 8038SOL    HW135747   0.212   2.380   8.488 -1.7345 -1.9793  0.5589
 8038SOL    HW235748   0.110   2.361   8.386 -0.0259  0.0709  1.3215
 8039SOL     OW35749   1.825   3.904  15.326 -0.3368 -0.1723  0.8929
 8039SOL    HW135750   1.888   3.919  15.397  0.1769  0.7953  0.2330
 8039SOL    HW235751   1.888   3.896  15.255  0.3840  0.6955  1.4226
 8040SOL     OW35752   2.178   4.305   2.563 -0.0156  0.1232  0.4084
 8040SOL    HW135753   2.115   4.263   2.506 -0.6104  0.6013  0.7121
 8040SOL    HW235754   2.151   4.264   2.646 -0.1708  1.5530  1.0640
 8041SOL     OW35755   4.694   4.166   0.973  0.7853  0.1539  0.4820
 8041SOL    HW135756   0.018   4.208   0.913  0.1849  0.2344 -0.0726
 8041SOL    HW235757   0.004   4.083   0.979 -0.4617 -0.6048 -0.4661
 8042SOL     OW35758   0.940   3.528  16.485  0.7719 -0.1384 -0.0458
 8042SOL    HW135759   0.924   3.622  16.484 -1.8409 -0.5396  3.4671
 8042SOL    HW235760   1.027   3.531  16.526  1.4322 -1.8302 -1.3390
 8043SOL     OW35761   4.498   4.430   9.653 -0.3966  0.3359 -0.4343
 8043SOL    HW135762   4.453   4.443   9.736 -2.4681  0.4605 -1.5918
 8043SOL    HW235763   4.434   4.437   9.582 -0.4490 -0.8674 -0.5043
 8044SOL     OW35764   0.844   1.580   2.304 -0.2529  0.8943  0.7957
 8044SOL    HW135765   0.782   1.577   2.230 -0.1972 -1.4844  0.8448
 8044SOL    HW235766   0.921   1.610   2.257  1.2094 -1.3892  1.7508
 8045SOL     OW35767   2.295   2.563  11.567  0.4521 -0.4093 -0.1715
 8045SOL    HW135768   2.347   2.644  11.565  1.9031 -1.3850 -1.0258
 8045SOL    HW235769   2.238   2.574  11.491 -0.0414  2.5861  0.6032
 8046SOL     OW35770   1.415   3.525   8.122  0.1503  0.3956  0.4976
 8046SOL    HW135771   1.416   3.430   8.130 -1.7509  0.2351 -1.2590
 8046SOL    HW235772   1.404   3.525   8.027  3.4484  2.5236  0.0786
 8047SOL     OW35773   3.674   0.098   5.464  0.0256 -0.2387 -0.2663
 8047SOL    HW135774   3.599   0.041   5.447  0.6261 -1.0714 -0.1750
 8047SOL    HW235775   3.636   0.166   5.519 -1.3425  0.2761 -1.8421
 8048SOL     OW35776   2.993   2.399   2.763  0.2485 -0.1010 -0.1939
 8048SOL    HW135777   2.939   2.383   2.840  1.0347 -0.1815  0.3454
 8048SOL    HW235778   3.070   2.344   2.777 -0.9741 -1.2244  2.0596
 8049SOL     OW35779   3.762   0.143   1.134  0.1680 -0.0666  0.8950
 8049SOL    HW135780   3.844   0.152   1.182  1.2878 -1.1926 -0.7851
 8049SOL    HW235781   3.703   0.135   1.209 -0.4277  0.1139  0.4455
 8050SOL     OW35782   3.692   2.282  10.174 -0.6449  0.1785  0.4948
 8050SOL    HW135783   3.643   2.361  10.200 -1.6361  0.6669 -2.7767
 8050SOL    HW235784   3.760   2.331  10.129  0.6564 -0.5131  1.7326
 8051SOL     OW35785   1.345   2.881  12.379 -0.3830 -0.6215 -0.1089
 8051SOL    HW135786   1.255   2.848  12.387 -0.3596  0.3384  3.8840
 8051SOL    HW235787   1.373   2.920  12.462 -0.7164  0.0299 -0.2997
 8052SOL     OW35788   4.340   2.139   1.395  0.3608 -0.3280 -0.0392
 8052SOL    HW135789   4.363   2.089   1.474 -1.7680 -2.0655 -0.5238
 8052SOL    HW235790   4.247   2.119   1.398  0.8653 -2.8682 -0.5260
 8053SOL     OW35791   2.911   0.774   6.608 -0.2687  0.1493  0.0795
 8053SOL    HW135792   2.985   0.830   6.630  1.2698 -2.0977  0.5650
 8053SOL    HW235793   2.873   0.804   6.526  0.0237 -1.8974 -0.8010
 8054SOL     OW35794   2.487   3.492   6.472  0.1686  0.7847  0.1930
 8054SOL    HW135795   2.433   3.475   6.549  1.0268 -0.0817  0.6050
 8054SOL    HW235796   2.423   3.483   6.401  2.1302 -1.4372 -1.3185
 8055SOL     OW35797   0.938   2.602   5.267 -0.2098  0.4540  0.0548
 8055SOL    HW135798   0.973   2.592   5.355  1.3524 -0.6893 -0.7072
 8055SOL    HW235799   1.002   2.662   5.228  0.8000 -0.7747 -0.1765
 8056SOL     OW35800   3.763   4.153   7.235 -0.3697 -0.8716  0.4105
 8056SOL    HW135801   3.705   4.227   7.217  1.1814  0.2662  0.1109
 8056SOL    HW235802   3.695   4.086   7.240  0.2837 -1.7210 -2.0923
 8057SOL     OW35803   1.256   2.450   7.630 -1.0733  0.6619 -0.1858
 8057SOL    HW135804   1.288   2.373   7.676 -0.7995  1.5742  1.1535
 8057SOL    HW235805   1.192   2.413   7.568 -0.1303 -1.7173  0.2652
 8058SOL     OW35806   1.777   0.361   7.215  0.4618  0.1892  0.5588
 8058SOL    HW135807   1.757   0.296   7.148  0.3554  1.1098 -0.2866
 8058SOL    HW235808   1.687   0.383   7.241  0.4874 -0.5388  1.2641
 8059SOL     OW35809   0.427   2.686   7.559 -0.1631 -0.4491 -0.4188
 8059SOL    HW135810   0.387   2.695   7.473  0.1065 -1.0283 -0.6045
 8059SOL    HW235811   0.517   2.711   7.539 -0.4294  1.7964  1.1941
 8060SOL     OW35812   2.111   2.704   2.434  1.1891  0.2749  0.3461
 8060SOL    HW135813   2.125   2.610   2.439 -2.7922 -0.1942  2.9134
 8060SOL    HW235814   2.175   2.721   2.365  1.2858  0.6850  0.5365
 8061SOL     OW35815   3.724   3.813  16.789 -0.2086 -0.0671  0.0362
 8061SOL    HW135816   3.655   3.765  16.743  1.8001 -4.3461  1.5336
 8061SOL    HW235817   3.796   3.806  16.726  1.1020  1.3589  1.4092
 8062SOL     OW35818   4.584   3.845  11.268 -0.1587 -0.0380 -0.3211
 8062SOL    HW135819   4.540   3.782  11.325 -3.9162  1.2465 -1.8021
 8062SOL    HW235820   4.654   3.786  11.240  1.5809  0.8138  2.2334
 8063SOL     OW35821   2.673   1.313   0.266  0.4688  0.1061 -0.2581
 8063SOL    HW135822   2.626   1.396   0.261 -1.2624 -0.7763  1.4771
 8063SOL    HW235823   2.688   1.302   0.359  1.7102  2.8959 -0.1395
 8064SOL     OW35824   2.779   1.339   3.505  0.4296  0.0829 -0.1733
 8064SOL    HW135825   2.729   1.263   3.476  0.7318 -0.8309  1.6705
 8064SOL    HW235826   2.706   1.400   3.520 -0.3896 -1.5591  2.5067
 8065SOL     OW35827   2.182   3.558   2.068  0.4700 -0.2999 -0.3240
 8065SOL    HW135828   2.091   3.583   2.085  1.2057  0.9845  1.6743
 8065SOL    HW235829   2.205   3.509   2.147  0.6037 -0.2275 -0.3181
 8066SOL     OW35830   0.902   1.561  13.410  0.5748  0.2740  0.1352
 8066SOL    HW135831   0.827   1.541  13.353  1.3549 -0.2098 -0.7222
 8066SOL    HW235832   0.927   1.645  13.373 -0.1019  0.8636  1.0145
 8067SOL     OW35833   3.405   4.098   3.435  0.0028 -0.0630  0.3198
 8067SOL    HW135834   3.472   4.127   3.496 -0.3217  0.2197  0.5402
 8067SOL    HW235835   3.331   4.145   3.474 -0.4306  0.8443 -1.5865
 8068SOL     OW35836   4.432   2.832   5.107 -0.1539  0.3622  0.1212
 8068SOL    HW135837   4.507   2.871   5.062 -0.0467  0.3029  0.2481
 8068SOL    HW235838   4.460   2.833   5.199 -3.3094 -0.0097  1.0906
 8069SOL     OW35839   4.171   4.466   6.266 -0.0211 -0.4805  0.1743
 8069SOL    HW135840   4.242   4.438   6.208  0.5527 -0.6136  0.9368
 8069SOL    HW235841   4.116   4.518   6.207 -1.0084 -0.0006  1.5135
 8070SOL     OW35842   1.635   4.180   5.224  0.1142 -0.1271 -0.5436
 8070SOL    HW135843   1.725   4.169   5.254  0.4937 -1.6068 -2.2764
 8070SOL    HW235844   1.638   4.275   5.208 -1.9330  0.3167  1.7243
 8071SOL     OW35845   2.793   4.553  11.157 -0.3814 -0.1689 -0.2744
 8071SOL    HW135846   2.706   4.530  11.123 -0.8754  1.2702  0.0009
 8071SOL    HW235847   2.793   4.647  11.141 -2.6295 -0.0891  0.1297
 8072SOL     OW35848   2.317   3.814  10.306  0.2186  0.0129 -0.5139
 8072SOL    HW135849   2.258   3.843  10.376 -1.1779 -0.4374 -1.4879
 8072SOL    HW235850   2.368   3.754  10.360 -1.4855 -1.7691 -0.8576
 8073SOL     OW35851   0.094   3.935   4.428 -0.0661 -0.4715  0.0569
 8073SOL    HW135852   0.147   3.857   4.442 -2.0599 -1.8515 -0.0341
 8073SOL    HW235853   0.077   3.966   4.517  0.0114  2.2140 -0.8853
 8074SOL     OW35854   3.617   2.005  13.110  0.1739  0.0499  0.2096
 8074SOL    HW135855   3.557   1.981  13.180  1.4482 -2.1634  0.5463
 8074SOL    HW235856   3.628   2.099  13.124 -0.8204  0.3691 -1.0905
 8075SOL     OW35857   1.905   0.108   3.444  0.2123  0.0746 -0.0205
 8075SOL    HW135858   1.848   0.085   3.371  2.6863  0.9228 -2.2294
 8075SOL    HW235859   1.899   0.030   3.499 -1.2422  0.0093 -0.2675
 8076SOL     OW35860   3.413   4.638   0.137 -0.5272 -0.7097  0.1134
 8076SOL    HW135861   3.472   4.675   0.202 -1.1024  0.9156 -0.2694
 8076SOL    HW235862   3.329   4.671   0.170  0.6539  0.7358  1.7191
 8077SOL     OW35863   1.577   2.644   3.708 -0.3462  0.3971  0.1304
 8077SOL    HW135864   1.615   2.621   3.793 -1.1082 -1.3642 -0.0029
 8077SOL    HW235865   1.545   2.559   3.678  3.5989 -0.8951 -0.5297
 8078SOL     OW35866   2.888   2.280   4.402  0.1605  0.0616  0.4674
 8078SOL    HW135867   2.844   2.276   4.317  1.3406  0.2142 -0.1451
 8078SOL    HW235868   2.948   2.352   4.385 -0.1597  0.4472  0.9683
 8079SOL     OW35869   4.412   0.280   1.725 -0.0982  0.1827  0.9187
 8079SOL    HW135870   4.437   0.188   1.731 -0.9423  0.0122  1.8100
 8079SOL    HW235871   4.316   0.283   1.732 -0.2100 -0.6913 -0.3829
 8080SOL     OW35872   0.786   1.163   4.986  0.7800  0.2840  0.3916
 8080SOL    HW135873   0.804   1.147   4.894 -0.5715 -0.4588  0.2495
 8080SOL    HW235874   0.859   1.119   5.030  1.2160  1.1886  0.5666
 8081SOL     OW35875   2.146   4.337   0.478 -0.0007  0.5056  0.3557
 8081SOL    HW135876   2.118   4.304   0.392 -1.1928  0.2944  0.8183
 8081SOL    HW235877   2.107   4.424   0.482 -0.0142  0.5704 -1.1285
 8082SOL     OW35878   2.071   3.049   8.008 -0.5553 -0.0471 -0.2110
 8082SOL    HW135879   2.145   2.990   8.025 -2.7644 -2.1017  2.3569
 8082SOL    HW235880   2.074   3.063   7.914  1.3572 -2.0403 -0.4646
 8083SOL     OW35881   4.061   3.625   1.285  0.3827  0.2946 -0.0037
 8083SOL    HW135882   4.126   3.631   1.354 -0.9878  0.9981  1.2320
 8083SOL    HW235883   3.990   3.589   1.339  0.1276  0.1466 -0.4357
 8084SOL     OW35884   1.071   4.303   7.886  0.0740 -0.1747 -0.2571
 8084SOL    HW135885   1.082   4.252   7.966 -0.2359  0.5820  0.2744
 8084SOL    HW235886   1.151   4.353   7.870 -0.1264  0.4242  0.5950
 8085SOL     OW35887   0.540   4.319  15.818  0.2819 -0.2151 -0.2528
 8085SOL    HW135888   0.607   4.361  15.872 -0.6682  0.8954  0.0791
 8085SOL    HW235889   0.523   4.384  15.750  0.1488  2.0898  1.9417
 8086SOL     OW35890   0.147   1.515   6.277 -0.2127  0.2187 -0.3320
 8086SOL    HW135891   0.207   1.582   6.310  0.2327 -0.7445  0.7915
 8086SOL    HW235892   0.163   1.448   6.344 -0.2679 -2.0401 -2.6077
 8087SOL     OW35893   0.506   0.821   4.809 -0.4521 -0.1023 -0.2698
 8087SOL    HW135894   0.586   0.834   4.759 -0.9091 -1.0579 -1.2678
 8087SOL    HW235895   0.544   0.801   4.894  0.8586  1.5894 -0.4486
 8088SOL     OW35896   1.996   3.274  11.732  0.1154  0.1726  0.5906
 8088SOL    HW135897   1.950   3.358  11.726  0.9627  0.6650  0.8661
 8088SOL    HW235898   1.999   3.244  11.642 -0.0279  1.1261  0.2698
 8089SOL     OW35899   4.376   3.187  13.530  0.0467 -0.3091  0.4963
 8089SOL    HW135900   4.290   3.201  13.490  0.4197  1.1192  0.2184
 8089SOL    HW235901   4.437   3.188  13.456 -1.8070 -0.4039 -1.0582
 8090SOL     OW35902   2.644   4.733  11.004 -0.1393  0.6841 -0.1861
 8090SOL    HW135903   2.724   0.049  11.000  1.7861 -2.4439 -3.8461
 8090SOL    HW235904   2.605   0.013  10.918  0.2658  0.2786 -0.4507
 8091SOL     OW35905   1.316   1.742   6.110 -0.1559 -0.2514  0.5828
 8091SOL    HW135906   1.275   1.746   6.024  0.3148 -0.8775  0.3215
 8091SOL    HW235907   1.407   1.725   6.084  0.8189  1.4593  2.8056
 8092SOL     OW35908   0.490   1.118   4.484 -0.0394  0.6506 -0.1005
 8092SOL    HW135909   0.511   1.140   4.394 -0.5946 -3.3635 -1.2016
 8092SOL    HW235910   0.553   1.046   4.487 -1.4071 -0.5472  0.2058
 8093SOL     OW35911   0.886   1.249  15.136  0.1773  0.0282  0.1624
 8093SOL    HW135912   0.970   1.206  15.148  0.0890 -0.4267 -0.8209
 8093SOL    HW235913   0.896   1.263  15.042 -1.2304  0.5848  0.0916
 8094SOL     OW35914   0.933   1.685   8.135  0.2203  0.3691 -0.4947
 8094SOL    HW135915   0.846   1.680   8.174  1.0788 -0.8925  1.2253
 8094SOL    HW235916   0.980   1.740   8.197 -0.0239 -1.0819  0.9623
 8095SOL     OW35917   4.674   2.090   8.420 -0.3713 -0.3497 -0.3145
 8095SOL    HW135918   4.636   2.022   8.477  1.0647  0.0503  1.1044
 8095SOL    HW235919   0.024   2.108   8.455  0.1882 -0.8629 -1.4222
 8096SOL     OW35920   4.437   0.481  12.203  0.4437 -0.5667 -0.3149
 8096SOL    HW135921   4.342   0.469  12.206  0.6522 -2.6730 -2.2833
 8096SOL    HW235922   4.464   0.505  12.292 -1.0213 -1.2783  0.3157
 8097SOL     OW35923   1.139   1.816   8.949  0.2493 -0.2606 -0.2479
 8097SOL    HW135924   1.142   1.723   8.973 -0.5022  0.3605  2.2370
 8097SOL    HW235925   1.171   1.821   8.859 -0.2335  1.4222 -0.3196
 8098SOL     OW35926   2.482   0.400   0.830  0.1115  0.4717 -0.0297
 8098SOL    HW135927   2.468   0.320   0.780  1.8250 -0.9120  1.6779
 8098SOL    HW235928   2.578   0.395   0.831  0.0483 -1.1820 -2.7605
 8099SOL     OW35929   0.537   4.093  10.534  0.6235 -0.6247 -0.1397
 8099SOL    HW135930   0.590   4.045  10.597 -0.6616  1.2971  2.4242
 8099SOL    HW235931   0.531   4.178  10.579  0.4431 -1.6005  1.6738
 8100SOL     OW35932   4.007   1.122   3.075 -0.4674  0.4641  0.3933
 8100SOL    HW135933   3.993   1.209   3.113 -0.6168 -0.3933  2.3429
 8100SOL    HW235934   3.941   1.121   3.006  1.3433  0.0082 -1.3413
 8101SOL     OW35935   3.800   2.290   8.004  0.7321 -0.5415  0.1209
 8101SOL    HW135936   3.838   2.214   8.048 -2.0433 -1.9138  0.1405
 8101SOL    HW235937   3.881   2.327   7.970  1.5011 -1.1128  1.3336
 8102SOL     OW35938   2.998   2.708   6.377  0.1501  0.3588 -0.2684
 8102SOL    HW135939   2.926   2.771   6.377 -0.3937 -0.2639 -0.2379
 8102SOL    HW235940   2.975   2.657   6.455 -1.6435  2.6750  0.7124
 8103SOL     OW35941   2.682   2.699   6.735  0.3883  0.2006 -0.5287
 8103SOL    HW135942   2.586   2.702   6.735  0.4381  1.6801 -0.2987
 8103SOL    HW235943   2.712   2.784   6.703  2.7322  0.1934  1.6597
 8104SOL     OW35944   3.857   4.032   6.567 -0.3012 -0.0515  0.0036
 8104SOL    HW135945   3.865   4.102   6.632  2.6559  1.4285 -1.9433
 8104SOL    HW235946   3.948   4.003   6.554 -0.4722 -1.0154  0.9404
 8105SOL     OW35947   3.435   0.277   0.905  0.5262  0.2816 -0.3030
 8105SOL    HW135948   3.444   0.273   1.000  0.3425  1.4640 -0.2335
 8105SOL    HW235949   3.363   0.219   0.883 -0.2048  1.3780 -0.7568
 8106SOL     OW35950   2.760   4.600   5.891  0.1888 -0.1910  0.3299
 8106SOL    HW135951   2.744   4.622   5.982  2.1876 -1.5602  1.0235
 8106SOL    HW235952   2.845   4.558   5.905  0.2332 -0.2450 -0.1057
 8107SOL     OW35953   4.181   0.272   4.787 -0.2516 -0.2494  0.1281
 8107SOL    HW135954   4.149   0.245   4.873 -0.6417 -0.2379 -0.0154
 8107SOL    HW235955   4.270   0.236   4.782 -0.2716 -0.1887 -0.5899
 8108SOL     OW35956   0.113   2.524   6.699 -0.1595 -0.3556  0.1754
 8108SOL    HW135957   0.138   2.612   6.727  0.4022  0.3775 -2.5730
 8108SOL    HW235958   0.063   2.561   6.625 -0.2664  0.0154  0.4323
 8109SOL     OW35959   4.398   1.593   8.435  0.3375 -0.9576 -0.0431
 8109SOL    HW135960   4.325   1.533   8.425 -0.4129 -0.0054 -0.3591
 8109SOL    HW235961   4.454   1.530   8.480  0.5411 -1.1208 -0.5300
 8110SOL     OW35962   4.475   0.339   5.551  0.0614  0.3312  0.1465
 8110SOL    HW135963   4.521   0.420   5.528  3.0802 -1.4585 -0.1914
 8110SOL    HW235964   4.385   0.353   5.521  0.2710 -1.4628 -1.3531
 8111SOL     OW35965   4.568   3.253   5.273 -0.1299 -0.3668  0.5801
 8111SOL    HW135966   4.567   3.222   5.182 -0.1582  0.4707  0.3028
 8111SOL    HW235967   4.608   3.338   5.256 -0.4538  0.1455  2.3620
 8112SOL     OW35968   2.168   2.048  17.344 -0.5683 -0.1487  0.0848
 8112SOL    HW135969   2.081   2.065  17.309 -0.9887 -1.7779  0.3941
 8112SOL    HW235970   2.193   1.974  17.289  0.8354  0.9373 -0.7687
 8113SOL     OW35971   2.429   3.838   6.626  0.9645  0.2456  0.0648
 8113SOL    HW135972   2.415   3.776   6.698 -1.2389 -2.5367 -2.7884
 8113SOL    HW235973   2.520   3.813   6.612  1.1848  2.3117 -2.2137
 8114SOL     OW35974   3.317   0.655  15.228 -0.1568  0.0895  0.0287
 8114SOL    HW135975   3.332   0.638  15.135 -0.9161  1.0503 -0.2717
 8114SOL    HW235976   3.273   0.741  15.222  1.1909  0.7255 -0.7166
 8115SOL     OW35977   2.958   4.409  11.857 -0.2871 -0.0872  0.6644
 8115SOL    HW135978   2.963   4.486  11.801  1.4096 -0.6050  0.1161
 8115SOL    HW235979   2.929   4.442  11.942 -1.9080 -0.1158  0.1247
 8116SOL     OW35980   1.363   3.399   3.638  0.2535 -0.4672 -0.0358
 8116SOL    HW135981   1.396   3.484   3.667 -0.2214 -0.2342 -0.1805
 8116SOL    HW235982   1.425   3.338   3.677  0.0869 -0.8543 -0.3719
 8117SOL     OW35983   2.725   2.552   7.392  0.1975  0.1055 -0.4384
 8117SOL    HW135984   2.663   2.557   7.318  1.9756  2.0952 -1.7827
 8117SOL    HW235985   2.744   2.645   7.398  1.7697  0.0446 -4.7093
 8118SOL     OW35986   4.050   1.121   5.923  0.7269  0.2288 -1.0395
 8118SOL    HW135987   4.068   1.029   5.939  1.5170  0.3150 -1.4648
 8118SOL    HW235988   4.114   1.161   5.981  1.2772 -0.8077 -0.9366
 8119SOL     OW35989   0.961   4.263   4.865 -0.0151 -0.5994 -0.0233
 8119SOL    HW135990   0.973   4.248   4.959 -1.8127 -1.5338  0.0361
 8119SOL    HW235991   1.008   4.184   4.837  1.5385 -0.4493  2.1533
 8120SOL     OW35992   3.797   0.059   9.106 -0.1677 -0.0737  0.3702
 8120SOL    HW135993   3.875   0.035   9.156 -2.1191  1.4577  4.1071
 8120SOL    HW235994   3.850   0.116   9.049  0.4439 -2.3567 -1.3338
 8121SOL     OW35995   2.348   1.603   5.651 -0.7983 -1.2088 -0.9902
 8121SOL    HW135996   2.402   1.558   5.716 -0.7403  0.0333 -0.1717
 8121SOL    HW235997   2.301   1.538   5.600 -1.9275 -1.1269 -0.0396
 8122SOL     OW35998   4.618   2.377   8.730 -0.2117 -0.3944 -0.3431
 8122SOL    HW135999   4.562   2.313   8.774  0.6166  1.2476  3.0991
 8122SOL    HW236000   4.693   2.362   8.787 -0.1443 -0.4854 -0.4583
 8123SOL     OW36001   3.012   2.484   6.525  0.1176 -0.1381  0.1012
 8123SOL    HW136002   3.039   2.398   6.494 -2.7319 -1.3426  0.9547
 8123SOL    HW236003   3.080   2.494   6.592 -0.4192  0.9891  0.4874
 8124SOL     OW36004   3.256   3.774   5.408  0.0383 -0.2008 -0.4154
 8124SOL    HW136005   3.200   3.703   5.378 -0.1000 -1.0409  1.8268
 8124SOL    HW236006   3.237   3.769   5.501  1.4511 -0.7183 -0.1516
 8125SOL     OW36007   2.444   3.984   4.633  0.1036 -0.0208 -0.2297
 8125SOL    HW136008   2.534   4.011   4.649  1.6099 -4.8547 -0.3797
 8125SOL    HW236009   2.458   3.894   4.663 -1.3806 -0.6166 -1.3168
 8126SOL     OW36010   2.606   2.944   6.904 -0.4789 -0.2583  0.2299
 8126SOL    HW136011   2.610   3.039   6.890 -3.4433 -0.0613  0.7742
 8126SOL    HW236012   2.530   2.927   6.849  0.7885  0.0686 -1.5983
 8127SOL     OW36013   4.016   4.597   1.665  0.3416  0.5973 -0.1782
 8127SOL    HW136014   4.048   4.676   1.707 -1.0961  0.0342  2.0020
 8127SOL    HW236015   3.932   4.628   1.632  1.6313  2.5588 -1.6426
 8128SOL     OW36016   1.460   0.932  11.796 -0.2770  0.4913  0.6605
 8128SOL    HW136017   1.477   0.879  11.718  0.8275  0.0678  1.1861
 8128SOL    HW236018   1.433   0.857  11.849  2.6741 -1.2796 -0.3928
 8129SOL     OW36019   1.888   3.245   5.863 -0.2388  1.1356  0.0802
 8129SOL    HW136020   1.887   3.219   5.771 -0.9715 -0.2521  0.4780
 8129SOL    HW236021   1.826   3.185   5.905 -0.1987 -0.3919 -2.0969
 8130SOL     OW36022   1.557   0.970   0.778  0.0577 -0.0074  0.5251
 8130SOL    HW136023   1.516   0.931   0.700  0.7950  0.1076  0.0777
 8130SOL    HW236024   1.646   0.976   0.742  0.0867 -0.9698  0.4225
 8131SOL     OW36025   0.591   0.093  12.316  0.1753 -0.4268  0.2195
 8131SOL    HW136026   0.634   0.016  12.279  1.2207  0.1120  0.3196
 8131SOL    HW236027   0.562   0.134  12.234  0.0831  0.9231  0.9287
 8132SOL     OW36028   0.257   0.163   3.820 -0.6266  0.1976 -0.1516
 8132SOL    HW136029   0.329   0.108   3.792  0.3965  1.2504  0.3951
 8132SOL    HW236030   0.287   0.245   3.780  0.1849 -0.2329 -0.4153
 8133SOL     OW36031   0.554   4.457   5.558 -0.1489  0.4884 -0.1434
 8133SOL    HW136032   0.468   4.422   5.534 -0.4567  2.0409 -1.2469
 8133SOL    HW236033   0.530   4.547   5.576  1.5645  0.4387  2.3566
 8134SOL     OW36034   3.718   0.815   3.539 -0.3314 -0.5995 -0.2561
 8134SOL    HW136035   3.810   0.841   3.543 -0.3958 -0.8039  2.4812
 8134SOL    HW236036   3.673   0.850   3.616  0.7721  0.3888 -0.0589
 8135SOL     OW36037   2.117   0.291   7.638 -0.1591 -0.2536  0.1434
 8135SOL    HW136038   2.068   0.304   7.557  1.2160 -0.0447 -0.6613
 8135SOL    HW236039   2.208   0.278   7.611 -0.5025  2.2278 -2.2657
 8136SOL     OW36040   2.241   1.150   5.611  0.1386  0.0440  0.6294
 8136SOL    HW136041   2.174   1.185   5.669 -0.8067  2.3322 -1.8603
 8136SOL    HW236042   2.217   1.059   5.596  0.5945  0.0111  0.0900
 8137SOL     OW36043   0.414   4.490   0.770  0.1408  0.1185 -0.3469
 8137SOL    HW136044   0.441   4.459   0.683  0.5714 -0.8526  0.1394
 8137SOL    HW236045   0.375   4.412   0.810  0.3512 -0.0656 -0.5030
 8138SOL     OW36046   2.565   1.208  10.410 -0.1532 -0.2400 -0.0096
 8138SOL    HW136047   2.515   1.222  10.491 -0.2807 -0.2427 -0.0891
 8138SOL    HW236048   2.514   1.144  10.361 -0.4841 -0.5895  0.7863
 8139SOL     OW36049   1.419   2.741   8.407 -0.2244  0.7280 -0.0666
 8139SOL    HW136050   1.474   2.683   8.460  0.6650  0.4501 -1.3003
 8139SOL    HW236051   1.413   2.811   8.473 -0.7685 -1.8240  2.6043
 8140SOL     OW36052   1.968   2.695   1.642  0.1485  0.7507  0.0696
 8140SOL    HW136053   1.929   2.709   1.728  1.9645 -1.0922  1.1687
 8140SOL    HW236054   2.007   2.609   1.654 -0.1345  0.6602  0.3553
 8141SOL     OW36055   1.064   1.600   7.924  0.0407 -0.0077 -0.4861
 8141SOL    HW136056   1.037   1.656   7.850 -3.0086  0.5380  1.0143
 8141SOL    HW236057   1.020   1.646   7.996 -0.6260 -0.9499 -0.2875
 8142SOL     OW36058   2.888   1.255   7.392 -0.3749 -0.1980  0.2640
 8142SOL    HW136059   2.932   1.295   7.317  0.9593  1.3972  1.9133
 8142SOL    HW236060   2.804   1.301   7.389 -0.1347  0.1896 -0.5655
 8143SOL     OW36061   4.693   4.311   4.204  0.1895 -0.3739 -0.4360
 8143SOL    HW136062   0.044   4.319   4.167  0.4217  1.9267  0.5535
 8143SOL    HW236063   4.679   4.220   4.179  1.0460 -0.3241 -1.0863
 8144SOL     OW36064   1.246   2.545  14.893 -0.1843  0.5979 -0.8348
 8144SOL    HW136065   1.228   2.635  14.919 -0.2841  0.0393  1.0183
 8144SOL    HW236066   1.327   2.560  14.843 -1.3510  2.1508 -2.2331
 8145SOL     OW36067   3.282   0.089   5.951  0.5227  0.2648  0.3224
 8145SOL    HW136068   3.375   0.106   5.936  0.1286  1.8381 -0.3261
 8145SOL    HW236069   3.270   4.732   5.965 -0.9457  0.6688  1.8220
 8146SOL     OW36070   0.698   2.256  14.383  0.4350 -0.1354 -0.3756
 8146SOL    HW136071   0.723   2.230  14.295 -1.6457  1.5805 -1.4709
 8146SOL    HW236072   0.753   2.331  14.406  0.7492 -0.4659 -0.0531
 8147SOL     OW36073   2.198   1.185   6.419  0.8381  0.0359  0.0170
 8147SOL    HW136074   2.167   1.196   6.509 -0.3607 -0.4987 -0.3315
 8147SOL    HW236075   2.290   1.163   6.432  0.3876  0.3161  3.6809
 8148SOL     OW36076   0.173   1.985   6.616 -0.0712  0.4589  0.1652
 8148SOL    HW136077   0.147   2.040   6.542 -0.7472  0.0320  0.0826
 8148SOL    HW236078   0.267   1.973   6.604 -0.3015 -1.2170  0.0538
 8149SOL     OW36079   1.750   1.944   9.143 -0.3575  0.2624 -0.2149
 8149SOL    HW136080   1.772   1.876   9.207  2.6106  0.6453 -0.8065
 8149SOL    HW236081   1.760   1.898   9.059  0.8359 -0.9421  0.5875
 8150SOL     OW36082   0.212   0.797   9.428 -0.1029 -0.4719 -0.1052
 8150SOL    HW136083   0.272   0.753   9.366  0.6914  0.3587  0.0758
 8150SOL    HW236084   0.185   0.859   9.360 -0.0029 -1.4227 -1.0162
 8151SOL     OW36085   1.590   4.016   0.586  0.5666  0.0896 -0.4752
 8151SOL    HW136086   1.632   4.101   0.567  1.2062 -0.1929 -0.3348
 8151SOL    HW236087   1.496   4.035   0.588 -0.0620 -2.9705 -0.9153
 8152SOL     OW36088   3.840   0.401   1.752  0.0702 -0.4470 -0.1498
 8152SOL    HW136089   3.853   0.488   1.789 -0.8314 -0.3039 -0.1734
 8152SOL    HW236090   3.753   0.385   1.789  0.7968 -3.7714  0.1670
 8153SOL     OW36091   0.437   1.906  16.176  0.0396 -0.0556  0.0384
 8153SOL    HW136092   0.518   1.900  16.126  0.9976  0.4377  1.5339
 8153SOL    HW236093   0.392   1.830  16.140 -0.7716  0.9419 -1.0715
 8154SOL     OW36094   4.567   0.687  16.135  0.1630 -0.5126 -0.2649
 8154SOL    HW136095   4.514   0.744  16.079 -0.0675 -0.7151 -0.2522
 8154SOL    HW236096   4.587   0.749  16.205 -1.2545 -0.9196  0.5066
 8155SOL     OW36097   0.245   2.101  14.469  0.1424 -0.7093 -0.4468
 8155SOL    HW136098   0.334   2.078  14.496  0.5592  1.8013  0.3006
 8155SOL    HW236099   0.255   2.085  14.375 -0.0196  0.5062 -0.6675
 8156SOL     OW36100   4.379   2.032   6.782 -0.8028  0.2827 -0.2203
 8156SOL    HW136101   4.391   2.001   6.692  1.2257  0.6594 -0.0773
 8156SOL    HW236102   4.471   2.056   6.798  0.0176 -2.4451 -0.8865
 8157SOL     OW36103   0.106   3.814   5.884 -0.3780 -0.4882  0.0836
 8157SOL    HW136104   0.070   3.731   5.915 -1.0237 -0.5002 -0.7169
 8157SOL    HW236105   0.169   3.837   5.953  0.7243 -0.9958 -0.7542
 8158SOL     OW36106   4.240   3.936   9.922 -0.2614  0.2535 -0.0423
 8158SOL    HW136107   4.336   3.935   9.929 -0.1620  0.9420 -1.3543
 8158SOL    HW236108   4.230   3.878   9.998 -0.7227 -1.2807 -1.2742
 8159SOL     OW36109   0.373   1.813  13.125 -0.1825 -0.0621 -0.1489
 8159SOL    HW136110   0.462   1.844  13.109  0.3760 -1.2655  0.6429
 8159SOL    HW236111   0.378   1.719  13.107 -0.1797 -0.3606  1.4561
 8160SOL     OW36112   2.805   2.147  16.187 -1.0780  0.6943 -0.1999
 8160SOL    HW136113   2.828   2.077  16.248  0.8153  0.2077 -1.4915
 8160SOL    HW236114   2.889   2.161  16.143 -1.1770  0.0557 -0.5869
 8161SOL     OW36115   0.668   4.521  12.573  0.6114 -0.1370 -0.3971
 8161SOL    HW136116   0.643   4.599  12.622 -0.0919 -0.5441 -0.1124
 8161SOL    HW236117   0.593   4.464  12.589  1.6677 -0.8737  1.8964
 8162SOL     OW36118   3.516   2.150   5.076 -0.1658  0.0171  0.1247
 8162SOL    HW136119   3.535   2.212   5.147  1.3496 -1.4198  0.9804
 8162SOL    HW236120   3.421   2.147   5.075 -0.0805 -2.5142  0.2554
 8163SOL     OW36121   3.875   1.453   9.201  0.2186  0.0636 -0.4146
 8163SOL    HW136122   3.923   1.471   9.281  0.4381  1.0825 -0.7659
 8163SOL    HW236123   3.782   1.473   9.212  0.5467  0.9117  0.7472
 8164SOL     OW36124   1.703   0.340   7.985 -0.3398  0.2866 -0.2939
 8164SOL    HW136125   1.792   0.369   7.965 -1.0140  1.1628 -2.0159
 8164SOL    HW236126   1.731   0.251   8.008 -0.5280  0.3376  0.1227
 8165SOL     OW36127   0.285   1.741  17.618 -0.2033 -0.3454 -0.0558
 8165SOL    HW136128   0.242   1.759  17.534 -2.9929 -0.4017  1.3325
 8165SOL    HW236129   0.233   1.669  17.653 -3.6236  2.0146 -0.2316
 8166SOL     OW36130   2.959   1.177   5.198  0.0039  0.4716 -0.1325
 8166SOL    HW136131   2.963   1.247   5.264  0.8549  0.8495 -0.5896
 8166SOL    HW236132   3.009   1.217   5.127 -2.0442 -1.3295 -2.5622
 8167SOL     OW36133   3.634   2.697   2.285 -0.2968 -0.3660 -0.1057
 8167SOL    HW136134   3.635   2.758   2.210  1.5417  0.0111  0.2426
 8167SOL    HW236135   3.574   2.738   2.348 -0.1404 -0.0367 -0.1679
 8168SOL     OW36136   3.513   2.602  15.991  0.4009  0.1882 -0.3518
 8168SOL    HW136137   3.539   2.680  16.041  0.7434  0.2205 -0.5862
 8168SOL    HW236138   3.426   2.619  15.955  0.3936  0.6328 -0.1254
 8169SOL     OW36139   3.745   3.161   6.769  0.5982  0.1873 -0.7487
 8169SOL    HW136140   3.770   3.221   6.840 -2.3542 -0.2687  0.6754
 8169SOL    HW236141   3.771   3.075   6.802 -0.8489  0.9223  2.3427
 8170SOL     OW36142   3.282   0.808   4.264  0.1909 -0.4994 -0.8499
 8170SOL    HW136143   3.285   0.712   4.259  2.3346 -0.5233  0.8038
 8170SOL    HW236144   3.220   0.828   4.194 -1.2882 -0.5985  0.4365
 8171SOL     OW36145   1.055   4.671  14.800  0.0788 -0.3092  0.1481
 8171SOL    HW136146   1.145   4.667  14.832  0.2114  1.1774 -0.0345
 8171SOL    HW236147   1.045   0.026  14.822  0.1006 -0.2627 -0.0411
 8172SOL     OW36148   1.654   3.719   5.789  0.2803 -0.2917 -0.3235
 8172SOL    HW136149   1.713   3.664   5.840  2.6681  3.1682  0.6402
 8172SOL    HW236150   1.636   3.790   5.851  0.6404  0.8667 -1.5445
 8173SOL     OW36151   0.538   4.572   9.340  0.2377 -0.1497  0.2297
 8173SOL    HW136152   0.541   4.632   9.265  3.7785  0.7305  1.0604
 8173SOL    HW236153   0.487   4.497   9.312 -1.2868  1.2806 -0.7940
 8174SOL     OW36154   0.234   4.049  15.917  0.6333 -0.0316  0.2816
 8174SOL    HW136155   0.192   4.076  15.835  1.6182  2.2628  0.5472
 8174SOL    HW236156   0.174   4.003  15.975  0.8624 -2.7336 -1.6140
 8175SOL     OW36157   0.793   1.507   5.221  0.4487  0.3563  0.1124
 8175SOL    HW136158   0.775   1.417   5.250 -0.3341 -0.2441 -2.2363
 8175SOL    HW236159   0.802   1.555   5.303  1.0659  2.0582 -0.9533
 8176SOL     OW36160   0.212   4.065   7.803 -0.2945  0.1200  0.4304
 8176SOL    HW136161   0.260   4.034   7.727 -2.0490 -0.3371 -0.5000
 8176SOL    HW236162   0.125   4.036   7.776  0.4306  1.0427 -2.9139
 8177SOL     OW36163   2.468   4.245  15.477  0.0278  0.2932 -0.0272
 8177SOL    HW136164   2.556   4.219  15.451 -0.2546 -1.5718  0.9193
 8177SOL    HW236165   2.492   4.338  15.481  0.5648  0.3024 -3.2890
 8178SOL     OW36166   1.254   1.823   0.403  0.5843 -0.0658 -0.2645
 8178SOL    HW136167   1.328   1.834   0.344  0.6276  0.4473 -0.1209
 8178SOL    HW236168   1.284   1.757   0.464  0.3610 -0.8452 -1.0042
 8179SOL     OW36169   3.398   1.297   7.904 -0.9433  0.1537  0.6945
 8179SOL    HW136170   3.408   1.227   7.969 -2.8193  1.2504  2.1579
 8179SOL    HW236171   3.370   1.240   7.832 -1.1549  0.5509  0.4629
 8180SOL     OW36172   2.269   0.075  16.367 -0.2720  0.2622 -0.2380
 8180SOL    HW136173   2.348   0.024  16.383  0.9770  2.0317 -0.7175
 8180SOL    HW236174   2.286   0.162  16.402 -0.1549  0.5430 -0.9952
 8181SOL     OW36175   4.496   1.463   5.268 -0.0763 -0.5116  0.2652
 8181SOL    HW136176   4.404   1.444   5.287 -0.2658 -1.2834 -1.4600
 8181SOL    HW236177   4.536   1.380   5.292  0.9086 -0.7457 -2.2006
 8182SOL     OW36178   3.276   4.711   7.782  0.1153  0.4299  0.1074
 8182SOL    HW136179   3.257   0.067   7.775  1.5458  0.7864  0.9761
 8182SOL    HW236180   3.333   4.697   7.858 -0.4675 -2.4633  0.0264
 8183SOL     OW36181   3.420   2.664  10.956  0.4790  0.0989  0.1609
 8183SOL    HW136182   3.402   2.570  10.953 -0.7630  0.3408  0.2221
 8183SOL    HW236183   3.464   2.674  11.040 -2.2894 -1.8890  1.8320
 8184SOL     OW36184   3.023   3.545   1.187 -0.0508  0.4574  0.7782
 8184SOL    HW136185   2.967   3.623   1.195  0.6453  0.7697  2.5571
 8184SOL    HW236186   3.105   3.584   1.156 -0.0721  0.4364  0.6967
 8185SOL     OW36187   1.889   4.272   7.565 -0.3407 -0.0156  0.4630
 8185SOL    HW136188   1.847   4.329   7.502 -2.3563 -1.4638  0.5125
 8185SOL    HW236189   1.956   4.225   7.514  0.4566  0.0911  1.3985
 8186SOL     OW36190   2.652   4.395   5.159 -0.0963 -0.2040 -0.1823
 8186SOL    HW136191   2.632   4.486   5.182  0.7329 -0.4559  1.5964
 8186SOL    HW236192   2.718   4.381   5.228  0.2791  2.8387  0.1027
 8187SOL     OW36193   0.789   1.082   3.231 -0.1487  0.1759 -0.3325
 8187SOL    HW136194   0.833   1.024   3.169  0.0662  0.3082 -0.3024
 8187SOL    HW236195   0.820   1.063   3.320  0.2582  2.2442 -0.0448
 8188SOL     OW36196   1.414   0.899  11.201 -0.3105 -0.1604 -0.6991
 8188SOL    HW136197   1.429   0.930  11.112 -0.5946  1.9632 -0.0228
 8188SOL    HW236198   1.405   0.984  11.246 -0.2570 -1.2855  1.4261
 8189SOL     OW36199   0.905   1.033   8.305  0.5692 -0.6209  0.0418
 8189SOL    HW136200   0.960   1.059   8.231 -1.3192  1.1616 -0.7420
 8189SOL    HW236201   0.892   1.113   8.356  0.6891 -0.1190 -0.7103
 8190SOL     OW36202   3.981   0.276  10.868 -0.0196  0.4611 -0.2436
 8190SOL    HW136203   3.949   0.193  10.904 -2.2668  1.5220  0.1695
 8190SOL    HW236204   4.005   0.250  10.778 -1.2462  0.5505 -0.5906
 8191SOL     OW36205   4.080   1.072   9.312  0.3132  0.0719  0.0034
 8191SOL    HW136206   4.058   1.053   9.221 -0.5966 -3.3996  0.9351
 8191SOL    HW236207   4.103   0.986   9.347 -1.4827 -0.9112 -1.2336
 8192SOL     OW36208   3.374   2.169  13.144  0.3548 -0.3785  0.1745
 8192SOL    HW136209   3.401   2.161  13.236 -0.2420 -1.4408  0.2501
 8192SOL    HW236210   3.404   2.258  13.123  2.3906 -1.1460 -0.1477
 8193SOL     OW36211   0.946   1.732  13.142  0.3158  0.4416 -0.0282
 8193SOL    HW136212   0.862   1.744  13.097  0.4116  0.4421 -0.2049
 8193SOL    HW236213   0.982   1.819  13.123 -1.2387  0.7307 -1.6504
 8194SOL     OW36214   3.623   2.895  10.416 -0.3921 -0.3695 -0.5251
 8194SOL    HW136215   3.549   2.916  10.359 -2.8216  1.4007  3.2489
 8194SOL    HW236216   3.635   2.802  10.400 -0.1839 -0.8175  2.2047
 8195SOL     OW36217   3.802   0.426   6.932 -0.0060 -0.2501 -0.5501
 8195SOL    HW136218   3.814   0.518   6.908  0.6266 -0.1350  0.2178
 8195SOL    HW236219   3.889   0.399   6.901 -0.1162 -2.7153  1.3206
 8196SOL     OW36220   3.869   0.661   4.325  0.2103 -0.2818 -0.1606
 8196SOL    HW136221   3.935   0.668   4.393  0.0881 -0.1885 -0.0514
 8196SOL    HW236222   3.794   0.628   4.375  0.2640  1.0663  0.7930
 8197SOL     OW36223   2.519   2.424   8.503 -0.2399  0.3362  0.2250
 8197SOL    HW136224   2.463   2.383   8.570 -2.5306 -1.4512 -2.7298
 8197SOL    HW236225   2.578   2.471   8.561 -0.3293 -0.1063  0.6739
 8198SOL     OW36226   1.679   3.611   2.217  0.6923 -0.0009 -0.1679
 8198SOL    HW136227   1.638   3.581   2.298  0.0683 -0.7287 -0.7460
 8198SOL    HW236228   1.654   3.549   2.148 -0.8252 -1.0613  1.3319
 8199SOL     OW36229   2.219   4.406   6.088 -0.1467  0.1793  0.1420
 8199SOL    HW136230   2.273   4.410   6.009  2.6258  0.2827  2.0058
 8199SOL    HW236231   2.274   4.342   6.135  0.0166 -0.1282 -0.4685
 8200SOL     OW36232   0.465   1.157   8.558  0.0275 -0.2399 -0.0490
 8200SOL    HW136233   0.548   1.175   8.512 -0.8279 -0.9953 -1.8821
 8200SOL    HW236234   0.410   1.112   8.494 -0.8882  1.7720 -0.6791
 8201SOL     OW36235   2.749   3.330   7.866  0.6316  0.5537 -0.0616
 8201SOL    HW136236   2.679   3.339   7.801  1.7849 -0.7122 -1.4621
 8201SOL    HW236237   2.724   3.249   7.910  1.3907  1.0967  1.3445
 8202SOL     OW36238   4.626   4.589  14.401 -0.0322  0.3751 -0.8627
 8202SOL    HW136239   4.620   4.679  14.433 -0.3298  0.3149 -0.7495
 8202SOL    HW236240   4.616   4.537  14.481  1.6457 -0.0243 -0.9219
 8203SOL     OW36241   0.921   3.933   7.940 -0.4275  0.2194 -0.3204
 8203SOL    HW136242   0.879   4.005   7.986 -1.1423  0.0151 -0.6588
 8203SOL    HW236243   0.849   3.876   7.913  0.3588 -0.9876  0.1542
 8204SOL     OW36244   4.208   3.894  11.970  0.0367 -0.3067  0.9827
 8204SOL    HW136245   4.242   3.927  11.886 -0.7405 -1.1224  0.3462
 8204SOL    HW236246   4.163   3.969  12.008  0.4613  0.4567 -0.0190
 8205SOL     OW36247   3.080   3.058   3.635  0.1678  0.4926 -0.9360
 8205SOL    HW136248   3.104   3.142   3.596  0.7166 -0.0947 -1.8495
 8205SOL    HW236249   3.162   3.009   3.633 -1.5520 -2.5980  2.7545
 8206SOL     OW36250   2.727   0.856   8.893  0.1643 -0.7242 -0.1704
 8206SOL    HW136251   2.771   0.876   8.976  1.9098 -1.2604 -0.9626
 8206SOL    HW236252   2.802   0.836   8.837  1.1024  1.7911  0.1630
 8207SOL     OW36253   2.376   1.588   5.113  0.4610  0.0637 -0.0156
 8207SOL    HW136254   2.281   1.601   5.119  0.3204 -0.1725 -2.0231
 8207SOL    HW236255   2.414   1.676   5.124 -1.4959  0.8146  0.7834
 8208SOL     OW36256   2.942   0.106  11.806 -0.0137 -0.3596 -0.2530
 8208SOL    HW136257   2.918   0.144  11.722 -0.0897 -1.4317 -0.7197
 8208SOL    HW236258   2.922   0.013  11.794  0.1601 -0.3829 -0.3508
 8209SOL     OW36259   1.435   4.303   9.219  0.1648 -0.1774  0.2603
 8209SOL    HW136260   1.349   4.302   9.176  0.7463  1.6905 -0.9827
 8209SOL    HW236261   1.409   4.251   9.294  3.5144 -2.4134 -0.1304
 8210SOL     OW36262   4.384   0.950   7.014 -0.3017  0.3090  0.1366
 8210SOL    HW136263   4.413   0.878   6.957  0.3976  0.6358  0.0843
 8210SOL    HW236264   4.467   0.997   7.008 -1.7231  2.7476 -0.1535
 8211SOL     OW36265   2.318   3.608   2.894 -0.3607 -0.3751 -0.2267
 8211SOL    HW136266   2.406   3.591   2.860 -0.0715  0.0647  0.2947
 8211SOL    HW236267   2.346   3.662   2.968 -0.2815 -0.7257 -0.0023
 8212SOL     OW36268   3.066   2.851   1.516  0.0451 -0.2767  0.6964
 8212SOL    HW136269   3.053   2.840   1.611 -0.8308  1.9547  0.8267
 8212SOL    HW236270   3.006   2.922   1.494  1.6598  0.5703 -0.9259
 8213SOL     OW36271   1.400   0.158   5.873 -0.5654  0.0709  0.3243
 8213SOL    HW136272   1.388   0.136   5.966  0.4612  0.5232  0.5621
 8213SOL    HW236273   1.309   0.171   5.845 -0.3898  1.0051  0.1878
 8214SOL     OW36274   1.514   1.566   7.054 -0.1776  0.3148 -0.7843
 8214SOL    HW136275   1.587   1.584   7.114  0.4352 -0.4736 -1.2818
 8214SOL    HW236276   1.450   1.545   7.122 -2.9078  1.0925 -3.1178
 8215SOL     OW36277   1.925   0.975   1.884 -0.3465 -0.9780 -0.1368
 8215SOL    HW136278   1.876   0.930   1.953 -0.0444 -3.8111 -1.7875
 8215SOL    HW236279   1.853   0.994   1.823  0.6724 -1.0238 -1.3454
 8216SOL     OW36280   3.866   4.425   5.750  0.4803  0.4861 -0.0449
 8216SOL    HW136281   3.839   4.499   5.695 -0.0280  0.9505  0.8217
 8216SOL    HW236282   3.794   4.362   5.749  1.4704 -0.6136 -1.7534
 8217SOL     OW36283   2.922   2.000   4.214 -0.3156  0.3993 -0.0755
 8217SOL    HW136284   2.877   1.926   4.173  1.1483 -1.3904  1.5337
 8217SOL    HW236285   2.941   2.056   4.139  1.3788 -1.8857 -1.3629
 8218SOL     OW36286   1.052   4.412  15.107  0.3319  0.1218 -0.2288
 8218SOL    HW136287   1.075   4.406  15.014  0.9856  1.1481 -0.1297
 8218SOL    HW236288   1.131   4.435  15.156 -0.8286  1.0534  1.1925
 8219SOL     OW36289   1.019   0.960   5.080 -0.1541  0.0865  0.0912
 8219SOL    HW136290   1.112   0.939   5.079 -0.4646 -1.2398 -0.5690
 8219SOL    HW236291   1.011   1.017   5.156  2.1215  0.7618 -0.1940
 8220SOL     OW36292   1.836   3.556   7.266  0.3928  0.3581 -0.5784
 8220SOL    HW136293   1.753   3.537   7.308  1.5594 -1.8270  0.7383
 8220SOL    HW236294   1.863   3.646   7.286  0.2357  0.1875  0.4091
 8221SOL     OW36295   3.235   3.082  16.511  0.1238 -0.0968  0.3914
 8221SOL    HW136296   3.258   3.168  16.546  0.7438 -0.3952  0.7026
 8221SOL    HW236297   3.298   3.026  16.555 -1.3993 -1.4643  0.8633
 8222SOL     OW36298   0.813   2.682   0.463 -0.2124 -0.1245 -0.1172
 8222SOL    HW136299   0.818   2.586   0.467  0.6339 -0.0206  1.3784
 8222SOL    HW236300   0.744   2.694   0.398  0.0460  2.7049  0.1253
 8223SOL     OW36301   0.656   2.656  10.790  0.1532 -0.5433 -0.3268
 8223SOL    HW136302   0.633   2.625  10.878 -1.1628  0.8097 -0.1895
 8223SOL    HW236303   0.574   2.661  10.741 -0.9222 -0.6226  1.4366
 8224SOL     OW36304   3.896   0.172   5.326  0.9925  0.1964 -0.0530
 8224SOL    HW136305   3.839   0.210   5.259 -0.6997 -1.7324  0.2839
 8224SOL    HW236306   3.824   0.133   5.375  1.9188 -1.0954  0.2818
 8225SOL     OW36307   0.931   2.590   3.664  0.5567  0.1992  0.1679
 8225SOL    HW136308   0.856   2.571   3.607 -0.1247  0.5959  0.9438
 8225SOL    HW236309   0.999   2.593   3.597  0.5938 -0.2423  0.1845
 8226SOL     OW36310   0.753   2.239   9.171 -0.0177 -0.2034 -0.0153
 8226SOL    HW136311   0.699   2.302   9.124 -0.8658 -0.5739  0.4604
 8226SOL    HW236312   0.685   2.199   9.225  1.1078 -1.0267  0.7955
 8227SOL     OW36313   3.677   4.530   4.571 -0.6647 -0.3515  0.3609
 8227SOL    HW136314   3.612   4.538   4.640  0.9088  0.6265  1.7122
 8227SOL    HW236315   3.652   4.599   4.509 -2.0018 -1.2158 -0.0576
 8228SOL     OW36316   4.326   3.817   2.099 -0.5853  0.7580  0.2834
 8228SOL    HW136317   4.238   3.829   2.063 -1.0173  2.7620  1.9831
 8228SOL    HW236318   4.349   3.908   2.081 -1.0572  0.7463 -0.3875
 8229SOL     OW36319   2.942   1.588   7.494 -0.3985  0.6514  0.3639
 8229SOL    HW136320   2.932   1.506   7.543 -0.3626  0.3383 -0.1497
 8229SOL    HW236321   2.962   1.554   7.407  3.4714  3.5166  0.1023
 8230SOL     OW36322   0.928   2.608   8.155  0.2443 -0.4252 -0.7054
 8230SOL    HW136323   0.947   2.580   8.244  2.8284  0.2800 -1.0465
 8230SOL    HW236324   0.837   2.575   8.155 -0.8729  2.6884 -1.3445
 8231SOL     OW36325   0.003   3.652  14.717 -0.3099  0.2128 -0.0514
 8231SOL    HW136326   4.716   3.745  14.707  0.6388  0.5195  0.4669
 8231SOL    HW236327   4.683   3.620  14.787  0.0935 -1.3216 -0.4280
 8232SOL     OW36328   2.203   0.273   1.185 -0.4823 -0.1643 -0.2074
 8232SOL    HW136329   2.153   0.205   1.230 -1.4459  0.1802 -0.7530
 8232SOL    HW236330   2.137   0.341   1.198 -2.9531 -2.3822 -1.3547
 8233SOL     OW36331   0.845   2.403   0.436 -0.0621  0.3519  0.0253
 8233SOL    HW136332   0.824   2.333   0.375  2.5467 -0.9057  0.6028
 8233SOL    HW236333   0.941   2.398   0.436  0.0061  1.3521 -3.1352
 8234SOL     OW36334   4.168   3.114   7.653  0.8041 -0.3952 -0.7137
 8234SOL    HW136335   4.137   3.103   7.564  0.0614  2.6140 -0.8096
 8234SOL    HW236336   4.128   3.197   7.679  0.8099 -0.8704  0.8114
 8235SOL     OW36337   2.262   3.573   4.327  0.3323 -0.0130 -0.4197
 8235SOL    HW136338   2.225   3.630   4.258  0.5545 -0.2693 -0.7514
 8235SOL    HW236339   2.356   3.593   4.324  0.0232  1.4124 -1.3098
 8236SOL     OW36340   4.045   3.302   4.594 -0.1558 -0.0573 -0.2345
 8236SOL    HW136341   3.957   3.329   4.568 -0.6487  0.5400  2.0297
 8236SOL    HW236342   4.104   3.370   4.563 -0.8277  0.3013 -0.7126
 8237SOL     OW36343   2.114   3.186   9.662 -0.1394 -0.1980  0.1605
 8237SOL    HW136344   2.077   3.157   9.746 -1.7174  0.5883 -0.2626
 8237SOL    HW236345   2.196   3.233   9.679 -0.2686  0.1789 -0.2648
 8238SOL     OW36346   3.552   2.348   5.855 -0.9474 -0.0366 -0.3010
 8238SOL    HW136347   3.556   2.411   5.783  0.4745 -0.9096 -0.9739
 8238SOL    HW236348   3.603   2.277   5.815 -0.9776 -0.3930  0.2997
 8239SOL     OW36349   0.749   1.719   7.864  0.2059  0.4224 -0.9160
 8239SOL    HW136350   0.678   1.778   7.890  0.5060  0.5668 -0.4254
 8239SOL    HW236351   0.812   1.731   7.935  1.3870 -0.4455 -1.8240
 8240SOL     OW36352   1.925   4.617   7.431 -0.2514  0.4643 -0.1265
 8240SOL    HW136353   1.912   4.658   7.517  3.3407 -0.1032  0.7324
 8240SOL    HW236354   1.835   4.590   7.415 -0.6798  1.8760 -0.0401
 8241SOL     OW36355   2.092   2.900  15.714  0.3317  0.0984  0.2062
 8241SOL    HW136356   2.063   2.991  15.704  0.5632  0.0762 -0.6937
 8241SOL    HW236357   2.139   2.905  15.796 -0.5852  0.5297  0.7079
 8242SOL     OW36358   0.174   4.170  12.238  0.1151 -0.3613  0.1000
 8242SOL    HW136359   0.083   4.196  12.251  0.1318 -0.5693  0.6385
 8242SOL    HW236360   0.198   4.206  12.153  1.7650  1.9323  1.5443
 8243SOL     OW36361   1.737   0.358  10.250 -0.3369  0.1730 -0.0120
 8243SOL    HW136362   1.732   0.422  10.179 -0.1902  0.9659  0.6923
 8243SOL    HW236363   1.745   0.420  10.322 -4.5344  0.4608  0.2117
 8244SOL     OW36364   3.393   3.870  14.598  0.3647  0.4431 -0.7172
 8244SOL    HW136365   3.345   3.927  14.539 -1.2186 -1.4155 -1.2319
 8244SOL    HW236366   3.480   3.904  14.578 -0.2146  2.1180 -0.3965
 8245SOL     OW36367   0.030   1.253  11.337 -0.4629 -0.4957  0.1142
 8245SOL    HW136368   0.025   1.331  11.281 -0.5533 -0.7215 -0.1919
 8245SOL    HW236369   4.676   1.225  11.335 -0.6030 -0.0038 -0.6400
 8246SOL     OW36370   0.271   1.024  15.395  0.6543  0.2950 -0.5419
 8246SOL    HW136371   0.259   0.934  15.423  0.7065  0.6469  0.5914
 8246SOL    HW236372   0.352   1.015  15.343  0.2774 -1.3061 -0.8565
 8247SOL     OW36373   0.794   0.049   5.609 -0.3844  0.1570 -0.3417
 8247SOL    HW136374   0.794   0.144   5.620 -1.1672  0.0052  0.9832
 8247SOL    HW236375   0.750   0.049   5.525 -1.4515  2.2250  0.2280
 8248SOL     OW36376   1.109   4.241  16.399 -0.9878 -0.0878  0.1755
 8248SOL    HW136377   1.075   4.152  16.389  0.3923 -0.4414 -1.5555
 8248SOL    HW236378   1.092   4.265  16.307  0.4418  0.4629  0.0533
 8249SOL     OW36379   2.158   3.277   6.017 -0.3642 -0.1345 -0.1539
 8249SOL    HW136380   2.075   3.243   5.983 -0.1916 -1.5443  0.8704
 8249SOL    HW236381   2.140   3.368   5.994  0.7685  0.1403  0.0518
 8250SOL     OW36382   1.740   0.901   0.586  0.2100  0.1054  0.1815
 8250SOL    HW136383   1.805   0.911   0.517  0.4004  1.6018  0.5786
 8250SOL    HW236384   1.669   0.854   0.542 -2.0454  2.0363  1.7763
 8251SOL     OW36385   3.075   0.933   4.676 -0.3018 -0.2146  0.3504
 8251SOL    HW136386   3.097   0.934   4.770  4.8130 -1.5795 -0.8266
 8251SOL    HW236387   2.980   0.931   4.691 -0.2412 -0.9720  0.6479
 8252SOL     OW36388   4.209   2.909   8.330 -0.0062  0.7526  0.3550
 8252SOL    HW136389   4.114   2.925   8.333  0.4386  3.2835  0.4502
 8252SOL    HW236390   4.219   2.821   8.365  0.7080  0.3181 -0.9431
 8253SOL     OW36391   0.294   3.843   1.284  0.3259  0.7496  0.4929
 8253SOL    HW136392   0.220   3.802   1.239  1.4303  0.1220 -0.7603
 8253SOL    HW236393   0.311   3.778   1.353 -1.6627  1.7937  1.9706
 8254SOL     OW36394   4.588   3.455   1.432  0.2324  0.4606  0.4895
 8254SOL    HW136395   4.603   3.451   1.338  0.9216 -3.3195  0.7646
 8254SOL    HW236396   4.642   3.532   1.451  2.1171 -0.4675 -1.2334
 8255SOL     OW36397   3.880   0.764  10.849  0.1674 -0.6937 -0.4210
 8255SOL    HW136398   3.830   0.812  10.783  1.4870  1.8619  0.4742
 8255SOL    HW236399   3.897   0.685  10.796  0.5054 -1.3350  0.6475
 8256SOL     OW36400   3.746   2.279   2.018  0.0156 -0.0578  0.2480
 8256SOL    HW136401   3.720   2.317   1.934 -2.8540 -0.2739  1.0293
 8256SOL    HW236402   3.689   2.329   2.076  0.2446 -0.0966  0.5023
 8257SOL     OW36403   2.784   2.300   4.152 -0.7291  0.2583 -0.0336
 8257SOL    HW136404   2.859   2.256   4.113 -0.2482  1.5229 -0.5082
 8257SOL    HW236405   2.714   2.240   4.124  0.2577 -0.9853  0.1915
 8258SOL     OW36406   1.882   0.305  11.119  0.3236  0.0941 -0.5346
 8258SOL    HW136407   1.917   0.218  11.138 -2.7188 -0.1829  3.9118
 8258SOL    HW236408   1.873   0.336  11.209 -2.3472  1.0965 -1.1563
 8259SOL     OW36409   2.024   1.219   7.804 -0.3054 -0.1570  0.3191
 8259SOL    HW136410   1.975   1.150   7.849 -1.3601  0.2768 -0.1555
 8259SOL    HW236411   1.953   1.257   7.752  0.2151  1.4467  0.7908
 8260SOL     OW36412   3.757   3.444  12.524  0.4650 -0.2623  0.0546
 8260SOL    HW136413   3.755   3.376  12.592  0.9180  0.2405  0.5646
 8260SOL    HW236414   3.849   3.445  12.497  0.6375 -0.0287  0.6391
 8261SOL     OW36415   0.529   0.617  11.011 -0.3833  0.1037  0.0122
 8261SOL    HW136416   0.619   0.651  11.005 -0.4859  0.1140 -1.5706
 8261SOL    HW236417   0.539   0.550  10.943 -2.8677 -1.8701  1.6402
 8262SOL     OW36418   0.379   2.564   3.225  0.2488 -0.4681  0.0016
 8262SOL    HW136419   0.330   2.525   3.152 -1.5009  1.3200  0.2224
 8262SOL    HW236420   0.304   2.591   3.277  1.3535  0.9254  0.8741
 8263SOL     OW36421   2.386   2.024  17.035  0.0037 -0.2354 -0.3157
 8263SOL    HW136422   2.458   1.973  17.071 -1.3271 -0.9243  1.3810
 8263SOL    HW236423   2.308   1.977  17.065 -0.9787  1.8949  0.5094
 8264SOL     OW36424   1.265   1.219   5.859  0.0938  0.6425 -0.4739
 8264SOL    HW136425   1.312   1.183   5.783  2.5863  1.2507  0.7816
 8264SOL    HW236426   1.334   1.230   5.925 -1.2479 -0.4750  1.1219
 8265SOL     OW36427   2.833   3.967   3.190  0.0435 -0.1974 -0.0801
 8265SOL    HW136428   2.800   4.053   3.162  0.1954 -0.3865 -0.8542
 8265SOL    HW236429   2.912   3.968   3.136  0.0547 -0.6913 -0.0684
 8266SOL     OW36430   4.226   1.735  14.075 -0.5289 -0.0546  0.3371
 8266SOL    HW136431   4.197   1.824  14.091  0.7498  0.3453  0.3968
 8266SOL    HW236432   4.145   1.688  14.094 -2.2103  2.0813 -1.6699
 8267SOL     OW36433   1.782   1.995  14.853  0.1951 -0.0966 -0.5143
 8267SOL    HW136434   1.871   1.967  14.834 -0.0333 -1.4823  0.4898
 8267SOL    HW236435   1.756   2.017  14.764 -2.2331  0.0156  0.2143
 8268SOL     OW36436   0.913   0.347   7.051  0.2766  0.5029  0.1199
 8268SOL    HW136437   0.931   0.339   7.145  1.6476 -3.9497 -0.5195
 8268SOL    HW236438   0.821   0.321   7.044  0.3642  0.4606 -0.8272
 8269SOL     OW36439   0.208   4.552   7.913 -0.4859  0.2629  0.0326
 8269SOL    HW136440   0.222   4.625   7.852 -1.2892 -1.3210 -2.0442
 8269SOL    HW236441   0.220   4.476   7.856  3.1353  0.0656  0.9948
 8270SOL     OW36442   4.403   4.255   4.582 -0.3810 -0.0173 -0.3442
 8270SOL    HW136443   4.438   4.344   4.581  1.7089 -0.8169  2.7461
 8270SOL    HW236444   4.485   4.211   4.560  0.9776  1.7844  1.1187
 8271SOL     OW36445   4.387   4.697   6.004  0.3067 -0.3129  0.3725
 8271SOL    HW136446   4.349   0.010   5.932  1.2616 -0.3928 -0.1858
 8271SOL    HW236447   4.362   4.611   5.970 -0.6325  0.5535 -1.1141
 8272SOL     OW36448   2.267   2.453   4.929 -0.7054  0.3923 -0.3752
 8272SOL    HW136449   2.309   2.466   4.844  0.9508 -1.3912  0.1722
 8272SOL    HW236450   2.174   2.452   4.908 -0.8405 -0.5568  0.2737
 8273SOL     OW36451   2.993   1.588   4.425  0.1802  0.2384 -0.3760
 8273SOL    HW136452   3.023   1.520   4.485  0.7151  0.4964 -0.3543
 8273SOL    HW236453   2.941   1.533   4.365  0.8524  0.4720 -1.1779
 8274SOL     OW36454   3.470   0.607  12.502  0.0627 -0.3300 -0.2032
 8274SOL    HW136455   3.419   0.573  12.429  0.2962 -0.8720 -0.1163
 8274SOL    HW236456   3.513   0.532  12.543  1.8721  0.5561 -0.4987
 8275SOL     OW36457   1.195   3.642   3.200  0.6204 -0.1374 -0.7126
 8275SOL    HW136458   1.179   3.617   3.290 -2.3193  0.2731 -1.1262
 8275SOL    HW236459   1.115   3.688   3.172  0.2695  0.8266  1.8848
 8276SOL     OW36460   0.367   0.348   3.406  0.0299 -0.3307 -0.3669
 8276SOL    HW136461   0.381   0.441   3.390  0.6380 -0.4028 -0.2295
 8276SOL    HW236462   0.456   0.322   3.385  0.6960  0.9573  0.9237
 8277SOL     OW36463   0.819   3.907  15.944  0.1729 -0.3594  0.0623
 8277SOL    HW136464   0.725   3.891  15.936  0.0462  0.3346  0.1870
 8277SOL    HW236465   0.826   3.870  16.032 -1.5210 -0.6869  0.0483
 8278SOL     OW36466   0.992   0.356   3.707 -0.3666 -0.0512  0.2581
 8278SOL    HW136467   1.017   0.392   3.792 -0.2976  0.0968  0.1745
 8278SOL    HW236468   1.077   0.336   3.667  1.9120  0.7966  4.5713
 8279SOL     OW36469   2.140   1.417   3.206  0.7276 -0.1154 -0.2618
 8279SOL    HW136470   2.223   1.426   3.253  1.8719 -1.7750 -1.9401
 8279SOL    HW236471   2.120   1.323   3.207 -2.3660  0.5601  1.5499
 8280SOL     OW36472   1.694   3.513   7.025  0.4789 -0.0504 -0.3680
 8280SOL    HW136473   1.757   3.551   7.086 -0.5294 -0.4399  0.9087
 8280SOL    HW236474   1.720   3.421   7.023 -1.2121 -0.5096 -2.4264
 8281SOL     OW36475   0.426   3.189   9.603  0.3517 -0.1421  0.5463
 8281SOL    HW136476   0.505   3.200   9.655  1.9539 -2.1622 -1.4347
 8281SOL    HW236477   0.444   3.259   9.540  0.2933 -0.9397 -0.3516
 8282SOL     OW36478   2.491   1.546  10.660 -0.6888 -0.2269 -0.1935
 8282SOL    HW136479   2.506   1.484  10.731 -1.4905 -1.1025 -0.7771
 8282SOL    HW236480   2.408   1.517  10.620 -1.5910  1.0957  0.7547
 8283SOL     OW36481   3.204   2.656   2.488  0.3192  0.7260  0.0391
 8283SOL    HW136482   3.123   2.707   2.490 -0.0081  0.1143  1.8144
 8283SOL    HW236483   3.185   2.598   2.414  1.0724  0.0932  0.3388
 8284SOL     OW36484   1.610   0.330   1.086 -0.0959 -0.0157 -0.1331
 8284SOL    HW136485   1.562   0.334   1.169 -1.5446  0.9223 -1.0291
 8284SOL    HW236486   1.687   0.275   1.101 -1.5236 -1.7351  0.8462
 8285SOL     OW36487   1.857   1.455   3.794 -0.4545 -0.4123 -0.2457
 8285SOL    HW136488   1.908   1.374   3.787 -0.4197 -0.3032 -1.3021
 8285SOL    HW236489   1.832   1.446   3.885  0.4113  1.0568  0.1338
 8286SOL     OW36490   1.109   0.245   5.178 -0.6583  0.4496  0.1836
 8286SOL    HW136491   1.184   0.220   5.233  1.2588 -0.5006 -2.8574
 8286SOL    HW236492   1.036   0.206   5.226  1.0719 -1.4019  1.3039
 8287SOL     OW36493   0.163   0.018   2.571  0.4935 -0.4518 -0.2012
 8287SOL    HW136494   0.254   4.732   2.591  0.3049 -0.6004  0.4697
 8287SOL    HW236495   0.115   4.682   2.609 -1.4068  1.2303  0.6261
 8288SOL     OW36496   2.161   3.240  17.730  0.0174 -0.6874 -0.8284
 8288SOL    HW136497   2.235   3.181  17.716  0.6320 -0.3124  0.8716
 8288SOL    HW236498   2.121   3.193   0.056  0.4595  0.0315 -0.1214
 8289SOL     OW36499   0.816   3.116  12.673  0.1564  0.3435  0.0612
 8289SOL    HW136500   0.899   3.105  12.720 -0.0965  0.9420  0.6280
 8289SOL    HW236501   0.789   3.205  12.695 -0.5422  0.6110 -1.8466
 8290SOL     OW36502   1.798   2.363   7.318  0.6278 -0.1004 -0.4737
 8290SOL    HW136503   1.780   2.400   7.404 -1.4751 -4.2758  0.8480
 8290SOL    HW236504   1.778   2.270   7.313 -0.5570  0.0685  1.2211
 8291SOL     OW36505   4.715   3.651   9.331 -0.4623 -0.2140  0.6109
 8291SOL    HW136506   0.011   3.615   9.249 -1.1815 -2.6686  1.3853
 8291SOL    HW236507   4.662   3.578   9.362  0.7196 -1.9854 -1.5047
 8292SOL     OW36508   0.808   2.829  16.950 -0.0319 -0.1182  0.5601
 8292SOL    HW136509   0.863   2.752  16.966  1.0693  0.7965  1.1901
 8292SOL    HW236510   0.782   2.808  16.861 -2.6934 -0.6840  1.4662
 8293SOL     OW36511   1.758   1.286  14.803  0.4919  0.1214 -0.1253
 8293SOL    HW136512   1.789   1.355  14.744  1.4407 -0.3594 -0.1768
 8293SOL    HW236513   1.804   1.309  14.884 -0.5615  0.3894  0.4044
 8294SOL     OW36514   4.551   2.677   5.820 -0.1479 -0.3749 -0.7784
 8294SOL    HW136515   4.459   2.699   5.834 -0.7514 -2.9875 -0.7476
 8294SOL    HW236516   4.564   2.686   5.725  1.3759 -2.3668 -0.7522
 8295SOL     OW36517   2.336   1.769   5.430  0.6645  0.0363 -0.0319
 8295SOL    HW136518   2.288   1.850   5.449 -3.3385 -2.3644 -0.0055
 8295SOL    HW236519   2.330   1.731   5.518 -0.2783 -1.9949 -0.9840
 8296SOL     OW36520   4.510   2.299  11.272  0.9601 -0.4010  0.3815
 8296SOL    HW136521   4.490   2.319  11.180  1.7206  0.5853  0.4269
 8296SOL    HW236522   4.594   2.345  11.274  0.3062  0.8333 -0.3754
 8297SOL     OW36523   3.286   4.679   2.980 -0.3455 -0.5614 -0.0979
 8297SOL    HW136524   3.327   4.697   3.065 -0.0152  1.0445 -0.5925
 8297SOL    HW236525   3.321   0.013   2.927  0.7192 -1.7846 -1.0445
 8298SOL     OW36526   3.996   2.524   6.218 -0.0804 -0.1486  0.2826
 8298SOL    HW136527   3.980   2.619   6.217  0.2115 -0.1054 -0.1923
 8298SOL    HW236528   3.960   2.501   6.303 -0.7920  0.2175  0.0825
 8299SOL     OW36529   4.391   3.001   0.229  0.2090 -0.0264  0.4122
 8299SOL    HW136530   4.410   3.062   0.300  1.5222  1.9799 -1.6360
 8299SOL    HW236531   4.446   3.039   0.160 -0.3447  0.8204  0.4369
 8300SOL     OW36532   3.854   0.784   3.200  0.6014 -0.2358  0.5970
 8300SOL    HW136533   3.868   0.845   3.273  1.0880 -0.7017  0.8903
 8300SOL    HW236534   3.912   0.713   3.226  1.2818  0.4183  0.8822
 8301SOL     OW36535   0.625   4.134   7.539  0.2929 -0.2857  0.3070
 8301SOL    HW136536   0.567   4.168   7.471  2.4315  0.1501 -1.2680
 8301SOL    HW236537   0.704   4.185   7.523  2.2787 -3.2522  0.6735
 8302SOL     OW36538   2.870   4.184   8.005 -0.7997 -0.5054 -0.2164
 8302SOL    HW136539   2.910   4.243   7.941 -0.0060  0.1544  0.8703
 8302SOL    HW236540   2.783   4.185   7.965 -1.3379 -0.2188  0.9446
 8303SOL     OW36541   0.062   2.586   5.890 -0.5096 -0.3832  0.1779
 8303SOL    HW136542   4.710   2.621   5.895 -1.0749 -1.5961 -1.2241
 8303SOL    HW236543   0.060   2.550   5.801  1.0329  0.0108 -0.0112
 8304SOL     OW36544   0.528   1.091   5.553  0.6750  0.2234  0.2229
 8304SOL    HW136545   0.496   1.120   5.638 -0.6108 -0.2434 -0.1133
 8304SOL    HW236546   0.481   1.009   5.541  2.1590 -0.6475  0.3032
 8305SOL     OW36547   3.675   3.567   6.586 -0.1605  0.3187 -0.2507
 8305SOL    HW136548   3.743   3.605   6.641 -0.0415  0.1946 -0.3122
 8305SOL    HW236549   3.592   3.601   6.619  1.0472  3.4947 -0.4776
 8306SOL     OW36550   4.153   3.260   1.615 -0.0113  0.3462 -0.5011
 8306SOL    HW136551   4.188   3.193   1.674 -0.3800 -1.4707 -2.3426
 8306SOL    HW236552   4.153   3.336   1.674 -1.3180 -0.2266  0.2286
 8307SOL     OW36553   2.720   4.668   2.449 -0.8252  0.3491  0.0878
 8307SOL    HW136554   2.743   0.017   2.416 -2.9172  0.5004 -0.9471
 8307SOL    HW236555   2.670   4.631   2.376  0.4710 -1.5815  0.1808
 8308SOL     OW36556   0.842   0.587   4.294  0.1099  0.0763  0.4503
 8308SOL    HW136557   0.777   0.629   4.351 -0.0235  1.5376 -0.7579
 8308SOL    HW236558   0.789   0.598   4.215  1.3250  1.4005 -0.1799
 8309SOL     OW36559   1.274   3.569   6.879  0.3951 -0.2988 -0.3203
 8309SOL    HW136560   1.259   3.508   6.807  0.6956 -0.2911 -0.3883
 8309SOL    HW236561   1.366   3.592   6.871  0.7621 -1.6155  0.1585
 8310SOL     OW36562   1.686   1.136   8.335  0.7263  0.1869  0.1437
 8310SOL    HW136563   1.679   1.223   8.373  0.1054  0.9675 -1.7474
 8310SOL    HW236564   1.687   1.078   8.411  1.4170  0.2866  0.2037
 8311SOL     OW36565   3.277   2.768  12.377 -0.2482  0.4898  0.7525
 8311SOL    HW136566   3.242   2.811  12.299  1.3748  1.4644  0.5717
 8311SOL    HW236567   3.355   2.823  12.384  2.3519 -3.4870  2.7455
 8312SOL     OW36568   4.239   3.036  11.231  0.1736 -0.0440  0.1228
 8312SOL    HW136569   4.278   3.057  11.146  0.3601  1.6715  0.6262
 8312SOL    HW236570   4.163   2.980  11.217 -0.7542  1.5512 -1.2233
 8313SOL     OW36571   2.872   1.584   2.700  0.1544 -0.3274  0.6453
 8313SOL    HW136572   2.950   1.583   2.644 -2.3534  0.3486 -2.8110
 8313SOL    HW236573   2.904   1.642   2.769  0.3436 -0.5605  0.7569
 8314SOL     OW36574   2.381   3.085   0.013 -0.4218  0.1765  0.4627
 8314SOL    HW136575   2.444   3.089   0.085  2.2842  0.2633 -1.9043
 8314SOL    HW236576   2.431   3.056  17.684 -0.2735 -1.6635  1.2716
 8315SOL     OW36577   0.175   4.446   9.410 -0.3566  0.3137 -0.3719
 8315SOL    HW136578   0.085   4.447   9.376 -1.0276 -0.2794  1.3709
 8315SOL    HW236579   0.158   4.382   9.479  0.4245  0.2305 -0.2552
 8316SOL     OW36580   3.445   2.009   9.960 -0.0419  0.7736 -0.1099
 8316SOL    HW136581   3.454   1.994  10.054  0.5956  0.7702 -0.1767
 8316SOL    HW236582   3.371   2.070   9.962 -1.8750 -1.5128  1.2713
 8317SOL     OW36583   2.920   0.134   4.945  0.2482 -0.6604 -0.1352
 8317SOL    HW136584   2.921   0.099   4.856 -0.5589  2.1858 -1.2532
 8317SOL    HW236585   2.832   0.173   4.944  0.1309 -0.9440 -2.5160
 8318SOL     OW36586   0.081   4.177   6.197 -0.0776  0.0950 -0.5895
 8318SOL    HW136587   0.018   4.159   6.127 -0.0731  0.8526 -0.7931
 8318SOL    HW236588   0.162   4.197   6.151  1.5136 -0.7788  1.8530
 8319SOL     OW36589   2.899   3.220   4.639 -0.3311 -0.4737  0.0354
 8319SOL    HW136590   2.888   3.212   4.733 -0.9329 -0.4182 -0.0317
 8319SOL    HW236591   2.962   3.293   4.629 -0.3709 -0.4043  0.3065
 8320SOL     OW36592   4.206   4.578   2.676 -0.0571 -0.2131  0.0055
 8320SOL    HW136593   4.236   4.503   2.624  1.2889  0.5035 -0.2368
 8320SOL    HW236594   4.166   4.637   2.612 -0.1130  1.7409  1.8778
 8321SOL     OW36595   1.377   0.172   6.704 -0.1836  0.6257 -0.0445
 8321SOL    HW136596   1.297   0.147   6.657 -0.1807 -1.8466  1.2741
 8321SOL    HW236597   1.386   0.265   6.680  1.4720 -0.4013 -3.2907
 8322SOL     OW36598   0.613   4.077  15.621 -0.0178  0.1654 -0.0600
 8322SOL    HW136599   0.622   4.123  15.704  0.0331  0.3052 -0.1423
 8322SOL    HW236600   0.588   3.991  15.655 -0.6977  1.2094  2.0759
 8323SOL     OW36601   2.646   1.059  15.925 -0.5524  0.0349  0.3978
 8323SOL    HW136602   2.616   1.037  15.837  0.0590  2.2813 -0.3771
 8323SOL    HW236603   2.575   1.112  15.960 -0.5086  0.0454  0.4715
 8324SOL     OW36604   0.849   0.643  13.685 -0.2930  0.9547  0.1910
 8324SOL    HW136605   0.882   0.588  13.756  1.7057  0.9109 -0.7548
 8324SOL    HW236606   0.841   0.725  13.733  1.1067  1.5897 -0.6675
 8325SOL     OW36607   3.616   1.109  12.673  0.4794 -0.2697 -0.0972
 8325SOL    HW136608   3.711   1.110  12.688  0.5720 -3.0626 -0.4061
 8325SOL    HW236609   3.606   1.155  12.590  1.6892 -2.0160 -1.2200
 8326SOL     OW36610   1.153   1.542   8.826 -0.0117 -0.4855 -0.7876
 8326SOL    HW136611   1.086   1.480   8.853 -0.0317 -0.1841 -0.1571
 8326SOL    HW236612   1.232   1.507   8.867 -0.2404 -0.0358  0.0355
 8327SOL     OW36613   2.496   2.912  10.827  1.1132  0.0737  0.1577
 8327SOL    HW136614   2.591   2.924  10.834  1.2411 -1.3536  0.9565
 8327SOL    HW236615   2.466   2.874  10.910 -2.4772  1.7563 -0.3518
 8328SOL     OW36616   3.612   1.665   9.043 -0.0957  0.3209  0.4730
 8328SOL    HW136617   3.666   1.742   9.026  0.7056 -0.2989  0.2179
 8328SOL    HW236618   3.621   1.641   9.136  1.2227 -1.1414 -0.0223
 8329SOL     OW36619   1.968   4.473   9.029  0.1467  0.0382  0.1402
 8329SOL    HW136620   2.057   4.504   9.013  0.3719 -0.1942  0.9463
 8329SOL    HW236621   1.949   4.437   8.942 -3.2103 -0.1508  0.9536
 8330SOL     OW36622   0.931   3.386   9.149  0.1426 -0.4559  0.5127
 8330SOL    HW136623   0.949   3.346   9.064 -0.5737 -1.5539  0.8689
 8330SOL    HW236624   1.018   3.420   9.168 -0.4260  1.4550 -0.3646
 8331SOL     OW36625   3.526   4.694   1.715  0.1964 -0.5966  0.2493
 8331SOL    HW136626   3.585   4.683   1.640 -0.7902 -0.0202 -0.6078
 8331SOL    HW236627   3.542   4.611   1.760 -0.1806 -0.2084  1.1022
 8332SOL     OW36628   1.539   1.752   0.876  0.3667 -0.0162  0.2022
 8332SOL    HW136629   1.530   1.739   0.970  0.7116 -3.1534 -0.2147
 8332SOL    HW236630   1.595   1.677   0.860 -1.5660 -0.8070 -2.7391
 8333SOL     OW36631   0.549   2.148   8.900 -0.1158  0.3668 -0.0289
 8333SOL    HW136632   0.643   2.145   8.918 -0.0855  0.3652 -0.1907
 8333SOL    HW236633   0.555   2.202   8.821 -2.6592  1.4690  0.5355
 8334SOL     OW36634   3.382   3.194  12.531  0.2335  0.0079  0.2602
 8334SOL    HW136635   3.454   3.137  12.560 -0.8405 -1.3486  0.2654
 8334SOL    HW236636   3.415   3.221  12.445 -1.4628 -0.9320 -0.7041
 8335SOL     OW36637   1.942   4.605   6.468 -0.3121  0.6970  0.1980
 8335SOL    HW136638   2.034   4.629   6.457  0.7146 -2.2739  2.4579
 8335SOL    HW236639   1.933   4.630   6.560  0.3869  1.1315  0.1487
 8336SOL     OW36640   2.138   1.554   3.920  0.1554 -0.1796  0.3612
 8336SOL    HW136641   2.075   1.623   3.899 -1.1520 -0.6762  2.5979
 8336SOL    HW236642   2.081   1.478   3.906 -1.0194  0.5479  1.2267
 8337SOL     OW36643   3.785   2.215  16.651  0.6465 -0.6930 -0.0129
 8337SOL    HW136644   3.834   2.160  16.590  0.7365 -0.2857 -0.3147
 8337SOL    HW236645   3.854   2.229  16.716 -2.1971  1.2312  2.6067
 8338SOL     OW36646   1.714   0.698   8.518  0.2125  0.0239  0.1548
 8338SOL    HW136647   1.686   0.736   8.601 -0.9748 -1.4073  0.4162
 8338SOL    HW236648   1.802   0.732   8.504  0.3588 -1.4884 -2.7859
 8339SOL     OW36649   4.312   2.231  11.445 -0.1120 -0.6254 -0.2874
 8339SOL    HW136650   4.377   2.247  11.377 -0.1312 -3.2157 -0.9137
 8339SOL    HW236651   4.356   2.252  11.528 -1.0004  1.8473 -0.4516
 8340SOL     OW36652   3.816   3.563   8.969  0.4260 -0.5557  0.1856
 8340SOL    HW136653   3.876   3.634   8.948 -2.7555  1.5174 -1.9577
 8340SOL    HW236654   3.805   3.512   8.888 -0.7612 -0.0935  0.0528
 8341SOL     OW36655   0.630   3.407  17.630  0.6063 -0.2274  0.0367
 8341SOL    HW136656   0.595   3.365  17.552 -0.7537  0.7481  0.1281
 8341SOL    HW236657   0.707   3.353  17.652  0.6484  0.4001  1.4259
 8342SOL     OW36658   0.128   0.505   3.837 -0.0976  0.5864  0.0028
 8342SOL    HW136659   0.206   0.537   3.791  0.9578 -2.1523 -0.0987
 8342SOL    HW236660   0.126   0.550   3.922  1.0036  0.9795 -0.1687
 8343SOL     OW36661   3.635   2.565   8.794 -0.1160  0.4601  0.0830
 8343SOL    HW136662   3.601   2.632   8.853 -0.6885  3.3417 -3.5060
 8343SOL    HW236663   3.713   2.542   8.845  0.7298 -0.3615 -1.5818
 8344SOL     OW36664   0.036   2.284   7.604  0.5519  0.0443  0.0216
 8344SOL    HW136665   0.056   2.194   7.579 -3.5595 -0.7607 -0.3438
 8344SOL    HW236666   4.690   2.286   7.558 -0.4652 -0.2667  1.8522
 8345SOL     OW36667   2.380   1.389   8.216  0.5165  0.1239  0.4687
 8345SOL    HW136668   2.452   1.426   8.267  0.6481 -0.5807  0.7956
 8345SOL    HW236669   2.334   1.465   8.181  1.3016  0.1273 -0.5452
 8346SOL     OW36670   0.573   3.374   7.154  0.1324 -0.2360 -0.3302
 8346SOL    HW136671   0.548   3.319   7.080 -1.9402  0.7458 -0.3546
 8346SOL    HW236672   0.587   3.308   7.222  1.0229  1.2251  0.9135
 8347SOL     OW36673   0.943   0.818   6.978  0.5957  0.4722  0.0113
 8347SOL    HW136674   1.015   0.770   7.019 -1.9803 -2.7458  0.7487
 8347SOL    HW236675   0.912   0.761   6.908  2.2529  0.5998 -0.8179
 8348SOL     OW36676   3.602   0.072  12.922  0.2306 -0.2742  0.4310
 8348SOL    HW136677   3.510   0.097  12.930 -0.2020 -1.4770 -0.8098
 8348SOL    HW236678   3.640   0.157  12.903 -0.0270  0.4579  3.0975
 8349SOL     OW36679   2.615   0.693   3.809  0.3781 -0.0343 -0.1898
 8349SOL    HW136680   2.634   0.607   3.772  2.0257  0.5160 -0.6417
 8349SOL    HW236681   2.707   0.715   3.826  0.2699  0.5818 -0.3980
 8350SOL     OW36682   1.345   4.420  10.732  0.1910 -0.3486 -0.0593
 8350SOL    HW136683   1.300   4.343  10.766 -3.5390  2.5714  1.6053
 8350SOL    HW236684   1.283   4.492  10.741  0.7310 -0.0408  1.1887
 8351SOL     OW36685   3.184   1.775   3.182  0.0760 -0.9317 -0.2265
 8351SOL    HW136686   3.191   1.827   3.262 -1.3025 -1.1955  0.0805
 8351SOL    HW236687   3.089   1.770   3.171  0.0553  1.2191 -0.9865
 8352SOL     OW36688   3.284   1.453   6.705  0.0681 -0.2268 -0.6562
 8352SOL    HW136689   3.249   1.437   6.617 -0.0245  0.0265 -0.6657
 8352SOL    HW236690   3.332   1.535   6.693  0.1534 -0.1927 -0.0493
 8353SOL     OW36691   1.125   0.359   4.557  0.2315 -0.4904  0.0962
 8353SOL    HW136692   1.204   0.305   4.568 -0.1804 -1.1944 -0.4648
 8353SOL    HW236693   1.156   0.437   4.604  0.9682 -1.2611  0.8811
 8354SOL     OW36694   0.880   2.536   5.800  0.3415 -0.2274 -0.3613
 8354SOL    HW136695   0.834   2.602   5.851 -0.4365 -1.5311  0.6012
 8354SOL    HW236696   0.932   2.493   5.868 -0.5727  0.3630  0.7177
 8355SOL     OW36697   2.425   0.477  16.301 -0.2584 -0.4909 -0.3145
 8355SOL    HW136698   2.354   0.468  16.237 -1.0268  1.6196  0.2533
 8355SOL    HW236699   2.411   0.572  16.300 -0.2035 -0.4573  3.9629
 8356SOL     OW36700   0.095   0.167   1.653  0.7224 -0.0503 -0.4242
 8356SOL    HW136701   0.028   0.213   1.704 -0.0641 -0.6392 -0.9192
 8356SOL    HW236702   0.176   0.193   1.696  0.4518  0.6319 -0.3166
 8357SOL     OW36703   2.326   1.698   6.023 -0.4532 -0.2855 -0.1936
 8357SOL    HW136704   2.379   1.654   5.956 -0.4647 -0.6177  0.0163
 8357SOL    HW236705   2.391   1.742   6.077  1.6506 -1.6604 -1.5876
 8358SOL     OW36706   4.647   2.173  10.847 -0.3107 -0.0885  0.0263
 8358SOL    HW136707   4.607   2.144  10.766 -0.7838  0.1999  0.1571
 8358SOL    HW236708   4.605   2.113  10.908 -0.2000  0.6631  0.8450
 8359SOL     OW36709   0.868   3.396   9.784  0.1336  0.2152  0.2419
 8359SOL    HW136710   0.882   3.468   9.722 -1.7717  0.3486 -0.0388
 8359SOL    HW236711   0.954   3.357   9.768  0.4973  1.9010 -1.9395
 8360SOL     OW36712   2.336   0.221   1.420 -0.2202 -0.5985 -0.4850
 8360SOL    HW136713   2.309   0.241   1.330 -3.6596 -1.7410  0.3034
 8360SOL    HW236714   2.423   0.262   1.427 -0.7430  0.5793 -0.9260
 8361SOL     OW36715   1.944   3.448   0.881 -0.2548  0.1741  0.4210
 8361SOL    HW136716   1.860   3.442   0.835  0.4934 -0.7101 -0.8319
 8361SOL    HW236717   1.923   3.384   0.950 -1.3224  0.5256  0.4256
 8362SOL     OW36718   0.107   0.295  16.067 -0.5184  0.1456  0.4161
 8362SOL    HW136719   0.065   0.258  15.989 -0.2107  0.2864  0.1833
 8362SOL    HW236720   0.190   0.332  16.036  0.1942 -3.1707 -1.5914
 8363SOL     OW36721   1.176   3.275   7.324  0.1658  0.0673 -0.6167
 8363SOL    HW136722   1.124   3.314   7.254 -0.0865  0.3654 -0.2606
 8363SOL    HW236723   1.152   3.183   7.321 -1.4580  0.4953 -0.3714
 8364SOL     OW36724   2.058   3.727   4.856  0.1344  0.1757  0.3235
 8364SOL    HW136725   2.074   3.805   4.802 -0.7441  0.5492  0.6013
 8364SOL    HW236726   1.965   3.740   4.874  0.2196 -0.9223  1.5085
 8365SOL     OW36727   2.719   3.641  10.605  0.0191 -0.4921 -0.3862
 8365SOL    HW136728   2.713   3.726  10.561  0.3699  0.5542  1.5861
 8365SOL    HW236729   2.799   3.661  10.653 -0.4581  1.4223 -0.3949
 8366SOL     OW36730   1.217   3.451   2.524  0.3670  0.1355 -0.3922
 8366SOL    HW136731   1.123   3.438   2.533  0.3728 -1.2594 -2.1291
 8366SOL    HW236732   1.216   3.509   2.448 -1.4199  0.2481 -0.2773
 8367SOL     OW36733   4.032   4.474   5.973  0.0711 -0.4762 -0.0191
 8367SOL    HW136734   3.994   4.439   5.892 -0.1471 -0.4589  0.0769
 8367SOL    HW236735   3.966   4.460   6.040 -1.3504  0.3914 -1.2362
 8368SOL     OW36736   1.905   2.516   9.872 -0.0163 -0.6179 -0.0655
 8368SOL    HW136737   1.882   2.581   9.938 -0.4015  1.1173 -1.9053
 8368SOL    HW236738   2.000   2.524   9.860 -0.3842  0.9262 -2.0343
 8369SOL     OW36739   4.589   3.813   8.660 -0.0315  0.2387 -0.4405
 8369SOL    HW136740   4.520   3.750   8.642 -0.0812  0.8279 -2.3061
 8369SOL    HW236741   4.549   3.872   8.725  0.6235 -2.1931  2.2002
 8370SOL     OW36742   1.039   4.233  15.767 -0.4788  0.4107 -0.5028
 8370SOL    HW136743   1.023   4.157  15.710 -0.9504  0.5350 -0.5332
 8370SOL    HW236744   1.133   4.247  15.754  0.0355 -1.8380  0.7892
 8371SOL     OW36745   1.110   2.536   9.147 -0.1434 -0.3652  0.1681
 8371SOL    HW136746   1.127   2.480   9.223 -1.4008  2.0688  2.2241
 8371SOL    HW236747   1.017   2.516   9.140 -0.0758 -0.1732 -1.3421
 8372SOL     OW36748   2.517   1.438   3.553 -0.3335 -0.6775  0.2207
 8372SOL    HW136749   2.473   1.391   3.624 -0.9770 -0.0372  0.2472
 8372SOL    HW236750   2.483   1.526   3.566 -2.5737 -1.3794 -0.7816
 8373SOL     OW36751   1.546   2.119   1.678 -0.1547  0.5102 -0.3570
 8373SOL    HW136752   1.613   2.136   1.745 -2.3506  1.8979  1.5051
 8373SOL    HW236753   1.532   2.208   1.646 -0.9959  0.8507  0.9399
 8374SOL     OW36754   3.759   3.251   5.700  0.1262  0.0182  0.4437
 8374SOL    HW136755   3.736   3.250   5.607  0.9026  0.5329  0.2383
 8374SOL    HW236756   3.762   3.156   5.714  0.3458  0.1098  1.0173
 8375SOL     OW36757   3.365   2.585   6.834 -0.3219 -0.3575 -0.1900
 8375SOL    HW136758   3.432   2.565   6.899 -1.1571 -1.7696  0.2482
 8375SOL    HW236759   3.371   2.512   6.773 -2.2862 -0.0266 -0.7898
 8376SOL     OW36760   3.348   0.165  16.880 -0.1164  0.1879 -0.3413
 8376SOL    HW136761   3.356   0.101  16.951  0.9434  0.2759 -0.3854
 8376SOL    HW236762   3.417   0.140  16.818  1.9794  2.5545  1.0587
 8377SOL     OW36763   0.296   3.400   2.956 -0.3159 -0.3264 -0.4811
 8377SOL    HW136764   0.387   3.419   2.934 -0.4494  2.0154  1.0630
 8377SOL    HW236765   0.304   3.306   2.970  1.3089 -0.1105 -0.0141
 8378SOL     OW36766   3.546   2.096  13.682 -0.3211  0.3599  0.1999
 8378SOL    HW136767   3.633   2.066  13.657 -0.0953 -0.1280  1.5830
 8378SOL    HW236768   3.499   2.013  13.695 -1.5335  1.0173  0.0126
 8379SOL     OW36769   0.539   1.785  11.271  0.3253  0.4282  0.0411
 8379SOL    HW136770   0.452   1.795  11.309  0.9981  0.3691  1.5735
 8379SOL    HW236771   0.598   1.825  11.335  1.4642  0.5843 -1.1067
 8380SOL     OW36772   3.409   3.354   8.440  0.2208 -0.1245 -0.1891
 8380SOL    HW136773   3.484   3.402   8.475 -1.3910  0.3176  2.6357
 8380SOL    HW236774   3.341   3.379   8.503 -0.4126 -2.6281  0.0966
 8381SOL     OW36775   0.405   4.680   7.758 -0.2337 -0.5168  0.1711
 8381SOL    HW136776   0.436   4.633   7.835  1.0436  0.6826  0.3872
 8381SOL    HW236777   0.419   0.034   7.783  2.6426 -0.7559 -0.4969
 8382SOL     OW36778   0.013   3.529   1.735 -0.1891  0.3605 -0.1236
 8382SOL    HW136779   0.058   3.599   1.783  1.1678 -0.5584 -0.0521
 8382SOL    HW236780   4.688   3.586   1.690 -0.4067  0.6299  0.5132
 8383SOL     OW36781   4.404   2.776   6.939  0.2537 -0.8572 -0.4000
 8383SOL    HW136782   4.330   2.724   6.973  1.3441 -1.5436  0.9216
 8383SOL    HW236783   4.482   2.723   6.954  1.9067  1.2960 -1.4573
 8384SOL     OW36784   0.225   4.140   4.659  0.1204 -0.1774  0.3917
 8384SOL    HW136785   0.291   4.195   4.701  1.3771 -0.7326 -0.8277
 8384SOL    HW236786   0.227   4.194   4.581 -2.8258 -0.5217  0.0597
 8385SOL     OW36787   4.143   4.427   5.606 -0.4056  0.2177  0.1049
 8385SOL    HW136788   4.144   4.401   5.514 -1.1164 -1.3853  0.5373
 8385SOL    HW236789   4.050   4.423   5.629 -0.4687  0.5438 -0.0962
 8386SOL     OW36790   0.444   2.702   5.743 -0.2741 -0.4868 -0.2163
 8386SOL    HW136791   0.505   2.628   5.731 -0.9377 -0.9801 -0.5501
 8386SOL    HW236792   0.367   2.675   5.694 -0.1082 -0.5569 -0.4397
 8387SOL     OW36793   1.746   0.369   3.083 -0.0386  0.0484  0.1281
 8387SOL    HW136794   1.748   0.442   3.145  0.7728  1.6570 -1.8282
 8387SOL    HW236795   1.699   0.414   3.013  1.8778  0.8621 -0.6343
 8388SOL     OW36796   3.698   3.934   9.371 -0.3446  0.1700  0.0381
 8388SOL    HW136797   3.605   3.911   9.370  0.1428 -1.7654 -1.1799
 8388SOL    HW236798   3.725   3.859   9.425  0.1749 -0.4440 -1.0811
 8389SOL     OW36799   1.882   0.321   4.003  0.3019  0.4687 -0.7793
 8389SOL    HW136800   1.936   0.395   3.976  0.1713 -0.2976 -3.0810
 8389SOL    HW236801   1.886   0.264   3.926 -1.1913 -1.3118  0.4495
 8390SOL     OW36802   1.406   4.497   3.520  0.3383 -0.3126  0.3869
 8390SOL    HW136803   1.485   4.529   3.478  0.6286 -0.8309  0.5376
 8390SOL    HW236804   1.347   4.570   3.502 -0.6218 -0.5663  2.4354
 8391SOL     OW36805   0.283   3.723  11.816  0.3172  0.0487 -0.4187
 8391SOL    HW136806   0.250   3.703  11.903  1.4877  0.2757  0.0755
 8391SOL    HW236807   0.371   3.685  11.816  0.6269  0.7672 -1.6046
 8392SOL     OW36808   1.649   3.960  11.219 -0.2461 -0.9216  0.3358
 8392SOL    HW136809   1.629   3.870  11.247  0.8022 -1.1069  0.4747
 8392SOL    HW236810   1.592   3.971  11.143  0.7911  2.1473  0.0103
 8393SOL     OW36811   3.176   1.776   7.684  0.6871 -0.3664  0.3330
 8393SOL    HW136812   3.251   1.727   7.650  1.1950 -0.7861  2.0700
 8393SOL    HW236813   3.123   1.717   7.737 -1.5238  2.0754  0.8171
 8394SOL     OW36814   4.230   3.491   4.963  0.7971  0.0708  0.5393
 8394SOL    HW136815   4.309   3.502   4.910  0.8494 -0.3479  0.5345
 8394SOL    HW236816   4.220   3.396   4.958 -1.1991  0.4100 -1.6717
 8395SOL     OW36817   2.441   0.819   8.629  0.0204  0.4043 -0.0734
 8395SOL    HW136818   2.504   0.781   8.569 -0.2821 -0.0701 -0.0871
 8395SOL    HW236819   2.375   0.751   8.616  0.7208 -0.2678 -0.1065
 8396SOL     OW36820   2.501   1.798   1.944 -0.7114 -0.2468 -0.5375
 8396SOL    HW136821   2.466   1.809   2.032  1.3684  0.9556  0.1382
 8396SOL    HW236822   2.458   1.718   1.913  0.1503 -0.4450 -1.2472
 8397SOL     OW36823   3.652   1.720   6.057  0.1708  0.3699 -0.3707
 8397SOL    HW136824   3.727   1.680   6.013  0.2498 -1.1693  1.1772
 8397SOL    HW236825   3.619   1.639   6.096 -0.2677 -0.6572 -2.8978
 8398SOL     OW36826   1.393   2.021   8.836 -0.5899  0.2538  0.6971
 8398SOL    HW136827   1.403   2.116   8.833 -0.7846  0.2548  0.0348
 8398SOL    HW236828   1.354   2.025   8.923  0.8007 -1.0748  1.3809
 8399SOL     OW36829   0.114   2.587   1.831  0.7821 -0.3170  0.3528
 8399SOL    HW136830   0.117   2.674   1.792 -1.0234 -0.3799  0.0562
 8399SOL    HW236831   0.152   2.536   1.760  0.8973  0.3963 -0.0984
 8400SOL     OW36832   1.896   3.362  13.859 -0.5244  0.3500  0.9100
 8400SOL    HW136833   1.922   3.453  13.847 -0.3553  0.2118  0.2506
 8400SOL    HW236834   1.858   3.366  13.947  1.7927  2.2063  1.7969
 8401SOL     OW36835   0.770   4.456   6.038  0.4187  0.3590 -0.2032
 8401SOL    HW136836   0.813   4.538   6.016  1.4539  1.2732  5.2768
 8401SOL    HW236837   0.706   4.447   5.968 -0.5225 -2.4763  1.0222
 8402SOL     OW36838   3.769   4.191  12.516 -0.2916  0.2961  0.5286
 8402SOL    HW136839   3.833   4.238  12.462  0.6108 -0.7823  0.6542
 8402SOL    HW236840   3.747   4.245  12.592 -2.7600 -0.6144  0.4738
 8403SOL     OW36841   0.771   3.099   9.405 -0.3711 -0.1896  0.1684
 8403SOL    HW136842   0.743   3.127   9.492 -3.3051 -1.5428 -0.3440
 8403SOL    HW236843   0.852   3.150   9.395  0.0778 -0.5181  2.1495
 8404SOL     OW36844   4.318   4.693   5.073  0.1507 -0.6836  0.2446
 8404SOL    HW136845   4.339   4.650   4.990 -0.6126  2.9717 -1.8439
 8404SOL    HW236846   4.226   4.670   5.078 -0.4502  1.7449  0.2768
 8405SOL     OW36847   2.704   1.826   7.547  0.2827  0.2743 -0.4463
 8405SOL    HW136848   2.674   1.842   7.636  2.7578 -2.2856  0.8513
 8405SOL    HW236849   2.780   1.767   7.553  0.0951  0.0207 -0.5509
 8406SOL     OW36850   1.494   3.444   0.610  0.3707  0.6490  0.3813
 8406SOL    HW136851   1.423   3.470   0.670  0.4849  2.6297 -0.3297
 8406SOL    HW236852   1.458   3.370   0.561  1.0061  0.2884  0.4709
 8407SOL     OW36853   0.859   2.699  14.307 -0.1338  0.5921  0.1547
 8407SOL    HW136854   0.932   2.645  14.336 -0.7025 -1.0399 -1.4708
 8407SOL    HW236855   0.819   2.735  14.386  1.2265 -1.2357  1.6828
 8408SOL     OW36856   1.360   4.105   9.444 -0.8713 -0.4148 -0.1157
 8408SOL    HW136857   1.298   4.058   9.499  0.2486 -0.7535  0.8482
 8408SOL    HW236858   1.416   4.144   9.510  0.6126 -1.9499 -0.4702
 8409SOL     OW36859   2.242   4.442   6.551  0.4330  0.6969 -0.0738
 8409SOL    HW136860   2.178   4.371   6.545  0.0930  0.9841  0.1857
 8409SOL    HW236861   2.233   4.488   6.468 -1.8477 -2.6374 -1.6856
 8410SOL     OW36862   3.585   4.340   1.606 -0.3590 -0.7726 -0.0157
 8410SOL    HW136863   3.678   4.362   1.609 -0.5987  0.2508 -0.1549
 8410SOL    HW236864   3.587   4.252   1.568  2.4930 -0.3596 -0.8064
 8411SOL     OW36865   0.676   4.405   2.908  0.2869  0.4098  0.1243
 8411SOL    HW136866   0.650   4.474   2.969 -0.9125  1.2471 -1.3445
 8411SOL    HW236867   0.722   4.348   2.970 -0.2149 -1.1517 -0.9484
 8412SOL     OW36868   4.330   2.912   7.271 -0.3838  0.2228  0.4256
 8412SOL    HW136869   4.378   2.975   7.218 -1.6155  1.1785  0.4483
 8412SOL    HW236870   4.356   2.824   7.243  0.8865  1.0896 -1.1280
 8413SOL     OW36871   3.157   4.126   4.271  0.8893  0.6487  0.0149
 8413SOL    HW136872   3.096   4.189   4.233  0.6521 -0.2382 -1.0724
 8413SOL    HW236873   3.150   4.135   4.367 -0.0478 -1.0835  0.1044
 8414SOL     OW36874   3.312   2.089  13.934 -0.4720 -0.1749 -0.0427
 8414SOL    HW136875   3.355   2.005  13.923 -1.6842 -0.5174 -2.2067
 8414SOL    HW236876   3.218   2.076  13.919  0.1166 -6.2711  1.7197
 8415SOL     OW36877   3.954   0.471   3.044 -0.2141 -0.1755 -0.6297
 8415SOL    HW136878   4.006   0.530   2.989 -0.2024  0.9295  0.5647
 8415SOL    HW236879   4.009   0.482   3.121  2.9514 -1.1735 -2.7397
 8416SOL     OW36880   1.402   4.039   5.275 -0.6960 -0.1828 -0.4831
 8416SOL    HW136881   1.480   4.089   5.252 -0.4214 -0.5139 -0.2740
 8416SOL    HW236882   1.429   3.952   5.247 -2.0856  0.1076 -2.6945
 8417SOL     OW36883   3.363   2.218   6.788 -0.1709 -0.0897  0.4160
 8417SOL    HW136884   3.392   2.250   6.702  1.0360 -3.3022 -0.3675
 8417SOL    HW236885   3.326   2.134   6.761  3.6919 -0.6658 -3.0326
 8418SOL     OW36886   3.855   3.006   5.250  0.3303 -0.6872 -0.1281
 8418SOL    HW136887   3.857   2.924   5.300 -0.0796 -0.3192  0.4959
 8418SOL    HW236888   3.931   3.047   5.292 -1.5100  0.5829  1.9487
 8419SOL     OW36889   2.011   2.544   3.843 -0.1180  0.0722 -0.0918
 8419SOL    HW136890   1.993   2.602   3.917 -1.5443  0.7145 -0.9385
 8419SOL    HW236891   2.107   2.546   3.847 -0.1187 -0.1805  0.0345
 8420SOL     OW36892   3.049   4.655   6.101 -0.4621  0.5791 -0.0903
 8420SOL    HW136893   3.012   4.611   6.024 -2.5282 -1.4700  2.0768
 8420SOL    HW236894   3.140   4.636   6.079 -1.1338 -0.2210 -2.1621
 8421SOL     OW36895   2.353   3.700   9.819 -0.1799  0.2660 -0.1571
 8421SOL    HW136896   2.308   3.783   9.807 -0.2780  0.0689 -1.0979
 8421SOL    HW236897   2.308   3.677   9.900 -0.2472 -0.2544 -0.3414
 8422SOL     OW36898   2.312   4.128   8.697 -0.2907  0.2584  0.1267
 8422SOL    HW136899   2.262   4.059   8.740  1.0185 -1.3298 -0.8839
 8422SOL    HW236900   2.370   4.161   8.766 -0.3101 -0.2074  0.3645
 8423SOL     OW36901   4.047   4.629  13.917  0.6983 -0.2933  0.1302
 8423SOL    HW136902   4.037   4.700  13.854  1.1374  0.7638  1.2638
 8423SOL    HW236903   4.031   4.554  13.859 -3.3264  0.5443  0.1508
 8424SOL     OW36904   3.250   0.058  10.914  0.5139 -0.2936 -0.6112
 8424SOL    HW136905   3.249   0.119  10.840 -0.7208  1.5703  0.9499
 8424SOL    HW236906   3.222   0.121  10.980  0.6029 -1.0273  0.1294
 8425SOL     OW36907   1.158   0.992  13.137 -0.2518  0.4437 -0.3999
 8425SOL    HW136908   1.124   1.050  13.206  0.0445  1.7007 -1.3227
 8425SOL    HW236909   1.241   0.969  13.178 -0.1207  2.3047  0.3646
 8426SOL     OW36910   0.410   1.364   2.564 -0.3313 -0.0689 -0.3563
 8426SOL    HW136911   0.482   1.420   2.594  0.5875 -0.3627 -1.9987
 8426SOL    HW236912   0.434   1.354   2.472 -0.1788  1.1680 -0.4511
 8427SOL     OW36913   3.552   0.871  15.807  0.1285  0.2842  0.4380
 8427SOL    HW136914   3.543   0.966  15.802 -1.9223  0.0413 -0.8264
 8427SOL    HW236915   3.489   0.836  15.744  1.8025 -2.9566  0.5852
 8428SOL     OW36916   0.555   1.239  16.579  0.9669 -0.0426 -0.0497
 8428SOL    HW136917   0.597   1.287  16.508  0.8403  0.5441  0.2688
 8428SOL    HW236918   0.544   1.155  16.534 -1.2673  0.3164 -0.1805
 8429SOL     OW36919   4.443   3.585   7.367 -0.0226  0.3160 -0.4862
 8429SOL    HW136920   4.451   3.515   7.432  0.4563  0.8605  0.0501
 8429SOL    HW236921   4.438   3.537   7.285 -0.4989 -0.2862 -0.1018
 8430SOL     OW36922   2.276   1.386   5.494 -0.1655  0.2430 -0.0292
 8430SOL    HW136923   2.321   1.367   5.412  1.3016 -1.5178  1.1533
 8430SOL    HW236924   2.280   1.295   5.525  0.1626 -0.6509 -2.6790
 8431SOL     OW36925   2.666   3.792  12.190  0.3616 -0.2971 -0.5153
 8431SOL    HW136926   2.719   3.740  12.130 -0.8479 -2.2781  0.1720
 8431SOL    HW236927   2.653   3.718  12.249  1.3519  1.1296  1.5118
 8432SOL     OW36928   0.532   3.991   0.569  0.1777  0.1583 -0.2042
 8432SOL    HW136929   0.589   3.990   0.493  1.2858 -0.4550  0.6277
 8432SOL    HW236930   0.456   3.956   0.523  0.9975 -1.1940 -0.5327
 8433SOL     OW36931   2.473   2.789   2.619 -0.0789  0.2982  0.1785
 8433SOL    HW136932   2.466   2.770   2.713 -1.2599  0.8264  0.2053
 8433SOL    HW236933   2.556   2.834   2.612  1.0217 -1.7799 -0.0835
 8434SOL     OW36934   1.244   3.932   2.630 -0.4445 -0.0277 -0.2702
 8434SOL    HW136935   1.317   3.945   2.690 -0.0786  2.7276 -1.3365
 8434SOL    HW236936   1.288   3.889   2.557  1.4099 -0.2247  0.9611
 8435SOL     OW36937   2.116   2.485   2.627 -0.2827  0.1948 -0.6924
 8435SOL    HW136938   2.115   2.567   2.677 -3.1342  0.2988 -0.9082
 8435SOL    HW236939   2.082   2.420   2.689 -0.2054  1.6153  0.8588
 8436SOL     OW36940   3.520   3.704   5.487 -0.1054  0.5885  0.4518
 8436SOL    HW136941   3.571   3.717   5.407 -0.7680  1.2247  0.1352
 8436SOL    HW236942   3.448   3.765   5.472 -1.4236 -0.7870  1.2146
 8437SOL     OW36943   1.481   4.605  15.638  0.4341 -0.1154 -0.1078
 8437SOL    HW136944   1.501   4.516  15.611 -0.8327 -0.7588  1.0734
 8437SOL    HW236945   1.487   4.659  15.559 -0.3213 -2.5323 -1.8261
 8438SOL     OW36946   4.385   2.086  15.834 -0.0561 -0.2003 -0.2912
 8438SOL    HW136947   4.440   2.015  15.867 -1.6542 -1.4917 -0.3976
 8438SOL    HW236948   4.450   2.156  15.835  0.1476 -0.4182  2.4293
 8439SOL     OW36949   2.293   4.609   1.355 -0.2657  0.4424  0.2560
 8439SOL    HW136950   2.299   4.515   1.338 -0.8848  0.9334 -2.6507
 8439SOL    HW236951   2.327   4.606   1.444  0.3324 -0.0125  0.0129
 8440SOL     OW36952   3.387   1.662   4.574 -0.6586 -0.2321  0.0188
 8440SOL    HW136953   3.365   1.585   4.523  0.0804 -0.5767  0.2221
 8440SOL    HW236954   3.439   1.708   4.508 -0.1197  2.0562  2.0084
 8441SOL     OW36955   1.908   3.005   6.936 -0.1286 -0.1226 -0.5685
 8441SOL    HW136956   1.838   3.067   6.956  2.1074  1.8667  1.1246
 8441SOL    HW236957   1.885   2.952   7.013  0.7986  0.4021  0.0672
 8442SOL     OW36958   2.909   2.225   1.240  0.3093 -0.3334  0.2429
 8442SOL    HW136959   2.983   2.239   1.181  1.0087 -0.4814  1.0876
 8442SOL    HW236960   2.955   2.200   1.320  1.0666 -1.7324 -0.6401
 8443SOL     OW36961   0.620   1.405   8.125 -0.2389 -0.2618  0.0728
 8443SOL    HW136962   0.637   1.495   8.152  0.2176 -1.7400  4.6882
 8443SOL    HW236963   0.541   1.407   8.069 -1.4951  3.1684  2.0271
 8444SOL     OW36964   1.862   0.606  10.171 -0.1590 -0.0229 -0.4692
 8444SOL    HW136965   1.792   0.608  10.105 -0.8433  0.9755  0.3003
 8444SOL    HW236966   1.853   0.690  10.215 -0.8334 -0.2172 -0.2294
 8445SOL     OW36967   3.238   2.123   2.264 -0.0891  0.4087 -1.0194
 8445SOL    HW136968   3.294   2.197   2.242  2.3136 -0.5207  1.9823
 8445SOL    HW236969   3.154   2.139   2.222 -0.5428 -0.8196 -0.6033
 8446SOL     OW36970   4.095   4.619   5.344  0.7410 -0.3715  0.0062
 8446SOL    HW136971   4.115   4.526   5.340 -0.7709 -0.8269  2.9925
 8446SOL    HW236972   4.092   4.641   5.250  0.1707 -2.2536 -0.4058
 8447SOL     OW36973   1.626   3.734  15.470  0.1137 -0.5385  0.6328
 8447SOL    HW136974   1.562   3.774  15.529  1.2686  0.3995  1.2386
 8447SOL    HW236975   1.664   3.809  15.425 -1.3788  1.0299  2.0044
 8448SOL     OW36976   2.076   1.605   8.479  0.5390  0.2196 -0.1802
 8448SOL    HW136977   2.138   1.634   8.546 -2.5420  0.5307  2.4942
 8448SOL    HW236978   2.003   1.666   8.482 -0.1734 -0.6778  0.7667
 8449SOL     OW36979   1.563   3.198  16.512 -0.3901  0.1671  0.0720
 8449SOL    HW136980   1.562   3.281  16.559  0.7227 -0.0713  0.5225
 8449SOL    HW236981   1.477   3.186  16.471  0.0153 -0.9343 -0.4537
 8450SOL     OW36982   0.820   0.809   9.007 -0.1178  0.2489 -0.1349
 8450SOL    HW136983   0.820   0.753   9.084 -0.4873 -1.0743 -1.0857
 8450SOL    HW236984   0.807   0.899   9.037  0.1614 -0.2733  1.5184
 8451SOL     OW36985   2.506   1.963   4.348  0.4331 -0.2937  0.3153
 8451SOL    HW136986   2.583   1.925   4.390  0.4288 -0.8838 -0.2128
 8451SOL    HW236987   2.540   1.987   4.262  0.5245 -0.0192  0.4277
 8452SOL     OW36988   3.900   4.701  12.071  0.3215  0.5595  0.0904
 8452SOL    HW136989   3.954   4.626  12.093  0.0844  0.5899  0.7723
 8452SOL    HW236990   3.968   0.031  12.066  0.0317  0.9758  1.7788
 8453SOL     OW36991   0.954   2.945   2.252  0.7069  0.1109  0.1198
 8453SOL    HW136992   0.960   3.028   2.204  1.2916  1.5750  2.7318
 8453SOL    HW236993   1.023   2.951   2.318  0.4736  2.9871  0.1243
 8454SOL     OW36994   4.378   0.569   3.821 -0.5942  0.2192  0.0702
 8454SOL    HW136995   4.440   0.637   3.848  0.1034 -0.2737 -0.3176
 8454SOL    HW236996   4.419   0.521   3.750 -0.8964  0.5697 -0.3407
 8455SOL     OW36997   0.867   2.657   1.662  0.6672 -0.0368 -0.3280
 8455SOL    HW136998   0.886   2.572   1.702  1.3518  0.0212 -0.5154
 8455SOL    HW236999   0.777   2.672   1.688  1.6020 -0.7365  3.2696
 8456SOL     OW37000   0.249   2.226  17.046 -0.1123 -0.5494  0.0767
 8456SOL    HW137001   0.179   2.279  17.084 -0.8666 -1.1552 -0.4760
 8456SOL    HW237002   0.301   2.294  17.002  0.1292 -0.6396  0.2240
 8457SOL     OW37003   1.376   3.074  11.272  0.5305  0.7974  0.7218
 8457SOL    HW137004   1.311   3.004  11.280  1.0662  0.1818 -0.3154
 8457SOL    HW237005   1.333   3.137  11.329  0.9452 -0.0355  1.9628
 8458SOL     OW37006   4.423   3.446   4.326  0.5342  0.1041 -0.1050
 8458SOL    HW137007   4.429   3.351   4.320  1.3489  0.0698  1.3883
 8458SOL    HW237008   4.507   3.463   4.284 -0.0347 -2.7677 -2.4445
 8459SOL     OW37009   2.745   1.352   1.750  0.0969 -0.2142 -0.6370
 8459SOL    HW137010   2.657   1.323   1.776  0.2336 -0.6204 -0.6419
 8459SOL    HW237011   2.749   1.430   1.805 -0.7777 -1.0374  0.5992
 8460SOL     OW37012   2.412   0.132   9.027 -0.8760  0.0354  0.2160
 8460SOL    HW137013   2.492   0.082   9.046 -0.0523  1.4457  0.4827
 8460SOL    HW237014   2.349   0.063   9.046  0.4815 -0.9433  1.1873
 8461SOL     OW37015   3.470   2.480   2.722  0.1098  0.0399  0.1991
 8461SOL    HW137016   3.557   2.441   2.708 -0.4490 -0.8181 -0.9019
 8461SOL    HW237017   3.450   2.439   2.807  0.4964  0.0623  0.3015
 8462SOL     OW37018   4.528   1.904   2.665 -0.2592 -0.5095 -0.4084
 8462SOL    HW137019   4.605   1.958   2.681 -1.7288  1.5135 -0.1437
 8462SOL    HW237020   4.491   1.898   2.753 -2.1360 -3.4391 -1.3978
 8463SOL     OW37021   1.017   3.994  16.671 -0.2044 -0.1015  0.0980
 8463SOL    HW137022   0.959   4.017  16.743  0.1270  1.4869 -0.1529
 8463SOL    HW237023   0.983   4.046  16.598 -0.2229  0.5032  0.5455
 8464SOL     OW37024   1.232   2.408   8.216 -0.4259  0.8293  0.5455
 8464SOL    HW137025   1.237   2.461   8.136 -3.3632 -0.0034 -0.1780
 8464SOL    HW237026   1.169   2.455   8.271 -0.6578  0.8761  0.2400
 8465SOL     OW37027   3.015   3.794   6.236  0.0746 -0.4900  0.2855
 8465SOL    HW137028   3.089   3.849   6.210 -0.1156 -1.8148 -3.0373
 8465SOL    HW237029   3.018   3.730   6.165 -0.1826 -0.1764 -0.0054
 8466SOL     OW37030   3.759   1.152   4.366  0.0214 -0.1338  0.0235
 8466SOL    HW137031   3.780   1.062   4.388 -3.0573 -0.4376  1.6867
 8466SOL    HW237032   3.663   1.150   4.362  0.0024 -0.2132  0.5772
 8467SOL     OW37033   0.189   2.215   6.399 -0.0422 -0.1528  0.7229
 8467SOL    HW137034   0.139   2.293   6.374 -1.6633 -0.2077  3.7630
 8467SOL    HW237035   0.272   2.246   6.362  0.0502 -1.1495  0.1151
 8468SOL     OW37036   1.075   0.229   2.062  0.2364 -0.2292 -0.2168
 8468SOL    HW137037   1.109   0.318   2.072 -0.7041 -0.2892  3.6282
 8468SOL    HW237038   1.141   0.187   2.007  2.1165  1.6641  0.5673
 8469SOL     OW37039   0.063   0.308  14.676 -0.3386 -0.2200 -0.9578
 8469SOL    HW137040   0.133   0.244  14.688  1.4803  2.2451  1.6076
 8469SOL    HW237041   0.114   0.388  14.691 -0.8486 -0.0232 -0.2702
 8470SOL     OW37042   1.885   0.206   0.865  0.2390 -0.1209 -0.3490
 8470SOL    HW137043   1.851   0.267   0.799 -0.1116  2.1204  1.9003
 8470SOL    HW237044   1.859   0.250   0.946 -0.9831  0.1158 -0.8682
 8471SOL     OW37045   0.042   3.670   8.548  0.0307  0.5204 -0.1564
 8471SOL    HW137046   4.731   3.742   8.589  0.2537  0.6015 -0.0334
 8471SOL    HW237047   4.722   3.655   8.473 -0.5708  1.2700  0.1560
 8472SOL     OW37048   0.088   1.564   1.504 -0.7524  0.6496 -0.4301
 8472SOL    HW137049   0.132   1.487   1.541 -2.8776 -0.6546 -0.6105
 8472SOL    HW237050   0.047   1.600   1.583 -3.5709 -1.8192 -0.7838
 8473SOL     OW37051   4.330   4.516  12.100 -0.1185  0.4460 -0.4217
 8473SOL    HW137052   4.327   4.420  12.092 -1.2679  0.6123 -2.0005
 8473SOL    HW237053   4.262   4.536  12.035  0.9924  2.5334 -0.9191
 8474SOL     OW37054   1.451   0.077  10.216  0.1535  0.1903  0.3544
 8474SOL    HW137055   1.484   0.153  10.263 -0.7612  1.5747 -1.2494
 8474SOL    HW237056   1.360   0.084  10.246 -0.2100 -3.3990  0.0543
 8475SOL     OW37057   3.449   0.799   9.105  0.4272 -0.0125  0.1784
 8475SOL    HW137058   3.372   0.803   9.049 -1.2225 -1.9028  2.3068
 8475SOL    HW237059   3.521   0.824   9.047 -0.0987 -1.8148 -1.2708
 8476SOL     OW37060   3.390   4.468   3.671  0.3901  0.1585  0.4546
 8476SOL    HW137061   3.475   4.470   3.715  1.2358 -0.3684 -1.1598
 8476SOL    HW237062   3.342   4.518   3.738 -1.2427 -0.8095 -0.0025
 8477SOL     OW37063   3.597   4.606   9.582  0.0896 -0.1122  0.0431
 8477SOL    HW137064   3.629   4.561   9.504  1.7297 -0.2608  0.8082
 8477SOL    HW237065   3.629   4.694   9.563 -0.9382  0.8231  2.5230
 8478SOL     OW37066   4.497   2.285   9.442  0.3807 -0.4083  0.4252
 8478SOL    HW137067   4.514   2.379   9.450  2.5773 -0.9177  1.8790
 8478SOL    HW237068   4.539   2.256   9.523  1.8259 -0.2861 -0.2880
 8479SOL     OW37069   0.135   0.161   4.469 -0.0565 -0.1598  0.2309
 8479SOL    HW137070   0.072   0.170   4.398  0.1011  2.1989  0.3987
 8479SOL    HW237071   0.213   0.146   4.417  1.0573  0.8595  1.6211
 8480SOL     OW37072   1.705   4.300   5.846 -0.6940  0.1591 -0.3191
 8480SOL    HW137073   1.643   4.372   5.840  0.2649  0.9162 -1.0953
 8480SOL    HW237074   1.782   4.336   5.889 -0.9372  1.4302 -0.9659
 8481SOL     OW37075   1.876   3.411   8.451  0.1796  0.1096 -0.0781
 8481SOL    HW137076   1.801   3.381   8.401  0.2476  2.0393 -1.3355
 8481SOL    HW237077   1.841   3.481   8.506 -1.1107  0.2749 -1.1229
 8482SOL     OW37078   1.486   3.858   1.191  0.3691 -0.4058  0.3250
 8482SOL    HW137079   1.394   3.885   1.184  0.2735 -0.1877  2.5317
 8482SOL    HW237080   1.501   3.812   1.108 -1.6966  3.0343 -1.9553
 8483SOL     OW37081   4.673   2.050   0.510 -0.0185 -0.7162 -0.2644
 8483SOL    HW137082   4.667   2.056   0.414  1.3619 -0.5659 -0.3280
 8483SOL    HW237083   4.719   2.130   0.534  0.1770 -0.5194 -1.2740
 8484SOL     OW37084   3.355   1.154  14.468  0.1946 -0.1194  0.7426
 8484SOL    HW137085   3.412   1.175  14.542  0.1914 -1.4216  1.1245
 8484SOL    HW237086   3.379   1.063  14.450  1.6518 -0.5070  4.7094
 8485SOL     OW37087   1.402   1.177  16.895  0.6257  0.2242  0.0670
 8485SOL    HW137088   1.353   1.208  16.819  1.0998  0.3095 -0.2043
 8485SOL    HW237089   1.460   1.248  16.924  0.9880  0.9716 -2.4852
 8486SOL     OW37090   2.081   0.948  16.545  0.1047  0.3306  0.6734
 8486SOL    HW137091   2.168   0.978  16.569 -0.4728  2.4078  0.1263
 8486SOL    HW237092   2.022   1.023  16.553  0.0841  0.4392 -0.5117
 8487SOL     OW37093   3.345   1.335   3.251 -0.2350  0.1349 -0.7312
 8487SOL    HW137094   3.428   1.357   3.294  0.4039 -1.3837 -1.1881
 8487SOL    HW237095   3.333   1.242   3.271 -0.2911  0.3078  0.0710
 8488SOL     OW37096   4.227   0.627   3.401 -0.2790  0.3873 -0.1172
 8488SOL    HW137097   4.266   0.689   3.339 -1.6268  0.8233 -0.5291
 8488SOL    HW237098   4.230   0.673   3.485 -3.7905  0.2940  0.0499
 8489SOL     OW37099   1.515   0.445  14.451  0.1186  0.1209 -0.0148
 8489SOL    HW137100   1.597   0.421  14.495  0.6294  0.1244 -0.9612
 8489SOL    HW237101   1.541   0.527  14.407  3.1056 -0.1597  1.2313
 8490SOL     OW37102   1.602   3.436  11.425  0.1757 -0.1202 -0.2315
 8490SOL    HW137103   1.594   3.364  11.361 -1.1284  0.1213 -0.3518
 8490SOL    HW237104   1.593   3.382  11.503 -1.7591 -0.6464 -0.8092
 8491SOL     OW37105   1.332   0.122  16.666 -0.0438 -1.3090  0.0877
 8491SOL    HW137106   1.292   0.193  16.616  0.5866  0.7599  2.5428
 8491SOL    HW237107   1.384   0.169  16.731  0.3336  1.7797 -2.4225
 8492SOL     OW37108   1.022   1.980   9.966  0.5471 -0.1041 -0.7825
 8492SOL    HW137109   1.071   2.049   9.921 -1.0546  1.8702  0.4798
 8492SOL    HW237110   1.000   1.920   9.894  0.3191  0.3504 -1.0895
 8493SOL     OW37111   2.152   4.093  15.301 -0.1595  0.1520 -1.1967
 8493SOL    HW137112   2.124   4.021  15.359 -0.1741  0.0521 -1.3284
 8493SOL    HW237113   2.070   4.136  15.278 -0.7198  0.2576  0.9413
 8494SOL     OW37114   3.079   4.229  17.690 -0.5567  0.1550 -0.5620
 8494SOL    HW137115   3.134   4.207   0.018  0.6075  1.1447 -1.1258
 8494SOL    HW237116   3.036   4.145  17.671 -0.2188  0.4445 -2.5741
 8495SOL     OW37117   3.064   4.721   1.831  0.0369 -0.8134  0.4904
 8495SOL    HW137118   3.056   0.066   1.783  1.2913 -0.4573  0.8934
 8495SOL    HW237119   3.058   0.021   1.919 -2.1066 -1.6277  0.6959
 8496SOL     OW37120   1.954   2.589   1.163 -0.2276  0.1657 -0.1381
 8496SOL    HW137121   1.924   2.677   1.185 -3.1129 -0.6907 -0.6475
 8496SOL    HW237122   1.973   2.547   1.247 -0.4177  1.3524  0.4980
 8497SOL     OW37123   2.172   0.726   3.658  0.0831  0.7150 -0.3304
 8497SOL    HW137124   2.125   0.756   3.735 -1.5272  0.8537 -1.3727
 8497SOL    HW237125   2.232   0.800   3.651  2.0592 -0.8934 -0.2987
 8498SOL     OW37126   4.556   3.102  11.148  0.0777 -0.2217  0.1135
 8498SOL    HW137127   4.483   3.074  11.093 -0.5097 -0.3469  0.9764
 8498SOL    HW237128   4.592   3.172  11.092 -4.4035 -1.7593 -4.6151
 8499SOL     OW37129   2.120   1.109   6.993  0.3544 -0.0839 -0.0450
 8499SOL    HW137130   2.025   1.098   6.993  0.4479 -0.9270  0.4444
 8499SOL    HW237131   2.132   1.186   7.048  2.4935 -1.8944  2.0374
 8500SOL     OW37132   0.943   1.822   4.826  0.0522  0.1493  0.0852
 8500SOL    HW137133   1.036   1.826   4.803  0.4839  0.1300  1.8517
 8500SOL    HW237134   0.929   1.731   4.799 -0.0326 -0.0257  0.7264
 8501SOL     OW37135   1.786   1.165  14.137  0.0397 -0.1964 -0.3416
 8501SOL    HW137136   1.866   1.174  14.085  0.3838  1.4911  0.4816
 8501SOL    HW237137   1.747   1.250  14.116 -0.0730 -0.3122 -0.5990
 8502SOL     OW37138   2.026   1.062   0.128  0.1981  0.1752 -0.1096
 8502SOL    HW137139   2.003   1.082   0.037 -1.6091  1.1025  0.5447
 8502SOL    HW237140   1.996   1.145   0.167  0.1001  0.5496 -0.9912
 8503SOL     OW37141   1.373   3.319  17.577 -0.3332  0.1420  0.2337
 8503SOL    HW137142   1.291   3.365  17.559 -1.1141 -0.8916  1.1467
 8503SOL    HW237143   1.432   3.394  17.584  1.5013 -1.2573 -0.3415
 8504SOL     OW37144   0.119   2.132   4.912  0.1516 -0.4925 -0.3057
 8504SOL    HW137145   0.041   2.134   4.856  0.0680 -1.8141 -0.2283
 8504SOL    HW237146   0.103   2.050   4.958  0.1351  0.0075  0.5790
 8505SOL     OW37147   1.323   2.564   5.239 -0.0153 -0.0209  0.9973
 8505SOL    HW137148   1.406   2.519   5.256  0.0176 -0.2721  0.1551
 8505SOL    HW237149   1.341   2.634   5.176 -2.9354 -0.4774 -0.3368
 8506SOL     OW37150   1.203   1.286   7.778  0.1834 -0.6469  0.7422
 8506SOL    HW137151   1.264   1.214   7.762  0.9928  0.7424 -2.2642
 8506SOL    HW237152   1.255   1.337   7.841 -0.7781  0.8337  0.3250
 8507SOL     OW37153   4.277   3.536   9.357  0.3131  0.3908 -0.2264
 8507SOL    HW137154   4.363   3.514   9.320  0.8574 -2.6453  2.9009
 8507SOL    HW237155   4.249   3.447   9.373  1.6987 -0.5230 -2.8633
 8508SOL     OW37156   2.581   1.833  10.898 -0.4057 -0.2441  0.3927
 8508SOL    HW137157   2.514   1.764  10.901  0.1536 -0.9012 -1.6716
 8508SOL    HW237158   2.591   1.857  10.990 -1.0333  2.3416 -0.2267
 8509SOL     OW37159   3.004   2.771   1.760 -0.2884 -0.6188 -0.4093
 8509SOL    HW137160   2.938   2.818   1.812 -0.2103  1.1608 -1.9318
 8509SOL    HW237161   3.070   2.741   1.822 -0.3699 -0.0860 -0.0606
 8510SOL     OW37162   3.605   0.155   2.492 -0.3750  0.0997 -1.2557
 8510SOL    HW137163   3.573   0.232   2.446 -0.5242 -0.0688 -1.4361
 8510SOL    HW237164   3.675   0.206   2.531 -0.3050 -0.5058 -0.5884
 8511SOL     OW37165   0.607   0.975  16.753  0.4515  0.1991  0.4324
 8511SOL    HW137166   0.520   1.012  16.743  0.0717 -0.9611 -0.6155
 8511SOL    HW237167   0.612   0.907  16.686 -0.9294  2.4054 -1.8934
 8512SOL     OW37168   3.806   1.607   7.709  0.4250  0.2124 -0.6243
 8512SOL    HW137169   3.803   1.565   7.623 -0.9375 -0.2246 -0.3588
 8512SOL    HW237170   3.746   1.546   7.751  1.6474  0.2866  1.2415
 8513SOL     OW37171   3.941   3.640  10.469 -0.4828 -0.8631 -0.3718
 8513SOL    HW137172   3.861   3.681  10.502  0.2211  0.1254  0.1098
 8513SOL    HW237173   4.006   3.694  10.515  0.7452 -1.8265 -0.9908
 8514SOL     OW37174   3.961   0.532   3.333 -0.5842 -0.3289 -0.5757
 8514SOL    HW137175   4.045   0.514   3.376 -0.5180  2.9914  0.7371
 8514SOL    HW237176   3.899   0.552   3.403 -1.2007 -1.0088 -0.9447
 8515SOL     OW37177   4.362   0.032   1.695 -0.3663 -0.3752  0.7588
 8515SOL    HW137178   4.313   4.711   1.754 -1.8791  2.6781  2.4870
 8515SOL    HW237179   4.292   0.089   1.664  0.0128  0.1992  0.9637
 8516SOL     OW37180   2.668   1.194   7.672  0.2107  0.4474 -0.1437
 8516SOL    HW137181   2.646   1.144   7.751 -0.1290 -0.7399 -0.9888
 8516SOL    HW237182   2.595   1.246   7.639  0.3624  0.0482 -1.1107
 8517SOL     OW37183   4.386   3.521   2.066  0.1549 -0.0732  0.3028
 8517SOL    HW137184   4.356   3.611   2.082  0.9390  0.0994  0.8256
 8517SOL    HW237185   4.303   3.474   2.072 -0.6816  1.2738 -0.5930
 8518SOL     OW37186   1.752   0.958   3.159  0.2431 -0.3003  0.3438
 8518SOL    HW137187   1.828   0.978   3.104 -0.0491  0.7546  0.3310
 8518SOL    HW237188   1.798   0.958   3.243 -0.3545 -2.6594  0.6726
 8519SOL     OW37189   1.018   3.858   3.182 -0.0510  0.1839  0.3310
 8519SOL    HW137190   1.028   3.939   3.132  3.3572 -0.5746 -0.2284
 8519SOL    HW237191   1.055   3.881   3.267 -1.9352  2.0033  0.6528
 8520SOL     OW37192   0.690   2.187   3.480  0.4677 -0.1326  0.2530
 8520SOL    HW137193   0.596   2.196   3.495  0.7226  0.0374  1.6842
 8520SOL    HW237194   0.698   2.107   3.429  2.3361 -0.3366  0.8948
 8521SOL     OW37195   1.204   0.811   0.388 -0.3633  0.0805 -0.4101
 8521SOL    HW137196   1.184   0.892   0.436 -0.7982  1.7031 -3.3427
 8521SOL    HW237197   1.150   0.747   0.435  0.3421 -0.6297 -0.5723
 8522SOL     OW37198   4.489   4.076   5.688 -0.0899  0.3539 -0.3437
 8522SOL    HW137199   4.508   3.991   5.648  3.0091  0.9063 -0.1008
 8522SOL    HW237200   4.394   4.065   5.692 -0.1917  1.7924  1.3907
 8523SOL     OW37201   2.383   2.193  16.335  0.1273  0.2535 -0.0743
 8523SOL    HW137202   2.457   2.228  16.286  0.2105  2.3645  1.5443
 8523SOL    HW237203   2.364   2.122  16.274 -0.6157  0.7580 -0.4283
 8524SOL     OW37204   0.660   2.834   6.221 -0.0877  0.2149  0.3315
 8524SOL    HW137205   0.650   2.923   6.185 -3.3506 -0.2403  0.0961
 8524SOL    HW237206   0.693   2.781   6.148  2.0385  2.9842 -0.7503
 8525SOL     OW37207   1.520   3.948   0.880  0.7926 -0.1998  0.0751
 8525SOL    HW137208   1.491   3.980   0.795  0.0930  0.4061  0.5440
 8525SOL    HW237209   1.454   3.989   0.936  1.1944  0.8505 -0.2203
 8526SOL     OW37210   4.099   0.570   5.204 -0.1684  0.2922 -0.5038
 8526SOL    HW137211   4.037   0.553   5.134  0.4893 -1.3103 -0.7033
 8526SOL    HW237212   4.048   0.633   5.255 -0.0590 -0.0372  0.0229
 8527SOL     OW37213   4.057   0.898   5.456  0.4134  0.4098  0.0864
 8527SOL    HW137214   3.977   0.948   5.474 -0.1933 -0.7555  0.6619
 8527SOL    HW237215   4.063   0.837   5.530 -1.3886 -1.3731 -1.2373
 8528SOL     OW37216   2.458   4.277  14.644  0.1734 -0.6944 -0.3098
 8528SOL    HW137217   2.481   4.332  14.719 -0.3724 -0.1788 -0.5130
 8528SOL    HW237218   2.464   4.189  14.682 -0.1827 -0.4789  0.2475
 8529SOL     OW37219   4.462   4.058   2.134 -0.4312  0.7878 -0.7459
 8529SOL    HW137220   4.555   4.036   2.124 -0.1284  0.6163  2.5151
 8529SOL    HW237221   4.463   4.131   2.073  0.1997 -1.3452 -3.3039
 8530SOL     OW37222   3.719   2.439   1.779 -0.3696  0.1510 -0.6492
 8530SOL    HW137223   3.752   2.470   1.695  0.2403  1.6469  0.1453
 8530SOL    HW237224   3.643   2.387   1.753 -1.6858  1.3254  0.8978
 8531SOL     OW37225   0.540   0.872   1.411 -0.7457  0.1407 -0.5544
 8531SOL    HW137226   0.446   0.866   1.428 -0.1850  0.3162  2.6019
 8531SOL    HW237227   0.548   0.960   1.375  2.4990 -0.5717 -1.5656
 8532SOL     OW37228   1.301   2.641   5.523  0.2182  0.5117 -0.0577
 8532SOL    HW137229   1.331   2.619   5.435  2.9098  1.1744  0.7107
 8532SOL    HW237230   1.209   2.614   5.527  0.2274  0.2882 -1.5681
 8533SOL     OW37231   3.627   1.134   7.345  0.4552 -0.0921 -0.0090
 8533SOL    HW137232   3.701   1.142   7.406  1.4194 -5.0676 -0.5294
 8533SOL    HW237233   3.564   1.087   7.400  0.8089  0.6523  1.0407
 8534SOL     OW37234   0.822   3.530   3.874 -0.7053  0.4509 -0.1728
 8534SOL    HW137235   0.830   3.539   3.779  1.2863  0.2073 -0.0280
 8534SOL    HW237236   0.855   3.615   3.903  0.5569 -0.8210  2.1210
 8535SOL     OW37237   0.903   0.217   6.584  0.2418  0.0019  0.1320
 8535SOL    HW137238   0.888   0.146   6.647  0.7042 -0.7564 -0.6189
 8535SOL    HW237239   0.949   0.278   6.642  2.4830 -1.9320  0.3877
 8536SOL     OW37240   0.149   3.015   2.729 -0.2204  0.4348  0.2610
 8536SOL    HW137241   0.243   2.998   2.731 -0.1911  0.6300  0.5095
 8536SOL    HW237242   0.126   3.024   2.636  0.3193  1.7691  0.2525
 8537SOL     OW37243   3.934   1.403   5.967  0.0403  0.0304 -0.4361
 8537SOL    HW137244   3.971   1.438   6.049 -1.0716  0.7409 -0.2465
 8537SOL    HW237245   3.994   1.330   5.950  0.4133 -0.0230  1.0679
 8538SOL     OW37246   2.259   0.262   9.289 -0.1309 -0.4792  0.6110
 8538SOL    HW137247   2.311   0.205   9.233  0.5634  2.1142 -1.3929
 8538SOL    HW237248   2.174   0.253   9.245  0.3217  2.3189 -0.8388
 8539SOL     OW37249   0.440   3.262  12.981  0.5373 -0.7706 -0.1255
 8539SOL    HW137250   0.419   3.346  13.023  0.3589 -0.1885 -1.3745
 8539SOL    HW237251   0.403   3.196  13.040  1.5484 -0.8080  0.4713
 8540SOL     OW37252   0.957   1.143   4.743  0.5462 -0.0256 -0.4469
 8540SOL    HW137253   1.013   1.152   4.666  3.5143  0.8325  1.7611
 8540SOL    HW237254   0.868   1.164   4.717  0.0932  1.6255  2.4123
 8541SOL     OW37255   0.243   0.666   3.500  0.4314 -0.3682  0.1812
 8541SOL    HW137256   0.197   0.591   3.538  0.7706  0.9587  3.2219
 8541SOL    HW237257   0.173   0.698   3.443  1.1992 -0.3311 -0.7358
 8542SOL     OW37258   1.800   3.791   4.350  0.5641 -0.2655 -0.1466
 8542SOL    HW137259   1.877   3.738   4.327 -0.5158 -1.5880 -0.7192
 8542SOL    HW237260   1.830   3.844   4.424  0.3107 -0.1586 -0.1223
 8543SOL     OW37261   1.446   1.395   4.178  0.5219 -0.0793 -0.4925
 8543SOL    HW137262   1.357   1.377   4.208  0.1079  0.2267 -1.5315
 8543SOL    HW237263   1.491   1.340   4.242  1.9788 -0.9489 -2.2534
 8544SOL     OW37264   3.515   2.825  14.401  0.2947 -0.0008  0.4253
 8544SOL    HW137265   3.550   2.822  14.312 -0.9044  0.0847 -0.0530
 8544SOL    HW237266   3.442   2.763  14.393  0.0895  0.4349 -1.0589
 8545SOL     OW37267   3.003   0.538   5.698 -0.3733  0.4900 -0.7429
 8545SOL    HW137268   3.032   0.472   5.760  0.8688  0.3133 -1.5084
 8545SOL    HW237269   2.937   0.585   5.748 -0.0220  0.6793 -0.4562
 8546SOL     OW37270   3.833   0.112   2.197  0.1469 -0.3177 -0.3940
 8546SOL    HW137271   3.754   0.077   2.239  1.0427 -3.0860 -1.0596
 8546SOL    HW237272   3.856   0.041   2.137  0.8254 -2.0747  1.9409
 8547SOL     OW37273   1.903   3.856   5.307  0.6958  0.1231 -0.3370
 8547SOL    HW137274   1.828   3.849   5.366 -0.3581 -0.0128 -1.7208
 8547SOL    HW237275   1.980   3.853   5.364  1.3448 -1.7101 -1.3121
 8548SOL     OW37276   3.738   1.886  15.173 -0.1156  0.4752 -0.0274
 8548SOL    HW137277   3.707   1.977  15.169  0.6551  0.8582  2.2350
 8548SOL    HW237278   3.824   1.896  15.132  0.2873 -0.3073  0.6440
 8549SOL     OW37279   3.729   4.302   8.505 -0.3466 -0.1343  0.0812
 8549SOL    HW137280   3.740   4.255   8.588 -1.9662  2.6182  1.8476
 8549SOL    HW237281   3.637   4.293   8.481 -0.1360 -0.6511 -0.5444
 8550SOL     OW37282   2.227   0.887  16.956  0.3551  0.8268  0.2716
 8550SOL    HW137283   2.278   0.857  16.881 -4.3798 -1.6105 -1.9510
 8550SOL    HW237284   2.249   0.980  16.963  1.5006  0.4346  2.1511
 8551SOL     OW37285   3.543   3.445  12.354 -0.0459  0.2451 -0.5235
 8551SOL    HW137286   3.600   3.451  12.431 -2.0922 -0.7438  1.0849
 8551SOL    HW237287   3.547   3.351  12.337 -1.2030  0.1015 -0.0008
 8552SOL     OW37288   0.378   4.296  16.187  0.3520  0.5916  0.4990
 8552SOL    HW137289   0.382   4.323  16.278  0.3321 -0.8379  0.9247
 8552SOL    HW237290   0.422   4.211  16.195 -2.0129 -1.0508 -3.6508
 8553SOL     OW37291   1.705   2.276   2.932  0.3523  0.4253 -0.0354
 8553SOL    HW137292   1.778   2.243   2.984  1.0566 -2.2284 -2.6973
 8553SOL    HW237293   1.670   2.194   2.896  0.3078  1.2014 -1.7478
 8554SOL     OW37294   1.234   3.965   4.218  1.0835 -0.2422  0.5045
 8554SOL    HW137295   1.328   3.983   4.214  1.2896 -1.2303  0.7309
 8554SOL    HW237296   1.236   3.873   4.190 -2.2895 -0.5304  1.3173
 8555SOL     OW37297   1.655   0.535   5.491 -0.0443 -0.3439  0.1530
 8555SOL    HW137298   1.701   0.531   5.574  0.1935  0.5670  0.0587
 8555SOL    HW237299   1.707   0.476   5.436 -2.0356 -0.0715 -2.0312
 8556SOL     OW37300   0.907   1.907   5.784 -0.3083  0.6305 -0.1476
 8556SOL    HW137301   0.886   1.916   5.692  2.9011  0.8278 -0.8869
 8556SOL    HW237302   0.865   1.985   5.820  1.0146  2.5763 -2.7783
 8557SOL     OW37303   1.769   3.972   4.567  0.3905 -0.2167 -0.2346
 8557SOL    HW137304   1.705   4.035   4.601 -0.7005 -0.8435 -1.1219
 8557SOL    HW237305   1.722   3.897   4.604  0.8147  0.0363  0.8153
 8558SOL     OW37306   1.657   4.494  11.913  0.0098 -0.0389 -0.0653
 8558SOL    HW137307   1.566   4.523  11.919  1.0207  2.8978  1.0217
 8558SOL    HW237308   1.672   4.479  12.006  1.6463 -0.6703 -0.4206
 8559SOL     OW37309   4.361   4.505  15.879 -0.0771 -0.0165  0.6190
 8559SOL    HW137310   4.283   4.455  15.854 -0.0474 -1.2723  2.9868
 8559SOL    HW237311   4.420   4.437  15.846 -0.9799  0.2043 -1.4330
 8560SOL     OW37312   4.279   0.854   1.125 -0.0997 -0.1344  0.7767
 8560SOL    HW137313   4.249   0.898   1.045 -2.2397 -2.2146  0.4368
 8560SOL    HW237314   4.218   0.781   1.137  2.3538 -1.9858  2.0405
 8561SOL     OW37315   0.864   3.158   0.118  0.2226 -0.2715 -0.0153
 8561SOL    HW137316   0.799   3.216   0.155  0.4296 -1.1612  1.7549
 8561SOL    HW237317   0.898   3.213   0.048 -2.8612 -0.3128 -1.5183
 8562SOL     OW37318   1.535   1.804   3.351  0.5030  0.1663  0.5726
 8562SOL    HW137319   1.440   1.811   3.362  0.3071  0.7288 -1.4884
 8562SOL    HW237320   1.562   1.770   3.436 -0.9990 -2.3691  0.0121
 8563SOL     OW37321   1.282   0.597  11.984 -0.3572  0.0767  0.1364
 8563SOL    HW137322   1.227   0.675  11.988  1.3648  1.2914  0.2350
 8563SOL    HW237323   1.220   0.528  12.006  1.9418 -2.0153  0.0832
 8564SOL     OW37324   3.034   1.255   0.395  0.1430  0.2419  0.2680
 8564SOL    HW137325   3.049   1.348   0.379  0.3384 -0.4954 -3.7296
 8564SOL    HW237326   2.953   1.252   0.446 -0.3966  1.2838 -0.5186
 8565SOL     OW37327   0.378   4.481   2.162  0.2107 -0.3598 -0.2258
 8565SOL    HW137328   0.438   4.549   2.130 -1.6470  0.2131 -2.4780
 8565SOL    HW237329   0.294   4.527   2.153 -0.5072 -1.8968 -1.3290
 8566SOL     OW37330   2.416   4.359   5.288  0.4136  0.2295  0.6090
 8566SOL    HW137331   2.362   4.281   5.280 -0.4582  0.5920  2.9023
 8566SOL    HW237332   2.472   4.348   5.211 -2.1912  2.9635 -1.6674
 8567SOL     OW37333   3.674   0.194   3.895 -0.3783  0.0434 -0.0037
 8567SOL    HW137334   3.705   0.257   3.830  0.9926  0.8096  1.4144
 8567SOL    HW237335   3.755   0.183   3.944 -0.3338 -1.8783 -0.5250
 8568SOL     OW37336   4.217   1.062   9.657 -0.0057 -0.1443  0.3860
 8568SOL    HW137337   4.237   1.046   9.564 -0.2729  0.8512  0.1601
 8568SOL    HW237338   4.284   1.025   9.715  1.1738 -1.4995 -1.8151
 8569SOL     OW37339   1.357   3.155   9.063  0.1713  0.1478 -0.5236
 8569SOL    HW137340   1.443   3.196   9.063  0.6343 -0.8542  1.0794
 8569SOL    HW237341   1.342   3.161   9.157  1.6402  0.1515 -0.2943
 8570SOL     OW37342   1.802   2.153   8.904  0.2881 -0.4411  0.0807
 8570SOL    HW137343   1.772   2.223   8.961  0.4145 -0.4317  0.1354
 8570SOL    HW237344   1.891   2.133   8.933 -0.4396 -3.0461  0.4911
 8571SOL     OW37345   0.129   2.542   9.335  0.2057 -0.1619  0.3281
 8571SOL    HW137346   0.046   2.564   9.375  0.0123  1.0257 -0.7298
 8571SOL    HW237347   0.174   2.621   9.365 -0.6784 -0.0475  1.3158
 8572SOL     OW37348   0.149   4.589   2.186 -0.2951 -0.1919  0.0840
 8572SOL    HW137349   0.121   4.585   2.277 -0.9182 -0.3049 -0.1109
 8572SOL    HW237350   0.067   4.568   2.141  1.2882 -1.2152 -2.3326
 8573SOL     OW37351   0.887   1.289   9.139  0.0379  0.0700  0.1774
 8573SOL    HW137352   0.825   1.218   9.123 -0.3172 -0.3325  3.3776
 8573SOL    HW237353   0.922   1.308   9.052  0.6160 -1.5208  0.0699
 8574SOL     OW37354   3.841   1.334   3.152  0.1687  0.1424 -0.3115
 8574SOL    HW137355   3.823   1.381   3.234  0.7131  0.9346 -0.6513
 8574SOL    HW237356   3.784   1.381   3.092 -1.4886 -0.2203  0.9595
 8575SOL     OW37357   4.192   4.180   8.886 -0.1929  0.1389 -0.0067
 8575SOL    HW137358   4.137   4.147   8.957 -1.1430 -0.5801 -1.0742
 8575SOL    HW237359   4.274   4.196   8.933 -0.2738  2.2485 -0.5729
 8576SOL     OW37360   4.292   2.975  12.672  0.0805  0.0822  0.2539
 8576SOL    HW137361   4.234   2.975  12.748  0.3494 -0.3674  0.4596
 8576SOL    HW237362   4.346   3.050  12.694 -1.9804  1.5946  0.0936
 8577SOL     OW37363   2.160   4.230  12.360  0.1072  0.0100  0.7209
 8577SOL    HW137364   2.114   4.313  12.350 -1.0840 -0.4030  2.7825
 8577SOL    HW237365   2.158   4.212  12.454  0.7566 -1.5634  0.4307
 8578SOL     OW37366   3.577   2.609   7.038  0.1581  0.6713  0.1883
 8578SOL    HW137367   3.575   2.588   7.132 -0.9261  2.1588  0.5052
 8578SOL    HW237368   3.638   2.683   7.040 -1.8039  2.2689  0.7708
 8579SOL     OW37369   2.887   4.306  15.587 -0.6481  0.2726  0.4470
 8579SOL    HW137370   2.830   4.230  15.577 -1.5359  0.7130  2.2474
 8579SOL    HW237371   2.922   4.279  15.672 -2.0766  0.0162  0.9621
 8580SOL     OW37372   0.230   4.374   5.626 -0.1561  0.2112  0.0113
 8580SOL    HW137373   0.229   4.443   5.693 -0.1475 -1.2368  1.4811
 8580SOL    HW237374   0.154   4.395   5.571 -1.4779  0.2705  1.8513
 8581SOL     OW37375   3.037   2.381   9.332  0.1152  0.1418 -0.1883
 8581SOL    HW137376   2.945   2.362   9.311  0.3352 -2.6007  1.2942
 8581SOL    HW237377   3.089   2.363   9.254 -1.0289 -0.6250 -0.7804
 8582SOL     OW37378   2.169   4.202   4.339  0.0897  0.0113 -0.0394
 8582SOL    HW137379   2.233   4.186   4.270  0.3236 -1.0446  0.4112
 8582SOL    HW237380   2.220   4.215   4.419  0.2062  2.8973 -0.6074
 8583SOL     OW37381   0.357   1.740   3.650  0.5453  0.0207 -0.4437
 8583SOL    HW137382   0.350   1.672   3.718  0.4903  1.1213  0.6578
 8583SOL    HW237383   0.383   1.686   3.576 -1.6825  1.2606 -2.1467
 8584SOL     OW37384   4.661   2.196   6.060 -0.7409 -0.0048  0.7448
 8584SOL    HW137385   4.582   2.143   6.049 -0.3815 -0.8778  2.4092
 8584SOL    HW237386   4.632   2.276   6.015 -0.5230 -1.0263 -1.2338
 8585SOL     OW37387   2.499   4.247   3.372  0.0110 -0.1065 -0.2425
 8585SOL    HW137388   2.454   4.326   3.402 -1.0670 -1.2782  1.1950
 8585SOL    HW237389   2.483   4.265   3.279 -1.0121 -0.6167 -0.1692
 8586SOL     OW37390   2.641   4.715   7.554 -0.4313 -0.3439 -0.5562
 8586SOL    HW137391   2.603   0.065   7.564 -2.7297 -1.1796 -2.0871
 8586SOL    HW237392   2.571   4.650   7.548 -0.4317 -0.5631  1.6602
 8587SOL     OW37393   4.634   0.252   1.882  0.0361  0.4762  0.2179
 8587SOL    HW137394   4.672   0.340   1.869 -0.2833  0.4133 -1.1833
 8587SOL    HW237395   4.568   0.256   1.813  0.9440  0.4304 -0.6608
 8588SOL     OW37396   1.396   3.630   7.589  0.9610 -0.2935 -0.3138
 8588SOL    HW137397   1.361   3.717   7.606 -0.7044 -0.9943 -0.2025
 8588SOL    HW237398   1.358   3.590   7.511 -1.3108  3.8025 -1.2842
 8589SOL     OW37399   2.631   3.215   6.826  0.2089 -0.3768 -0.0347
 8589SOL    HW137400   2.580   3.296   6.824 -1.8863 -1.6404  1.2355
 8589SOL    HW237401   2.709   3.244   6.872 -1.5138  3.7779  0.2966
 8590SOL     OW37402   2.347   2.938   6.788 -0.1847 -0.2750  0.1233
 8590SOL    HW137403   2.372   2.957   6.698 -0.6956  2.5136  0.5661
 8590SOL    HW237404   2.285   3.009   6.805 -0.8888 -0.3920 -1.9092
 8591SOL     OW37405   1.251   4.480   3.967 -0.4092 -0.6917  0.1591
 8591SOL    HW137406   1.330   4.473   3.913 -1.0268 -0.8532 -0.7251
 8591SOL    HW237407   1.193   4.432   3.908 -0.8964  0.0336  0.0439
 8592SOL     OW37408   2.261   3.187   2.391 -0.2492 -0.2732 -0.8712
 8592SOL    HW137409   2.282   3.106   2.438 -1.6496 -0.4046 -0.4666
 8592SOL    HW237410   2.174   3.166   2.358 -1.2019  2.2663  0.0409
 8593SOL     OW37411   2.546   2.714   6.344  0.1141  0.6002 -0.4493
 8593SOL    HW137412   2.616   2.668   6.389  1.3220  2.0832 -0.8026
 8593SOL    HW237413   2.533   2.650   6.274 -1.7510  2.0514 -1.4303
 8594SOL     OW37414   2.604   0.498   3.122  0.1336  0.4992  0.1583
 8594SOL    HW137415   2.559   0.539   3.197  2.7202  1.4533  1.1890
 8594SOL    HW237416   2.691   0.537   3.116  0.1966  0.5715  1.3837
 8595SOL     OW37417   2.539   2.732   2.315 -0.0462 -0.1374 -0.7625
 8595SOL    HW137418   2.614   2.708   2.370 -0.3077  1.7257  0.3975
 8595SOL    HW237419   2.530   2.650   2.268 -1.5464  0.3970 -1.3970
 8596SOL     OW37420   2.688   2.936   2.780  0.1323  0.4282 -0.2848
 8596SOL    HW137421   2.611   2.992   2.796  0.1954  0.0834  1.1698
 8596SOL    HW237422   2.738   2.938   2.861 -3.6622  0.3468  2.0446
 8597SOL     OW37423   1.258   0.466   3.673 -0.5708  0.0303 -0.3078
 8597SOL    HW137424   1.268   0.514   3.591 -1.5416  0.9893  0.1290
 8597SOL    HW237425   1.241   0.536   3.735  0.5383 -0.3173  0.3974
 8598SOL     OW37426   0.227   4.491  17.185  0.1018  0.0520 -0.0405
 8598SOL    HW137427   0.295   4.548  17.220 -0.5374  1.0448 -0.4174
 8598SOL    HW237428   0.240   4.497  17.090  2.1493  0.1594  0.2462
 8599SOL     OW37429   3.904   2.295   3.705 -0.0381  0.3124  0.5925
 8599SOL    HW137430   3.883   2.206   3.733  2.3631  0.2378  2.1802
 8599SOL    HW237431   3.943   2.278   3.619 -0.8770  2.5067 -0.2171
 8600SOL     OW37432   1.718   0.685   3.908 -0.3582  0.9535  0.4451
 8600SOL    HW137433   1.734   0.638   3.826  0.2415  0.4453  0.8581
 8600SOL    HW237434   1.647   0.634   3.947  1.3294 -1.2073  0.6731
 8601SOL     OW37435   0.110   4.202  14.618 -0.7797 -0.0316  0.1206
 8601SOL    HW137436   0.191   4.152  14.615  0.1498  1.4425  0.7958
 8601SOL    HW237437   0.127   4.242  14.533 -0.5436  0.2319  0.2920
 8602SOL     OW37438   0.969   3.340   7.133  0.0589  0.4563  0.0459
 8602SOL    HW137439   0.917   3.270   7.172  0.5778  0.8474  1.4493
 8602SOL    HW237440   0.942   3.335   7.041  0.7015  1.0307 -0.1716
 8603SOL     OW37441   3.882   3.652  14.367 -0.6910 -0.3534  0.0840
 8603SOL    HW137442   3.792   3.677  14.387 -0.3067 -0.1623  1.5788
 8603SOL    HW237443   3.920   3.740  14.372 -0.3917 -0.5621  1.4013
 8604SOL     OW37444   2.587   3.998   8.299 -0.6209  0.0234 -0.9175
 8604SOL    HW137445   2.604   3.943   8.376 -2.7855  2.2861  1.1912
 8604SOL    HW237446   2.673   4.009   8.259 -0.1919 -1.7391 -0.4961
 8605SOL     OW37447   0.832   4.394  15.832  0.4666  0.0668  0.1769
 8605SOL    HW137448   0.909   4.356  15.790 -0.3520  0.3281 -1.5623
 8605SOL    HW237449   0.807   4.448  15.757  0.6476 -1.3162 -0.8919
 8606SOL     OW37450   2.412   2.901   9.022 -0.0345  0.5783  0.3791
 8606SOL    HW137451   2.361   2.907   9.103 -0.7460  0.0455 -0.0277
 8606SOL    HW237452   2.396   2.813   8.988  2.6162  0.3381 -0.2627
 8607SOL     OW37453   1.187   0.828   6.018 -0.4927  0.4998  0.0676
 8607SOL    HW137454   1.187   0.770   5.942  0.0898 -0.2303  0.6297
 8607SOL    HW237455   1.201   0.911   5.973  1.6259  0.8971  1.4413
 8608SOL     OW37456   1.409   2.612  11.388  0.2919  0.1291 -0.2700
 8608SOL    HW137457   1.471   2.622  11.315  0.0614 -0.7713 -0.5892
 8608SOL    HW237458   1.326   2.628  11.343 -0.2489 -2.1846 -0.1058
 8609SOL     OW37459   3.345   1.936   6.709 -0.1919 -0.4550  0.2463
 8609SOL    HW137460   3.344   1.922   6.614 -0.2116 -0.0593  0.1869
 8609SOL    HW237461   3.432   1.903   6.733 -0.7006  0.2115  3.0137
 8610SOL     OW37462   2.427   3.224   1.485 -0.4729  0.2871 -0.8381
 8610SOL    HW137463   2.374   3.244   1.408 -2.0771 -1.4391 -0.1672
 8610SOL    HW237464   2.506   3.277   1.475  0.0373 -0.4171 -0.5603
 8611SOL     OW37465   1.184   4.186  13.152  0.3034  0.2362 -0.0097
 8611SOL    HW137466   1.199   4.219  13.063  3.9482 -0.5791  0.3172
 8611SOL    HW237467   1.196   4.094  13.129 -2.6263  0.4293 -2.3534
 8612SOL     OW37468   2.379   0.746   5.714  0.4183  0.2203  0.0949
 8612SOL    HW137469   2.397   0.685   5.786  3.7991  1.1185 -0.0120
 8612SOL    HW237470   2.456   0.736   5.659 -0.7562  0.3130 -1.5697
 8613SOL     OW37471   1.912   1.921   5.258  0.4004 -0.3895  0.4514
 8613SOL    HW137472   1.823   1.953   5.240  0.1102 -0.7090  1.3448
 8613SOL    HW237473   1.892   1.850   5.319 -0.4893  0.4068  1.0838
 8614SOL     OW37474   1.914   2.116   5.726  0.4233 -0.1195  0.3808
 8614SOL    HW137475   1.836   2.122   5.782  0.8500 -2.7127  1.2556
 8614SOL    HW237476   1.912   2.024   5.701  1.1793  0.2320 -0.9811
 8615SOL     OW37477   4.386   4.706   7.613 -0.1515 -0.8346 -0.1905
 8615SOL    HW137478   4.403   0.057   7.646 -1.0508 -1.1406  1.0814
 8615SOL    HW237479   4.445   4.658   7.672  1.0536  1.9205  0.8383
 8616SOL     OW37480   3.302   4.398   2.550 -0.1005 -0.0130  0.0413
 8616SOL    HW137481   3.343   4.477   2.516 -1.1986  0.9647  1.0026
 8616SOL    HW237482   3.289   4.430   2.639  1.1314 -1.1088  0.6141
 8617SOL     OW37483   1.813   1.261   2.028  0.5552 -0.1273  0.3241
 8617SOL    HW137484   1.766   1.183   2.058 -1.1631  1.2874  1.2920
 8617SOL    HW237485   1.876   1.214   1.973 -0.8701 -1.1867 -0.4305
 8618SOL     OW37486   4.587   3.667   7.054 -0.0101  0.1585 -0.2487
 8618SOL    HW137487   4.655   3.718   7.098 -0.3058  1.1525 -0.9376
 8618SOL    HW237488   4.638   3.614   6.992 -0.1946  1.5030 -1.5534
 8619SOL     OW37489   1.701   0.399  16.667 -0.4049  0.2413  0.2962
 8619SOL    HW137490   1.727   0.321  16.619 -1.7882  1.3644 -2.2665
 8619SOL    HW237491   1.631   0.359  16.719 -1.0757 -0.4494 -1.1513
 8620SOL     OW37492   4.468   2.988   8.229  0.0862  0.0372  0.2694
 8620SOL    HW137493   4.537   2.923   8.216 -1.8877 -2.1529  0.8655
 8620SOL    HW237494   4.395   2.935   8.261  0.7439 -0.1909  1.3763
 8621SOL     OW37495   0.792   0.259  17.302  0.1543  0.4042  0.3211
 8621SOL    HW137496   0.697   0.250  17.311  0.3460 -0.5314  1.3760
 8621SOL    HW237497   0.801   0.284  17.210  1.1005 -0.3009  0.2242
 8622SOL     OW37498   2.061   1.379   4.475  0.4231  0.8257  0.1445
 8622SOL    HW137499   2.007   1.457   4.467 -1.2277 -0.4032 -0.6930
 8622SOL    HW237500   2.144   1.419   4.503 -0.1639  0.0747  2.9734
 8623SOL     OW37501   4.134   0.108  12.096 -0.5480  0.3960 -0.1135
 8623SOL    HW137502   4.170   0.191  12.124 -1.4762  0.2741  1.4323
 8623SOL    HW237503   4.205   0.044  12.107 -0.8819  0.1457  0.5956
 8624SOL     OW37504   0.175   3.632   3.082  0.1547  0.0152  0.0226
 8624SOL    HW137505   0.189   3.544   3.048  0.2537  0.5193 -1.2615
 8624SOL    HW237506   0.171   3.629   3.178 -2.9267  1.1602 -0.0915
 8625SOL     OW37507   2.103   3.750  12.919  0.3337 -0.5225  0.0902
 8625SOL    HW137508   2.078   3.782  13.006 -0.9597 -1.7624  0.1745
 8625SOL    HW237509   2.164   3.820  12.897 -0.7757 -0.5331 -3.0104
 8626SOL     OW37510   3.928   1.987   5.272  0.2392  0.9439  0.1336
 8626SOL    HW137511   3.849   1.990   5.219  0.0345  1.0297  0.4457
 8626SOL    HW237512   3.988   2.018   5.204  0.0107 -0.4299 -0.6845
 8627SOL     OW37513   4.235   3.368   0.263  0.2208  0.1642  0.3402
 8627SOL    HW137514   4.196   3.335   0.343 -1.2671 -0.8229 -0.7906
 8627SOL    HW237515   4.184   3.447   0.244  0.3339  0.1119 -0.2018
 8628SOL     OW37516   3.479   4.064  15.760 -0.4499  0.9024  0.0805
 8628SOL    HW137517   3.567   4.083  15.795  0.0929 -1.6020  0.0487
 8628SOL    HW237518   3.446   3.982  15.797 -0.2787  0.7733 -0.0569
 8629SOL     OW37519   1.659   2.693   1.268  0.2923  0.6838  0.4631
 8629SOL    HW137520   1.621   2.610   1.240  0.9106  0.7090 -0.4645
 8629SOL    HW237521   1.664   2.734   1.181 -2.3328 -1.4237 -0.6953
 8630SOL     OW37522   4.404   3.126  17.353  0.1123 -0.0487  0.0740
 8630SOL    HW137523   4.371   3.180  17.282 -0.4791  1.9024  1.8555
 8630SOL    HW237524   4.320   3.097  17.388 -0.8979  3.0746  0.1884
 8631SOL     OW37525   3.402   2.937   8.155 -0.1974  0.1541 -0.0357
 8631SOL    HW137526   3.439   2.978   8.233 -0.1104 -0.3425  0.1883
 8631SOL    HW237527   3.478   2.882   8.137 -0.9377 -0.9433  0.1521
 8632SOL     OW37528   2.104   0.045  12.231  0.3345 -0.0184 -0.2060
 8632SOL    HW137529   2.088   4.721  12.302  0.8332  1.6534  1.3560
 8632SOL    HW237530   2.146   0.114  12.283 -1.3609  0.7634  0.1249
 8633SOL     OW37531   4.200   3.135   4.347 -0.1143 -0.4826 -0.0817
 8633SOL    HW137532   4.165   3.057   4.304 -0.5951 -1.4427  2.0447
 8633SOL    HW237533   4.123   3.179   4.384  0.7522  0.8834  0.0906
 8634SOL     OW37534   2.921   1.649  10.818  0.1547  0.1436 -0.2323
 8634SOL    HW137535   2.909   1.744  10.829 -0.4479 -0.1493  1.5626
 8634SOL    HW237536   2.882   1.617  10.899  0.3000  2.3708  0.7128
 8635SOL     OW37537   0.609   2.922  10.611 -0.6678 -0.0137  0.0655
 8635SOL    HW137538   0.679   2.899  10.671  1.5806  4.3904 -0.8425
 8635SOL    HW237539   0.531   2.915  10.667 -1.3463  1.7701 -0.6415
 8636SOL     OW37540   4.347   0.221  17.314  0.1122 -0.0095 -0.1583
 8636SOL    HW137541   4.368   0.226  17.221 -1.1682  0.8989 -0.3909
 8636SOL    HW237542   4.314   0.308  17.333  0.9242  0.7484 -2.2660
 8637SOL     OW37543   1.841   2.907   3.926  0.1449 -0.3181 -0.2707
 8637SOL    HW137544   1.759   2.946   3.957 -0.3873 -1.6925  0.0387
 8637SOL    HW237545   1.824   2.913   3.832 -1.4033  0.1747  0.0473
 8638SOL     OW37546   3.572   4.049  14.451 -0.0460  0.0368  0.1405
 8638SOL    HW137547   3.562   4.118  14.385  1.2340  0.3058  0.2275
 8638SOL    HW237548   3.535   3.987  14.387  2.0145  0.1890 -1.2073
 8639SOL     OW37549   2.649   2.135   3.158 -0.1566 -0.2231  0.8228
 8639SOL    HW137550   2.716   2.066   3.155 -0.0912 -0.1412  0.4454
 8639SOL    HW237551   2.703   2.207   3.190 -1.1405  1.0596 -0.4132
 8640SOL     OW37552   1.671   2.061  10.749  0.1035  0.1530  0.4624
 8640SOL    HW137553   1.616   2.135  10.726 -0.4527 -0.8484 -1.3961
 8640SOL    HW237554   1.754   2.103  10.730  0.2569  0.7459  2.4488
 8641SOL     OW37555   2.694   2.400   0.214  0.0334 -0.4028 -0.1844
 8641SOL    HW137556   2.618   2.414   0.158  0.0885  0.7280  0.0218
 8641SOL    HW237557   2.752   2.476   0.203 -0.2606 -0.5401 -2.6885
 8642SOL     OW37558   3.861   3.685   6.738 -0.5317  0.1120 -0.4395
 8642SOL    HW137559   3.818   3.767   6.765 -1.6657 -0.8753  0.8186
 8642SOL    HW237560   3.887   3.654   6.825 -0.4799 -1.0233 -0.8680
 8643SOL     OW37561   4.596   1.900  12.115 -0.1847  0.4049 -0.2543
 8643SOL    HW137562   4.666   1.845  12.150 -0.7776 -0.3053 -0.1843
 8643SOL    HW237563   4.524   1.837  12.107  3.0539 -3.3146 -0.1813
 8644SOL     OW37564   3.523   0.203  17.475 -0.6422  0.1470 -0.0360
 8644SOL    HW137565   3.509   0.258  17.552 -0.2013 -0.8406  0.7578
 8644SOL    HW237566   3.502   0.118  17.513  3.0445 -0.7794 -0.0996
 8645SOL     OW37567   3.772   2.918   1.332  0.6554 -0.1376  0.2542
 8645SOL    HW137568   3.681   2.910   1.303  0.2814  1.0745  1.0562
 8645SOL    HW237569   3.766   2.971   1.412  0.4562  1.1016 -0.5701
 8646SOL     OW37570   1.368   2.807  16.795 -0.4300  0.2127  0.4811
 8646SOL    HW137571   1.463   2.811  16.783 -0.8398  0.2902 -2.6257
 8646SOL    HW237572   1.350   2.771  16.709  2.0339  1.2697 -0.4923
 8647SOL     OW37573   1.335   0.331  14.648 -0.1451 -0.4806 -0.2659
 8647SOL    HW137574   1.279   0.407  14.663 -0.5433 -0.5991 -1.1471
 8647SOL    HW237575   1.391   0.350  14.572  0.4279 -3.1456 -0.5080
 8648SOL     OW37576   4.447   3.829   4.103  0.6600 -0.2635  0.1069
 8648SOL    HW137577   4.520   3.772   4.078 -0.6702 -2.1808  0.5919
 8648SOL    HW237578   4.384   3.824   4.031 -1.0802 -3.0688  1.8569
 8649SOL     OW37579   4.045   3.742   7.670 -0.6494 -0.3079  0.3350
 8649SOL    HW137580   4.035   3.711   7.760  1.2899 -1.9372 -0.0141
 8649SOL    HW237581   4.008   3.828   7.688 -2.6557 -0.2164 -4.0118
 8650SOL     OW37582   1.708   0.159   6.272  0.7581  0.2676 -0.1682
 8650SOL    HW137583   1.619   0.179   6.301  0.7163 -1.2688  0.7741
 8650SOL    HW237584   1.716   0.073   6.313  0.5829 -0.4966 -1.7402
 8651SOL     OW37585   2.501   3.154   2.246 -0.0635  0.6006  0.1449
 8651SOL    HW137586   2.441   3.157   2.320  1.5155  0.6760  1.4302
 8651SOL    HW237587   2.450   3.195   2.177  0.5098 -0.2602 -0.7953
 8652SOL     OW37588   3.930   3.409   3.875 -0.5875  0.7815  0.0320
 8652SOL    HW137589   3.838   3.436   3.881 -1.0105 -0.6543 -0.1262
 8652SOL    HW237590   3.953   3.430   3.965 -1.5262 -0.0466  0.4547
 8653SOL     OW37591   4.098   1.439   5.192 -0.8940 -0.3527 -0.4083
 8653SOL    HW137592   4.127   1.382   5.264  0.8675  0.6115 -0.3620
 8653SOL    HW237593   4.145   1.399   5.119 -0.7636 -1.1642  0.1184
 8654SOL     OW37594   1.224   2.209   7.750  0.1095 -0.5118  0.7906
 8654SOL    HW137595   1.256   2.137   7.804 -1.0168 -0.6367  1.2876
 8654SOL    HW237596   1.147   2.244   7.794  1.9398  1.3935  2.5026
 8655SOL     OW37597   4.706   2.344   6.911  0.0541 -0.4267 -0.0549
 8655SOL    HW137598   4.722   2.386   6.826 -0.4928 -2.0341 -0.9466
 8655SOL    HW237599   0.056   2.327   6.946  0.1561 -0.7048 -0.4426
 8656SOL     OW37600   3.835   1.248  14.496  0.1590 -0.3369  0.1518
 8656SOL    HW137601   3.816   1.175  14.437  1.4796 -1.0688  0.6390
 8656SOL    HW237602   3.921   1.225  14.532  1.0766 -1.5616 -2.7568
 8657SOL     OW37603   2.234   4.465   8.388 -0.3930  0.1526  0.1138
 8657SOL    HW137604   2.285   4.385   8.405  0.4591  0.5831 -0.4246
 8657SOL    HW237605   2.174   4.465   8.463  1.6578 -0.4462  1.7436
 8658SOL     OW37606   3.382   1.700   8.139  0.2714 -0.4761  0.3356
 8658SOL    HW137607   3.316   1.642   8.101  0.1551 -1.8723  2.6880
 8658SOL    HW237608   3.459   1.665   8.094  0.5828 -2.8392  2.6903
 8659SOL     OW37609   0.270   1.026   6.259  0.0307  0.2092  0.0394
 8659SOL    HW137610   0.336   0.958   6.251 -0.7710 -0.5029 -0.4950
 8659SOL    HW237611   0.206   0.961   6.288 -1.1730  1.0098 -0.7993
 8660SOL     OW37612   3.837   4.039  13.054 -0.5110 -0.4374 -0.3330
 8660SOL    HW137613   3.843   4.038  13.149  1.5272 -2.9876 -0.4550
 8660SOL    HW237614   3.893   4.114  13.036 -1.7213  0.4167 -0.4673
 8661SOL     OW37615   1.454   4.600   4.097  0.3609  0.2712 -0.1789
 8661SOL    HW137616   1.414   4.669   4.150  1.6222 -0.8050  2.1684
 8661SOL    HW237617   1.369   4.575   4.061 -0.5403  0.6173  1.6692
 8662SOL     OW37618   0.966   3.536   0.607  0.2537 -0.4604 -0.6968
 8662SOL    HW137619   0.991   3.460   0.554  0.3128 -1.0383  0.1562
 8662SOL    HW237620   0.872   3.548   0.593 -0.2722 -3.0131  0.6803
 8663SOL     OW37621   2.485   0.851   7.855 -0.2298 -0.1450  0.3922
 8663SOL    HW137622   2.396   0.873   7.880 -0.0091  1.7582 -0.5331
 8663SOL    HW237623   2.534   0.930   7.876  0.2434 -0.6575  1.2314
 8664SOL     OW37624   2.662   3.616   1.256  1.2047 -0.2819 -0.3414
 8664SOL    HW137625   2.680   3.581   1.169 -1.0622 -1.3270 -0.3975
 8664SOL    HW237626   2.681   3.708   1.240  0.6816 -0.1290 -0.0742
 8665SOL     OW37627   1.724   3.082   0.394  0.2053  0.2003  0.0081
 8665SOL    HW137628   1.775   3.160   0.418 -0.8037  0.2899  1.8214
 8665SOL    HW237629   1.676   3.103   0.314 -0.5720 -2.3050 -0.1772
 8666SOL     OW37630   1.921   2.687   7.576  0.1529 -0.7834 -0.7227
 8666SOL    HW137631   1.951   2.759   7.632 -0.1006  0.6649 -2.4332
 8666SOL    HW237632   1.964   2.610   7.613  0.4500  0.2714  1.1562
 8667SOL     OW37633   2.768   0.364   8.232  0.8268 -0.0304 -0.1117
 8667SOL    HW137634   2.843   0.308   8.255  0.6169  0.2039  1.1491
 8667SOL    HW237635   2.816   0.431   8.183  0.4843 -1.4059 -2.3581
 8668SOL     OW37636   3.100   3.120   8.909 -0.0748 -0.1913 -0.4354
 8668SOL    HW137637   3.033   3.176   8.871 -1.3186 -0.8585  0.7880
 8668SOL    HW237638   3.043   3.045   8.925 -0.9872  0.6032 -0.0180
 8669SOL     OW37639   2.694   1.804  12.544  0.1323 -0.6622 -0.4930
 8669SOL    HW137640   2.711   1.863  12.617 -1.0227 -1.2188  0.2301
 8669SOL    HW237641   2.614   1.844  12.509 -0.2890 -0.2623  0.9171
 8670SOL     OW37642   0.427   1.313  14.569 -0.2206  0.3533 -0.2388
 8670SOL    HW137643   0.441   1.367  14.492  0.6175  3.5360  2.1716
 8670SOL    HW237644   0.407   1.233  14.519  0.1620  1.6402 -2.4284
 8671SOL     OW37645   2.665   0.668   6.630 -0.2479 -0.1122 -0.5501
 8671SOL    HW137646   2.753   0.703   6.625 -0.4526  0.5262  0.4877
 8671SOL    HW237647   2.620   0.748   6.602 -0.1745  0.3097  0.5334
 8672SOL     OW37648   2.483   3.518  15.589 -0.2061  0.6250  0.2421
 8672SOL    HW137649   2.472   3.486  15.499 -0.4140  2.8461 -0.5181
 8672SOL    HW237650   2.471   3.610  15.566  0.1599  0.1334 -1.9573
 8673SOL     OW37651   2.227   0.726   3.282  0.6075 -0.0799 -0.1509
 8673SOL    HW137652   2.233   0.638   3.319 -1.2704 -0.0422  0.2630
 8673SOL    HW237653   2.149   0.724   3.226  2.0222  1.5757 -2.1964
 8674SOL     OW37654   1.066   3.047   5.964 -1.0419 -0.0862  0.1872
 8674SOL    HW137655   1.141   3.040   6.024 -1.1458  0.4127  0.3746
 8674SOL    HW237656   1.023   2.965   5.989  0.6061 -1.6603 -2.0237
 8675SOL     OW37657   1.165   1.508   6.939 -0.4748 -0.4470  0.2705
 8675SOL    HW137658   1.230   1.471   6.880 -1.7575  0.8866 -1.9853
 8675SOL    HW237659   1.095   1.498   6.875 -1.2732  2.3790  0.7015
 8676SOL     OW37660   2.956   0.859  17.559  0.5026 -0.1099  0.5009
 8676SOL    HW137661   2.984   0.807  17.484 -0.9351  1.6946 -1.3074
 8676SOL    HW237662   2.864   0.880  17.545  0.9176 -0.1504 -2.2138
 8677SOL     OW37663   0.342   3.653   1.463  0.1848  0.5502  0.4286
 8677SOL    HW137664   0.407   3.583   1.455 -0.9983 -0.7499  2.0829
 8677SOL    HW237665   0.354   3.656   1.558  3.6105 -0.5383  0.0440
 8678SOL     OW37666   3.055   3.201   5.309  0.2022 -0.1724 -0.1016
 8678SOL    HW137667   3.054   3.269   5.376 -2.1725  0.7581 -1.0825
 8678SOL    HW237668   3.128   3.144   5.333 -1.0696 -1.2036  1.3829
 8679SOL     OW37669   1.587   3.024   9.796  0.1599 -0.3593 -0.0402
 8679SOL    HW137670   1.606   3.072   9.877 -1.9281  0.2702  0.0736
 8679SOL    HW237671   1.544   2.945   9.829  1.0202 -0.9612 -0.3659
 8680SOL     OW37672   0.536   4.662  16.951 -0.1674 -0.0473 -0.2287
 8680SOL    HW137673   0.515   4.624  17.036 -0.8409  0.7639 -0.0220
 8680SOL    HW237674   0.541   0.018  16.971  1.1325 -0.4253  1.1489
 8681SOL     OW37675   0.036   4.158   8.021 -0.9810  0.3054  0.1948
 8681SOL    HW137676   4.720   4.140   7.943 -1.5164  0.7628  0.4562
 8681SOL    HW237677   0.121   4.156   7.977 -1.0354  1.0877  0.0451
 8682SOL     OW37678   3.396   3.150   1.851  0.0124  0.4219  0.1982
 8682SOL    HW137679   3.436   3.078   1.802 -0.6868  1.1249 -1.3800
 8682SOL    HW237680   3.302   3.136   1.839 -0.1430 -0.2147  2.1107
 8683SOL     OW37681   2.747   2.554   4.041 -0.0990  0.1221  0.7809
 8683SOL    HW137682   2.751   2.475   4.094 -1.9311 -0.5457 -0.0868
 8683SOL    HW237683   2.743   2.521   3.952  0.6866 -0.8928  1.1312
 8684SOL     OW37684   0.338   2.000  17.182  0.0543  0.7718  0.4076
 8684SOL    HW137685   0.320   1.923  17.128  0.0016 -0.5394  2.2914
 8684SOL    HW237686   0.303   2.073  17.129  2.3743  2.0117  0.6048
 8685SOL     OW37687   4.045   2.398   9.086  0.1888 -0.0156 -0.2045
 8685SOL    HW137688   4.080   2.318   9.125  0.1182  0.6439  1.1811
 8685SOL    HW237689   4.119   2.457   9.099 -1.0709  0.5266  4.3015
 8686SOL     OW37690   3.829   1.898   4.235 -0.0121 -0.1326  0.5475
 8686SOL    HW137691   3.879   1.860   4.163 -1.6688  3.0715 -2.3047
 8686SOL    HW237692   3.816   1.821   4.291 -1.9867  0.0946  0.4021
 8687SOL     OW37693   0.680   3.851   1.658  0.6167 -0.6773  0.5967
 8687SOL    HW137694   0.603   3.902   1.632  2.0729  0.9386 -0.5569
 8687SOL    HW237695   0.658   3.778   1.599  2.7741 -1.2315  0.5020
 8688SOL     OW37696   4.465   4.431   4.295 -0.4071 -0.2662 -0.1438
 8688SOL    HW137697   4.541   4.374   4.289 -1.5371 -1.5690 -2.2164
 8688SOL    HW237698   4.471   4.481   4.376  1.1567  0.8032 -0.9261
 8689SOL     OW37699   2.287   2.565   5.963  0.4875 -0.8457 -0.1911
 8689SOL    HW137700   2.377   2.560   5.928  0.4777  0.4673 -0.4126
 8689SOL    HW237701   2.297   2.510   6.041 -1.1630 -0.4819  0.2534
 8690SOL     OW37702   4.617   2.656   3.263  0.5348 -0.7354  0.1654
 8690SOL    HW137703   4.664   2.721   3.211 -1.1045 -0.3181 -0.7714
 8690SOL    HW237704   4.656   2.581   3.217  1.2904  0.1106 -0.5546
 8691SOL     OW37705   3.168   3.072   4.652  0.4771  0.2596  0.7029
 8691SOL    HW137706   3.150   3.114   4.736  1.0953 -1.9727  1.9521
 8691SOL    HW237707   3.129   3.129   4.586  0.2066 -1.8665 -0.9908
 8692SOL     OW37708   3.600   0.094   7.234  0.2194  0.0332  0.1549
 8692SOL    HW137709   3.634   0.119   7.320 -1.8776 -1.2770  1.3723
 8692SOL    HW237710   3.666   0.035   7.199 -1.1631 -0.2474 -2.0116
 8693SOL     OW37711   2.422   2.817   7.418 -0.3544 -0.0228  0.2586
 8693SOL    HW137712   2.445   2.725   7.425 -0.6491 -0.2386 -1.5670
 8693SOL    HW237713   2.328   2.805   7.406  0.2523 -1.9822 -2.4679
 8694SOL     OW37714   1.420   3.938  11.417 -0.1291 -0.2710 -0.3613
 8694SOL    HW137715   1.342   3.929  11.363 -1.4953  1.5796  1.2944
 8694SOL    HW237716   1.462   3.856  11.393 -0.4876 -0.7245  0.5395
 8695SOL     OW37717   0.040   2.237  17.440 -0.2320 -0.2082 -0.4554
 8695SOL    HW137718   4.707   2.302  17.437  0.6845  0.9000  1.7845
 8695SOL    HW237719   0.077   2.268  17.358  1.6527 -2.6966 -0.5564
 8696SOL     OW37720   3.068   2.407   7.960  0.4531 -0.5478  0.5526
 8696SOL    HW137721   3.109   2.429   7.876 -1.2168  1.2204  0.2234
 8696SOL    HW237722   3.108   2.464   8.025  1.6545 -0.3003 -0.4057
 8697SOL     OW37723   4.385   2.643   3.752 -0.0465  0.2180  0.7053
 8697SOL    HW137724   4.309   2.643   3.693  1.1529 -0.4550 -0.8428
 8697SOL    HW237725   4.381   2.718   3.811  0.5809  1.0642 -0.3330
 8698SOL     OW37726   1.302   0.650   2.777  0.1615 -0.0033 -0.1455
 8698SOL    HW137727   1.356   0.604   2.841 -4.7600 -1.6995  2.7820
 8698SOL    HW237728   1.228   0.593   2.755 -1.5267  1.0331  2.8289
 8699SOL     OW37729   0.832   1.319   6.992 -0.6183  0.6250  0.5734
 8699SOL    HW137730   0.873   1.260   6.929 -0.7257 -1.0411  2.0890
 8699SOL    HW237731   0.851   1.261   7.065 -2.7922  0.5440  1.0652
 8700SOL     OW37732   1.065   4.200   3.828  0.5665  1.0024  0.0612
 8700SOL    HW137733   1.103   4.239   3.749 -0.4832  1.3133 -0.2888
 8700SOL    HW237734   1.132   4.137   3.855 -1.0981 -0.8202 -0.0214
 8701SOL     OW37735   0.178   0.637   6.467 -0.5438 -0.2620  0.0473
 8701SOL    HW137736   0.173   0.614   6.374 -0.5780 -0.5223  0.1141
 8701SOL    HW237737   0.179   0.732   6.457 -3.8626 -0.2649 -0.3552
 8702SOL     OW37738   4.491   3.367   5.609  0.6643 -0.0063 -0.1335
 8702SOL    HW137739   4.454   3.454   5.596 -2.6603 -1.2127  1.2462
 8702SOL    HW237740   4.508   3.384   5.702  1.0364  1.1652 -0.4199
 8703SOL     OW37741   4.301   2.615   5.436  0.9631  0.5393  0.0683
 8703SOL    HW137742   4.213   2.646   5.457 -0.4107 -1.3959 -2.9142
 8703SOL    HW237743   4.274   2.535   5.392  0.7971 -0.5251  2.0916
 8704SOL     OW37744   3.203   0.191   3.665 -0.0159  0.4323  0.2200
 8704SOL    HW137745   3.186   0.235   3.749  2.5086 -2.2312  2.1500
 8704SOL    HW237746   3.296   0.170   3.669 -0.2935 -0.9637 -0.7013
 8705SOL     OW37747   3.218   2.826  13.603  0.4338  0.4662 -0.0406
 8705SOL    HW137748   3.135   2.839  13.649  1.1457 -2.1017  1.9542
 8705SOL    HW237749   3.231   2.739  13.641 -1.3684  1.0680  1.9417
 8706SOL     OW37750   4.648   3.149   0.111  0.3008  0.3447  0.5545
 8706SOL    HW137751   4.639   3.157   0.016  1.0877  2.4608  0.6651
 8706SOL    HW237752   4.598   3.224   0.141 -1.7367 -1.6754  2.1839
 8707SOL     OW37753   2.250   4.567   1.047 -0.5010 -0.5802 -0.2057
 8707SOL    HW137754   2.254   4.517   0.966 -0.8614 -3.4360  1.5111
 8707SOL    HW237755   2.241   4.657   1.017 -0.7654  0.0856  1.8834
 8708SOL     OW37756   1.567   4.694   0.819 -0.3801 -0.0469  0.2288
 8708SOL    HW137757   1.600   4.614   0.859  0.9263  0.0432 -0.6753
 8708SOL    HW237758   1.478   4.695   0.855 -0.3944 -0.1201  0.1951
 8709SOL     OW37759   1.903   4.439   3.362  0.7772  0.3069 -0.3201
 8709SOL    HW137760   1.972   4.452   3.297  0.1468  0.6464 -0.9283
 8709SOL    HW237761   1.878   4.348   3.347 -0.2979  0.7098 -1.0151
 8710SOL     OW37762   0.600   2.735  13.261 -0.2804 -0.6449  0.7920
 8710SOL    HW137763   0.513   2.756  13.295  0.8584  3.3403  1.2242
 8710SOL    HW237764   0.588   2.649  13.221  0.2953 -0.1357 -0.4540
 8711SOL     OW37765   4.048   2.091   9.224  0.7792  0.4562 -0.5947
 8711SOL    HW137766   4.048   2.070   9.317  0.4657  0.5379 -0.5766
 8711SOL    HW237767   3.969   2.041   9.202  0.8910 -0.0210  0.0919
 8712SOL     OW37768   3.560   3.141   6.479  0.5337 -0.0241 -0.0508
 8712SOL    HW137769   3.626   3.184   6.533 -0.4608  1.2250  0.1639
 8712SOL    HW237770   3.546   3.058   6.526 -3.1298  0.5053 -0.1776
 8713SOL     OW37771   1.474   3.251   8.110  0.1894  0.0772  0.3598
 8713SOL    HW137772   1.480   3.223   8.201  1.9796  0.7148  0.4406
 8713SOL    HW237773   1.493   3.166   8.072 -0.7207  0.8153 -1.7490
 8714SOL     OW37774   3.558   3.933   3.259  0.0119 -0.1620  0.5914
 8714SOL    HW137775   3.641   3.979   3.246 -1.3923  1.8171 -1.2852
 8714SOL    HW237776   3.514   3.997   3.314 -0.8902 -0.0225 -0.2859
 8715SOL     OW37777   3.668   1.289   6.047  0.1001 -0.1924  0.4144
 8715SOL    HW137778   3.698   1.224   6.111  2.9823  1.5414  0.8108
 8715SOL    HW237779   3.748   1.306   5.997 -0.2707  2.8303  0.8785
 8716SOL     OW37780   4.655   3.236   0.986  0.0643  0.7780  0.7384
 8716SOL    HW137781   4.627   3.187   0.909 -1.4382  3.9421 -0.7641
 8716SOL    HW237782   4.697   3.304   0.933 -0.9736 -1.3279 -2.7921
 8717SOL     OW37783   3.388   2.940   4.298 -0.4198  0.2997 -0.6693
 8717SOL    HW137784   3.454   2.959   4.232  0.0744  0.7535 -0.0393
 8717SOL    HW237785   3.374   3.020   4.349  0.4680 -0.0007  0.0256
 8718SOL     OW37786   3.142   3.421   2.705  0.1137 -0.4111 -0.6215
 8718SOL    HW137787   3.144   3.462   2.618  1.4559  3.6313  1.2998
 8718SOL    HW237788   3.117   3.332   2.681 -1.7983 -0.1406  0.3590
 8719SOL     OW37789   1.404   3.029   5.273 -0.3709  0.1430  0.4088
 8719SOL    HW137790   1.396   3.125   5.278  1.5884  0.3047  0.1647
 8719SOL    HW237791   1.460   3.021   5.196  0.8849 -0.8312  1.4217
 8720SOL     OW37792   4.483   1.622   7.418 -0.1815  0.1046 -0.0705
 8720SOL    HW137793   4.565   1.671   7.427  0.0072  0.1199 -1.8943
 8720SOL    HW237794   4.518   1.556   7.357  0.2870  0.1071  0.1890
 8721SOL     OW37795   3.192   0.761   2.452  0.3459 -0.1579 -0.3631
 8721SOL    HW137796   3.282   0.751   2.421  0.3435  0.2876 -0.5156
 8721SOL    HW237797   3.159   0.843   2.414 -0.0012 -1.2446 -2.3904
 8722SOL     OW37798   4.339   1.747  13.131  0.5515 -0.2220  0.0205
 8722SOL    HW137799   4.273   1.737  13.063  2.1954  0.6360 -1.6882
 8722SOL    HW237800   4.386   1.813  13.080 -2.3753  2.1987  0.3996
 8723SOL     OW37801   3.539   0.180   2.046  1.6718  0.4900  0.1056
 8723SOL    HW137802   3.485   0.103   2.064 -0.5521  1.7614 -1.0190
 8723SOL    HW237803   3.496   0.242   2.104 -1.3029 -1.1069 -0.3957
 8724SOL     OW37804   4.280   3.339   1.216 -0.0409 -0.6419  0.7997
 8724SOL    HW137805   4.257   3.342   1.123 -0.7977  0.4739  1.0251
 8724SOL    HW237806   4.354   3.400   1.217  0.8182 -1.6516 -0.5006
 8725SOL     OW37807   2.192   3.559  13.121 -0.1586  0.0558  0.1396
 8725SOL    HW137808   2.145   3.588  13.043 -3.0949 -4.1461  0.3149
 8725SOL    HW237809   2.259   3.625  13.136 -0.0679  0.0739 -0.3369
 8726SOL     OW37810   2.966   4.184   1.051 -0.0790 -0.4827  0.2793
 8726SOL    HW137811   2.905   4.111   1.041 -0.3515 -0.2818  0.4849
 8726SOL    HW237812   2.909   4.259   1.067  0.1011 -0.7661  2.2402
 8727SOL     OW37813   4.489   3.506   4.888  0.3398 -0.3472 -0.1763
 8727SOL    HW137814   4.517   3.556   4.964  1.0582  2.1568 -2.1170
 8727SOL    HW237815   4.562   3.515   4.827 -0.7857  2.7513 -1.0343
 8728SOL     OW37816   3.497   4.203   6.131  0.1015  0.2980 -0.2579
 8728SOL    HW137817   3.517   4.141   6.200  3.7508  1.0902 -0.6369
 8728SOL    HW237818   3.549   4.155   6.067  0.5421 -0.1869  0.4707
 8729SOL     OW37819   2.414   4.558  11.132  0.7745 -0.2810 -0.0798
 8729SOL    HW137820   2.445   4.468  11.128 -2.0423 -1.2679  0.3646
 8729SOL    HW237821   2.403   4.580  11.224 -1.8705  0.0658 -0.4698
 8730SOL     OW37822   3.432   1.986   7.030  0.0237 -0.4500 -0.0946
 8730SOL    HW137823   3.500   1.941   6.981 -1.4199 -2.1901 -0.4772
 8730SOL    HW237824   3.480   2.068   7.039 -1.1192  0.4601 -2.3267
 8731SOL     OW37825   0.334   1.090   4.137  0.1327 -0.3805 -0.1847
 8731SOL    HW137826   0.285   1.011   4.161  1.6654 -1.4944 -0.6545
 8731SOL    HW237827   0.264   1.155   4.145  0.3130 -0.2010 -0.0718
 8732SOL     OW37828   4.672   4.211   1.722 -0.1028  0.5833 -0.1537
 8732SOL    HW137829   0.006   4.157   1.757  0.1301  0.7634 -0.3499
 8732SOL    HW237830   4.625   4.136   1.686 -0.5664  1.3007 -1.0433
 8733SOL     OW37831   3.142   0.616  15.438 -0.5840 -0.4890 -0.4276
 8733SOL    HW137832   3.141   0.524  15.413  2.2665 -0.7018  0.2600
 8733SOL    HW237833   3.183   0.657  15.362  0.8031  1.8339  1.5864
 8734SOL     OW37834   1.963   0.038   7.216  0.6792  0.4218 -0.2831
 8734SOL    HW137835   1.876   0.077   7.218  0.9050  0.9595 -1.2144
 8734SOL    HW237836   1.970   4.721   7.295 -0.9170  1.7614  0.7809
 8735SOL     OW37837   3.275   2.322   5.237 -0.0393 -0.7199  0.6102
 8735SOL    HW137838   3.223   2.383   5.185  0.5142 -1.2211 -0.5228
 8735SOL    HW237839   3.252   2.248   5.181 -0.2949 -0.1665 -0.0072
 8736SOL     OW37840   0.325   4.620  16.610 -0.1501  0.2772 -0.0849
 8736SOL    HW137841   0.297   4.575  16.531  1.2127  0.6215 -0.7520
 8736SOL    HW237842   0.322   4.713  16.587 -1.7463  0.3694  0.4475
 8737SOL     OW37843   4.390   0.068   3.985  0.0663  0.2553 -0.3436
 8737SOL    HW137844   4.433   0.057   3.900 -1.6072  2.5160 -1.4765
 8737SOL    HW237845   4.432   0.137   4.035 -2.3813  0.5242  1.3304
 8738SOL     OW37846   3.541   4.063  12.162  0.2343 -0.1757 -0.2865
 8738SOL    HW137847   3.535   4.042  12.255  0.5182  1.6200  0.1462
 8738SOL    HW237848   3.521   4.156  12.152  0.8373  0.2454  2.2606
 8739SOL     OW37849   0.973   4.344   7.084  0.0227  0.3589 -0.7485
 8739SOL    HW137850   0.885   4.356   7.120 -0.4618 -0.6703 -1.5720
 8739SOL    HW237851   0.968   4.356   6.989 -0.4696  0.5556 -0.6982
 8740SOL     OW37852   3.813   1.445   4.220  0.0499  0.3725  0.3031
 8740SOL    HW137853   3.853   1.392   4.151 -0.2942 -0.4608  0.7297
 8740SOL    HW237854   3.727   1.456   4.179  0.0207  1.4833  0.6716
 8741SOL     OW37855   3.517   2.966  14.613  0.0088  0.4487  0.0926
 8741SOL    HW137856   3.606   2.952  14.645 -1.1976 -1.8025  2.4094
 8741SOL    HW237857   3.524   2.924  14.527 -0.9066  0.2930  0.0921
 8742SOL     OW37858   3.164   1.729   6.147 -0.4127 -0.4382  0.2109
 8742SOL    HW137859   3.162   1.820   6.178  1.1680 -0.6655  1.0010
 8742SOL    HW237860   3.173   1.682   6.230  0.8714 -1.7956 -0.6903
 8743SOL     OW37861   3.764   3.028  14.726  0.6185 -0.0478 -0.1389
 8743SOL    HW137862   3.816   3.050  14.803 -1.8047  1.4172  1.0456
 8743SOL    HW237863   3.826   3.000  14.659 -0.3299 -0.6582 -0.7570
 8744SOL     OW37864   4.086   2.620   2.298  0.2295  0.0705 -0.8667
 8744SOL    HW137865   4.061   2.649   2.210  1.6527  0.2914 -1.1969
 8744SOL    HW237866   4.119   2.698   2.343 -1.5556 -0.5985  1.5938
 8745SOL     OW37867   1.607   4.452   9.862  0.5779  0.7029 -0.5210
 8745SOL    HW137868   1.637   4.526   9.915 -0.7894 -1.6076  3.4554
 8745SOL    HW237869   1.673   4.458   9.793  2.2599  0.7969  1.1025
 8746SOL     OW37870   3.500   4.536   2.119  0.2178  0.7590  0.0698
 8746SOL    HW137871   3.572   4.497   2.068  0.4912 -0.5150  1.4253
 8746SOL    HW237872   3.552   4.597   2.171  0.1149 -0.0702  1.1504
 8747SOL     OW37873   2.090   0.375   6.072  0.2037  0.0263 -0.0124
 8747SOL    HW137874   2.164   0.327   6.035 -0.0859  0.5489 -1.2388
 8747SOL    HW237875   2.060   0.304   6.129 -0.7320  0.8599  0.5381
 8748SOL     OW37876   3.808   2.753  14.593  0.3959  0.0000 -0.0959
 8748SOL    HW137877   3.787   2.733  14.685 -1.1661  0.0907 -0.4296
 8748SOL    HW237878   3.749   2.689  14.554  0.1301 -0.3175  0.8214
 8749SOL     OW37879   3.670   3.215   3.118  0.2319  0.2808  0.2490
 8749SOL    HW137880   3.583   3.179   3.137  0.8571 -0.4282  1.8470
 8749SOL    HW237881   3.641   3.297   3.078  1.1820 -0.0469 -1.0819
 8750SOL     OW37882   3.344   3.342  12.767  0.0761 -0.0531  0.3053
 8750SOL    HW137883   3.320   3.430  12.738  0.7059  0.7198  2.1349
 8750SOL    HW237884   3.375   3.310  12.682 -0.2096  0.2432  0.0910
 8751SOL     OW37885   0.374   1.654  16.769 -0.4096  0.0686 -0.9285
 8751SOL    HW137886   0.366   1.561  16.748  0.9403 -0.4361  0.7647
 8751SOL    HW237887   0.439   1.670  16.701 -1.6392 -0.1934 -2.1646
 8752SOL     OW37888   4.214   0.641   4.941 -0.4630  0.0536  0.2785
 8752SOL    HW137889   4.244   0.579   5.007  0.6090  0.1102 -0.1664
 8752SOL    HW237890   4.215   0.718   4.999 -0.1499  0.4295 -0.2299
 8753SOL     OW37891   0.615   3.137   4.956  0.2602 -0.1268  0.3258
 8753SOL    HW137892   0.673   3.082   4.904  1.8931  1.0054  0.9721
 8753SOL    HW237893   0.655   3.223   4.946 -0.7243  0.3357  0.4220
 8754SOL     OW37894   0.416   3.651   0.515  0.4269  0.2480  0.3498
 8754SOL    HW137895   0.440   3.623   0.426  0.1447 -0.8490  0.6137
 8754SOL    HW237896   0.480   3.718   0.536 -0.4438  1.0075  0.5824
 8755SOL     OW37897   4.728   0.376   6.728  0.3056 -0.0355  0.0066
 8755SOL    HW137898   4.659   0.403   6.668 -0.1151 -1.0481  0.0267
 8755SOL    HW237899   0.042   0.457   6.733  0.3689  0.0453 -2.0470
 8756SOL     OW37900   2.522   0.675   4.829 -0.2163  0.2633 -0.2428
 8756SOL    HW137901   2.542   0.766   4.850 -1.3173  0.7102 -1.1532
 8756SOL    HW237902   2.514   0.671   4.733 -1.9500  0.7128 -0.1130
 8757SOL     OW37903   0.821   3.161   7.580 -0.2540 -0.0216  0.2363
 8757SOL    HW137904   0.824   3.074   7.621  1.3369 -0.4802 -0.8455
 8757SOL    HW237905   0.887   3.198   7.638 -0.2470 -3.6216  2.5628
 8758SOL     OW37906   1.990   0.838   4.882 -0.1826  0.0099 -0.2133
 8758SOL    HW137907   2.082   0.862   4.890 -0.9036  2.1518  1.6442
 8758SOL    HW237908   1.972   0.797   4.966 -1.8077  2.5130  0.6834
 8759SOL     OW37909   2.305   2.595   6.438  0.6578  0.3734 -0.4341
 8759SOL    HW137910   2.266   2.512   6.467  0.2132  0.5760 -0.4537
 8759SOL    HW237911   2.309   2.583   6.343  1.6263 -0.8742 -0.2308
 8760SOL     OW37912   1.573   4.293  10.196  0.1077  0.4512 -0.5853
 8760SOL    HW137913   1.498   4.236  10.180  0.3751  0.1621 -0.8237
 8760SOL    HW237914   1.537   4.381  10.209  2.7445  1.5257 -0.5645
 8761SOL     OW37915   2.943   1.249   3.730  0.1248  0.8445  0.0111
 8761SOL    HW137916   2.856   1.264   3.694  0.2160 -2.0112 -1.4310
 8761SOL    HW237917   2.990   1.333   3.723 -0.2485  1.0647  0.1600
 8762SOL     OW37918   2.884   3.286  11.405 -0.5176 -0.4305 -0.2266
 8762SOL    HW137919   2.864   3.375  11.433 -1.0926 -1.2982  2.0719
 8762SOL    HW237920   2.940   3.250  11.473  1.5888  1.1861 -1.1134
 8763SOL     OW37921   0.450   0.102  16.270  0.0129 -0.4660  0.5113
 8763SOL    HW137922   0.471   0.153  16.192 -1.4650 -1.7169 -0.7134
 8763SOL    HW237923   0.403   0.171  16.317  0.1785  0.1024 -0.1762
 8764SOL     OW37924   1.609   3.412  17.183 -0.8758  0.2939  0.4324
 8764SOL    HW137925   1.540   3.433  17.246 -1.8156 -2.1860  0.2296
 8764SOL    HW237926   1.593   3.318  17.177 -1.2916  0.2651  1.8117
 8765SOL     OW37927   3.360   1.152   6.193 -0.8502  0.6131 -0.7194
 8765SOL    HW137928   3.343   1.246   6.191 -0.6388  0.6283 -1.9207
 8765SOL    HW237929   3.398   1.138   6.280 -1.2880 -0.3216 -0.6789
 8766SOL     OW37930   3.442   0.673   6.016 -0.2520  0.0894 -0.5297
 8766SOL    HW137931   3.503   0.743   5.993 -1.2721  0.7794 -1.1357
 8766SOL    HW237932   3.359   0.703   5.978  0.5567  3.0777  0.0661
 8767SOL     OW37933   0.278   1.908   9.761 -0.1714 -0.0602  0.3866
 8767SOL    HW137934   0.311   1.984   9.713 -0.3507 -0.0786  0.2352
 8767SOL    HW237935   0.345   1.842   9.741 -0.1543  0.4360 -1.2141
 8768SOL     OW37936   2.096   4.089   6.097 -0.1513  0.3647 -0.0737
 8768SOL    HW137937   2.100   4.049   6.011  2.9996  0.1878  0.1636
 8768SOL    HW237938   2.022   4.041   6.133 -1.7195  1.4292 -1.9176
 8769SOL     OW37939   3.793   1.320  13.408 -0.1098 -0.4576  0.1912
 8769SOL    HW137940   3.871   1.278  13.442  0.6226  0.9898  0.3080
 8769SOL    HW237941   3.730   1.252  13.433 -0.7766 -0.4214 -1.3711
 8770SOL     OW37942   0.316   2.786   7.785 -0.2404  0.5454 -0.6773
 8770SOL    HW137943   0.312   2.875   7.750  0.9099  0.1845 -1.6778
 8770SOL    HW237944   0.348   2.745   7.705 -0.1877  0.4856 -0.6254
 8771SOL     OW37945   2.646   4.524   7.831  0.3608  0.6360  0.2071
 8771SOL    HW137946   2.652   4.600   7.774 -0.0673 -0.0291 -0.7341
 8771SOL    HW237947   2.648   4.573   7.912  0.8931  2.6138 -1.0001
 8772SOL     OW37948   3.354   1.888   9.586 -0.2458  0.5135 -0.1341
 8772SOL    HW137949   3.412   1.852   9.520  0.3088  0.0280  0.6119
 8772SOL    HW237950   3.265   1.881   9.551 -0.7282  0.7230  1.0179
 8773SOL     OW37951   3.370   0.578   3.861 -0.4585  0.0851  0.1189
 8773SOL    HW137952   3.374   0.540   3.949  0.4637 -0.8744 -0.3363
 8773SOL    HW237953   3.466   0.582   3.853 -0.3526 -0.5434  1.0508
 8774SOL     OW37954   3.098   2.077   7.318 -0.0891 -0.2581  0.3371
 8774SOL    HW137955   3.075   2.012   7.384  0.9427  0.9973  1.9015
 8774SOL    HW237956   3.056   2.155   7.355  0.9232  0.9423 -1.0199
 8775SOL     OW37957   4.392   4.521  16.151  0.3957  0.1147 -0.2134
 8775SOL    HW137958   4.306   4.564  16.153 -0.3378 -1.4261  1.4296
 8775SOL    HW237959   4.398   4.508  16.057 -0.2109 -1.1620 -0.0709
 8776SOL     OW37960   1.996   3.136  11.966 -0.0753  0.1302  0.7274
 8776SOL    HW137961   1.993   3.170  11.877 -1.0926 -0.0208  0.7041
 8776SOL    HW237962   2.089   3.123  11.984 -1.0121 -3.7771  2.7857
 8777SOL     OW37963   3.855   4.005  10.015  0.5804 -0.6729 -0.0988
 8777SOL    HW137964   3.843   4.079  10.075  2.5234  0.7444 -1.4731
 8777SOL    HW237965   3.788   4.031   9.952 -1.2301 -2.4907  1.0579
 8778SOL     OW37966   3.103   0.843   4.949  0.5726 -0.0469 -0.1345
 8778SOL    HW137967   3.099   0.817   5.041 -0.0779 -2.7213 -0.8935
 8778SOL    HW237968   3.160   0.919   4.953  0.1229  0.3673 -1.3690
 8779SOL     OW37969   0.290   4.211   3.590 -0.4175  0.0298  0.8692
 8779SOL    HW137970   0.385   4.199   3.589 -0.1842  1.9089  0.5028
 8779SOL    HW237971   0.274   4.299   3.554  0.5790 -0.3032 -0.4006
 8780SOL     OW37972   4.131   1.235   1.876 -0.0848  0.2724 -0.1983
 8780SOL    HW137973   4.158   1.270   1.791 -1.5804  1.6907 -0.0969
 8780SOL    HW237974   4.036   1.234   1.863  0.0855 -0.2133 -1.4096
 8781SOL     OW37975   0.714   2.775   4.401  0.3142  0.5378 -0.0952
 8781SOL    HW137976   0.761   2.784   4.318  0.1708 -0.7428 -0.3157
 8781SOL    HW237977   0.781   2.811   4.459  0.1792 -0.0560  0.4298
 8782SOL     OW37978   2.169   3.103  16.933 -0.0513 -0.1312  0.9358
 8782SOL    HW137979   2.179   3.174  16.996 -2.6984 -1.3128  2.7056
 8782SOL    HW237980   2.121   3.039  16.986 -2.8839  0.7930 -0.5037
 8783SOL     OW37981   2.273   4.263  17.241  0.4942  0.3890  0.1281
 8783SOL    HW137982   2.324   4.335  17.205  0.7462 -0.6200 -1.5211
 8783SOL    HW237983   2.296   4.197  17.176  1.1597  1.6449 -0.8930
 8784SOL     OW37984   3.852   1.455   5.374 -0.1323  0.6233  0.2521
 8784SOL    HW137985   3.758   1.466   5.386  0.1031  1.4394  1.3471
 8784SOL    HW237986   3.858   1.525   5.308  1.8505  2.8489  2.7865
 8785SOL     OW37987   4.404   4.110  17.636 -0.5691  0.2295 -0.1735
 8785SOL    HW137988   4.458   4.086  17.711  0.9017 -4.1159 -2.6412
 8785SOL    HW237989   4.455   4.170  17.582  2.3490 -1.5887  0.5780
 8786SOL     OW37990   4.088   2.123   3.960 -0.7017  0.0404 -0.4121
 8786SOL    HW137991   4.131   2.103   3.877 -2.6429  0.4259 -1.5103
 8786SOL    HW237992   4.086   2.032   3.988  1.2398 -0.1057 -0.7923
 8787SOL     OW37993   4.179   0.463   2.654 -0.3400 -0.0744  0.0572
 8787SOL    HW137994   4.200   0.493   2.743  0.6246 -2.1394  0.5381
 8787SOL    HW237995   4.181   0.549   2.611 -1.0238  1.5082  3.1924
 8788SOL     OW37996   3.172   3.463   2.974 -0.3905  0.5361  0.4590
 8788SOL    HW137997   3.254   3.511   2.964 -0.2148 -0.3381 -2.1665
 8788SOL    HW237998   3.165   3.443   2.881 -0.3596  2.8832 -0.0455
 8789SOL     OW37999   3.300   0.395   8.892  0.0254  0.7060  0.2244
 8789SOL    HW138000   3.316   0.399   8.986  0.1320 -3.3377  0.3709
 8789SOL    HW238001   3.295   0.301   8.877  2.0582  0.6835 -0.3803
 8790SOL     OW38002   3.631   4.369   3.415 -0.6502 -0.0092  0.0296
 8790SOL    HW138003   3.639   4.307   3.343  0.0354 -1.3045  1.2161
 8790SOL    HW238004   3.605   4.311   3.486  3.0392 -2.5125 -0.6750
 8791SOL     OW38005   1.767   0.104   6.009 -0.7436  0.1361  0.2072
 8791SOL    HW138006   1.754   0.144   6.095  2.8328 -0.1009  0.8507
 8791SOL    HW238007   1.791   0.019   6.046  0.3693 -0.1315 -1.1363
 8792SOL     OW38008   2.698   4.000   2.839 -0.3064 -0.6856 -0.0829
 8792SOL    HW138009   2.737   4.078   2.799  1.2514 -2.3625 -1.8479
 8792SOL    HW238010   2.764   3.931   2.827  1.0856  0.0677  3.1578
 8793SOL     OW38011   3.033   1.794   2.881 -0.0534  0.0365 -0.1513
 8793SOL    HW138012   3.123   1.761   2.874 -0.6964 -2.2474  2.2959
 8793SOL    HW238013   2.990   1.763   2.961 -0.3513  0.1195 -0.2814
 8794SOL     OW38014   1.616   0.074   2.538 -0.1659 -0.4723  0.2457
 8794SOL    HW138015   1.650   4.722   2.544 -0.6175 -0.5517  1.4785
 8794SOL    HW238016   1.573   0.069   2.452  0.1990  0.5154  0.0078
 8795SOL     OW38017   3.218   3.930  14.210  0.2927 -0.0673  0.3141
 8795SOL    HW138018   3.229   4.010  14.158  3.4573  1.0304  2.6615
 8795SOL    HW238019   3.126   3.906  14.199  0.0988  1.3147 -1.1424
 8796SOL     OW38020   2.703   1.548   6.284 -0.2808  0.0218 -0.0080
 8796SOL    HW138021   2.744   1.609   6.344  0.2908 -0.3990  0.0305
 8796SOL    HW238022   2.613   1.557   6.314 -0.1908  0.7066  0.0378
 8797SOL     OW38023   3.618   2.762   9.489 -0.1041  0.0176 -0.3132
 8797SOL    HW138024   3.676   2.691   9.461  2.3859  1.7576  0.4666
 8797SOL    HW238025   3.653   2.785   9.575  1.0965 -1.9787 -0.2695
 8798SOL     OW38026   4.140   2.383   1.552  0.3512  0.2137 -0.1644
 8798SOL    HW138027   4.147   2.340   1.637  0.7841  0.9312  0.1619
 8798SOL    HW238028   4.140   2.309   1.491 -6.0463  1.1947 -1.3508
 8799SOL     OW38029   4.505   2.703   7.974 -0.0280  0.4607  0.0939
 8799SOL    HW138030   4.555   2.760   8.033 -0.0869  2.8790 -2.2018
 8799SOL    HW238031   4.448   2.672   8.044 -0.4104  0.9285 -0.0119
 8800SOL     OW38032   0.014   4.643   1.617  0.0569  0.0734  0.1310
 8800SOL    HW138033   0.028   4.736   1.636 -2.0848  0.3345  0.3591
 8800SOL    HW238034   0.047   4.608   1.700  0.9647 -1.2304 -0.7676
 8801SOL     OW38035   2.630   0.433   5.103  0.6957 -0.4830  0.3914
 8801SOL    HW138036   2.667   0.519   5.084 -1.1364  0.8714  2.9935
 8801SOL    HW238037   2.621   0.433   5.198 -1.2686  3.8823  0.2102
 8802SOL     OW38038   1.868   0.498   4.575 -0.1099 -0.0891 -0.1013
 8802SOL    HW138039   1.959   0.472   4.584 -0.2648 -0.1732  1.1467
 8802SOL    HW238040   1.823   0.424   4.616  1.4526 -0.9185  0.1235
 8803SOL     OW38041   4.579   1.638   4.831 -0.5213  0.2170 -0.6180
 8803SOL    HW138042   4.538   1.724   4.836 -0.2929  0.3966 -1.9050
 8803SOL    HW238043   4.637   1.655   4.757  0.1664 -0.8502 -0.3204
 8804SOL     OW38044   1.311   4.731   2.700  0.0451  0.7832 -0.7834
 8804SOL    HW138045   1.390   4.698   2.743  0.6382 -0.3294 -2.7329
 8804SOL    HW238046   1.257   4.653   2.700  2.3649 -0.8367  0.3658
 8805SOL     OW38047   3.459   1.909   7.701  0.1116 -0.0690 -0.4253
 8805SOL    HW138048   3.440   1.951   7.617 -2.6646 -2.0626 -0.8049
 8805SOL    HW238049   3.425   1.822   7.680  1.1203 -0.6322  0.2712
 8806SOL     OW38050   2.486   1.525   5.870  0.3459  0.1379 -0.9682
 8806SOL    HW138051   2.533   1.442   5.871 -0.4480 -0.3194 -0.3205
 8806SOL    HW238052   2.555   1.589   5.884 -0.5708  0.8248  0.4700
 8807SOL     OW38053   3.248   1.883   1.548  0.0522 -0.1981 -0.3654
 8807SOL    HW138054   3.306   1.837   1.608  0.2649  0.2951 -0.2003
 8807SOL    HW238055   3.165   1.882   1.596 -0.5211 -2.8045 -1.3770
 8808SOL     OW38056   0.786   1.878   2.772 -0.3764  0.1899 -0.0011
 8808SOL    HW138057   0.726   1.874   2.697 -1.9967  0.4727  1.2916
 8808SOL    HW238058   0.859   1.837   2.724  0.1767  1.6558 -0.4071
 8809SOL     OW38059   1.872   4.720  10.955  0.1167  0.0390  0.8479
 8809SOL    HW138060   1.947   0.016  10.906  1.3952  0.8093  3.3271
 8809SOL    HW238061   1.897   4.726  11.047 -0.0127  0.9957  0.8216
 8810SOL     OW38062   0.973   4.476  10.979  0.3153 -0.4696  0.1267
 8810SOL    HW138063   0.950   4.403  10.922 -0.2896 -0.9474  1.0027
 8810SOL    HW238064   0.948   4.556  10.932  1.2323 -1.1066 -1.4614
 8811SOL     OW38065   3.948   0.093   4.305  0.3135  0.1476 -0.2176
 8811SOL    HW138066   4.020   0.087   4.368 -0.3929  0.2572  0.6000
 8811SOL    HW238067   3.890   0.147   4.359  0.1287  0.2283 -0.4984
 8812SOL     OW38068   1.463   4.047  15.095  0.7652  0.1069 -0.2772
 8812SOL    HW138069   1.427   3.972  15.142  2.2645 -0.4667 -0.0745
 8812SOL    HW238070   1.484   4.106  15.167 -0.6450  2.0350 -1.4006
 8813SOL     OW38071   2.320   4.092  17.047  0.1254 -0.0209 -0.3951
 8813SOL    HW138072   2.255   4.023  17.035 -0.5218  0.5776 -0.3362
 8813SOL    HW238073   2.362   4.111  16.964  2.2259 -1.1898  0.4077
 8814SOL     OW38074   2.016   2.435   4.486  0.0095  0.0903 -0.1562
 8814SOL    HW138075   2.091   2.375   4.481 -0.2494 -0.3223  1.0914
 8814SOL    HW238076   1.968   2.399   4.412 -0.6048 -0.3897  0.4843
 8815SOL     OW38077   0.303   3.440  15.863  0.0152  0.2724  0.8524
 8815SOL    HW138078   0.278   3.422  15.953  1.2063  1.2636  1.3729
 8815SOL    HW238079   0.349   3.524  15.863 -0.5646  0.5846  2.4894
 8816SOL     OW38080   0.750   2.811   6.470 -0.3567  0.4028  0.1584
 8816SOL    HW138081   0.752   2.716   6.481  2.6916  0.4380 -0.1483
 8816SOL    HW238082   0.713   2.812   6.382 -0.0885  0.2485  0.0445
 8817SOL     OW38083   2.827   1.096   6.561  0.0416  0.1699 -0.0064
 8817SOL    HW138084   2.914   1.135   6.552 -0.3615  1.0466 -0.0631
 8817SOL    HW238085   2.773   1.174   6.571  0.9601  0.5678  1.8004
 8818SOL     OW38086   0.858   0.519  12.530 -0.2547 -0.4230 -0.1863
 8818SOL    HW138087   0.768   0.518  12.560 -0.4553 -1.8980 -0.7864
 8818SOL    HW238088   0.902   0.495  12.612  0.6866 -0.0294 -0.5717
 8819SOL     OW38089   0.255   2.747   2.093 -0.1292  0.3395  0.0360
 8819SOL    HW138090   0.282   2.678   2.032 -0.5435 -1.1189  1.5116
 8819SOL    HW238091   0.220   2.820   2.041  2.5204  0.8683 -1.0310
 8820SOL     OW38092   1.630   3.885   6.986 -0.4158 -0.1480  0.4100
 8820SOL    HW138093   1.537   3.883   7.007 -0.9395  1.3738 -1.7997
 8820SOL    HW238094   1.658   3.881   7.077  2.7278  1.7694 -0.4626
 8821SOL     OW38095   1.672   0.268   8.745  0.0655  0.1939 -0.4707
 8821SOL    HW138096   1.708   0.198   8.798 -1.3355 -1.2817 -1.4605
 8821SOL    HW238097   1.723   0.253   8.665 -0.6655 -2.5353 -0.4189
 8822SOL     OW38098   1.352   2.972   8.538 -0.3707 -0.5993 -0.1186
 8822SOL    HW138099   1.263   2.982   8.505 -0.0649  0.0065 -0.7669
 8822SOL    HW238100   1.342   3.015   8.623  0.2865  1.7132 -1.2157
 8823SOL     OW38101   2.056   4.521   5.660  0.4350 -0.4180 -0.6704
 8823SOL    HW138102   1.969   4.510   5.698  0.2594  1.1264 -0.6231
 8823SOL    HW238103   2.105   4.553   5.736 -0.5917  1.8770 -0.9986
 8824SOL     OW38104   1.644   3.613   8.574 -0.1971  0.4160  0.1846
 8824SOL    HW138105   1.563   3.580   8.537 -0.3111  0.0952  0.7231
 8824SOL    HW238106   1.667   3.675   8.505  1.1984  0.9614  1.1211
 8825SOL     OW38107   2.514   3.025   6.585  0.2154 -0.1107 -0.1385
 8825SOL    HW138108   2.589   2.969   6.606  0.0791 -0.1809  0.1692
 8825SOL    HW238109   2.553   3.107   6.614  2.5680 -1.6261  0.9916
 8826SOL     OW38110   4.009   0.528  16.349  0.4646  0.2790  0.4693
 8826SOL    HW138111   4.054   0.469  16.408 -1.0690 -0.0689  1.2999
 8826SOL    HW238112   4.021   0.613  16.390 -0.1425  1.1341 -1.0923
 8827SOL     OW38113   0.610   0.345   8.941  0.2024 -0.3993 -0.2782
 8827SOL    HW138114   0.577   0.257   8.953  0.6995 -0.3469  1.4292
 8827SOL    HW238115   0.688   0.327   8.887  0.9582  1.9727  0.0136
 8828SOL     OW38116   1.683   2.822   5.648  0.0948 -0.2474  0.1092
 8828SOL    HW138117   1.629   2.749   5.620  0.4840  0.7877 -3.2707
 8828SOL    HW238118   1.750   2.804   5.582  0.5348 -2.3329  1.1402
 8829SOL     OW38119   1.679   4.670  10.016 -0.0680  0.6440 -0.3229
 8829SOL    HW138120   1.681   4.712  10.102  3.5871 -0.2313  0.0165
 8829SOL    HW238121   1.772   4.673   9.993  0.0285 -0.3093 -0.0531
 8830SOL     OW38122   0.503   1.180   1.978 -0.2554 -0.0320 -0.2476
 8830SOL    HW138123   0.525   1.273   1.980 -0.8115  0.0751  0.5859
 8830SOL    HW238124   0.409   1.192   1.964 -0.0112  2.9311  0.6024
 8831SOL     OW38125   0.886   0.912   8.533  0.0911 -0.2568 -0.6537
 8831SOL    HW138126   0.969   0.932   8.576 -1.4562 -0.3168  2.3627
 8831SOL    HW238127   0.897   0.951   8.446 -0.7636  2.3406  0.4087
 8832SOL     OW38128   0.033   3.104   6.430 -0.1929 -0.4540  0.1893
 8832SOL    HW138129   0.037   3.192   6.392 -0.8030 -0.9427 -1.0171
 8832SOL    HW238130   0.050   3.052   6.351 -1.3284  1.3377 -1.2273
 8833SOL     OW38131   1.737   2.767   2.225  0.2097 -0.1875 -0.0429
 8833SOL    HW138132   1.700   2.770   2.137  0.5183  0.3734 -0.1523
 8833SOL    HW238133   1.669   2.735   2.284  0.5254 -0.9234 -0.0789
 8834SOL     OW38134   3.508   0.066   6.683  0.6599 -0.0802 -0.1993
 8834SOL    HW138135   3.580   0.055   6.745 -2.0926 -1.9057  2.6625
 8834SOL    HW238136   3.506   4.717   6.642 -0.1276 -0.2061  0.1091
 8835SOL     OW38137   2.504   2.067   2.304 -0.0452 -0.1738  0.0002
 8835SOL    HW138138   2.503   1.988   2.358  1.3068 -0.5735 -0.5655
 8835SOL    HW238139   2.524   2.137   2.366 -2.2828 -0.2617  0.8235
 8836SOL     OW38140   1.874   2.253  10.793  0.7616 -0.6127  0.1492
 8836SOL    HW138141   1.902   2.214  10.876 -0.8972 -0.7680  0.6382
 8836SOL    HW238142   1.954   2.299  10.770  0.3470 -0.8931 -1.8948
 8837SOL     OW38143   2.791   4.477   8.728 -0.4259  0.3967  0.3395
 8837SOL    HW138144   2.878   4.446   8.703 -0.8032  1.7626 -2.6517
 8837SOL    HW238145   2.773   4.558   8.679  2.4033  1.1229  0.4862
 8838SOL     OW38146   1.449   3.728  14.008  0.5247  0.1461  0.2504
 8838SOL    HW138147   1.390   3.736  13.933 -2.4505  1.5276  2.6738
 8838SOL    HW238148   1.479   3.818  14.021  1.2255 -0.0885  0.2385
 8839SOL     OW38149   1.497   3.894   4.363  0.7994  0.6661  0.4524
 8839SOL    HW138150   1.577   3.845   4.384  0.1500 -0.8707 -0.6333
 8839SOL    HW238151   1.526   3.985   4.356  0.6617  0.6666 -0.1672
 8840SOL     OW38152   2.764   0.157  17.680  0.4332 -0.0733  0.3668
 8840SOL    HW138153   2.721   0.157  17.594  0.6206  0.1655  0.2759
 8840SOL    HW238154   2.782   0.063  17.686 -3.6651 -0.9766 -0.9107
 8841SOL     OW38155   2.776   1.786   1.495  0.5959 -0.3831 -0.2689
 8841SOL    HW138156   2.719   1.767   1.421  1.1218 -1.1113 -0.4761
 8841SOL    HW238157   2.807   1.700   1.523 -2.6471 -0.4065  3.2460
 8842SOL     OW38158   2.185   1.466   2.165 -0.4435 -0.6302  0.2716
 8842SOL    HW138159   2.154   1.414   2.091  1.1375  1.0238 -1.5427
 8842SOL    HW238160   2.268   1.426   2.194 -0.7436 -1.9131 -0.6556
 8843SOL     OW38161   3.636   1.417  14.502 -0.0349  0.2416 -0.1317
 8843SOL    HW138162   3.720   1.370  14.501  1.8451  3.5523  2.3939
 8843SOL    HW238163   3.589   1.339  14.533  1.3025 -0.2434  0.6845
 8844SOL     OW38164   0.490   3.258  17.428 -0.0018  0.2859  0.5994
 8844SOL    HW138165   0.426   3.199  17.468 -0.1336 -0.0870 -0.1629
 8844SOL    HW238166   0.433   3.323  17.386  1.0643  0.6278 -0.2974
 8845SOL     OW38167   1.381   3.240   0.481 -0.2384  0.1927  0.0083
 8845SOL    HW138168   1.302   3.188   0.465 -0.0475 -0.3227  0.7155
 8845SOL    HW238169   1.434   3.189   0.419  0.8766 -0.0607  1.1545
 8846SOL     OW38170   1.141   2.605   3.480  0.2706  0.5953  0.2583
 8846SOL    HW138171   1.218   2.660   3.494  0.6132  0.1560  0.0929
 8846SOL    HW238172   1.158   2.587   3.387  2.4258 -2.0471  1.1707
 8847SOL     OW38173   0.096   0.831  10.490  0.2094 -0.3266 -0.1196
 8847SOL    HW138174   0.087   0.851  10.584  2.2586 -0.4226  0.0910
 8847SOL    HW238175   0.154   0.902  10.460 -1.7779  1.5744  0.5122
 8848SOL     OW38176   2.750   4.032   0.974  0.7487  0.2310  0.5671
 8848SOL    HW138177   2.679   4.087   1.005  0.0182  0.4584 -1.5168
 8848SOL    HW238178   2.745   4.050   0.880  2.1231 -1.8152  0.0801
 8849SOL     OW38179   3.806   2.029  10.812 -0.4089 -0.6005  0.3751
 8849SOL    HW138180   3.758   1.996  10.889 -2.5990 -2.7934 -1.9432
 8849SOL    HW238181   3.815   2.120  10.840  2.0166  0.3401 -3.5111
 8850SOL     OW38182   2.178   2.578  10.032 -0.0173 -0.4223 -0.0887
 8850SOL    HW138183   2.271   2.573  10.012 -0.2332  1.9755 -1.5771
 8850SOL    HW238184   2.164   2.500  10.086  2.6659 -0.8968 -0.1027
 8851SOL     OW38185   0.405   3.428   3.812  0.2177  0.1003 -0.5549
 8851SOL    HW138186   0.491   3.390   3.829 -0.4096 -1.5961 -1.1264
 8851SOL    HW238187   0.344   3.356   3.831  1.0296 -0.7551 -1.1509
 8852SOL     OW38188   1.653   3.624   5.511 -0.4159 -0.4402 -0.2331
 8852SOL    HW138189   1.644   3.713   5.478 -0.1630 -1.1978 -2.4139
 8852SOL    HW238190   1.671   3.649   5.601 -0.5472  0.6029 -0.5013
 8853SOL     OW38191   4.346   1.345   8.565  0.0679  0.1152 -0.4251
 8853SOL    HW138192   4.421   1.324   8.621 -0.6648  0.6607  0.7641
 8853SOL    HW238193   4.297   1.408   8.618 -0.2783 -0.7808  0.3262
 8854SOL     OW38194   1.696   3.510  12.847  0.1183 -0.0835 -0.4074
 8854SOL    HW138195   1.718   3.603  12.842 -0.6182  0.0691 -0.8473
 8854SOL    HW238196   1.750   3.484  12.772 -1.3795 -3.2022 -0.4024
 8855SOL     OW38197   1.135   0.250   8.943  0.0271 -0.5877 -0.1022
 8855SOL    HW138198   1.197   0.236   8.872 -0.3287  0.4827 -0.6226
 8855SOL    HW238199   1.199   0.257   9.013  1.3475  0.6078 -1.4341
 8856SOL     OW38200   1.293   4.016   8.772  0.1508  0.4491 -0.0821
 8856SOL    HW138201   1.217   4.064   8.805 -0.0981 -1.6199  2.2846
 8856SOL    HW238202   1.249   3.947   8.721 -0.1599 -1.4790  2.8393
 8857SOL     OW38203   4.368   3.358   6.885  0.2972  0.5267 -0.4319
 8857SOL    HW138204   4.384   3.277   6.837  0.0314  0.8142 -1.0078
 8857SOL    HW238205   4.416   3.421   6.830  2.0104 -0.1979  0.2313
 8858SOL     OW38206   2.370   2.839   1.911  0.1096 -0.4060 -0.3603
 8858SOL    HW138207   2.283   2.866   1.939 -0.8008 -2.1525 -1.5420
 8858SOL    HW238208   2.372   2.891   1.831  1.2585 -0.7696 -0.5661
 8859SOL     OW38209   0.653   0.655  11.568  0.2413 -0.2883  0.1883
 8859SOL    HW138210   0.661   0.700  11.653  0.7138  0.5681 -0.3074
 8859SOL    HW238211   0.628   0.567  11.596 -0.9060  0.7750  2.5792
 8860SOL     OW38212   1.455   1.201   7.220  0.5320  0.1455  0.6864
 8860SOL    HW138213   1.413   1.124   7.259 -3.3163  3.3441  2.8930
 8860SOL    HW238214   1.379   1.240   7.177  0.3313 -2.6438 -1.4644
 8861SOL     OW38215   3.775   1.857   2.017 -0.3793 -0.1918  0.2167
 8861SOL    HW138216   3.753   1.919   1.948  0.9777 -1.1800 -1.0850
 8861SOL    HW238217   3.775   1.775   1.968  0.5042  0.2033 -0.4405
 8862SOL     OW38218   4.116   2.120  15.821  0.4301  0.1016 -0.5696
 8862SOL    HW138219   4.118   2.215  15.828 -0.1967  0.0812 -0.0649
 8862SOL    HW238220   4.208   2.101  15.834  0.1198  0.9094  2.9049
 8863SOL     OW38221   2.477   1.210   6.191 -0.8215  0.1847  0.0442
 8863SOL    HW138222   2.440   1.220   6.103 -0.2454  0.7491 -0.1349
 8863SOL    HW238223   2.538   1.284   6.193 -0.9130  0.1986  2.0312
 8864SOL     OW38224   1.251   2.927  11.851  0.8215  0.4172  0.6672
 8864SOL    HW138225   1.252   2.850  11.907 -0.6245  0.3571  0.6023
 8864SOL    HW238226   1.312   2.978  11.904  0.6472 -1.3172  2.5162
 8865SOL     OW38227   1.107   1.139   4.525  0.1047  0.1922 -0.2303
 8865SOL    HW138228   1.094   1.073   4.456  1.5699  0.0560 -0.3785
 8865SOL    HW238229   1.112   1.220   4.474  1.8401 -0.1246 -0.5714
 8866SOL     OW38230   2.943   0.415   4.324  0.4666 -0.0802  0.0479
 8866SOL    HW138231   2.928   0.483   4.390 -1.6332 -1.2239  0.7658
 8866SOL    HW238232   2.849   0.401   4.310  0.3881 -0.1800  0.6516
 8867SOL     OW38233   2.065   4.082  12.921 -0.2415  0.1590 -0.4848
 8867SOL    HW138234   2.031   4.129  12.845 -0.2924 -2.1546 -1.8806
 8867SOL    HW238235   1.990   4.026  12.944  0.0668 -0.8400 -1.9475
 8868SOL     OW38236   0.625   3.087   6.052  0.5589 -0.4072  0.1881
 8868SOL    HW138237   0.661   3.029   5.985  0.4809 -2.4398  1.8986
 8868SOL    HW238238   0.697   3.149   6.062  0.8688 -0.5332 -1.2884
 8869SOL     OW38239   1.140   1.519   1.732 -0.4116 -0.1102 -0.1447
 8869SOL    HW138240   1.190   1.463   1.673  1.0776  0.5674  0.4808
 8869SOL    HW238241   1.099   1.452   1.787 -1.5928 -0.0116 -0.9084
 8870SOL     OW38242   2.180   2.069   8.281 -0.2842  0.0476  0.5092
 8870SOL    HW138243   2.137   2.130   8.340 -1.0105 -0.0588  0.0920
 8870SOL    HW238244   2.260   2.074   8.333  0.9177 -3.4787 -0.9728
 8871SOL     OW38245   0.384   4.543   9.016 -0.0103  0.0292 -0.1032
 8871SOL    HW138246   0.462   4.597   9.021  0.0605  0.2229 -3.4537
 8871SOL    HW238247   0.410   4.487   8.942 -0.5953 -1.1390  0.5623
 8872SOL     OW38248   2.831   3.635   7.151 -0.3476 -0.2609 -0.1568
 8872SOL    HW138249   2.915   3.596   7.128  0.2300  2.7787 -3.1959
 8872SOL    HW238250   2.776   3.560   7.174 -3.2643  1.9981  0.2527
 8873SOL     OW38251   2.162   2.296   7.856  0.0165  0.0537 -0.2195
 8873SOL    HW138252   2.211   2.276   7.936  2.1042  0.2703 -1.4631
 8873SOL    HW238253   2.076   2.257   7.873  0.2082 -0.5950 -0.7405
 8874SOL     OW38254   1.974   2.275   3.042 -0.4471 -0.0748  0.7057
 8874SOL    HW138255   2.048   2.290   3.101 -1.0950  1.6484  1.0960
 8874SOL    HW238256   1.981   2.347   2.980  0.8712 -0.7252  0.0952
 8875SOL     OW38257   0.389   0.672   7.055  0.5939 -0.2826 -1.0021
 8875SOL    HW138258   0.349   0.614   7.120 -2.4003  2.3419 -0.5128
 8875SOL    HW238259   0.461   0.707   7.108  0.0087 -2.5373  1.2766
 8876SOL     OW38260   1.528   1.112   5.542 -0.2644  0.1965 -0.2105
 8876SOL    HW138261   1.526   1.128   5.636 -0.7577  5.2610 -1.0728
 8876SOL    HW238262   1.616   1.090   5.512 -0.6679 -3.2574  1.1429
 8877SOL     OW38263   3.943   3.868   3.142 -0.3485  0.4782 -0.2333
 8877SOL    HW138264   3.896   3.801   3.093  0.0884 -1.3608  1.8727
 8877SOL    HW238265   3.989   3.810   3.202  0.2767  0.4918 -0.7011
 8878SOL     OW38266   1.349   2.313  12.637 -0.0143  0.5227  0.0723
 8878SOL    HW138267   1.358   2.361  12.555 -0.4187  1.7730  0.7690
 8878SOL    HW238268   1.259   2.338  12.659  0.4324  0.3487  2.1304
 8879SOL     OW38269   0.397   2.080   7.987  0.0013  0.0383 -0.2009
 8879SOL    HW138270   0.309   2.046   8.006 -0.0882  0.3932  0.0214
 8879SOL    HW238271   0.400   2.113   7.897  0.1587  2.0899  0.5474
 8880SOL     OW38272   2.559   3.784   2.690  0.2482 -0.4099  0.0603
 8880SOL    HW138273   2.472   3.762   2.655  0.3788  0.0361 -0.5475
 8880SOL    HW238274   2.540   3.853   2.754  0.7457 -0.9949  0.8302
 8881SOL     OW38275   3.253   0.792   9.385  0.4058  0.6110 -0.6438
 8881SOL    HW138276   3.303   0.711   9.370  0.2019  0.2829  0.4735
 8881SOL    HW238277   3.165   0.757   9.376  0.0843  1.6930 -1.6147
 8882SOL     OW38278   4.472   4.648   6.577 -0.8135 -0.6534 -0.2912
 8882SOL    HW138279   4.501   4.563   6.609  0.7072 -0.5530 -1.4190
 8882SOL    HW238280   4.380   4.628   6.564 -0.4823 -1.0538 -1.9902
 8883SOL     OW38281   0.249   0.262   4.756  0.5480 -0.2322  0.7602
 8883SOL    HW138282   0.193   0.242   4.680  0.6390 -0.0453  0.6422
 8883SOL    HW238283   0.328   0.280   4.704  1.0809 -0.3471  1.5438
 8884SOL     OW38284   0.971   3.770  13.177  0.3325 -0.6187  0.6146
 8884SOL    HW138285   0.940   3.683  13.151  0.9976 -0.1706 -1.7125
 8884SOL    HW238286   0.888   3.806  13.210  1.2199 -0.2840  2.4488
 8885SOL     OW38287   2.249   4.498  10.933 -0.3040 -0.1530  0.2908
 8885SOL    HW138288   2.209   4.417  10.966 -2.2750  0.9531  0.6010
 8885SOL    HW238289   2.296   4.529  11.010 -1.7913  0.6438  0.8718
 8886SOL     OW38290   2.326   2.183   8.078  0.3014 -0.1422 -0.8460
 8886SOL    HW138291   2.377   2.200   8.157 -1.0506  2.1787 -0.4820
 8886SOL    HW238292   2.277   2.104   8.100 -0.1384 -0.0234 -1.3924
 8887SOL     OW38293   3.057   4.614  12.262 -0.0138 -0.3870 -0.0776
 8887SOL    HW138294   3.138   4.563  12.273 -1.1527 -1.5315  3.0456
 8887SOL    HW238295   3.017   4.551  12.202 -2.3246  0.8067  0.2494
 8888SOL     OW38296   3.343   2.089   3.908  0.5423  0.8301  0.8542
 8888SOL    HW138297   3.261   2.135   3.891 -0.2039 -0.5820  0.6303
 8888SOL    HW238298   3.401   2.125   3.840  1.3600  0.7407  1.5024
 8889SOL     OW38299   2.896   4.636   7.629  0.8025  0.3100  0.7689
 8889SOL    HW138300   2.964   4.596   7.575  0.9547  0.1383  1.0884
 8889SOL    HW238301   2.823   4.663   7.572  0.2460 -1.8268  0.4651
 8890SOL     OW38302   1.798   4.097   2.776  0.4392  0.3492 -0.2360
 8890SOL    HW138303   1.775   4.045   2.699 -1.1712 -1.4660  1.4863
 8890SOL    HW238304   1.777   4.041   2.850  0.9955 -1.3100 -1.3290
 8891SOL     OW38305   3.467   3.219   7.663  0.8783 -0.0897 -0.1155
 8891SOL    HW138306   3.459   3.136   7.709 -1.5574 -0.8471 -1.8805
 8891SOL    HW238307   3.523   3.272   7.720  1.6727  0.2210 -1.1805
 8892SOL     OW38308   0.123   1.263   2.809  0.1596 -0.5032  0.4059
 8892SOL    HW138309   0.145   1.301   2.724 -0.0749  0.1253  0.6305
 8892SOL    HW238310   0.200   1.214   2.840  2.2903  1.7518 -1.2775
 8893SOL     OW38311   0.876   4.127   4.027 -0.0239  0.0455  0.1149
 8893SOL    HW138312   0.892   4.190   4.098  0.3280 -1.5414  1.4579
 8893SOL    HW238313   0.950   4.146   3.969  1.4691 -2.2406  1.2192
 8894SOL     OW38314   3.079   1.755   9.590 -0.1724 -0.0170  0.0791
 8894SOL    HW138315   3.070   1.722   9.500  1.1048  1.8729 -0.7481
 8894SOL    HW238316   3.111   1.676   9.634  0.9489  2.1261  3.1082
 8895SOL     OW38317   1.878   0.739   3.598  0.6632 -0.2937 -0.0762
 8895SOL    HW138318   1.837   0.656   3.622  0.7864 -0.1159  0.7261
 8895SOL    HW238319   1.970   0.727   3.620  1.4371  1.0170 -2.4996
 8896SOL     OW38320   1.704   0.662   0.387  0.3107 -0.2806  0.0735
 8896SOL    HW138321   1.617   0.622   0.386  0.3138 -0.2795 -0.2503
 8896SOL    HW238322   1.697   0.730   0.321 -1.8813 -0.1902  0.3890
 8897SOL     OW38323   0.402   3.996   2.932  0.1682  0.0259 -0.0797
 8897SOL    HW138324   0.495   3.976   2.943  0.6333  2.8053  0.9987
 8897SOL    HW238325   0.353   3.914   2.927  2.4251 -1.3633  0.5214
 8898SOL     OW38326   4.363   2.076   9.350  0.4200 -0.5743  0.6544
 8898SOL    HW138327   4.437   2.136   9.357 -0.7306  0.8822  0.2893
 8898SOL    HW238328   4.330   2.070   9.440 -0.5263  0.4716  0.3691
 8899SOL     OW38329   2.583   3.048   9.203 -0.4145  0.1211 -0.6312
 8899SOL    HW138330   2.514   3.005   9.152  0.0557 -1.9423  0.4856
 8899SOL    HW238331   2.560   3.026   9.293  0.0561  0.0172 -0.5385
 8900SOL     OW38332   4.265   1.944   1.862  0.3022 -0.1142  0.3273
 8900SOL    HW138333   4.283   1.863   1.910 -0.6950 -1.1456 -1.0365
 8900SOL    HW238334   4.304   2.015   1.913  1.8836 -0.6009 -0.2054
 8901SOL     OW38335   0.303   3.582   9.151  0.3795 -0.1628 -0.4546
 8901SOL    HW138336   0.218   3.625   9.137 -0.0474 -0.1040  2.2800
 8901SOL    HW238337   0.305   3.517   9.081 -1.6284  0.8044 -1.4091
 8902SOL     OW38338   1.033   3.229  14.972  0.0667 -0.3448  0.1660
 8902SOL    HW138339   1.108   3.258  14.920 -0.0267  4.0813  2.5349
 8902SOL    HW238340   1.005   3.163  14.909  0.6401 -1.4630  1.0767
 8903SOL     OW38341   1.556   1.114  14.724 -0.5336 -0.6556  0.0642
 8903SOL    HW138342   1.605   1.035  14.746 -0.6787 -0.4528  1.1061
 8903SOL    HW238343   1.613   1.180  14.763 -1.2452  1.3190 -2.2149
 8904SOL     OW38344   0.114   3.228   2.022  0.2418  0.0025  0.0683
 8904SOL    HW138345   0.045   3.282   2.062 -0.8397 -1.6594  0.4752
 8904SOL    HW238346   0.192   3.273   2.054  0.7106 -0.3949 -0.5166
 8905SOL     OW38347   3.353   0.047  12.226  0.4145  0.6191 -0.4106
 8905SOL    HW138348   3.280   0.100  12.194  1.3803  1.4537 -1.2438
 8905SOL    HW238349   3.345   0.050  12.321 -0.9730  0.4815 -0.5237
 8906SOL     OW38350   1.017   3.245   3.643  0.4255 -0.0722  0.6221
 8906SOL    HW138351   0.968   3.210   3.569  0.3203 -2.4607  1.8163
 8906SOL    HW238352   0.947   3.239   3.707 -0.2266 -3.1418 -0.3813
 8907SOL     OW38353   1.804   3.106   9.351 -0.3921 -0.0840 -0.4756
 8907SOL    HW138354   1.814   3.099   9.446  3.8638  0.1737 -0.8996
 8907SOL    HW238355   1.743   3.180   9.350 -2.3227 -1.6867 -0.4888
 8908SOL     OW38356   3.584   2.192   6.362 -0.1771  0.9083 -0.8489
 8908SOL    HW138357   3.665   2.233   6.331 -0.3856  1.6588 -0.4122
 8908SOL    HW238358   3.607   2.116   6.308  0.3985  0.1237  0.4863
 8909SOL     OW38359   0.082   4.143   7.297  0.4758  1.1794  0.6606
 8909SOL    HW138360   0.066   4.171   7.207 -0.0102 -1.3343 -0.0226
 8909SOL    HW238361   0.015   4.077   7.315 -0.8073  2.1145 -0.6273
 8910SOL     OW38362   1.772   2.132  14.616  0.0515  0.2615 -0.4466
 8910SOL    HW138363   1.810   2.220  14.612  3.1759 -0.9769  1.8121
 8910SOL    HW238364   1.692   2.144  14.565  0.0691 -1.4709 -0.8894
 8911SOL     OW38365   0.911   3.934   0.467 -0.5553  0.4632  0.1578
 8911SOL    HW138366   0.818   3.958   0.473 -0.3409  0.8130  2.0152
 8911SOL    HW238367   0.918   3.962   0.376 -0.4312  0.0112  0.0284
 8912SOL     OW38368   2.099   1.811   5.075 -0.1711 -0.3543  0.1310
 8912SOL    HW138369   2.153   1.888   5.053 -0.7055  1.4027  4.9651
 8912SOL    HW238370   2.048   1.853   5.144 -0.7647 -2.5029  0.9819
 8913SOL     OW38371   1.644   4.433   5.097 -0.4522  0.6103  0.0433
 8913SOL    HW138372   1.710   4.408   5.032  0.0299  2.0009 -0.0052
 8913SOL    HW238373   1.683   4.510   5.139 -2.2573  0.9257  1.1202
 8914SOL     OW38374   0.651   2.448  17.519  0.2639 -0.0642  0.5655
 8914SOL    HW138375   0.713   2.521  17.520 -0.6560  0.6952  2.8184
 8914SOL    HW238376   0.626   2.439  17.427  0.8589 -0.7329  0.4765
 8915SOL     OW38377   2.455   4.208   8.213  0.6017  0.0066  0.1027
 8915SOL    HW138378   2.420   4.204   8.302 -0.6951 -1.2684 -0.4555
 8915SOL    HW238379   2.521   4.139   8.220  0.6486  0.0349 -0.0821
 8916SOL     OW38380   2.771   2.678  12.927  0.4726  0.0108 -0.2197
 8916SOL    HW138381   2.806   2.659  13.014 -0.2898  0.6887  0.2272
 8916SOL    HW238382   2.699   2.737  12.945 -1.8668 -1.8912 -3.2987
 8917SOL     OW38383   1.692   2.083   1.243  0.0736  0.2441 -0.5989
 8917SOL    HW138384   1.735   2.117   1.165  1.3119  1.8811  0.8057
 8917SOL    HW238385   1.621   2.146   1.256 -1.0930 -1.0985 -0.4378
 8918SOL     OW38386   3.027   1.322   5.410  0.2168  0.0945 -0.3618
 8918SOL    HW138387   3.108   1.281   5.441 -1.7175 -2.1789  1.7369
 8918SOL    HW238388   2.971   1.313   5.488  0.3072  0.6166 -0.2360
 8919SOL     OW38389   3.500   0.493   9.709  0.4196 -0.0900 -0.4504
 8919SOL    HW138390   3.453   0.416   9.742 -2.2201  1.0995 -1.3890
 8919SOL    HW238391   3.438   0.564   9.725  0.2697 -0.5528  1.0464
 8920SOL     OW38392   4.261   3.414   5.861 -0.2214 -0.6061 -0.4493
 8920SOL    HW138393   4.207   3.345   5.823 -1.1372 -0.6253  0.8873
 8920SOL    HW238394   4.344   3.368   5.847  1.2039  0.8163  3.2882
 8921SOL     OW38395   2.816   1.044   4.932 -0.0581  0.2286  0.2007
 8921SOL    HW138396   2.841   1.136   4.940  1.6637 -0.3585  1.6535
 8921SOL    HW238397   2.894   1.001   4.897  0.1955 -0.3311  1.4473
 8922SOL     OW38398   1.156   2.331   2.366 -0.4279 -0.6386 -0.4562
 8922SOL    HW138399   1.199   2.404   2.409  1.6691 -2.3912  0.4590
 8922SOL    HW238400   1.069   2.368   2.354  1.0712  2.7915 -0.5861
 8923SOL     OW38401   3.622   1.875   5.362 -0.3690  0.3243  0.4520
 8923SOL    HW138402   3.609   1.967   5.386  1.9638  0.4597  1.1940
 8923SOL    HW238403   3.633   1.832   5.447  3.0526  0.9526  0.3135
 8924SOL     OW38404   3.297   0.177  16.201 -0.5730 -0.8750  0.4976
 8924SOL    HW138405   3.249   0.169  16.119 -0.9054  1.3472  0.4766
 8924SOL    HW238406   3.267   0.261  16.234  0.2031 -1.0862  1.7702
 8925SOL     OW38407   2.670   4.320   5.523 -0.4826 -0.1033  0.0473
 8925SOL    HW138408   2.630   4.346   5.440 -0.2962 -1.4331 -0.4571
 8925SOL    HW238409   2.675   4.400   5.576 -3.2065 -0.0779  0.3101
 8926SOL     OW38410   4.262   0.494   4.475  0.5097  0.0122 -0.1187
 8926SOL    HW138411   4.179   0.511   4.518  0.9032 -1.9016  1.4190
 8926SOL    HW238412   4.244   0.424   4.412 -2.4097 -0.8886  1.7204
 8927SOL     OW38413   0.112   0.317   2.906  0.7384 -0.1366 -0.8091
 8927SOL    HW138414   0.091   0.280   2.820 -0.4462  0.7935 -0.9232
 8927SOL    HW238415   0.080   0.245   2.961  0.3931  1.4482  1.0796
 8928SOL     OW38416   1.226   3.462   0.689 -0.1348  0.1121 -0.4522
 8928SOL    HW138417   1.144   3.511   0.686  0.3739  1.0560  1.2916
 8928SOL    HW238418   1.210   3.377   0.648 -1.8630  0.3540 -0.2697
 8929SOL     OW38419   2.141   1.137   3.148 -0.1083  0.3808  0.0394
 8929SOL    HW138420   2.205   1.158   3.080  0.5149  2.1222  1.1537
 8929SOL    HW238421   2.078   1.088   3.095  0.2155 -1.3800  1.2527
 8930SOL     OW38422   4.334   4.539   1.522  0.0626 -0.0875  0.9365
 8930SOL    HW138423   4.417   4.507   1.558 -0.0728 -0.7139  0.7060
 8930SOL    HW238424   4.344   4.633   1.533  0.8544 -0.1025  0.4005
 8931SOL     OW38425   4.582   3.430   1.179 -0.9136  0.0089  0.3881
 8931SOL    HW138426   4.619   3.510   1.142  1.0036 -1.3677 -0.7185
 8931SOL    HW238427   4.612   3.357   1.124 -1.1810  0.3636 -0.2273
 8932SOL     OW38428   0.268   0.925   2.125  0.5355 -0.6044  0.0791
 8932SOL    HW138429   0.220   0.848   2.158 -0.1734 -0.3663 -0.3970
 8932SOL    HW238430   0.205   0.990   2.093  0.1905 -0.2992  1.3513
 8933SOL     OW38431   4.723   1.242   6.331  0.0757 -0.0542 -0.1467
 8933SOL    HW138432   0.008   1.150   6.347 -0.0296 -0.2418 -1.0808
 8933SOL    HW238433   0.022   1.275   6.414 -0.0774  1.6526 -0.7537
 8934SOL     OW38434   4.355   4.113  10.179 -0.2660 -0.9875 -0.1012
 8934SOL    HW138435   4.307   4.181  10.132 -0.7308 -0.4040  1.2225
 8934SOL    HW238436   4.403   4.078  10.103 -0.0087  0.6308 -0.6687
 8935SOL     OW38437   2.090   4.503   5.394 -0.2954  0.3827 -0.2460
 8935SOL    HW138438   2.178   4.540   5.403 -0.1542 -0.5298  2.1322
 8935SOL    HW238439   2.075   4.478   5.485 -1.7803  0.4689 -0.4615
 8936SOL     OW38440   2.419   1.358   2.284 -0.0736 -0.0861  0.0979
 8936SOL    HW138441   2.473   1.305   2.225  0.0130  1.2918 -1.0562
 8936SOL    HW238442   2.460   1.444   2.284 -2.2407  0.9264  0.0680
 8937SOL     OW38443   1.291   1.005  12.393 -0.2727  0.3989  0.4045
 8937SOL    HW138444   1.366   0.953  12.421  0.1223  0.7059 -0.0987
 8937SOL    HW238445   1.225   0.938  12.375  0.8292 -0.8290  0.9376
 8938SOL     OW38446   3.978   4.436  17.177  0.0705 -0.5962 -0.4073
 8938SOL    HW138447   4.063   4.465  17.143  1.7200 -2.8752  1.8075
 8938SOL    HW238448   3.938   4.516  17.212  0.2536 -0.7477  0.1419
 8939SOL     OW38449   4.661   3.652  16.386 -0.4702  0.4018  0.7484
 8939SOL    HW138450   4.570   3.677  16.368  0.2232  2.4055 -0.0364
 8939SOL    HW238451   4.651   3.583  16.451  1.9007  0.9372  1.6901
 8940SOL     OW38452   4.578   2.954   4.698 -0.0776  0.1120  0.2355
 8940SOL    HW138453   4.534   2.965   4.613  2.2479 -1.6340 -1.1892
 8940SOL    HW238454   4.659   2.996   4.667  0.0164  0.4415  0.9388
 8941SOL     OW38455   2.800   0.252   6.718  0.0726  0.6543 -0.2135
 8941SOL    HW138456   2.738   0.191   6.678 -1.9875  2.1381  0.6974
 8941SOL    HW238457   2.859   0.186   6.753  0.6253  0.8232 -0.8358
 8942SOL     OW38458   1.207   1.698  13.068  0.0314  0.1507  0.4279
 8942SOL    HW138459   1.135   1.641  13.094 -0.0935  0.5801  1.0104
 8942SOL    HW238460   1.160   1.782  13.066  1.0158  0.7148  0.9537
 8943SOL     OW38461   1.880   0.158   3.771  0.3590  0.1101  0.1806
 8943SOL    HW138462   1.949   0.092   3.764  0.2425  0.1275 -1.0956
 8943SOL    HW238463   1.803   0.102   3.758  1.3509 -1.4302  0.8950
 8944SOL     OW38464   2.377   3.246   3.408  0.2418 -0.3578 -0.5330
 8944SOL    HW138465   2.402   3.317   3.467 -0.5123 -1.8187  1.5441
 8944SOL    HW238466   2.334   3.294   3.337 -0.9743 -0.1781  0.3157
 8945SOL     OW38467   4.368   4.630   3.398 -0.1762  0.2791 -0.4964
 8945SOL    HW138468   4.343   4.539   3.388  0.7924 -0.1714  1.2339
 8945SOL    HW238469   4.311   4.662   3.468  4.2579  0.8042  2.8848
 8946SOL     OW38470   2.845   1.655  11.101  0.0004 -0.0418  0.1621
 8946SOL    HW138471   2.923   1.700  11.134 -0.7515 -0.6850  2.8771
 8946SOL    HW238472   2.774   1.715  11.126 -0.0749 -0.1304  0.1603
 8947SOL     OW38473   2.571   2.114   4.101 -0.6316 -0.3146 -0.0323
 8947SOL    HW138474   2.634   2.070   4.044  0.9284  0.5628  1.0151
 8947SOL    HW238475   2.501   2.054   4.074 -1.2109 -1.0530  3.1273
 8948SOL     OW38476   0.357   3.192   5.851  0.2111  0.1015 -0.0350
 8948SOL    HW138477   0.438   3.243   5.857 -0.0012  0.2842  1.3875
 8948SOL    HW238478   0.384   3.126   5.788  0.9313  1.5262 -1.2245
 8949SOL     OW38479   1.763   4.326   0.221 -0.0057 -0.0745  0.3658
 8949SOL    HW138480   1.745   4.246   0.174 -1.4594 -1.7597  3.7741
 8949SOL    HW238481   1.708   4.391   0.178  0.6409  0.2626  0.0417
 8950SOL     OW38482   4.545   1.205   7.102 -0.2277 -0.0922  0.4633
 8950SOL    HW138483   4.633   1.189   7.067 -1.4507 -1.7350 -1.8950
 8950SOL    HW238484   4.554   1.228   7.194 -0.8757  0.9429  0.2668
 8951SOL     OW38485   3.456   1.602  11.686  0.4085  0.9649  0.2163
 8951SOL    HW138486   3.471   1.652  11.605  0.3541 -0.9454 -0.9634
 8951SOL    HW238487   3.386   1.655  11.725  0.3858  3.3002 -2.9973
 8952SOL     OW38488   4.195   4.218   0.074 -0.0894  0.3585  0.5059
 8952SOL    HW138489   4.197   4.312   0.057 -0.9490  0.0323 -1.4811
 8952SOL    HW238490   4.247   4.182   0.002 -0.2043 -0.7280  0.9633
 8953SOL     OW38491   3.647   0.422   7.147 -0.2480 -0.5935  0.1067
 8953SOL    HW138492   3.636   0.327   7.155 -0.4961 -0.4988  0.8932
 8953SOL    HW238493   3.689   0.426   7.061 -1.2113  0.0607 -0.3415
 8954SOL     OW38494   1.819   4.543   1.377 -0.0472  0.7496  0.2226
 8954SOL    HW138495   1.875   4.595   1.435  0.0535 -0.5039  1.2552
 8954SOL    HW238496   1.890   4.511   1.321  0.5292 -0.3794  1.6052
 8955SOL     OW38497   0.770   2.328   4.397  0.0552  0.0985  0.2089
 8955SOL    HW138498   0.829   2.389   4.442 -0.3970 -0.9137  2.1637
 8955SOL    HW238499   0.727   2.391   4.340  0.3164  0.4961  0.4515
 8956SOL     OW38500   2.995   4.161   9.373  0.2541  0.0952 -0.1554
 8956SOL    HW138501   2.924   4.186   9.313  1.1510 -2.0806 -2.1103
 8956SOL    HW238502   2.983   4.244   9.421  1.6064  0.5298 -0.5664
 8957SOL     OW38503   4.224   4.369   5.359 -0.2725  0.5432 -0.3770
 8957SOL    HW138504   4.225   4.277   5.332 -1.2696  0.9198 -1.7022
 8957SOL    HW238505   4.296   4.410   5.310  1.6038 -0.8063  1.2201
 8958SOL     OW38506   4.009   2.332   7.673  0.3930 -0.0290  0.3756
 8958SOL    HW138507   4.011   2.305   7.765  1.7305  0.7958  0.5779
 8958SOL    HW238508   4.097   2.369   7.670  1.2078 -1.9804 -0.2578
 8959SOL     OW38509   2.680   2.443   8.292 -0.8228  0.1365  0.0801
 8959SOL    HW138510   2.735   2.365   8.287 -0.8422  0.0022  1.6757
 8959SOL    HW238511   2.625   2.433   8.371  0.6536  0.3479  1.1371
 8960SOL     OW38512   0.293   4.525   4.273 -0.1861  0.2080  0.0923
 8960SOL    HW138513   0.247   4.597   4.316  0.3178 -1.3080  3.1128
 8960SOL    HW238514   0.362   4.566   4.222 -0.2148  1.1142  0.7959
 8961SOL     OW38515   4.656   3.262   6.770 -0.3304  0.0838 -0.1865
 8961SOL    HW138516   0.007   3.299   6.779 -0.9964  1.4987  0.4513
 8961SOL    HW238517   4.604   3.337   6.744 -0.2002  0.6897  1.2967
 8962SOL     OW38518   1.136   0.110  16.093 -0.2348  0.7119  0.0646
 8962SOL    HW138519   1.060   0.075  16.139  0.6938 -0.8235  0.4300
 8962SOL    HW238520   1.163   0.025  16.058 -0.6062 -0.4409  2.5518
 8963SOL     OW38521   3.865   2.555   8.952  0.3438 -0.0211  0.5086
 8963SOL    HW138522   3.880   2.625   9.016 -0.2661 -0.3903  1.0592
 8963SOL    HW238523   3.938   2.498   8.978 -1.1565 -1.6683  1.1074
 8964SOL     OW38524   3.736   0.984   1.964 -0.0517 -1.5014 -0.2766
 8964SOL    HW138525   3.726   0.966   2.057 -1.1608  0.8833  0.0469
 8964SOL    HW238526   3.734   1.079   1.955  0.4760 -1.4177  0.5038
 8965SOL     OW38527   1.029   4.392  14.834  0.4988 -0.3187  0.2275
 8965SOL    HW138528   1.020   4.488  14.833  0.0093 -0.3721 -0.9944
 8965SOL    HW238529   1.099   4.380  14.770 -0.3979 -0.2520 -0.7672
 8966SOL     OW38530   2.279   3.153  12.906  0.1086  0.3687  0.1480
 8966SOL    HW138531   2.340   3.099  12.855  0.2385  0.2389  0.4431
 8966SOL    HW238532   2.233   3.089  12.961  0.8586 -0.1727  0.1489
 8967SOL     OW38533   2.087   1.433  13.710  0.5146  0.5785 -0.1653
 8967SOL    HW138534   2.018   1.479  13.662 -0.9597 -0.9155  0.5010
 8967SOL    HW238535   2.092   1.350  13.661  0.2391  0.8005 -0.5721
 8968SOL     OW38536   4.057   1.861   2.556  0.7921  0.6187  0.2466
 8968SOL    HW138537   4.060   1.769   2.528 -0.7108  0.1484  1.6254
 8968SOL    HW238538   4.095   1.857   2.644 -2.3544 -2.4902  1.4693
 8969SOL     OW38539   1.674   0.457   4.136  0.0814  0.5156  0.1594
 8969SOL    HW138540   1.719   0.509   4.203 -0.4503 -0.1861  1.0628
 8969SOL    HW238541   1.746   0.413   4.090  1.6916  2.9681  0.2907
 8970SOL     OW38542   3.465   1.651   6.706  0.2967  0.0509 -0.2092
 8970SOL    HW138543   3.529   1.719   6.729 -1.0990  0.2506  3.1193
 8970SOL    HW238544   3.450   1.620   6.796  1.2674  0.8781  0.2469
 8971SOL     OW38545   0.541   2.684   6.014 -0.6195  0.9154 -0.4481
 8971SOL    HW138546   0.556   2.735   5.934 -1.1815  0.4591 -0.8391
 8971SOL    HW238547   0.462   2.635   5.992  0.5316 -0.6178 -1.1568
 8972SOL     OW38548   4.658   3.422  12.306  0.4960 -0.3706 -0.3352
 8972SOL    HW138549   0.006   3.397  12.339 -0.0847  0.3674  1.6917
 8972SOL    HW238550   4.663   3.393  12.214 -1.2827 -1.8511  0.0287
 8973SOL     OW38551   2.365   1.376  17.420 -0.0632  0.1859  0.0943
 8973SOL    HW138552   2.321   1.295  17.447 -2.0241  1.3464  0.3506
 8973SOL    HW238553   2.302   1.406  17.355 -2.5574  2.2790  3.4477
 8974SOL     OW38554   1.654   4.575   3.429  0.5262  0.0411  0.3296
 8974SOL    HW138555   1.735   4.542   3.390 -2.0848 -3.8969 -1.7589
 8974SOL    HW238556   1.687   4.638   3.493  1.5727 -0.6787  0.5137
 8975SOL     OW38557   2.316   3.455  17.536  0.1445  0.5766  0.0125
 8975SOL    HW138558   2.408   3.482  17.528 -0.3450  1.4619 -2.6040
 8975SOL    HW238559   2.312   3.453  17.631  1.5312 -0.4563  0.0607
 8976SOL     OW38560   2.008   1.110   3.939 -0.0295 -0.5531  0.0566
 8976SOL    HW138561   1.932   1.136   3.990 -0.9921  0.0626 -1.6841
 8976SOL    HW238562   2.069   1.083   4.007  0.9075 -0.7689 -0.8555
 8977SOL     OW38563   2.281   0.953   8.223 -0.0750  0.0656  0.1003
 8977SOL    HW138564   2.361   0.902   8.210  0.5647  0.3890  2.7272
 8977SOL    HW238565   2.221   0.893   8.268  2.5079 -0.3244  3.0053
 8978SOL     OW38566   1.506   0.670   3.582  0.5188 -0.3229  0.3145
 8978SOL    HW138567   1.422   0.687   3.625  0.8777  2.1292  0.0784
 8978SOL    HW238568   1.480   0.607   3.515 -3.1645  2.0962 -0.5399
 8979SOL     OW38569   3.161   3.821   6.660  0.0332  0.6903  0.3382
 8979SOL    HW138570   3.118   3.875   6.593 -0.9524  1.2636  1.4325
 8979SOL    HW238571   3.090   3.765   6.692 -0.1070  0.4293 -0.4199
 8980SOL     OW38572   3.771   1.030   8.728  0.2078 -0.4538  0.0188
 8980SOL    HW138573   3.800   1.040   8.637 -0.5310 -1.6386 -0.3476
 8980SOL    HW238574   3.858   1.044   8.766 -0.3535  0.1638  1.0802
 8981SOL     OW38575   0.872   4.061  16.388  0.1680  0.2847  0.6063
 8981SOL    HW138576   0.778   4.043  16.382  0.2335  0.0203  0.3432
 8981SOL    HW238577   0.870   4.154  16.410 -0.0493  0.3463  0.3192
 8982SOL     OW38578   4.719   2.788   6.771  0.7380  0.2924 -0.3677
 8982SOL    HW138579   4.698   2.847   6.699  2.2356 -0.3476 -1.3337
 8982SOL    HW238580   4.644   2.730   6.764  0.5276  0.6513 -1.0839
 8983SOL     OW38581   2.858   4.238   6.005 -0.2846  0.1630 -0.2828
 8983SOL    HW138582   2.830   4.309   6.062  1.6760  1.9086 -1.4674
 8983SOL    HW238583   2.903   4.184   6.070  1.3783 -1.7424 -2.9943
 8984SOL     OW38584   1.236   2.936   5.030  0.2003 -0.0527  0.2978
 8984SOL    HW138585   1.162   2.894   5.072  0.4835 -0.4489  0.4055
 8984SOL    HW238586   1.264   2.993   5.102 -1.3491  2.4762 -1.1061
 8985SOL     OW38587   3.833   3.491   3.286 -0.0143  0.1008  0.6902
 8985SOL    HW138588   3.757   3.506   3.229  0.5293 -4.0814 -1.1304
 8985SOL    HW238589   3.897   3.495   3.215 -0.1077 -1.1164  0.5298
 8986SOL     OW38590   2.272   2.888  12.975 -0.5139  0.0399  0.1519
 8986SOL    HW138591   2.297   2.823  12.910 -0.4575  2.2013 -1.9706
 8986SOL    HW238592   2.176   2.884  12.975 -0.5273  0.2728  0.6206
 8987SOL     OW38593   0.198   1.361   1.938 -0.3479  0.2419 -0.0856
 8987SOL    HW138594   0.284   1.405   1.933  0.1087 -0.6884 -0.4554
 8987SOL    HW238595   0.191   1.343   1.845  0.1090 -0.1656 -0.0413
 8988SOL     OW38596   3.292   0.549   4.194  0.4671  0.1671  0.1398
 8988SOL    HW138597   3.272   0.517   4.282  1.7051  0.6939  0.6026
 8988SOL    HW238598   3.382   0.518   4.187 -0.1408 -1.7210  0.5063
 8989SOL     OW38599   3.760   0.416   2.866 -0.0203 -0.5032  0.0944
 8989SOL    HW138600   3.693   0.419   2.934  0.7049  0.9843  0.7609
 8989SOL    HW238601   3.843   0.415   2.914 -0.1378 -0.2903  0.3062
 8990SOL     OW38602   2.396   3.734   2.288 -0.0609 -0.1140  0.1573
 8990SOL    HW138603   2.374   3.642   2.274  2.3169 -0.7280  0.4367
 8990SOL    HW238604   2.311   3.777   2.297 -0.2091 -0.1024 -1.2899
 8991SOL     OW38605   3.553   1.799   2.325 -0.2211  0.1774 -0.0792
 8991SOL    HW138606   3.615   1.730   2.302 -0.9182 -1.0311  1.7000
 8991SOL    HW238607   3.603   1.879   2.312 -1.6759  1.3311  1.4349
 8992SOL     OW38608   1.207   4.426  11.800  0.0548  0.0381 -0.8525
 8992SOL    HW138609   1.232   4.474  11.722 -0.1976 -0.2704 -1.1264
 8992SOL    HW238610   1.151   4.357  11.764 -0.3652  0.0797 -0.2823
 8993SOL     OW38611   1.202   4.481  10.355  0.4378 -0.2752 -0.2244
 8993SOL    HW138612   1.128   4.532  10.388  1.6922  0.1085  1.9970
 8993SOL    HW238613   1.201   4.420  10.429 -0.9727  0.5880  0.4670
 8994SOL     OW38614   0.282   1.413  12.584  0.5849  0.3316  0.1725
 8994SOL    HW138615   0.303   1.503  12.557 -1.8798  1.6411  2.6119
 8994SOL    HW238616   0.370   1.396  12.616  0.1621 -0.3952  0.9286
 8995SOL     OW38617   2.464   3.819   1.106 -0.6191 -0.5261  0.3508
 8995SOL    HW138618   2.430   3.874   1.036 -0.9849  1.0720  1.7941
 8995SOL    HW238619   2.549   3.854   1.132  0.0904 -1.8736 -0.1030
 8996SOL     OW38620   0.937   1.594  11.717 -0.3148 -0.1960  0.0782
 8996SOL    HW138621   0.958   1.561  11.805 -3.0253  0.7734  1.1031
 8996SOL    HW238622   1.023   1.632  11.699 -0.9272  1.2470  0.2226
 8997SOL     OW38623   0.635   4.120   6.314 -0.4268 -0.1068  0.0260
 8997SOL    HW138624   0.553   4.096   6.357 -1.5142  0.6581 -1.5895
 8997SOL    HW238625   0.610   4.202   6.271  1.3111  0.6072  0.3747
 8998SOL     OW38626   2.803   3.737  13.961  0.1175 -0.2306 -0.3099
 8998SOL    HW138627   2.821   3.657  13.912 -0.8923 -1.0545  0.6575
 8998SOL    HW238628   2.710   3.735  13.939  0.5529 -0.6557 -2.1465
 8999SOL     OW38629   2.967   2.755   0.723 -0.0529 -0.1983  0.0617
 8999SOL    HW138630   3.042   2.815   0.720  0.5542 -0.9598  0.1432
 8999SOL    HW238631   2.990   2.702   0.800 -1.3949 -0.1030  0.5154
 9000SOL     OW38632   2.370   0.168  13.599 -0.3685 -0.2643 -0.5467
 9000SOL    HW138633   2.340   0.080  13.619 -0.0849  0.0838  1.4510
 9000SOL    HW238634   2.284   0.209  13.585 -1.9518 -3.2086  0.5219
 9001SOL     OW38635   4.089   0.350  12.679 -0.4108  0.4330 -0.1465
 9001SOL    HW138636   4.039   0.279  12.719 -1.1938  0.9016 -0.2811
 9001SOL    HW238637   4.174   0.307  12.669  0.2121  1.4359  0.8675
 9002SOL     OW38638   0.321   1.885   5.125  0.2785 -0.9290 -0.0532
 9002SOL    HW138639   0.341   1.898   5.218  1.3058 -1.2444 -0.2235
 9002SOL    HW238640   0.373   1.806   5.106 -2.1412 -2.2793 -1.0321
 9003SOL     OW38641   3.009   4.590   2.346 -0.6714  0.3434  0.9257
 9003SOL    HW138642   2.924   4.621   2.378 -1.0330 -1.1524  1.3988
 9003SOL    HW238643   3.014   4.499   2.373  0.1394  0.2640  0.5065
 9004SOL     OW38644   3.374   3.813  12.473 -0.3688  0.1466 -0.5971
 9004SOL    HW138645   3.460   3.854  12.461 -0.0625 -0.6368 -1.0695
 9004SOL    HW238646   3.353   3.768  12.392 -3.0450  0.9846 -0.3688
 9005SOL     OW38647   2.149   1.476   8.007  0.5077  0.0001  0.4773
 9005SOL    HW138648   2.152   1.513   7.918 -0.0302  1.3624  1.0287
 9005SOL    HW238649   2.077   1.528   8.041  0.6159  0.5581 -0.1353
 9006SOL     OW38650   2.409   1.977  10.155 -0.3942 -0.1033 -0.0396
 9006SOL    HW138651   2.398   2.047  10.220  0.4985 -0.6138  0.6594
 9006SOL    HW238652   2.408   2.030  10.076  1.2974  1.5491  1.0478
 9007SOL     OW38653   4.049   3.821   2.047 -0.1930 -0.3094  0.0368
 9007SOL    HW138654   4.011   3.734   2.056  0.7298 -0.5916  1.2810
 9007SOL    HW238655   3.990   3.871   2.104  1.5898  2.1160 -0.2442
 9008SOL     OW38656   0.331   2.210   4.441 -0.4747 -0.1210  0.0861
 9008SOL    HW138657   0.397   2.276   4.464  0.3782 -0.1169 -2.3148
 9008SOL    HW238658   0.356   2.136   4.498  1.7152 -0.9595 -1.9249
 9009SOL     OW38659   0.758   1.234   0.305 -0.2542  0.0829  0.5072
 9009SOL    HW138660   0.801   1.266   0.384  0.2986  0.9596 -0.1481
 9009SOL    HW238661   0.827   1.245   0.239 -1.1121  0.1137 -0.3899
 9010SOL     OW38662   0.968   0.230   2.942  0.1421 -0.1251 -0.0637
 9010SOL    HW138663   0.980   0.249   3.035  0.0524  0.7248 -0.2242
 9010SOL    HW238664   0.970   0.135   2.957  1.4392  0.2261  1.9756
 9011SOL     OW38665   2.285   1.513   7.614  0.3467  0.3324  0.1482
 9011SOL    HW138666   2.305   1.596   7.657  2.5207  0.2137 -0.6552
 9011SOL    HW238667   2.191   1.508   7.632 -0.1915  1.2794 -2.4465
 9012SOL     OW38668   0.947   2.773  14.712 -0.0084 -0.7171 -0.0002
 9012SOL    HW138669   0.955   2.677  14.715  0.0659 -0.7306 -0.5930
 9012SOL    HW238670   0.857   2.786  14.681  0.4164 -2.1667 -1.8303
 9013SOL     OW38671   2.083   2.485   9.201  0.7562  0.0677 -0.1536
 9013SOL    HW138672   2.090   2.541   9.279 -1.1561 -0.7353  0.5995
 9013SOL    HW238673   1.990   2.491   9.179  0.4702 -0.0343  1.0175
 9014SOL     OW38674   2.017   0.065   5.511 -0.1824  0.1449  0.0146
 9014SOL    HW138675   1.974   0.048   5.595 -1.3753 -3.0143 -1.2491
 9014SOL    HW238676   2.079   4.734   5.487 -1.5054 -1.5576  1.3797
 9015SOL     OW38677   1.755   0.805   0.963 -0.0789  0.1233 -0.2895
 9015SOL    HW138678   1.675   0.758   0.986  0.7068  0.0948  2.3751
 9015SOL    HW238679   1.822   0.761   1.015 -2.7958 -2.2439  1.2147
 9016SOL     OW38680   0.055   1.245  12.595 -0.0739 -0.3606  0.3820
 9016SOL    HW138681   0.118   1.314  12.615  1.1387 -0.6361 -2.5411
 9016SOL    HW238682   4.713   1.290  12.566 -1.6960 -2.6430  1.1791
 9017SOL     OW38683   3.754   0.360   5.193  0.4703  0.5441  0.0427
 9017SOL    HW138684   3.786   0.398   5.111  0.3085 -0.9994 -0.7358
 9017SOL    HW238685   3.677   0.413   5.213  1.1920  0.5200  2.7860
 9018SOL     OW38686   3.528   0.245  12.141  0.8009 -0.2744  0.2872
 9018SOL    HW138687   3.487   0.160  12.155  0.1990  0.0857  0.6599
 9018SOL    HW238688   3.497   0.262  12.052 -1.2893 -0.6469  0.9554
 9019SOL     OW38689   4.217   2.006   7.238 -0.1602  0.3236 -0.4749
 9019SOL    HW138690   4.296   1.961   7.267 -1.2294 -1.3965 -0.2305
 9019SOL    HW238691   4.157   1.972   7.305  0.0660  0.1591 -0.3584
 9020SOL     OW38692   0.979   0.016   7.169  0.4578 -0.0539 -0.1954
 9020SOL    HW138693   0.902   4.722   7.122  0.9035  0.8105 -1.4998
 9020SOL    HW238694   0.929   0.063   7.236 -0.0741 -0.6490 -0.1806
 9021SOL     OW38695   2.615   1.308  12.339  0.4053  0.0812 -0.2484
 9021SOL    HW138696   2.603   1.385  12.394  0.8761 -1.1715  1.5813
 9021SOL    HW238697   2.678   1.335  12.273 -0.5671  3.1189  0.1000
 9022SOL     OW38698   2.927   0.328   3.820 -0.6598 -0.4578  0.3020
 9022SOL    HW138699   2.867   0.335   3.895 -0.4717  2.0357  0.2236
 9022SOL    HW238700   2.972   0.412   3.827 -0.3568 -0.5436 -0.7513
 9023SOL     OW38701   0.463   4.573   1.183  0.2210  0.3205 -0.3270
 9023SOL    HW138702   0.548   4.528   1.180  1.6475  2.8998  0.5560
 9023SOL    HW238703   0.398   4.505   1.169  0.9504 -0.4846  0.1638
 9024SOL     OW38704   1.727   0.162   1.626 -0.0994 -0.1931  0.1684
 9024SOL    HW138705   1.687   0.213   1.697  3.5750 -0.1910  2.2360
 9024SOL    HW238706   1.788   0.224   1.587 -0.7228 -0.2517 -0.8956
 9025SOL     OW38707   3.298   4.190  14.029  0.4169  0.5244  0.3997
 9025SOL    HW138708   3.204   4.208  14.025  0.8169  2.2116 -1.1766
 9025SOL    HW238709   3.336   4.265  14.074  0.8424  2.1833 -2.7938
 9026SOL     OW38710   1.997   3.789   9.033  0.7171  0.3751 -0.5422
 9026SOL    HW138711   1.927   3.737   8.993  0.4461 -0.2207  0.7107
 9026SOL    HW238712   2.046   3.717   9.073  0.1760 -0.4543 -1.3638
 9027SOL     OW38713   0.356   2.819   3.902 -0.1448 -0.1444 -0.5503
 9027SOL    HW138714   0.284   2.761   3.928 -0.0225 -1.3030 -2.7975
 9027SOL    HW238715   0.382   2.868   3.979  0.4313 -0.2757 -0.6645
 9028SOL     OW38716   3.842   1.729   3.417  0.2249 -0.0817  0.5528
 9028SOL    HW138717   3.903   1.791   3.457  0.1783  1.0645 -1.1452
 9028SOL    HW238718   3.762   1.749   3.467 -2.4969 -0.5126 -3.5941
 9029SOL     OW38719   1.902   2.428   2.026 -0.2870  0.0518  0.0041
 9029SOL    HW138720   1.929   2.346   2.067  0.4002 -0.8912 -2.3655
 9029SOL    HW238721   1.964   2.436   1.954 -0.9936  0.5785 -0.5363
 9030SOL     OW38722   0.713   4.243   2.283 -0.4065  0.1177 -0.1014
 9030SOL    HW138723   0.774   4.234   2.210  0.6308 -0.5799  0.8461
 9030SOL    HW238724   0.748   4.325   2.320  2.2343 -1.2793  0.5124
 9031SOL     OW38725   4.657   2.199   3.301 -0.6538 -0.2574  0.2674
 9031SOL    HW138726   4.647   2.234   3.212 -0.6839 -0.7554  0.0735
 9031SOL    HW238727   0.015   2.190   3.303 -0.4904  1.2265 -0.8377
 9032SOL     OW38728   2.747   3.404  14.764 -0.0032  0.1739 -0.0423
 9032SOL    HW138729   2.808   3.358  14.708  0.0906 -0.3018  0.4481
 9032SOL    HW238730   2.662   3.374  14.733 -1.1253  0.7863  2.4040
 9033SOL     OW38731   1.357   3.231   2.570  0.2376 -0.7028 -0.3971
 9033SOL    HW138732   1.309   3.311   2.588 -0.4522 -0.9614 -1.0970
 9033SOL    HW238733   1.357   3.238   2.475 -0.2377 -0.8165 -0.4071
 9034SOL     OW38734   1.196   2.029   4.501 -0.1320 -0.1247  0.1094
 9034SOL    HW138735   1.101   2.045   4.507  0.0135  1.0542 -0.7480
 9034SOL    HW238736   1.213   1.966   4.572 -1.3456  1.3930  1.7423
 9035SOL     OW38737   3.971   3.299   9.687 -0.3084  0.3386 -0.3136
 9035SOL    HW138738   4.008   3.378   9.726 -0.3046 -0.4231  1.1975
 9035SOL    HW238739   3.919   3.347   9.622 -2.1910 -0.5815  0.5122
 9036SOL     OW38740   1.646   1.732   2.212  0.1257 -0.5448 -0.3509
 9036SOL    HW138741   1.660   1.644   2.249  0.1051 -0.7546 -0.8510
 9036SOL    HW238742   1.554   1.733   2.185 -0.0143 -2.5931  0.0092
 9037SOL     OW38743   0.583   3.543   4.860 -0.4176  0.5344 -0.7117
 9037SOL    HW138744   0.665   3.493   4.862 -0.6401  0.1773 -0.3837
 9037SOL    HW238745   0.568   3.547   4.765  1.3746  0.8208 -0.9879
 9038SOL     OW38746   0.540   4.556   7.972 -0.1746 -0.4719  0.0031
 9038SOL    HW138747   0.591   4.479   7.947 -4.4496 -2.8368 -1.4969
 9038SOL    HW238748   0.567   4.570   8.063 -1.5212  0.5473  0.2459
 9039SOL     OW38749   0.424   3.566   2.257 -0.0645 -0.1382 -0.7408
 9039SOL    HW138750   0.349   3.620   2.234 -0.2507 -0.9895 -2.1259
 9039SOL    HW238751   0.494   3.630   2.267 -0.7050  0.2580  1.2688
 9040SOL     OW38752   3.491   4.520  12.468  0.5013  0.0830  0.0212
 9040SOL    HW138753   3.511   4.457  12.537 -0.4984 -0.6676 -0.3717
 9040SOL    HW238754   3.546   4.590  12.504 -2.4400  3.0064 -1.2191
 9041SOL     OW38755   1.751   4.316   8.119  0.7132 -0.1392 -0.2388
 9041SOL    HW138756   1.741   4.271   8.035 -0.4031 -0.4859  0.0697
 9041SOL    HW238757   1.673   4.282   8.164  0.2568 -0.4188 -1.2332
 9042SOL     OW38758   4.589   4.714   8.166 -0.0991  0.1193  0.1961
 9042SOL    HW138759   4.678   0.011   8.172  0.1786 -0.8184  1.5327
 9042SOL    HW238760   4.548   0.028   8.236  1.0367  2.4768 -0.8711
 9043SOL     OW38761   3.148   3.287   3.530 -0.6934 -0.0070 -0.2814
 9043SOL    HW138762   3.192   3.353   3.583 -0.9120 -0.6095  0.6447
 9043SOL    HW238763   3.181   3.299   3.441 -0.6078  0.4465 -0.1890
 9044SOL     OW38764   2.155   3.444   2.720  0.6044  0.2182  0.0265
 9044SOL    HW138765   2.108   3.462   2.638 -2.4948 -1.1221  1.4828
 9044SOL    HW238766   2.194   3.527   2.748  0.7265  0.0820  0.2619
 9045SOL     OW38767   4.113   1.100   1.528  0.0968 -0.4169 -0.8380
 9045SOL    HW138768   4.144   1.025   1.578  0.9039  0.8138  0.5315
 9045SOL    HW238769   4.173   1.168   1.560 -0.9670 -0.9166  2.1607
 9046SOL     OW38770   4.399   0.969  13.455  0.0214 -0.3215  0.3795
 9046SOL    HW138771   4.463   0.898  13.462 -0.2332 -0.4129  1.6459
 9046SOL    HW238772   4.431   1.026  13.525 -0.2655 -1.4054  1.3700
 9047SOL     OW38773   1.957   1.404   4.060 -0.1424  0.0338  0.1525
 9047SOL    HW138774   2.010   1.327   4.083  0.7367  0.2324 -1.2095
 9047SOL    HW238775   1.891   1.403   4.129 -0.6502  1.6376 -0.3056
 9048SOL     OW38776   0.413   4.010  17.125 -0.0185  0.1035 -0.4685
 9048SOL    HW138777   0.481   3.965  17.077 -0.0181 -1.1575  0.7191
 9048SOL    HW238778   0.462   4.020  17.206 -0.3901  0.5273 -0.2887
 9049SOL     OW38779   1.588   0.766   4.481  0.4039 -0.4174 -0.2564
 9049SOL    HW138780   1.663   0.787   4.536 -0.5062  1.3235  0.3281
 9049SOL    HW238781   1.531   0.843   4.493 -0.0128 -1.2836  3.1406
 9050SOL     OW38782   0.889   1.361   8.007 -0.0004  0.0247  0.0968
 9050SOL    HW138783   0.799   1.365   8.037  0.3160 -1.1915  1.1839
 9050SOL    HW238784   0.931   1.432   8.057  1.3719 -2.3948  2.3762
 9051SOL     OW38785   1.674   4.097  12.294 -0.2137 -0.0498  0.0340
 9051SOL    HW138786   1.628   4.020  12.260  0.9216 -0.1512 -1.2842
 9051SOL    HW238787   1.657   4.158  12.222 -2.3350  0.8212  1.2992
 9052SOL     OW38788   2.106   1.218   4.189 -0.2697  0.2651 -0.1795
 9052SOL    HW138789   2.076   1.214   4.280  0.5369 -0.1030  0.0713
 9052SOL    HW238790   2.201   1.224   4.195 -0.1640  0.6159 -2.2515
 9053SOL     OW38791   2.346   1.954   4.874  0.3115 -0.9751  0.1594
 9053SOL    HW138792   2.272   2.016   4.873 -1.0301 -2.5692  0.0640
 9053SOL    HW238793   2.324   1.889   4.807  1.1474  0.0042 -1.0692
 9054SOL     OW38794   0.941   4.008  15.606  0.5135 -0.4031 -0.4433
 9054SOL    HW138795   0.876   3.975  15.668 -1.1462 -1.3464 -2.6638
 9054SOL    HW238796   0.905   3.974  15.524  1.3250  0.4971 -1.1855
 9055SOL     OW38797   3.925   3.427   7.533  0.2048  0.4259  0.0689
 9055SOL    HW138798   4.011   3.467   7.546  0.0018  1.6293 -2.2747
 9055SOL    HW238799   3.915   3.374   7.612  0.3669 -2.5314 -1.8946
 9056SOL     OW38800   1.909   1.662  11.555  0.4615  0.5919 -0.2576
 9056SOL    HW138801   1.930   1.581  11.602 -0.7207 -0.1635 -1.0481
 9056SOL    HW238802   1.936   1.628  11.470 -0.6879 -2.3149  0.5373
 9057SOL     OW38803   1.905   2.681   4.756  0.3591  0.0658 -0.3210
 9057SOL    HW138804   1.866   2.765   4.780 -1.9454 -0.4275 -2.3437
 9057SOL    HW238805   1.829   2.630   4.730 -0.1191  0.1213  0.9646
 9058SOL     OW38806   1.943   4.113   7.238  0.3653 -0.4948  0.0279
 9058SOL    HW138807   1.861   4.069   7.217  0.1595 -0.1250  0.0456
 9058SOL    HW238808   1.981   4.073   7.316 -0.7785 -0.9241  0.3518
 9059SOL     OW38809   0.372   3.573   8.338 -0.2367 -0.6742  0.1311
 9059SOL    HW138810   0.404   3.484   8.320 -0.2029 -0.8549  1.0778
 9059SOL    HW238811   0.398   3.581   8.429  2.6797 -1.5377 -0.6312
 9060SOL     OW38812   3.960   0.149   4.985  0.2515  0.0157  0.1182
 9060SOL    HW138813   3.997   0.068   5.020  0.6073  0.0903 -0.0826
 9060SOL    HW238814   3.998   0.221   5.037  0.9153  0.7038 -1.3123
 9061SOL     OW38815   3.304   0.899   3.155  0.1103 -0.1343  0.1582
 9061SOL    HW138816   3.321   0.925   3.246 -2.0475  0.3732  0.4268
 9061SOL    HW238817   3.383   0.940   3.119 -0.3769  0.4191 -0.2702
 9062SOL     OW38818   0.657   0.189  11.996 -0.1194 -0.0890 -0.3644
 9062SOL    HW138819   0.723   0.154  12.056 -1.6520 -0.5734  1.0401
 9062SOL    HW238820   0.581   0.138  12.024 -0.5528  0.2297 -0.9662
 9063SOL     OW38821   0.798   4.323   7.886  0.1483 -0.1594  0.0428
 9063SOL    HW138822   0.784   4.380   7.811 -1.2506  0.2806  0.6265
 9063SOL    HW238823   0.893   4.320   7.880  0.0565 -2.3439 -0.6778
 9064SOL     OW38824   1.899   2.889   8.336  1.2997 -0.4111 -0.1733
 9064SOL    HW138825   1.853   2.927   8.410  1.2822 -3.0100  1.1550
 9064SOL    HW238826   1.881   2.956   8.270 -0.5763 -0.7283 -0.0055
 9065SOL     OW38827   4.400   3.941   6.461 -0.3798 -0.5862  0.3455
 9065SOL    HW138828   4.428   3.992   6.385  2.1695 -2.6043 -0.0573
 9065SOL    HW238829   4.384   3.861   6.409 -0.5223 -0.1657 -0.2601
 9066SOL     OW38830   4.045   4.621   5.084  0.0960 -0.0869 -0.0136
 9066SOL    HW138831   4.052   4.544   5.028 -0.1591 -0.3496  0.3105
 9066SOL    HW238832   3.952   4.607   5.101  0.1430  0.1962  0.4806
 9067SOL     OW38833   0.368   1.347   4.532 -0.1071 -0.3354 -0.3739
 9067SOL    HW138834   0.455   1.384   4.514  0.1658 -0.9568 -0.3102
 9067SOL    HW238835   0.400   1.257   4.528 -1.4895 -0.7664 -1.9421
 9068SOL     OW38836   1.406   1.703   1.637  0.0264  0.4029 -0.0849
 9068SOL    HW138837   1.324   1.680   1.680  0.3010  1.4055  0.9918
 9068SOL    HW238838   1.456   1.622   1.640  0.9485  0.9860  0.3646
 9069SOL     OW38839   0.602   2.710   3.300  0.3906  0.7430  0.4720
 9069SOL    HW138840   0.558   2.748   3.377  0.3895 -0.5853  1.1262
 9069SOL    HW238841   0.526   2.666   3.262 -0.8240  3.0375  0.2339
 9070SOL     OW38842   1.782   0.356   5.292  0.0074 -0.1478 -0.2394
 9070SOL    HW138843   1.714   0.344   5.227 -0.4536 -0.4767  0.3023
 9070SOL    HW238844   1.845   0.286   5.276  1.3668  0.9556  0.2334
 9071SOL     OW38845   2.994   0.903   3.627  0.2589 -0.0723 -0.0383
 9071SOL    HW138846   3.025   0.836   3.567 -0.9354 -1.6787  1.1523
 9071SOL    HW238847   2.917   0.940   3.585  0.7998  0.1652 -0.8031
 9072SOL     OW38848   0.499   3.200   1.923  0.4546 -0.2888  0.1742
 9072SOL    HW138849   0.523   3.172   2.011 -0.4514  0.3932  0.6467
 9072SOL    HW238850   0.580   3.180   1.876  0.7527  0.1732  0.4903
 9073SOL     OW38851   2.321   1.150   2.944  0.1908 -0.4910  0.1828
 9073SOL    HW138852   2.359   1.068   2.977  1.4017  0.7509  1.8607
 9073SOL    HW238853   2.317   1.144   2.848 -0.7794  1.4268  0.1033
 9074SOL     OW38854   3.009   3.695  17.479 -0.2604  0.3660  0.1734
 9074SOL    HW138855   2.916   3.692  17.454 -0.2966  2.7294  0.0780
 9074SOL    HW238856   3.032   3.609  17.444  0.7981  0.2811  1.0790
 9075SOL     OW38857   0.818   2.508   8.993 -0.5709  0.5683 -0.1348
 9075SOL    HW138858   0.875   2.517   8.917 -0.4433 -2.7457 -0.4581
 9075SOL    HW238859   0.793   2.416   8.993 -2.0802  0.9996 -0.8811
 9076SOL     OW38860   0.604   0.441   4.842 -0.4758  0.1826 -0.1548
 9076SOL    HW138861   0.635   0.409   4.757  0.9557  2.3955 -0.4438
 9076SOL    HW238862   0.603   0.360   4.893 -1.2519  0.6655  0.5903
 9077SOL     OW38863   4.714   3.158   2.877 -0.0126 -0.3317 -0.2510
 9077SOL    HW138864   4.710   3.180   2.784 -0.5407  2.6536  0.4674
 9077SOL    HW238865   0.064   3.117   2.882  0.4540  0.7130  0.1944
 9078SOL     OW38866   1.466   1.394   1.669  0.2162 -0.5159 -0.3617
 9078SOL    HW138867   1.556   1.362   1.676  0.2499 -1.1959 -3.6011
 9078SOL    HW238868   1.425   1.309   1.655 -0.9285  0.0501 -0.4543
 9079SOL     OW38869   2.225   2.133   5.618  0.0138 -0.3005  0.3977
 9079SOL    HW138870   2.187   2.074   5.683 -1.9472  1.6715  1.0285
 9079SOL    HW238871   2.163   2.126   5.546  0.0081 -0.5707  0.4307
 9080SOL     OW38872   4.538   3.364   7.562  0.5187 -0.1921  0.4800
 9080SOL    HW138873   4.473   3.399   7.623  0.1201 -0.9130  0.4668
 9080SOL    HW238874   4.620   3.382   7.608 -0.0278  0.3900  1.2206
 9081SOL     OW38875   4.043   0.495   4.778  0.1037  0.1402  0.0084
 9081SOL    HW138876   4.106   0.552   4.823 -0.0732  0.4101 -0.0827
 9081SOL    HW238877   4.086   0.410   4.769 -0.1624  0.0101 -0.0446
 9082SOL     OW38878   3.232   3.555   7.385 -0.0245  0.7645  0.0257
 9082SOL    HW138879   3.174   3.573   7.459 -0.1662  2.0831 -0.3909
 9082SOL    HW238880   3.316   3.535   7.427  0.5036  2.4216 -0.2145
 9083SOL     OW38881   1.462   4.387   7.310  0.1628 -0.4865  0.0241
 9083SOL    HW138882   1.481   4.317   7.247  1.5917 -0.8526  0.8825
 9083SOL    HW238883   1.366   4.381   7.318  0.0537  1.0082 -0.2330
 9084SOL     OW38884   1.836   4.150  15.564  0.2911 -0.0830  0.1129
 9084SOL    HW138885   1.886   4.213  15.512  1.8963 -1.5378 -0.1082
 9084SOL    HW238886   1.882   4.068  15.546 -0.0627 -0.0922 -0.7315
 9085SOL     OW38887   0.843   3.952   6.890 -0.1393  0.7038 -0.1550
 9085SOL    HW138888   0.857   3.960   6.984  0.5483  0.9037 -0.2687
 9085SOL    HW238889   0.853   4.043   6.863 -0.4033  0.3767 -1.3614
 9086SOL     OW38890   0.043   1.364  17.656  0.3563  0.0328  0.4334
 9086SOL    HW138891   0.051   1.459  17.670 -1.7149  0.4972 -1.5628
 9086SOL    HW238892   0.134   1.336  17.661 -0.1096 -1.4160  0.5338
 9087SOL     OW38893   1.108   1.240   2.431 -0.1647  0.1000 -0.0169
 9087SOL    HW138894   1.082   1.155   2.465 -0.2827 -0.0282 -0.4235
 9087SOL    HW238895   1.113   1.218   2.338  0.7015 -1.2774  0.3689
 9088SOL     OW38896   0.581   3.057   6.363 -0.3056  0.0454 -0.4438
 9088SOL    HW138897   0.609   2.966   6.362 -3.3336 -0.8505 -3.4062
 9088SOL    HW238898   0.518   3.056   6.434 -0.8873 -0.3899 -0.9637
 9089SOL     OW38899   2.430   1.485  13.822  0.1416 -0.2545 -0.4685
 9089SOL    HW138900   2.415   1.470  13.729 -0.0889  0.7554 -0.5990
 9089SOL    HW238901   2.411   1.579  13.817  0.3466 -0.1127  1.5396
 9090SOL     OW38902   1.479   3.852   6.514  0.0126  0.5946  0.5242
 9090SOL    HW138903   1.574   3.862   6.510 -0.1779  2.3531  0.2457
 9090SOL    HW238904   1.467   3.759   6.532  0.3230  0.6119  0.8221
 9091SOL     OW38905   4.248   0.150   3.074  0.1664  0.7688  0.2086
 9091SOL    HW138906   4.277   0.082   3.013  1.0523 -0.8714  2.4520
 9091SOL    HW238907   4.325   0.165   3.129 -0.2825 -0.0077  1.0509
 9092SOL     OW38908   1.306   0.033   2.032 -0.4009 -0.1706  0.0080
 9092SOL    HW138909   1.257   0.040   2.114  1.4766  1.5813  0.9659
 9092SOL    HW238910   1.297   4.676   2.016  0.4805 -0.3265  0.4227
 9093SOL     OW38911   2.441   3.502   3.961  0.6395  0.7911 -0.0919
 9093SOL    HW138912   2.372   3.436   3.970 -1.6992  3.2978  0.5137
 9093SOL    HW238913   2.455   3.497   3.866  0.8168 -1.2361  0.0582
 9094SOL     OW38914   3.439   0.673   4.887 -0.1532  0.4863 -0.7262
 9094SOL    HW138915   3.419   0.686   4.795 -0.3261  1.3091 -0.5728
 9094SOL    HW238916   3.528   0.707   4.880  0.0351  0.4435  1.3403
 9095SOL     OW38917   2.628   2.999   8.882 -0.4717  0.0007  0.0515
 9095SOL    HW138918   2.559   2.961   8.937  1.3847 -1.1508  1.5980
 9095SOL    HW238919   2.678   2.925   8.847  1.4307  1.6493 -0.7044
 9096SOL     OW38920   1.449   1.497   2.736 -0.3638  0.3277  0.4024
 9096SOL    HW138921   1.435   1.418   2.685 -0.4248  0.3780  0.3407
 9096SOL    HW238922   1.364   1.536   2.717  1.0886  1.5966 -3.6696
 9097SOL     OW38923   3.341   1.093   4.077  0.0814  0.0539 -0.0671
 9097SOL    HW138924   3.286   1.023   4.043  0.1031 -0.7710  1.6073
 9097SOL    HW238925   3.298   1.172   4.043  0.0582 -0.2740 -0.7884
 9098SOL     OW38926   4.536   4.522   1.949 -0.5864  0.6421  0.1011
 9098SOL    HW138927   4.607   4.545   1.889 -1.0005  2.1646  0.1929
 9098SOL    HW238928   4.568   4.441   1.989 -0.0301 -0.3694 -2.4068
 9099SOL     OW38929   1.621   3.237   5.143  0.1251  0.0613 -0.1782
 9099SOL    HW138930   1.678   3.305   5.180 -0.0441 -0.1425  0.4724
 9099SOL    HW238931   1.553   3.297   5.114  0.4808  1.1413  1.2002
 9100SOL     OW38932   1.151   2.141   3.889  0.0175 -0.5771  0.2080
 9100SOL    HW138933   1.103   2.184   3.818  0.0175 -3.6815 -1.7029
 9100SOL    HW238934   1.134   2.048   3.869 -1.4191 -0.2116 -0.2618
 9101SOL     OW38935   4.605   0.145   7.318 -0.1988 -0.2445 -0.2080
 9101SOL    HW138936   4.606   0.064   7.266  0.4414 -1.6196  1.9610
 9101SOL    HW238937   4.657   0.110   7.390 -0.3489  0.2974  0.1636
 9102SOL     OW38938   4.613   2.126   2.440  0.5152 -0.4930 -0.0866
 9102SOL    HW138939   4.518   2.125   2.443  0.5701 -0.5662  1.4525
 9102SOL    HW238940   4.643   2.101   2.528  0.8689  1.3286  0.3116
 9103SOL     OW38941   4.159   3.081  12.462 -0.0172  0.0033  0.0821
 9103SOL    HW138942   4.234   3.049  12.513 -1.8311 -0.7478  2.3035
 9103SOL    HW238943   4.121   2.993  12.456 -0.3218  0.1859 -0.6903
 9104SOL     OW38944   4.261   3.308   2.785  0.5293 -0.2323 -0.3096
 9104SOL    HW138945   4.177   3.261   2.788 -0.2271  0.8372 -4.3617
 9104SOL    HW238946   4.305   3.255   2.851 -0.1794 -0.8017 -0.2840
 9105SOL     OW38947   1.449   4.531   8.713 -0.6337 -0.3688  0.0994
 9105SOL    HW138948   1.522   4.520   8.773 -0.3615  0.5409 -0.0642
 9105SOL    HW238949   1.476   4.608   8.662 -0.8308  1.0975  2.2257
 9106SOL     OW38950   2.663   1.254   8.948 -0.1958 -0.1190 -0.2592
 9106SOL    HW138951   2.580   1.206   8.938  0.8594 -1.8775 -0.5336
 9106SOL    HW238952   2.732   1.193   8.921 -1.4841 -1.6338 -0.1546
 9107SOL     OW38953   0.210   1.920   9.207 -0.8291  0.0922  0.2035
 9107SOL    HW138954   0.244   1.992   9.155 -1.5465 -0.2164 -0.6849
 9107SOL    HW238955   0.276   1.852   9.191 -3.1786 -2.1131 -0.1644
 9108SOL     OW38956   2.223   3.816   4.588 -0.4351 -0.3783 -0.3438
 9108SOL    HW138957   2.152   3.855   4.537 -0.8855 -1.6629 -0.7011
 9108SOL    HW238958   2.283   3.891   4.585 -2.1452  0.9440 -1.7368
 9109SOL     OW38959   0.084   4.430   3.673 -0.3323  0.2792  0.4658
 9109SOL    HW138960   0.141   4.428   3.596 -1.3372 -1.5379 -0.2457
 9109SOL    HW238961   4.733   4.433   3.636 -0.6336  0.9188  1.2302
 9110SOL     OW38962   0.815   4.534  12.348  0.1696  0.3834 -0.3080
 9110SOL    HW138963   0.756   4.548  12.422 -0.3477 -0.3522 -0.5802
 9110SOL    HW238964   0.764   4.535  12.267 -0.7551 -3.1409  0.2407
 9111SOL     OW38965   3.795   2.155   9.513 -0.0755  0.4710 -0.8091
 9111SOL    HW138966   3.887   2.129   9.509 -0.6610 -2.0108  2.1192
 9111SOL    HW238967   3.756   2.073   9.543  2.3490 -0.7964 -1.1412
 9112SOL     OW38968   1.124   1.792   2.461  0.0568 -0.4470  0.2435
 9112SOL    HW138969   1.176   1.748   2.394 -0.8535 -0.0728 -0.6952
 9112SOL    HW238970   1.121   1.883   2.433  1.7150  0.0673  1.7543
 9113SOL     OW38971   0.022   3.162   1.245  0.1861 -0.1397 -0.0055
 9113SOL    HW138972   4.716   3.179   1.162 -0.3704 -1.4997  0.0048
 9113SOL    HW238973   0.112   3.190   1.229 -0.3778  0.4400 -2.0827
 9114SOL     OW38974   3.124   0.524   3.758  0.3549  0.3504  0.2645
 9114SOL    HW138975   3.209   0.527   3.801  1.3784  1.2415 -1.8384
 9114SOL    HW238976   3.145   0.515   3.665  2.5060  0.7925  0.7096
 9115SOL     OW38977   0.863   3.905   3.441  0.5155 -0.3164 -0.2215
 9115SOL    HW138978   0.791   3.857   3.400  1.4425 -0.9010 -1.1584
 9115SOL    HW238979   0.930   3.839   3.459  1.9636  1.2450  0.0369
 9116SOL     OW38980   1.563   3.815  17.550 -0.4650 -0.3470 -0.1112
 9116SOL    HW138981   1.636   3.829  17.490 -1.2764  1.2019 -0.7441
 9116SOL    HW238982   1.573   3.898  17.597 -0.0133 -0.5836  0.2072
 9117SOL     OW38983   2.547   2.011   1.799 -0.1827  0.1174 -0.3509
 9117SOL    HW138984   2.519   1.923   1.824  1.7468 -0.3479  0.1854
 9117SOL    HW238985   2.587   2.028   1.885  0.9318 -0.9180 -0.6659
 9118SOL     OW38986   3.489   2.543   4.420  1.1431  0.4567 -0.2328
 9118SOL    HW138987   3.491   2.627   4.465 -0.0620 -1.3704  3.2401
 9118SOL    HW238988   3.440   2.502   4.492  2.4816 -0.5597  0.1048
 9119SOL     OW38989   4.358   3.466   7.755 -0.0212  1.0692  0.6560
 9119SOL    HW138990   4.338   3.409   7.830  0.0008  0.4872  0.2152
 9119SOL    HW238991   4.283   3.455   7.698  0.5795  1.1117 -0.1431
 9120SOL     OW38992   1.370   4.149   1.722  0.4002  0.2668 -0.3232
 9120SOL    HW138993   1.402   4.237   1.743  0.3028  0.3044 -0.3307
 9120SOL    HW238994   1.454   4.106   1.706  0.2596  0.1680 -0.7921
 9121SOL     OW38995   3.896   0.491   5.004 -0.2685  0.2277 -0.0604
 9121SOL    HW138996   3.852   0.570   4.973  1.5868  1.7591  1.1928
 9121SOL    HW238997   3.939   0.461   4.923 -1.1480  0.3380 -0.5695
 9122SOL     OW38998   3.649   0.579   4.460 -0.0995  0.1601 -0.1172
 9122SOL    HW138999   3.665   0.543   4.548  1.6047  2.8208  0.6691
 9122SOL    HW239000   3.570   0.632   4.470 -0.6741 -1.4401  3.9250
 9123SOL     OW39001   4.633   2.582   2.887  0.3048 -0.0653  0.6300
 9123SOL    HW139002   4.695   2.628   2.830 -1.7556  1.9180 -0.0414
 9123SOL    HW239003   4.560   2.573   2.826  0.1531 -0.3972  0.8617
 9124SOL     OW39004   0.802   1.937   5.527 -0.1951  0.2293 -0.1816
 9124SOL    HW139005   0.884   1.974   5.494 -0.0472  1.3960  1.4860
 9124SOL    HW239006   0.731   1.988   5.488  0.7178  1.9641  0.3915
 9125SOL     OW39007   4.385   4.415  11.536  0.4963 -0.0965  0.0549
 9125SOL    HW139008   4.421   4.454  11.616  0.9652  0.0376 -0.2185
 9125SOL    HW239009   4.363   4.492  11.483 -2.1676  0.3827  1.9351
 9126SOL     OW39010   1.051   0.427   3.956  0.3584  0.1391 -0.1463
 9126SOL    HW139011   1.145   0.428   3.969  0.3594 -2.6936  0.0519
 9126SOL    HW239012   1.019   0.385   4.036 -1.0221 -0.9659 -1.2609
 9127SOL     OW39013   0.179   3.621   3.917 -0.1668 -0.5665  0.4049
 9127SOL    HW139014   0.233   3.699   3.923 -2.7234  1.1569  1.1423
 9127SOL    HW239015   0.232   3.563   3.862  0.7091 -1.3842  2.1275
 9128SOL     OW39016   2.966   4.335   2.415 -0.1244 -0.2329 -0.0559
 9128SOL    HW139017   2.876   4.333   2.448 -0.7023 -0.1976 -1.6639
 9128SOL    HW239018   3.011   4.285   2.484  1.3407 -1.3961 -1.8351
 9129SOL     OW39019   1.268   1.538   4.889 -0.1517  0.1346  0.0610
 9129SOL    HW139020   1.258   1.493   4.805  1.9010 -0.6407  0.2357
 9129SOL    HW239021   1.346   1.491   4.916  0.9089  1.0525 -1.4579
 9130SOL     OW39022   2.369   1.329   0.662  0.3192 -0.1791  0.3166
 9130SOL    HW139023   2.346   1.323   0.569  1.1506 -1.5192  0.2040
 9130SOL    HW239024   2.405   1.243   0.683  1.6624 -0.0846 -1.5462
 9131SOL     OW39025   1.203   4.307   9.089 -0.2488  0.6397  1.0084
 9131SOL    HW139026   1.195   4.352   9.005 -2.8943 -2.7306 -0.5272
 9131SOL    HW239027   1.146   4.367   9.138 -3.1999 -0.9483 -0.4813
 9132SOL     OW39028   1.460   4.505   2.018  0.1072 -0.0976  0.4108
 9132SOL    HW139029   1.486   4.520   2.109 -1.4860  0.7567  0.7129
 9132SOL    HW239030   1.511   4.570   1.970  0.6494 -1.7473 -1.2798
 9133SOL     OW39031   0.647   4.635   3.106  0.1759  0.2984  0.2126
 9133SOL    HW139032   0.653   4.687   3.027 -1.0781 -0.1786 -0.2062
 9133SOL    HW239033   0.695   4.686   3.171  2.5470 -2.1110  0.3435
 9134SOL     OW39034   1.955   3.201  14.697 -0.2427  0.0253 -0.1784
 9134SOL    HW139035   1.938   3.221  14.790  0.8157  3.3378 -0.6936
 9134SOL    HW239036   1.956   3.291  14.663  2.2634  0.2208  0.4030
 9135SOL     OW39037   3.312   0.152   5.429 -0.0157 -0.1675 -0.3902
 9135SOL    HW139038   3.312   0.227   5.488  0.1478 -0.9731  0.6372
 9135SOL    HW239039   3.238   0.104   5.466  0.2606 -0.3083 -0.0097
 9136SOL     OW39040   3.613   1.217  12.420 -0.4484 -0.3403 -0.4306
 9136SOL    HW139041   3.633   1.311  12.426 -1.7647 -0.1086  0.3103
 9136SOL    HW239042   3.558   1.228  12.342 -1.7203  0.5702  0.5965
 9137SOL     OW39043   3.084   1.686   9.310  0.0432 -0.4315 -0.5430
 9137SOL    HW139044   3.052   1.762   9.261  0.1073 -0.8367 -1.2138
 9137SOL    HW239045   3.030   1.610   9.288 -0.7761 -0.1555  0.5447
 9138SOL     OW39046   3.836   2.555   4.860 -0.1961 -0.4208  0.1562
 9138SOL    HW139047   3.846   2.644   4.825  0.8184 -0.3964  0.5006
 9138SOL    HW239048   3.924   2.540   4.893  0.7312  0.8067 -1.7286
 9139SOL     OW39049   2.266   2.724   5.150 -0.4238 -0.5829 -0.3220
 9139SOL    HW139050   2.293   2.732   5.058 -0.9112  2.7407 -0.1831
 9139SOL    HW239051   2.260   2.629   5.159 -0.3497 -0.3883  1.7240
 9140SOL     OW39052   4.582   2.720   9.028 -0.1823 -0.1045  0.2830
 9140SOL    HW139053   4.541   2.791   9.077 -0.4779 -1.6873  2.3257
 9140SOL    HW239054   4.670   2.758   9.023  0.0892 -0.5458  1.6511
 9141SOL     OW39055   1.538   3.708  11.341 -0.1792  0.3372  0.0775
 9141SOL    HW139056   1.538   3.613  11.348 -2.4965  0.4142  1.1296
 9141SOL    HW239057   1.614   3.730  11.395 -1.3234  2.0788  1.0041
 9142SOL     OW39058   2.521   1.313  10.831 -0.1977  0.3670 -0.5036
 9142SOL    HW139059   2.605   1.270  10.846  0.2945  0.4657 -3.0202
 9142SOL    HW239060   2.471   1.253  10.776 -2.4331  1.8551 -0.0989
 9143SOL     OW39061   4.539   3.637   3.160  0.0206 -0.1398 -0.2715
 9143SOL    HW139062   4.510   3.718   3.202  1.1679  0.6739 -1.0618
 9143SOL    HW239063   4.629   3.623   3.188  0.5439  4.0331  0.1899
 9144SOL     OW39064   1.194   2.896   1.549 -0.1903  0.4445  0.8331
 9144SOL    HW139065   1.198   2.987   1.577  1.2782  0.2236  1.3657
 9144SOL    HW239066   1.185   2.853   1.633 -0.4405 -3.0811 -0.9972
 9145SOL     OW39067   2.059   3.784   2.292  0.2597  0.4264  0.0951
 9145SOL    HW139068   2.046   3.871   2.255  3.2585  0.3744 -1.0929
 9145SOL    HW239069   2.018   3.735   2.220  0.8211 -0.2589  0.2356
 9146SOL     OW39070   2.883   3.549   4.615  0.3829 -0.2948  1.0210
 9146SOL    HW139071   2.874   3.644   4.610 -1.1533 -0.5125 -0.1136
 9146SOL    HW239072   2.941   3.542   4.539 -1.8485 -1.2900 -0.5751
 9147SOL     OW39073   1.816   4.491   5.449  0.0901  0.0785  0.8534
 9147SOL    HW139074   1.912   4.498   5.452  0.2259 -2.0308  1.6742
 9147SOL    HW239075   1.799   4.555   5.379 -1.5050 -1.7670 -0.4368
 9148SOL     OW39076   2.089   2.705   5.823 -0.2283  0.5350  0.3341
 9148SOL    HW139077   2.003   2.673   5.852 -0.8467  1.2150 -0.7637
 9148SOL    HW239078   2.151   2.634   5.841 -1.4625 -0.2682  1.4129
 9149SOL     OW39079   0.428   2.107   1.406  0.4428  0.6457 -0.2241
 9149SOL    HW139080   0.518   2.094   1.374  0.9970  0.2750  1.4923
 9149SOL    HW239081   0.412   2.014   1.423 -1.2778  1.0840  0.4643
 9150SOL     OW39082   0.295   3.874   3.317 -0.0761  0.1475 -0.2377
 9150SOL    HW139083   0.234   3.915   3.378 -1.5641 -0.0354 -1.6196
 9150SOL    HW239084   0.278   3.781   3.328 -2.9466  0.8535  1.1450
 9151SOL     OW39085   3.557   2.752   8.959 -0.0645 -0.1604 -0.0016
 9151SOL    HW139086   3.637   2.778   9.003  0.2939 -3.5554  1.3732
 9151SOL    HW239087   3.502   2.803   9.019  0.3363 -0.9320  1.0259
 9152SOL     OW39088   2.465   2.273   3.373  0.0819  0.0040  0.1860
 9152SOL    HW139089   2.455   2.356   3.327 -0.2317 -1.0153 -1.5943
 9152SOL    HW239090   2.551   2.238   3.350 -0.4342 -0.6298 -0.7858
 9153SOL     OW39091   4.373   3.045   4.848  0.1170  0.5846 -0.1915
 9153SOL    HW139092   4.448   3.006   4.803 -0.5285 -0.8595  0.0099
 9153SOL    HW239093   4.298   3.051   4.790 -2.1276  1.2056  2.7705
 9154SOL     OW39094   0.035   3.679   1.453  0.0524 -0.0213 -0.6205
 9154SOL    HW139095   0.103   3.627   1.497 -0.1275 -2.0996 -2.8175
 9154SOL    HW239096   0.089   3.684   1.375  3.4001 -2.4371  1.5036
 9155SOL     OW39097   4.588   4.207  11.491 -0.6568 -0.4135  0.4015
 9155SOL    HW139098   4.565   4.220  11.399 -0.5137 -1.1521  0.2619
 9155SOL    HW239099   4.519   4.263  11.526  0.7034  0.6523  1.4063
 9156SOL     OW39100   1.258   4.290   3.243 -0.3359 -0.5263  0.4498
 9156SOL    HW139101   1.275   4.235   3.167  1.1297  1.3309 -0.5544
 9156SOL    HW239102   1.350   4.306   3.266 -0.6974 -0.7713  2.0840
 9157SOL     OW39103   4.549   1.686   5.106  0.6172 -0.2288  0.0423
 9157SOL    HW139104   4.511   1.613   5.155  1.0651  0.5508  1.5571
 9157SOL    HW239105   4.547   1.631   5.028  1.7406  0.6921 -0.6445
 9158SOL     OW39106   3.026   4.406   4.115 -1.0931 -0.1101  0.1072
 9158SOL    HW139107   2.953   4.397   4.176 -1.0610 -1.2850 -0.0191
 9158SOL    HW239108   2.979   4.438   4.038 -0.2121 -0.0285 -0.3918
 9159SOL     OW39109   2.309   3.719   2.639  0.3326  0.1803 -0.2924
 9159SOL    HW139110   2.225   3.708   2.685 -0.3161  0.7688 -1.3287
 9159SOL    HW239111   2.294   3.802   2.594 -0.4297 -0.1129 -0.5931
 9160SOL     OW39112   1.743   1.365   1.688  0.4442 -0.4011 -0.0165
 9160SOL    HW139113   1.830   1.392   1.659  0.7788  0.1688  1.4902
 9160SOL    HW239114   1.726   1.306   1.615  1.9454  0.1144 -0.7790
 9161SOL     OW39115   2.784   0.723   7.034 -0.2542 -0.6239  0.0601
 9161SOL    HW139116   2.798   0.805   6.986  1.0308 -1.9794 -1.8648
 9161SOL    HW239117   2.707   0.694   6.985  0.1551 -1.1798 -0.2405
 9162SOL     OW39118   2.827   0.343  16.486  0.2074 -0.5455 -0.8648
 9162SOL    HW139119   2.903   0.334  16.429  1.2546  1.1389  0.2714
 9162SOL    HW239120   2.845   0.285  16.560  0.5428  3.2368  2.0418
 9163SOL     OW39121   2.585   0.238  12.674  0.0368 -0.1109 -0.4323
 9163SOL    HW139122   2.652   0.301  12.700 -1.8560  1.3282  0.9816
 9163SOL    HW239123   2.578   0.177  12.748 -1.5207  0.1365 -0.3611
 9164SOL     OW39124   0.449   4.271   2.321 -0.4902  0.1752 -0.0134
 9164SOL    HW139125   0.545   4.271   2.315 -0.5838 -1.2806 -1.3779
 9164SOL    HW239126   0.427   4.339   2.258  0.1944  1.8646  1.5574
 9165SOL     OW39127   0.596   3.776  16.055 -0.1179 -0.3509 -0.4113
 9165SOL    HW139128   0.669   3.738  16.103 -0.4956 -1.3663 -0.6250
 9165SOL    HW239129   0.524   3.783  16.117  0.3839  1.2029 -0.0051
 9166SOL     OW39130   1.739   0.516   9.710  0.7867 -0.4428 -0.3819
 9166SOL    HW139131   1.810   0.577   9.693 -0.0297  1.1594  1.8650
 9166SOL    HW239132   1.679   0.540   9.639 -1.2547  0.8320  1.7672
 9167SOL     OW39133   2.599   0.576   4.105 -0.0887 -0.4499 -0.2498
 9167SOL    HW139134   2.597   0.497   4.050  0.8186  0.7539 -2.0275
 9167SOL    HW239135   2.513   0.610   4.080  0.5253 -0.4111 -2.3797
 9168SOL     OW39136   1.716   2.821   4.345 -0.3733  0.2254 -0.4673
 9168SOL    HW139137   1.714   2.726   4.337 -0.3599  0.1061  0.9765
 9168SOL    HW239138   1.805   2.833   4.377 -0.3409 -1.8293  0.2068
 9169SOL     OW39139   2.001   4.343  15.474 -0.2092 -0.0382 -0.5000
 9169SOL    HW139140   2.058   4.318  15.547 -1.1274  0.2896  0.3199
 9169SOL    HW239141   2.065   4.350  15.403  1.5788  0.7325  1.1724
 9170SOL     OW39142   1.545   4.537   2.273 -0.6686  0.5498  0.0199
 9170SOL    HW139143   1.637   4.510   2.280 -0.5040  1.7004  2.3824
 9170SOL    HW239144   1.524   4.542   2.366  1.7843 -0.2217  0.6280
 9171SOL     OW39145   3.858   3.249  15.974  0.5334  0.4171 -0.1702
 9171SOL    HW139146   3.874   3.183  16.041 -0.9781  0.5081  0.2862
 9171SOL    HW239147   3.815   3.311  16.034 -2.0410 -1.9110  0.3985
 9172SOL     OW39148   1.017   3.151   8.684 -0.0051 -0.4259  0.2926
 9172SOL    HW139149   0.985   3.214   8.748 -0.9218  0.8324 -1.4038
 9172SOL    HW239150   0.949   3.158   8.617  0.2227  0.6699  0.1877
 9173SOL     OW39151   4.680   1.096   7.665 -0.5207  0.5173 -0.0404
 9173SOL    HW139152   4.668   1.031   7.595  0.1763 -0.1013  0.4143
 9173SOL    HW239153   4.652   1.181   7.629  2.8646  2.3620  1.7196
 9174SOL     OW39154   3.238   2.509   1.969 -0.7368 -0.5704 -0.0896
 9174SOL    HW139155   3.239   2.604   1.971 -0.4376 -0.5719 -0.2348
 9174SOL    HW239156   3.208   2.498   1.879 -2.4665 -0.1142  0.4223
 9175SOL     OW39157   2.073   3.579  13.910  0.1566  0.0169  0.5538
 9175SOL    HW139158   2.100   3.525  13.984  2.0381 -3.1985 -2.4844
 9175SOL    HW239159   2.112   3.526  13.840 -1.2660  1.2640 -1.1846
 9176SOL     OW39160   3.166   1.951  10.845  1.0705  0.2795 -0.1481
 9176SOL    HW139161   3.104   1.879  10.852  1.0761  0.2206 -0.6968
 9176SOL    HW239162   3.245   1.899  10.829  0.2121 -0.7807 -0.9450
 9177SOL     OW39163   4.585   0.018   5.136  0.2451 -0.0958  0.0060
 9177SOL    HW139164   4.495   4.728   5.118  0.7051 -0.8663 -1.0894
 9177SOL    HW239165   4.602   4.706   5.216 -3.2096  0.7950  1.2763
 9178SOL     OW39166   0.093   0.950   5.954  0.4236 -0.3591 -0.5452
 9178SOL    HW139167   0.053   0.884   5.896 -0.2716 -1.2547  0.9558
 9178SOL    HW239168   0.177   0.905   5.960  0.5737 -0.3072 -2.1166
 9179SOL     OW39169   2.165   2.369   6.486 -0.3788  0.5136  0.4009
 9179SOL    HW139170   2.091   2.392   6.541 -0.2317  0.9358  0.4206
 9179SOL    HW239171   2.198   2.293   6.534 -0.4540 -0.1467 -0.5935
 9180SOL     OW39172   2.400   4.264  13.424 -0.1964 -0.4012 -0.1983
 9180SOL    HW139173   2.399   4.332  13.357  1.0377 -0.6749 -0.4827
 9180SOL    HW239174   2.463   4.291  13.491 -0.6093  0.7719 -0.2873
 9181SOL     OW39175   0.319   0.772   8.498  0.2970 -0.2884  0.7526
 9181SOL    HW139176   0.312   0.850   8.444  0.2744 -0.8689 -0.0791
 9181SOL    HW239177   0.411   0.770   8.525  0.8404 -1.3069 -1.2104
 9182SOL     OW39178   0.810   1.791  16.906  0.3575 -0.1407  0.1582
 9182SOL    HW139179   0.745   1.801  16.975 -1.0058 -2.4172 -0.8046
 9182SOL    HW239180   0.888   1.820  16.953  2.6541 -1.9413 -2.5453
 9183SOL     OW39181   3.598   0.710   7.624 -0.5054  0.2868  0.2190
 9183SOL    HW139182   3.528   0.772   7.604 -0.7219  0.2636  0.8929
 9183SOL    HW239183   3.677   0.763   7.625 -0.1061 -0.3037  0.1699
 9184SOL     OW39184   1.978   2.753  15.431  0.0755 -0.4521 -0.6152
 9184SOL    HW139185   1.932   2.807  15.495  0.6310 -0.1571 -0.4573
 9184SOL    HW239186   2.001   2.683  15.492 -1.2100 -0.4603 -0.1460
 9185SOL     OW39187   1.043   3.446   4.702 -0.1500 -0.2359  0.0942
 9185SOL    HW139188   1.020   3.468   4.611 -0.5367 -1.7809 -0.1721
 9185SOL    HW239189   1.127   3.492   4.705 -1.1347  1.5151  0.9511
 9186SOL     OW39190   0.122   1.689  16.980 -0.1124 -0.3674 -0.6322
 9186SOL    HW139191   0.101   1.712  17.070 -0.2504  1.9105 -1.2485
 9186SOL    HW239192   0.212   1.718  16.970  0.2131 -0.5084  2.0179
 9187SOL     OW39193   4.656   2.802  14.401  0.0548  0.2793  0.9778
 9187SOL    HW139194   4.708   2.875  14.368 -1.4598  1.4489  1.1855
 9187SOL    HW239195   4.715   2.730  14.378  2.0143  1.1147  3.3662
 9188SOL     OW39196   2.219   0.229   5.164 -0.3551  0.0785  0.4461
 9188SOL    HW139197   2.241   0.319   5.143 -1.6674  0.8649  2.3971
 9188SOL    HW239198   2.283   0.187   5.107  1.0519  2.4151  0.3513
 9189SOL     OW39199   2.128   1.383   2.912 -0.0870  0.6069  0.1976
 9189SOL    HW139200   2.159   1.473   2.924  0.5173  0.5976 -1.3238
 9189SOL    HW239201   2.191   1.339   2.970  0.9075 -0.0037 -1.3471
 9190SOL     OW39202   4.315   4.652   2.909 -0.0172  0.1367  0.3873
 9190SOL    HW139203   4.272   4.583   2.958 -3.0288  0.2745 -2.0267
 9190SOL    HW239204   4.277   4.643   2.821  0.0476 -0.5448  0.4291
 9191SOL     OW39205   2.952   2.515   0.569 -0.3313 -0.1804  0.0920
 9191SOL    HW139206   2.927   2.587   0.627 -0.5134 -0.4194  0.3055
 9191SOL    HW239207   3.000   2.565   0.502  1.1959  0.8978  1.9685
 9192SOL     OW39208   0.800   0.001   8.560 -0.3603  0.1226 -0.1797
 9192SOL    HW139209   0.835   4.650   8.574 -2.1858 -0.5483  0.1588
 9192SOL    HW239210   0.858   0.052   8.616  0.3617 -1.2828  0.3679
 9193SOL     OW39211   3.157   3.214   3.991 -0.1468 -0.1902  0.0931
 9193SOL    HW139212   3.188   3.127   3.966  0.5380  0.0364  0.1460
 9193SOL    HW239213   3.227   3.263   3.948  1.1449 -0.4596  1.8872
 9194SOL     OW39214   0.512   1.258  14.100 -0.1935 -0.5966 -0.1992
 9194SOL    HW139215   0.565   1.199  14.047  0.5656 -0.4735  0.4242
 9194SOL    HW239216   0.503   1.327  14.034 -2.0742 -0.6961 -0.0345
 9195SOL     OW39217   1.138   0.660   5.524 -0.7081 -0.0190  0.1094
 9195SOL    HW139218   1.075   0.718   5.482 -0.7584 -1.3705 -1.7054
 9195SOL    HW239219   1.207   0.687   5.465  0.4639 -0.5353  1.2319
 9196SOL     OW39220   0.566   3.309   2.874 -0.5459  1.0049  0.0950
 9196SOL    HW139221   0.632   3.275   2.934 -0.6145  0.2640 -0.2544
 9196SOL    HW239222   0.624   3.356   2.812  0.0554 -0.5116 -0.4929
 9197SOL     OW39223   1.002   1.094   8.065  0.2629 -0.4025 -0.1956
 9197SOL    HW139224   0.958   1.170   8.026  2.4008  0.8709 -0.1717
 9197SOL    HW239225   1.087   1.134   8.085 -0.2815  0.9134 -0.4696
 9198SOL     OW39226   1.669   4.479   7.456  0.2714  0.2613 -0.8452
 9198SOL    HW139227   1.595   4.454   7.401 -0.5677  2.3650 -0.7049
 9198SOL    HW239228   1.620   4.506   7.534 -0.3356  1.6140 -1.7018
 9199SOL     OW39229   2.734   0.160  17.045  0.2890  0.7679  0.1496
 9199SOL    HW139230   2.681   0.239  17.037 -2.2987 -0.9561  0.5695
 9199SOL    HW239231   2.729   0.132  16.954  0.5821 -1.2067  0.7435
 9200SOL     OW39232   4.057   2.416   6.844  0.4719  0.1517 -0.0577
 9200SOL    HW139233   4.102   2.353   6.901 -0.4336  0.8823  1.4738
 9200SOL    HW239234   4.122   2.487   6.845  1.1893 -0.5327  2.3859
 9201SOL     OW39235   1.268   3.833   6.824 -0.5378 -0.0059 -0.8096
 9201SOL    HW139236   1.230   3.748   6.847 -1.1443  0.6320  0.5782
 9201SOL    HW239237   1.342   3.803   6.772 -0.1027 -1.0150  0.3843
 9202SOL     OW39238   1.058   0.570  16.296 -0.2092 -0.2134 -0.2660
 9202SOL    HW139239   0.973   0.609  16.320 -0.5704 -1.0359 -0.2262
 9202SOL    HW239240   1.054   0.480  16.328  1.2619 -0.5740 -1.0868
 9203SOL     OW39241   4.633   1.322   7.539  0.2943  0.4964 -0.0145
 9203SOL    HW139242   4.605   1.383   7.608 -1.8274  0.5761 -0.9468
 9203SOL    HW239243   4.610   1.375   7.463 -2.0436 -0.6381 -0.1017
 9204SOL     OW39244   4.673   1.578  12.335 -0.6282 -0.2218 -0.2544
 9204SOL    HW139245   4.695   1.487  12.319  1.3660  0.4961 -1.6260
 9204SOL    HW239246   4.638   1.574  12.424 -0.5795 -1.1983 -0.2852
 9205SOL     OW39247   0.511   1.035   0.121  0.2538 -0.1789  0.3834
 9205SOL    HW139248   0.596   1.011   0.082  0.6323 -0.5140  1.4133
 9205SOL    HW239249   0.536   1.026   0.213 -0.1221 -0.1009  0.4934
 9206SOL     OW39250   3.113   2.281   3.507  0.0228  0.9066 -0.1592
 9206SOL    HW139251   3.101   2.341   3.432  1.7500  0.7470 -0.5534
 9206SOL    HW239252   3.107   2.336   3.585 -0.6636 -0.8923  1.0474
 9207SOL     OW39253   3.687   2.825   4.516  0.5052 -0.1866  0.7747
 9207SOL    HW139254   3.738   2.759   4.469 -1.4601 -1.3372  0.2405
 9207SOL    HW239255   3.754   2.844   4.581 -0.3989 -0.1118  1.6881
 9208SOL     OW39256   2.013   0.129   8.906 -0.3729  0.1906 -0.2669
 9208SOL    HW139257   1.927   0.100   8.874 -0.1080  1.1342 -1.8342
 9208SOL    HW239258   2.074   0.134   8.833  1.9530 -3.9371  1.4037
 9209SOL     OW39259   1.025   2.529   4.217 -0.4499 -0.2044 -0.6954
 9209SOL    HW139260   1.116   2.544   4.242 -0.6119  1.0788 -0.8490
 9209SOL    HW239261   1.030   2.440   4.182 -1.1876 -0.3817 -0.3584
 9210SOL     OW39262   4.640   3.944   6.900  0.3796 -0.0072  0.2024
 9210SOL    HW139263   4.600   3.889   6.833 -0.3587  2.3028 -1.2175
 9210SOL    HW239264   4.732   3.918   6.890  0.2138  0.7673 -3.0963
 9211SOL     OW39265   0.782   4.583  16.481 -0.1353  0.4186  0.5934
 9211SOL    HW139266   0.714   4.610  16.544  0.7303 -0.5267  1.9445
 9211SOL    HW239267   0.755   4.617  16.396  1.8827  0.5447  0.0082
 9212SOL     OW39268   1.371   1.491   1.327  0.2252 -0.5264 -0.1281
 9212SOL    HW139269   1.298   1.543   1.361 -0.2151 -1.3668  0.2042
 9212SOL    HW239270   1.346   1.400   1.346  1.3843 -0.7408  0.3447
 9213SOL     OW39271   0.282   4.538   8.713  0.1111  0.3036  0.1146
 9213SOL    HW139272   0.306   4.549   8.621  2.2226  0.7700  0.7268
 9213SOL    HW239273   0.270   4.443   8.711 -0.6192  0.4107 -0.8591
 9214SOL     OW39274   2.516   2.590   3.138 -0.1955  0.1229 -0.4083
 9214SOL    HW139275   2.589   2.629   3.187  0.6010 -2.0907  0.1520
 9214SOL    HW239276   2.454   2.562   3.204  0.1862  1.1890  0.4075
 9215SOL     OW39277   2.290   3.245   2.083  0.1031  0.1775 -0.1391
 9215SOL    HW139278   2.228   3.174   2.098  0.5981 -0.4895 -1.2785
 9215SOL    HW239279   2.286   3.257   1.988  0.1776 -1.5115 -0.3433
 9216SOL     OW39280   1.670   3.799   2.745 -0.1299  0.1486 -0.0483
 9216SOL    HW139281   1.651   3.724   2.802  0.8595  0.3244  0.5129
 9216SOL    HW239282   1.758   3.783   2.714 -0.1226  1.4784 -0.7338
 9217SOL     OW39283   0.150   3.818   6.759  0.0776  0.1219 -0.0395
 9217SOL    HW139284   0.087   3.789   6.692 -0.8844  0.6642  0.6310
 9217SOL    HW239285   0.149   3.911   6.734 -3.8514 -0.1919 -1.1167
 9218SOL     OW39286   1.624   3.213   2.505 -0.2548 -0.0583 -0.1034
 9218SOL    HW139287   1.533   3.193   2.526  0.2205 -0.5997  1.3815
 9218SOL    HW239288   1.661   3.199   2.592 -0.0096 -2.0082 -0.5314
 9219SOL     OW39289   0.978   2.407  16.211 -0.0552  0.9495  0.1578
 9219SOL    HW139290   0.889   2.372  16.218 -0.4499  2.2045  1.4843
 9219SOL    HW239291   0.981   2.436  16.120  2.3302  0.8707  0.2150
 9220SOL     OW39292   0.704   2.670   9.461 -0.4851 -0.5017  0.6517
 9220SOL    HW139293   0.670   2.684   9.549  2.0440  0.7466  1.4220
 9220SOL    HW239294   0.654   2.596   9.427  1.3959 -1.2411 -0.4929
 9221SOL     OW39295   0.701   2.245   6.304  0.3754  0.2105 -0.0136
 9221SOL    HW139296   0.681   2.270   6.394  1.3221  0.7653  0.0438
 9221SOL    HW239297   0.737   2.157   6.310 -1.4251 -0.5817 -0.8058
 9222SOL     OW39298   3.308   1.870  13.642 -0.6962 -0.0570  0.1281
 9222SOL    HW139299   3.342   1.824  13.566 -0.5277 -2.5168  1.6677
 9222SOL    HW239300   3.311   1.809  13.716 -1.3574 -1.9020 -1.3693
 9223SOL     OW39301   3.338   2.189   5.737  0.1914 -0.0347 -0.2170
 9223SOL    HW139302   3.263   2.197   5.796  0.0985 -0.6783 -0.2517
 9223SOL    HW239303   3.393   2.260   5.769  1.0793 -0.0757 -1.6564
 9224SOL     OW39304   0.293   2.136   9.594 -0.0941 -0.1742 -0.3326
 9224SOL    HW139305   0.376   2.151   9.640  0.2402 -1.4872 -0.5022
 9224SOL    HW239306   0.304   2.179   9.509 -0.8037 -0.5792 -0.6312
 9225SOL     OW39307   2.903   3.682   8.525  0.0908  0.1797 -0.3694
 9225SOL    HW139308   2.992   3.709   8.546 -1.4104  3.2256  2.1882
 9225SOL    HW239309   2.879   3.642   8.608 -1.8711  1.1496 -0.4627
 9226SOL     OW39310   1.542   3.681   9.887  0.0385 -0.0396 -0.0321
 9226SOL    HW139311   1.567   3.696   9.978 -2.0872  2.0322  0.1944
 9226SOL    HW239312   1.594   3.746   9.841  0.2718 -0.0107  0.2666
 9227SOL     OW39313   3.057   1.560   4.881 -0.2009  0.1022 -0.6588
 9227SOL    HW139314   3.012   1.620   4.823 -0.1362 -0.0113 -0.8265
 9227SOL    HW239315   3.063   1.605   4.965 -0.1464  1.3948 -1.3667
 9228SOL     OW39316   3.381   4.100   4.782 -0.2070  0.6071  0.3769
 9228SOL    HW139317   3.384   4.111   4.687 -1.5913  0.8307  0.3566
 9228SOL    HW239318   3.474   4.089   4.799  0.3395  1.5999 -1.9381
 9229SOL     OW39319   2.376   1.002   6.728 -0.1354 -0.3774  1.0569
 9229SOL    HW139320   2.325   0.937   6.777 -2.2195  0.1461 -0.3879
 9229SOL    HW239321   2.449   0.959   6.683 -0.2800 -0.4016  0.8390
 9230SOL     OW39322   1.502   0.023   5.656  0.2362 -0.7221 -0.2886
 9230SOL    HW139323   1.467   0.048   5.742 -0.3168 -1.4762 -0.2890
 9230SOL    HW239324   1.521   0.106   5.613  1.5167 -0.9484 -0.1636
 9231SOL     OW39325   0.865   1.399  16.548  0.1030  0.0930 -0.2886
 9231SOL    HW139326   0.857   1.459  16.623 -0.3152  0.6510 -0.7784
 9231SOL    HW239327   0.787   1.427  16.500  0.3094 -0.1652 -0.7716
 9232SOL     OW39328   4.397   3.070   6.181 -0.5447 -0.3617  0.2895
 9232SOL    HW139329   4.375   3.013   6.255 -0.1819 -0.3053  0.4408
 9232SOL    HW239330   4.491   3.055   6.175 -0.3841  1.9250 -2.6109
 9233SOL     OW39331   2.891   4.018  17.712  0.8695 -0.3679 -0.3037
 9233SOL    HW139332   2.815   3.997  17.657  2.3679 -3.9611 -1.0087
 9233SOL    HW239333   2.859   3.979   0.047  0.5326  0.3731 -0.0725
 9234SOL     OW39334   0.892   0.387   9.496  0.1821 -0.5343 -0.3712
 9234SOL    HW139335   0.832   0.461   9.513  0.4504 -0.4570  0.2553
 9234SOL    HW239336   0.916   0.401   9.405 -0.9191  2.3267 -0.2193
 9235SOL     OW39337   2.642   2.743   9.917  0.0214 -0.8759 -0.2177
 9235SOL    HW139338   2.715   2.795   9.883  0.0204 -1.0701 -0.5259
 9235SOL    HW239339   2.640   2.785  10.003  1.0959 -1.2458 -0.0115
 9236SOL     OW39340   1.412   2.558   5.756 -0.1327 -0.0689  0.4618
 9236SOL    HW139341   1.367   2.587   5.677  1.8232 -0.7326 -0.8807
 9236SOL    HW239342   1.347   2.507   5.806 -0.5546  0.1838  0.1679
 9237SOL     OW39343   1.816   4.233   1.085 -0.1472 -0.0297 -0.3556
 9237SOL    HW139344   1.761   4.271   1.154  2.9555  2.3285  0.7940
 9237SOL    HW239345   1.817   4.144   1.120  1.2096  0.6055  1.1933
 9238SOL     OW39346   3.586   1.874   4.516 -0.0657  0.0723 -0.2122
 9238SOL    HW139347   3.669   1.833   4.494  1.1021  1.1794  2.2317
 9238SOL    HW239348   3.562   1.846   4.604 -0.8525 -1.0428 -0.7599
 9239SOL     OW39349   2.147   2.705   2.791 -0.2142  0.2665 -0.6072
 9239SOL    HW139350   2.139   2.797   2.767 -0.8867 -0.1730 -2.0279
 9239SOL    HW239351   2.214   2.707   2.860 -0.2615 -1.3988 -0.5198
 9240SOL     OW39352   2.146   3.910   3.176 -0.0728  0.1801  0.2017
 9240SOL    HW139353   2.211   3.931   3.244  0.6388  0.0431 -0.4343
 9240SOL    HW239354   2.061   3.914   3.220  0.0750 -0.1755  0.5235
 9241SOL     OW39355   1.160   0.829   7.464 -0.0333  0.1533  0.0792
 9241SOL    HW139356   1.138   0.912   7.505  3.1902  0.9922  0.1649
 9241SOL    HW239357   1.131   0.757   7.520  1.7604 -0.5089  0.1842
 9242SOL     OW39358   4.202   4.279   6.760 -0.5998 -0.3334  0.1860
 9242SOL    HW139359   4.142   4.206   6.745 -1.1217 -0.3920  2.5723
 9242SOL    HW239360   4.137   4.342   6.788 -1.5925 -1.4169  0.3102
 9243SOL     OW39361   0.735   0.373   3.722  0.5146  0.9585  0.3337
 9243SOL    HW139362   0.732   0.314   3.796  0.8282 -2.3362 -2.2910
 9243SOL    HW239363   0.828   0.379   3.698  1.0210 -0.6229  1.9539
 9244SOL     OW39364   2.418   0.287   3.161 -0.4636  0.2337 -0.2156
 9244SOL    HW139365   2.476   0.363   3.146 -0.3820 -0.5309 -3.8915
 9244SOL    HW239366   2.402   0.284   3.255 -1.8301 -1.4347 -0.5087
 9245SOL     OW39367   3.414   0.187  16.540  0.2454  0.2984 -0.0785
 9245SOL    HW139368   3.465   0.137  16.604 -3.4239 -1.1676  1.6776
 9245SOL    HW239369   3.476   0.213  16.472  0.4396  2.2831  0.8462
 9246SOL     OW39370   0.472   2.414   3.641 -0.0468 -0.2852  0.0018
 9246SOL    HW139371   0.518   2.461   3.711 -1.9320  2.7045 -0.7221
 9246SOL    HW239372   0.466   2.332   3.691 -1.5505 -0.5113 -0.5303
 9247SOL     OW39373   0.721   2.647  13.713  0.0125 -0.6407 -0.0274
 9247SOL    HW139374   0.796   2.703  13.734  0.2416 -0.5066 -1.1909
 9247SOL    HW239375   0.716   2.594  13.792  1.2435  1.7516  1.6627
 9248SOL     OW39376   3.085   0.080   9.018  0.6077 -0.1743 -0.1601
 9248SOL    HW139377   3.125   0.132   9.088 -1.0552 -1.0090  1.4270
 9248SOL    HW239378   3.129   0.107   8.938  0.5986  2.4413  0.6909
 9249SOL     OW39379   4.220   2.104   8.063 -0.1637  0.4061 -0.0448
 9249SOL    HW139380   4.305   2.113   8.108 -0.1499  0.6009 -0.1134
 9249SOL    HW239381   4.228   2.009   8.052  2.6646  0.5468  0.7410
 9250SOL     OW39382   0.755   2.907   3.452 -0.5474  0.1694 -0.3111
 9250SOL    HW139383   0.751   2.949   3.538  0.5395  0.0159 -0.1815
 9250SOL    HW239384   0.770   2.815   3.475  0.3373  0.1536 -0.9336
 9251SOL     OW39385   0.265   0.547  12.511  0.2882 -0.5698  0.1436
 9251SOL    HW139386   0.297   0.550  12.421 -0.9608 -1.5516 -0.3208
 9251SOL    HW239387   0.259   0.641  12.530  0.9870 -0.7313  1.1816
 9252SOL     OW39388   3.604   4.332   3.859 -0.3903 -0.3007 -0.0270
 9252SOL    HW139389   3.642   4.417   3.879 -1.2128  0.2257 -0.6987
 9252SOL    HW239390   3.533   4.329   3.924 -1.4355  2.3925 -1.0414
 9253SOL     OW39391   1.737   2.372   6.650 -0.3814 -0.0122  0.1467
 9253SOL    HW139392   1.715   2.451   6.699  0.1106  1.4740 -2.0676
 9253SOL    HW239393   1.831   2.366   6.663 -0.4821 -1.3147  0.2848
 9254SOL     OW39394   1.422   0.917   1.287 -0.6532 -0.1354 -0.1110
 9254SOL    HW139395   1.347   0.858   1.299 -0.6049 -0.5244 -1.6997
 9254SOL    HW239396   1.458   0.906   1.199  1.8402 -2.0637  1.1596
 9255SOL     OW39397   0.673   3.961   0.334  0.1835  0.1488 -0.1594
 9255SOL    HW139398   0.726   3.888   0.302 -0.6101 -0.2853 -0.4769
 9255SOL    HW239399   0.642   3.986   0.247  1.1538 -0.2697 -0.6314
 9256SOL     OW39400   2.926   4.131   8.820  0.3465 -0.3708 -0.5113
 9256SOL    HW139401   2.979   4.096   8.891 -0.4685  0.8439  0.6908
 9256SOL    HW239402   2.985   4.111   8.747 -1.9997 -0.9653 -2.2723
 9257SOL     OW39403   4.434   4.391  14.279 -0.4021  0.0243 -0.1036
 9257SOL    HW139404   4.487   4.465  14.307 -2.2841  0.6245  1.8635
 9257SOL    HW239405   4.481   4.316  14.316 -0.0662  0.6434  0.7091
 9258SOL     OW39406   2.316   0.514   1.014 -0.1520  0.0961  0.1515
 9258SOL    HW139407   2.362   0.477   0.939 -0.1398  0.6504 -0.1100
 9258SOL    HW239408   2.248   0.447   1.009 -1.2691  1.3676 -1.5037
 9259SOL     OW39409   1.206   3.961   6.043 -0.3677 -0.3263 -0.4077
 9259SOL    HW139410   1.193   3.871   6.073  0.7994 -0.3704 -0.0638
 9259SOL    HW239411   1.148   3.976   5.968 -1.0988  0.5903  0.3406
 9260SOL     OW39412   1.103   0.056   8.329 -0.4857  0.2094 -0.1871
 9260SOL    HW139413   1.092   4.702   8.355 -3.9891  0.3639 -1.2045
 9260SOL    HW239414   1.197   0.064   8.345 -0.8088  0.7648  1.4221
 9261SOL     OW39415   2.028   2.129   1.103  0.0444  0.6433  0.1597
 9261SOL    HW139416   1.969   2.204   1.094 -1.1298 -0.6260 -2.7519
 9261SOL    HW239417   1.978   2.062   1.150 -0.5690  0.2404 -1.0668
 9262SOL     OW39418   2.489   0.289   2.415  0.0244  0.0932  0.1588
 9262SOL    HW139419   2.579   0.262   2.401 -0.3503 -1.6196  1.0839
 9262SOL    HW239420   2.455   0.212   2.461 -0.5228  0.7026  0.7802
 9263SOL     OW39421   3.963   2.929   4.443 -0.0469 -0.4884  0.5950
 9263SOL    HW139422   4.014   2.907   4.365 -2.7414 -2.4397 -0.6035
 9263SOL    HW239423   3.981   2.847   4.491 -1.7707 -1.7485 -0.9079
 9264SOL     OW39424   0.105   2.249   8.871  0.2010 -0.3638  0.3208
 9264SOL    HW139425   0.058   2.175   8.909  1.8313 -0.6783  1.7157
 9264SOL    HW239426   0.159   2.279   8.944 -1.6752 -0.3213  1.6851
 9265SOL     OW39427   2.016   3.841   7.620  0.4364  0.3308  0.1564
 9265SOL    HW139428   2.005   3.874   7.709 -0.2962 -2.4085  1.0681
 9265SOL    HW239429   2.084   3.774   7.635 -0.2848 -0.5387 -0.4546
 9266SOL     OW39430   3.497   1.379   8.976  0.2650 -0.1488 -0.6120
 9266SOL    HW139431   3.462   1.371   9.064 -1.7646 -0.9550 -1.4893
 9266SOL    HW239432   3.520   1.470   8.959  0.6435  0.0886  1.1878
 9267SOL     OW39433   1.522   3.270   3.831 -0.1724 -0.3545  0.3963
 9267SOL    HW139434   1.580   3.305   3.899  0.2534 -0.9994  0.3643
 9267SOL    HW239435   1.582   3.204   3.798  1.4105  0.4945  1.5872
 9268SOL     OW39436   0.112   0.633   6.169  0.2807  0.0819 -0.2579
 9268SOL    HW139437   0.042   0.587   6.123 -0.6271 -0.4388  1.6422
 9268SOL    HW239438   0.181   0.617   6.104  0.6152  1.1255 -0.1595
 9269SOL     OW39439   1.389   2.839   8.127 -0.2310  0.5031 -0.0813
 9269SOL    HW139440   1.321   2.903   8.105 -0.6028  0.3334  0.5915
 9269SOL    HW239441   1.366   2.826   8.218  3.5553  0.6136  0.8806
 9270SOL     OW39442   0.328   1.214   6.657 -0.2696  0.2660 -0.2900
 9270SOL    HW139443   0.307   1.162   6.735  1.4275  1.3572  0.8865
 9270SOL    HW239444   0.376   1.275   6.712  1.7325 -0.0120 -1.7285
 9271SOL     OW39445   3.779   1.758   7.039 -0.3106  0.4779  0.3537
 9271SOL    HW139446   3.871   1.744   7.063 -0.2391 -2.1470 -1.3663
 9271SOL    HW239447   3.740   1.769   7.125 -0.1682  1.4536  0.2873
 9272SOL     OW39448   2.337   1.416   8.804 -0.1698 -0.3444 -0.0409
 9272SOL    HW139449   2.310   1.327   8.826  0.5872 -0.7351 -0.6913
 9272SOL    HW239450   2.408   1.392   8.745  0.5364 -0.7439  0.9730
 9273SOL     OW39451   3.729   1.551   6.640  0.1060 -0.5077 -0.1681
 9273SOL    HW139452   3.647   1.601   6.639 -1.0537 -2.4320 -1.9256
 9273SOL    HW239453   3.751   1.532   6.731  3.6028  1.2020 -0.6636
 9274SOL     OW39454   2.426   0.830   7.088  0.1835 -0.1118  0.1775
 9274SOL    HW139455   2.425   0.754   7.030 -1.6984 -0.4548  0.6331
 9274SOL    HW239456   2.351   0.812   7.146  1.0536 -2.5883  0.5433
 9275SOL     OW39457   1.167   2.967   3.355 -0.5624  0.3307 -0.0688
 9275SOL    HW139458   1.180   3.062   3.351  0.4152  0.1821 -0.3906
 9275SOL    HW239459   1.134   2.950   3.443 -3.1894  1.4775 -0.8415
 9276SOL     OW39460   0.628   4.638   9.005 -0.1203 -0.1868 -0.9787
 9276SOL    HW139461   0.719   4.655   9.031  0.4843 -0.1714 -3.1030
 9276SOL    HW239462   0.628   4.566   8.941  2.4161 -1.9953  1.0206
 9277SOL     OW39463   0.883   3.458   8.319 -0.2463  0.1316 -0.1268
 9277SOL    HW139464   0.796   3.454   8.280  1.3992 -1.1281 -3.7030
 9277SOL    HW239465   0.898   3.552   8.308  0.4699  0.1242  0.7970
 9278SOL     OW39466   0.621   2.490   5.656  0.0547  0.8930 -0.2193
 9278SOL    HW139467   0.581   2.499   5.570 -3.3595 -1.2315  1.1686
 9278SOL    HW239468   0.710   2.516   5.633  0.5114  0.2061  0.7724
 9279SOL     OW39469   2.580   3.023   3.227  0.0745  0.1350  0.1549
 9279SOL    HW139470   2.525   3.090   3.187 -2.4927 -0.9561  1.8431
 9279SOL    HW239471   2.639   3.079   3.278  1.3295 -1.6026  0.6253
 9280SOL     OW39472   3.972   1.726   3.103  0.0093  0.2410  0.4352
 9280SOL    HW139473   3.884   1.735   3.139  0.3568  0.2467  1.2911
 9280SOL    HW239474   3.958   1.711   3.010  3.5241  0.2625 -0.0938
 9281SOL     OW39475   0.841   3.719   9.635 -0.3625  0.6694 -0.0944
 9281SOL    HW139476   0.896   3.752   9.706 -1.2747  4.7305 -1.3312
 9281SOL    HW239477   0.796   3.795   9.599  0.5773 -0.5927 -3.9422
 9282SOL     OW39478   1.031   0.318   6.811  0.4158  0.5729  0.2973
 9282SOL    HW139479   1.116   0.358   6.829  0.7120 -0.5542  1.3774
 9282SOL    HW239480   0.980   0.333   6.891  2.7606  0.6553  1.7978
 9283SOL     OW39481   3.309   1.430   3.699  0.2764 -0.0902  0.0074
 9283SOL    HW139482   3.288   1.517   3.666 -0.8785 -0.3320  0.0769
 9283SOL    HW239483   3.290   1.380   3.620 -3.9286 -1.3744  1.8270
 9284SOL     OW39484   0.831   3.632   2.341  0.2324  0.3725  0.3254
 9284SOL    HW139485   0.850   3.585   2.260 -0.1093 -0.7044  0.8657
 9284SOL    HW239486   0.814   3.721   2.312  4.5774  1.2255  0.4705
 9285SOL     OW39487   3.680   1.660   8.244 -0.4356  0.2055  0.0864
 9285SOL    HW139488   3.637   1.676   8.160  0.2670 -0.8842 -0.4824
 9285SOL    HW239489   3.644   1.579   8.281  0.7984 -0.3665  0.0550
 9286SOL     OW39490   2.003   0.241  16.034  0.0490  0.1275  0.9390
 9286SOL    HW139491   1.921   0.291  16.031  0.8548  1.5200  2.1874
 9286SOL    HW239492   2.040   0.260  15.948  1.4556 -0.5335  1.4014
 9287SOL     OW39493   2.660   1.261   4.660  0.6512 -0.5591 -0.2415
 9287SOL    HW139494   2.693   1.310   4.735  0.2208  2.9916 -2.3480
 9287SOL    HW239495   2.735   1.267   4.600 -0.1774 -0.1936 -1.2440
 9288SOL     OW39496   4.634   0.690   9.426  0.4362  0.2225  0.3501
 9288SOL    HW139497   4.716   0.696   9.379 -0.0713  1.6874 -0.3679
 9288SOL    HW239498   4.670   0.719   9.510 -1.1594  1.2553  0.6870
 9289SOL     OW39499   4.365   2.706  15.904  0.9539 -0.6353 -0.4378
 9289SOL    HW139500   4.384   2.797  15.927 -1.1095 -0.2305 -0.3143
 9289SOL    HW239501   4.370   2.710  15.808  1.3621  0.3151 -0.3773
 9290SOL     OW39502   3.855   3.516   7.898 -0.4033 -0.2746  0.0138
 9290SOL    HW139503   3.818   3.508   7.986  1.2735 -0.9984  0.6538
 9290SOL    HW239504   3.919   3.587   7.896 -1.2376  0.4750  0.3744
 9291SOL     OW39505   0.922   2.040   4.689  0.0865  0.1681  0.5690
 9291SOL    HW139506   0.910   1.961   4.742  2.7165  0.9195  2.3012
 9291SOL    HW239507   0.966   2.103   4.746  1.8229 -1.5841  1.1780
 9292SOL     OW39508   1.275   3.561   4.440  0.4398 -0.3397 -0.4338
 9292SOL    HW139509   1.370   3.548   4.448  0.1789 -1.4630  0.8310
 9292SOL    HW239510   1.261   3.502   4.367 -0.0060  0.6246 -1.1255
 9293SOL     OW39511   3.557   4.024   8.698 -0.1181  0.4467 -0.8485
 9293SOL    HW139512   3.617   3.993   8.766 -1.3739  1.1835  0.5877
 9293SOL    HW239513   3.601   4.108   8.696  0.3207  0.1971 -1.9235
 9294SOL     OW39514   2.674   3.003  15.424 -0.1410 -0.1227  0.3787
 9294SOL    HW139515   2.641   2.936  15.364 -0.7811 -1.0744  1.7782
 9294SOL    HW239516   2.615   3.072  15.393  1.1135  0.0232 -1.6767
 9295SOL     OW39517   3.031   2.020   9.704 -0.3441  0.1644  0.0326
 9295SOL    HW139518   3.022   1.929   9.674 -0.1728 -0.7497  2.7380
 9295SOL    HW239519   2.975   2.017   9.782  0.4356  1.4711  0.6424
 9296SOL     OW39520   1.059   3.045  12.793 -0.0130  0.4293 -0.4047
 9296SOL    HW139521   1.086   2.985  12.724 -2.0681 -1.1684  0.2089
 9296SOL    HW239522   1.105   3.125  12.768 -1.1499  0.6196 -1.8502
 9297SOL     OW39523   3.897   0.233   3.228  0.7041  0.2603 -0.2328
 9297SOL    HW139524   3.855   0.288   3.161 -0.7452 -0.5419  0.0152
 9297SOL    HW239525   3.927   0.153   3.183 -1.7719  0.4407 -2.2532
 9298SOL     OW39526   4.415   4.046   7.311  0.1105 -0.0054  0.6512
 9298SOL    HW139527   4.389   4.123   7.361 -2.1420 -0.3823  0.0985
 9298SOL    HW239528   4.424   4.089   7.226 -4.3201 -1.2545 -0.4762
 9299SOL     OW39529   2.118   2.226   8.486  0.3511 -0.2840 -0.2298
 9299SOL    HW139530   2.155   2.251   8.571 -0.3021  1.0681 -0.3271
 9299SOL    HW239531   2.067   2.148   8.508 -1.0381  0.5066 -0.5918
 9300SOL     OW39532   1.035   3.806  12.542  0.4716 -0.2185 -0.1308
 9300SOL    HW139533   1.074   3.787  12.457 -1.7625  0.0604 -1.2243
 9300SOL    HW239534   1.075   3.735  12.593  1.6001  0.9031  0.5231
 9301SOL     OW39535   1.988   4.593   2.777 -0.2005 -0.1305 -0.5410
 9301SOL    HW139536   1.977   4.686   2.757 -3.0541 -0.6708 -1.5051
 9301SOL    HW239537   2.082   4.577   2.770 -0.2274  0.1349 -1.5747
 9302SOL     OW39538   2.380   3.699   8.818  0.4400  0.4631 -0.6251
 9302SOL    HW139539   2.331   3.776   8.848  2.4655  1.6746 -0.4575
 9302SOL    HW239540   2.314   3.661   8.760  1.7202 -1.4432 -0.8414
 9303SOL     OW39541   3.234   0.160   9.248  0.2978 -0.3667 -0.1982
 9303SOL    HW139542   3.316   0.110   9.240  1.1917  1.0183  0.3781
 9303SOL    HW239543   3.192   0.115   9.321 -0.1624 -1.5788 -1.2034
 9304SOL     OW39544   0.563   2.451   9.115  0.2887 -0.0247  0.4251
 9304SOL    HW139545   0.496   2.472   9.050  0.7394 -0.0353 -0.0407
 9304SOL    HW239546   0.623   2.526   9.119 -0.8258  0.8458  0.6103
 9305SOL     OW39547   1.489   2.092   6.601  0.0217 -0.2654 -0.2275
 9305SOL    HW139548   1.464   2.134   6.684  1.1127  1.7198 -0.9113
 9305SOL    HW239549   1.423   2.022   6.595 -1.0250  0.6207  0.8581
 9306SOL     OW39550   3.950   2.674   7.156  0.1431  0.3116  0.4020
 9306SOL    HW139551   3.987   2.736   7.219 -0.6376 -1.2720  2.3892
 9306SOL    HW239552   3.859   2.670   7.186  0.6255  3.1452  2.2446
 9307SOL     OW39553   2.061   4.053  13.444 -0.4040  0.6085 -0.1367
 9307SOL    HW139554   2.108   3.972  13.461 -2.3013 -0.0580  1.9794
 9307SOL    HW239555   1.980   4.044  13.496 -1.1387 -0.9670 -1.5710
 9308SOL     OW39556   2.482   1.773  15.647  0.4357  0.3391 -0.2613
 9308SOL    HW139557   2.506   1.818  15.728  1.2156  2.3918 -1.6623
 9308SOL    HW239558   2.539   1.816  15.584  0.0311  0.8250 -0.2981
 9309SOL     OW39559   2.894   2.865   3.544  0.4492  0.0011 -0.1452
 9309SOL    HW139560   2.956   2.937   3.554  1.1508 -0.5210 -0.6629
 9309SOL    HW239561   2.830   2.921   3.501  0.7515  0.7005  0.3237
 9310SOL     OW39562   0.414   2.880   2.289  0.0784  0.4558 -0.4816
 9310SOL    HW139563   0.369   2.821   2.227  1.4760 -2.3741  1.1737
 9310SOL    HW239564   0.476   2.921   2.229  1.1362 -0.0335  0.2821
 9311SOL     OW39565   4.180   0.669   8.230 -0.9358 -0.1531  0.2230
 9311SOL    HW139566   4.189   0.742   8.291  1.9334 -0.1747 -0.1721
 9311SOL    HW239567   4.126   0.699   8.157 -0.5302  1.3718  0.5522
 9312SOL     OW39568   1.543   3.012  13.927 -0.4639 -0.2291 -0.4575
 9312SOL    HW139569   1.454   3.046  13.942 -0.0987  0.0587  1.0050
 9312SOL    HW239570   1.586   3.086  13.883 -1.9712  1.8181  1.5108
 9313SOL     OW39571   2.714   0.093  16.757  0.6126 -0.4909 -0.5547
 9313SOL    HW139572   2.742   0.012  16.714  3.3867 -0.2212  0.7275
 9313SOL    HW239573   2.775   0.157  16.722 -1.2926  0.9566 -1.2529
 9314SOL     OW39574   3.723   3.382  13.460  0.0874  0.0253 -0.3402
 9314SOL    HW139575   3.639   3.405  13.500 -0.2975  1.4580 -1.9718
 9314SOL    HW239576   3.707   3.393  13.366  0.8227  0.5248 -0.4093
 9315SOL     OW39577   4.539   4.138   3.292 -0.0996 -0.7231 -0.6491
 9315SOL    HW139578   4.536   4.185   3.376  0.4909 -0.2052 -0.9186
 9315SOL    HW239579   4.608   4.186   3.246  2.0324 -1.9344  1.2789
 9316SOL     OW39580   2.194   0.443   1.567  0.3837  0.3378  0.3677
 9316SOL    HW139581   2.243   0.380   1.513  0.9331 -0.8436  2.2625
 9316SOL    HW239582   2.221   0.423   1.656  4.3502  0.8340 -0.7301
 9317SOL     OW39583   0.211   2.077   8.473 -0.3243  0.4175  0.2218
 9317SOL    HW139584   0.218   2.163   8.430 -0.1538 -0.6362 -1.8359
 9317SOL    HW239585   0.271   2.013   8.435  0.0829  1.2877 -0.6041
 9318SOL     OW39586   2.810   4.199   1.573 -0.5202  0.0879  0.5655
 9318SOL    HW139587   2.748   4.196   1.500 -0.3777  2.1888  0.3617
 9318SOL    HW239588   2.756   4.262   1.622  2.1562  2.5035  0.3548
 9319SOL     OW39589   0.838   2.280   7.569 -0.9350  0.7807  0.1013
 9319SOL    HW139590   0.767   2.339   7.595 -1.1145  0.4491  0.3740
 9319SOL    HW239591   0.833   2.216   7.640 -2.1951  1.2283  0.4242
 9320SOL     OW39592   1.105   2.170   3.085  0.3359  0.3018 -0.5174
 9320SOL    HW139593   1.015   2.180   3.051 -0.3848  0.4214  1.4203
 9320SOL    HW239594   1.163   2.173   3.009 -1.1024 -1.3230 -1.6738
 9321SOL     OW39595   1.043   1.996   5.422 -0.7352 -0.3229  0.4342
 9321SOL    HW139596   1.082   1.909   5.414  1.5664  0.6820  0.7854
 9321SOL    HW239597   1.020   2.030   5.335  2.1363  0.4700 -0.0319
 9322SOL     OW39598   4.415   1.150   1.653 -0.0003  0.3789 -0.1650
 9322SOL    HW139599   4.366   1.230   1.671  1.3763  1.7558 -2.5132
 9322SOL    HW239600   4.462   1.164   1.571 -2.0865 -0.9104 -1.5740
 9323SOL     OW39601   3.530   3.645   0.152  0.4100  0.3648 -0.1696
 9323SOL    HW139602   3.578   3.571   0.116  1.2193  2.4131 -3.3568
 9323SOL    HW239603   3.472   3.652   0.076  2.3072 -0.4177 -1.6695
 9324SOL     OW39604   3.277   1.520   3.063  0.3759 -0.4423  0.5052
 9324SOL    HW139605   3.242   1.596   3.110  1.6066  0.5635 -0.2086
 9324SOL    HW239606   3.280   1.455   3.134  0.5122 -2.2698 -1.1577
 9325SOL     OW39607   3.130   2.520   2.280 -0.3668 -0.5489 -0.7207
 9325SOL    HW139608   3.067   2.450   2.299  1.7565 -1.9750  1.1787
 9325SOL    HW239609   3.204   2.466   2.250 -0.2916 -0.8028 -0.1000
 9326SOL     OW39610   4.012   0.635   4.545 -0.7905  0.7542  0.7975
 9326SOL    HW139611   4.081   0.701   4.558  1.3583 -1.4401  0.4986
 9326SOL    HW239612   4.000   0.621   4.639 -0.0726 -0.1983  0.7495
 9327SOL     OW39613   2.886   1.590   8.161  0.1256 -0.4289  0.0935
 9327SOL    HW139614   2.809   1.641   8.185  0.3566  0.0473 -0.1603
 9327SOL    HW239615   2.911   1.613   8.071  0.0678  1.8719  0.6451
 9328SOL     OW39616   4.414   0.760   5.495  0.0627 -0.0773 -0.2134
 9328SOL    HW139617   4.371   0.724   5.572  0.9328 -0.5253  0.0512
 9328SOL    HW239618   4.412   0.853   5.520  1.5514 -0.2871  0.6532
 9329SOL     OW39619   1.993   2.579   5.350  0.3215  0.1569 -0.3607
 9329SOL    HW139620   1.966   2.504   5.403  1.7957  0.5773  1.0131
 9329SOL    HW239621   1.969   2.549   5.263  0.6564  0.2594 -0.4897
 9330SOL     OW39622   4.450   0.556   2.808 -0.6175  0.8361 -0.0054
 9330SOL    HW139623   4.474   0.596   2.724 -0.5542 -0.8398 -0.7808
 9330SOL    HW239624   4.533   0.525   2.845 -1.0020  0.9990  0.9822
 9331SOL     OW39625   3.205   2.237   9.105  0.2885 -0.6883  0.0147
 9331SOL    HW139626   3.227   2.303   9.039 -4.9219  0.5417 -0.4961
 9331SOL    HW239627   3.166   2.173   9.046 -3.2136  0.6918  0.8173
 9332SOL     OW39628   3.387   4.340   5.905 -0.0294 -0.0630  0.3049
 9332SOL    HW139629   3.468   4.346   5.853  1.8088  0.9209  3.3167
 9332SOL    HW239630   3.422   4.301   5.985  1.2857  0.5718  0.0326
 9333SOL     OW39631   3.191   0.088   0.870 -0.0837 -0.6598  0.5416
 9333SOL    HW139632   3.236   0.018   0.918  1.6130 -1.0399 -1.5817
 9333SOL    HW239633   3.236   0.084   0.786  2.2004 -0.0530  1.7412
 9334SOL     OW39634   3.448   1.558   4.814 -0.0804  0.1239 -0.2867
 9334SOL    HW139635   3.404   1.579   4.732  1.5980  0.8286 -0.9972
 9334SOL    HW239636   3.533   1.528   4.782 -0.6547 -2.8962  0.9658
 9335SOL     OW39637   4.293   2.871   3.865 -0.0971 -0.3564  0.1233
 9335SOL    HW139638   4.304   2.966   3.873  1.2344 -0.5288  0.3902
 9335SOL    HW239639   4.206   2.879   3.826  0.7565  1.0896 -1.4925
 9336SOL     OW39640   1.222   3.822   4.487 -0.0568 -0.1001 -0.2236
 9336SOL    HW139641   1.246   3.729   4.485  1.8028  0.3918 -0.0160
 9336SOL    HW239642   1.284   3.857   4.423 -0.1627  1.5220  0.5710
 9337SOL     OW39643   1.644   0.284   5.838 -0.5799 -0.5387 -0.1357
 9337SOL    HW139644   1.553   0.258   5.857 -0.3808 -0.7618  0.5055
 9337SOL    HW239645   1.703   0.243   5.902 -1.2522 -0.9384  0.2330
 9338SOL     OW39646   3.684   2.390  12.908  0.2386  0.5330  0.1745
 9338SOL    HW139647   3.649   2.323  12.968  0.7086  0.0354 -0.1066
 9338SOL    HW239648   3.615   2.455  12.899 -0.8697 -0.9684 -2.3434
 9339SOL     OW39649   1.983   4.174   2.430  0.0419  0.7004 -0.4037
 9339SOL    HW139650   1.889   4.179   2.449 -0.2493  0.5552 -1.8021
 9339SOL    HW239651   1.976   4.121   2.351  2.3039  0.0352 -0.1513
 9340SOL     OW39652   2.744   0.855   5.446  0.3588  0.1106  0.3100
 9340SOL    HW139653   2.720   0.907   5.370  0.2732  0.1793  0.3842
 9340SOL    HW239654   2.791   0.915   5.503 -0.7896  1.6554 -0.3963
 9341SOL     OW39655   0.827   2.020   0.570  0.1704 -0.2335 -0.4248
 9341SOL    HW139656   0.799   2.045   0.481  0.2458  2.3454  0.2843
 9341SOL    HW239657   0.899   2.080   0.588 -0.9154  1.0500 -0.3694
 9342SOL     OW39658   1.913   4.225  16.839 -0.0614 -0.3012 -0.4433
 9342SOL    HW139659   1.819   4.224  16.821 -0.2208 -1.2612  0.4531
 9342SOL    HW239660   1.952   4.274  16.767 -2.8968  0.6043 -1.3667
 9343SOL     OW39661   1.342   4.355  15.975  0.2777  0.1006  0.2609
 9343SOL    HW139662   1.341   4.280  15.915 -1.2629 -1.5537  2.3787
 9343SOL    HW239663   1.382   4.428  15.927  0.2062  0.9841  1.5533
 9344SOL     OW39664   0.874   0.075   1.963 -0.1332  0.6111  0.4078
 9344SOL    HW139665   0.926   0.137   2.014 -0.9151  0.2631  1.6304
 9344SOL    HW239666   0.889   0.111   1.875  0.5674 -2.9965 -0.9383
 9345SOL     OW39667   1.093   3.696   5.270  0.2215 -0.3604  0.1443
 9345SOL    HW139668   1.100   3.784   5.232  0.4867 -0.6585 -0.5041
 9345SOL    HW239669   1.044   3.703   5.352 -0.6354 -1.3835 -0.2854
 9346SOL     OW39670   1.472   4.212  15.314  0.1004 -0.3212 -0.7564
 9346SOL    HW139671   1.389   4.232  15.357  1.2154 -0.0439  1.2793
 9346SOL    HW239672   1.521   4.287  15.349  1.3756 -1.1374 -0.7945
 9347SOL     OW39673   4.580   1.907   9.494  0.1490 -0.1933 -0.5668
 9347SOL    HW139674   4.641   1.848   9.450  0.4758 -0.3891  0.1493
 9347SOL    HW239675   4.620   1.991   9.468 -0.8217  1.1795  2.3590
 9348SOL     OW39676   1.645   2.320  11.565  0.2534  0.1531 -0.0674
 9348SOL    HW139677   1.612   2.268  11.638  0.3316  0.1974  0.0010
 9348SOL    HW239678   1.685   2.382  11.627 -1.0183 -0.0520  0.9562
 9349SOL     OW39679   2.647   0.575   6.301 -0.8953 -0.2436  0.3962
 9349SOL    HW139680   2.687   0.508   6.357  2.6472  0.7175 -0.9997
 9349SOL    HW239681   2.587   0.521   6.250 -1.3497  1.9743 -1.3918
 9350SOL     OW39682   3.984   1.937   6.296 -0.2485 -0.1571  0.3647
 9350SOL    HW139683   4.005   1.872   6.230 -0.5987 -0.2107  0.3067
 9350SOL    HW239684   3.890   1.919   6.294  0.1049 -2.3652  2.9717
 9351SOL     OW39685   0.119   0.450   9.088 -0.2163  0.1065  0.3698
 9351SOL    HW139686   0.204   0.480   9.059  0.0956 -1.7418 -0.6701
 9351SOL    HW239687   0.074   0.468   9.006  0.7005 -0.7189 -0.3048
 9352SOL     OW39688   0.141   1.850   4.913  0.7300  0.1780  0.1025
 9352SOL    HW139689   0.210   1.840   4.847  1.4266 -0.4793  0.9219
 9352SOL    HW239690   0.192   1.857   4.994 -1.2269 -0.4425  1.3964
 9353SOL     OW39691   0.796   1.525   9.236  0.0750  0.4216 -0.5104
 9353SOL    HW139692   0.833   1.440   9.209 -0.2867 -0.8422  2.9934
 9353SOL    HW239693   0.780   1.515   9.330  2.8443 -1.1891 -0.1995
 9354SOL     OW39694   4.183   1.197   4.735 -0.0066  0.1475  0.3129
 9354SOL    HW139695   4.265   1.183   4.687  1.1329  1.3332  1.9126
 9354SOL    HW239696   4.141   1.263   4.680  1.6806  1.1267  0.1756
 9355SOL     OW39697   1.935   3.601   9.740  0.0741  0.0096  0.4036
 9355SOL    HW139698   1.914   3.648   9.821  0.3356 -0.9424  1.0249
 9355SOL    HW239699   1.988   3.666   9.694  0.8576 -0.6551  0.3527
 9356SOL     OW39700   1.826   4.706  17.729 -0.6629 -0.2232 -0.0251
 9356SOL    HW139701   1.833   4.671   0.071 -0.9970 -1.2691 -0.4111
 9356SOL    HW239702   1.890   0.040  17.723 -0.4828 -0.1073  3.6229
 9357SOL     OW39703   3.328   2.761   8.760  0.5601  0.1103 -0.5123
 9357SOL    HW139704   3.394   2.743   8.827  0.9200  0.9023 -0.6494
 9357SOL    HW239705   3.342   2.855   8.744  0.4631  0.7160  2.9897
 9358SOL     OW39706   2.981   0.026  11.452  0.0508 -0.3594 -0.1766
 9358SOL    HW139707   2.900   4.735  11.410  0.4474 -0.8508 -0.6140
 9358SOL    HW239708   2.955   0.100  11.507  2.2743 -1.1595  1.9672
 9359SOL     OW39709   3.560   3.775   3.587  0.4142  0.0288  0.1382
 9359SOL    HW139710   3.511   3.810   3.513 -0.8937  0.4747  1.2027
 9359SOL    HW239711   3.617   3.850   3.605 -1.4527  0.8893  2.5528
 9360SOL     OW39712   0.988   4.100  14.837 -0.5945  0.0454  0.3776
 9360SOL    HW139713   1.025   4.188  14.829 -2.1036  0.7455  1.2894
 9360SOL    HW239714   1.032   4.075  14.918  0.6811 -1.0754 -0.6596
 9361SOL     OW39715   1.454   1.597   2.055  0.3636 -0.6114 -0.3261
 9361SOL    HW139716   1.452   1.610   1.960  0.5556 -2.6446 -0.6069
 9361SOL    HW239717   1.508   1.518   2.057  0.4412 -0.4844  3.0487
 9362SOL     OW39718   2.751   2.337   2.075 -0.2195  0.2394  0.3691
 9362SOL    HW139719   2.740   2.366   1.984  1.1447 -1.7256 -0.4196
 9362SOL    HW239720   2.719   2.247   2.075 -0.6802  0.4041  0.4569
 9363SOL     OW39721   3.783   1.026   5.018  0.2639 -0.3124  0.0295
 9363SOL    HW139722   3.868   1.010   5.059  0.1329  2.1554  1.2401
 9363SOL    HW239723   3.818   1.088   4.954  1.0484 -0.4366  0.3360
 9364SOL     OW39724   1.046   3.565   7.504 -0.0780 -0.1092 -0.2473
 9364SOL    HW139725   1.136   3.575   7.474 -0.2899  0.0642 -0.8313
 9364SOL    HW239726   1.051   3.574   7.599  0.3979  1.6816 -0.4455
 9365SOL     OW39727   1.335   2.179   1.994 -0.0480  0.1580  0.3049
 9365SOL    HW139728   1.266   2.237   2.025 -0.2817  1.3421 -2.3873
 9365SOL    HW239729   1.407   2.241   1.990 -0.4734  0.5954 -0.7179
 9366SOL     OW39730   1.607   0.497   8.856 -0.6197 -0.1846 -0.1685
 9366SOL    HW139731   1.641   0.449   8.932 -0.7584 -1.1619 -0.7167
 9366SOL    HW239732   1.621   0.419   8.801 -1.7662 -0.9431  0.6136
 9367SOL     OW39733   1.673   1.476   9.656  0.4136  0.1973  0.1730
 9367SOL    HW139734   1.749   1.468   9.714  0.1578  1.8626  0.7307
 9367SOL    HW239735   1.649   1.569   9.661  0.9818  0.4111 -0.9804
 9368SOL     OW39736   1.356   4.695   4.626  0.4283 -0.3238 -0.2129
 9368SOL    HW139737   1.429   0.019   4.620  0.2399 -0.0492  0.3731
 9368SOL    HW239738   1.337   4.702   4.719 -1.8356  1.2869 -0.7794
 9369SOL     OW39739   3.069   1.097   7.774  0.2496 -0.1059  1.0122
 9369SOL    HW139740   3.037   1.176   7.731 -1.3433 -1.0781  0.4084
 9369SOL    HW239741   3.163   1.108   7.767  0.0029 -0.0011 -2.0645
 9370SOL     OW39742   2.078   4.423   5.137  0.1798  0.4870  0.1587
 9370SOL    HW139743   2.075   4.427   5.233 -0.7422  1.4818  0.0848
 9370SOL    HW239744   2.071   4.516   5.112  0.8567  0.0795 -1.5011
 9371SOL     OW39745   4.341   3.146   5.401  0.5442 -0.2515  0.0565
 9371SOL    HW139746   4.371   3.107   5.483 -1.2929 -2.2267 -0.2027
 9371SOL    HW239747   4.418   3.199   5.385  0.3816  0.5777  2.1334
 9372SOL     OW39748   0.292   2.955  14.391 -0.4267  0.5609  0.5889
 9372SOL    HW139749   0.210   2.911  14.410  0.2908 -1.3514 -0.7130
 9372SOL    HW239750   0.256   3.026  14.337  1.7728  0.9670 -0.3490
 9373SOL     OW39751   3.412   0.889   7.265  0.3382 -0.6127 -0.6964
 9373SOL    HW139752   3.446   0.820   7.209 -2.2357 -2.9909  0.6601
 9373SOL    HW239753   3.400   0.962   7.204 -0.6831 -0.8166 -0.7285
 9374SOL     OW39754   1.193   4.155  14.611  0.1081 -0.3884 -0.0602
 9374SOL    HW139755   1.208   4.249  14.599 -0.4620 -0.3951 -0.8269
 9374SOL    HW239756   1.193   4.157  14.706  0.2047 -1.1772 -0.0467
 9375SOL     OW39757   2.769   0.168  12.259  0.2710  0.2822 -0.1347
 9375SOL    HW139758   2.859   0.149  12.234  0.4396 -1.9242  2.1171
 9375SOL    HW239759   2.729   0.106  12.198  0.4703 -0.3150  0.3408
 9376SOL     OW39760   2.115   3.883   5.475 -0.6879  0.1574  0.3744
 9376SOL    HW139761   2.111   3.949   5.544 -1.9578  2.0475 -1.5353
 9376SOL    HW239762   2.200   3.849   5.503 -0.1524  0.0003 -1.4794
 9377SOL     OW39763   2.201   4.110   3.624  0.1594  0.0589  0.2306
 9377SOL    HW139764   2.217   4.090   3.532  1.9623  0.0582  0.5403
 9377SOL    HW239765   2.221   4.029   3.670 -2.5745  0.7318  2.6198
 9378SOL     OW39766   4.570   3.954  11.950  0.1424  0.1587  0.5511
 9378SOL    HW139767   4.488   3.905  11.940  0.2551  0.3754 -1.4710
 9378SOL    HW239768   4.613   3.926  12.031  1.5409  1.1960  0.1597
 9379SOL     OW39769   3.646   4.722   2.897  0.2325  0.1445 -0.5506
 9379SOL    HW139770   3.577   0.041   2.860 -0.8299 -0.8048 -0.0266
 9379SOL    HW239771   3.697   0.049   2.946 -2.2045  2.5605 -1.1475
 9380SOL     OW39772   0.296   1.415  17.630  0.5103  0.7743  0.2249
 9380SOL    HW139773   0.363   1.357  17.596  0.2511 -0.7859  2.3747
 9380SOL    HW239774   0.257   1.447  17.549  3.6973 -0.1646 -1.6489
 9381SOL     OW39775   3.329   3.695  13.556 -0.0467  0.2453  0.8835
 9381SOL    HW139776   3.338   3.786  13.526  1.9468  0.3266  1.6921
 9381SOL    HW239777   3.263   3.700  13.625 -1.9663 -0.1237 -0.9232
 9382SOL     OW39778   4.030   0.967   3.301 -0.5526 -0.5242  0.1478
 9382SOL    HW139779   4.096   1.016   3.350 -1.0198  0.4813 -0.2411
 9382SOL    HW239780   4.017   1.019   3.223 -0.9009 -1.2866 -0.3013
 9383SOL     OW39781   3.387   2.124   9.270  0.0707 -0.2032 -0.6658
 9383SOL    HW139782   3.299   2.150   9.242  0.6554  1.8594 -0.6539
 9383SOL    HW239783   3.376   2.144   9.363 -0.3158  0.7535 -0.9115
 9384SOL     OW39784   4.027   2.133  10.201 -0.0785 -0.9060  0.1544
 9384SOL    HW139785   4.081   2.127  10.280  0.5920  0.0488 -0.2251
 9384SOL    HW239786   4.040   2.224  10.174 -0.6683 -0.8510  0.0607
 9385SOL     OW39787   0.861   2.904   8.475  0.4565  0.6601 -0.2990
 9385SOL    HW139788   0.824   2.875   8.559 -0.3909  1.8714 -0.2572
 9385SOL    HW239789   0.795   2.969   8.451  0.2618  1.5616  2.6725
 9386SOL     OW39790   2.852   2.559   5.170  0.0783 -0.2925 -0.1297
 9386SOL    HW139791   2.818   2.473   5.145 -0.4027  0.8423 -3.3980
 9386SOL    HW239792   2.782   2.612   5.131  0.8613 -0.1010 -1.2436
 9387SOL     OW39793   3.272   2.671   4.276  0.1015  0.0898 -0.0010
 9387SOL    HW139794   3.365   2.662   4.298  0.1515 -1.8848 -1.0385
 9387SOL    HW239795   3.267   2.766   4.268  0.9624  0.0919 -0.5058
 9388SOL     OW39796   0.144   2.670   6.331  0.0608  0.0545 -0.0189
 9388SOL    HW139797   0.227   2.707   6.361  0.0415 -0.5300  0.7629
 9388SOL    HW239798   0.174   2.629   6.250  1.4012  0.2106  0.4017
 9389SOL     OW39799   0.132   4.558   3.229  0.4343 -0.4247 -0.3652
 9389SOL    HW139800   0.197   4.577   3.161  1.2227  0.1508  0.5410
 9389SOL    HW239801   0.057   4.541   3.173  1.7462  0.9045 -2.5400
 9390SOL     OW39802   1.807   3.319   7.561  0.1842 -0.4635  0.5870
 9390SOL    HW139803   1.778   3.242   7.512 -0.9558  0.9197 -0.9210
 9390SOL    HW239804   1.745   3.382   7.526  0.8984 -0.0680  0.0523
 9391SOL     OW39805   2.243   3.299   6.985 -0.0208 -0.5104 -0.7081
 9391SOL    HW139806   2.320   3.311   7.040  0.7523 -0.0250 -1.9043
 9391SOL    HW239807   2.189   3.376   7.001  2.1515  0.9289 -0.3609
 9392SOL     OW39808   0.681   3.325   6.368 -0.2792  0.0503 -0.3873
 9392SOL    HW139809   0.650   3.238   6.392 -0.4976  0.9212  2.5208
 9392SOL    HW239810   0.774   3.304   6.361 -0.5292 -1.7606  1.7089
 9393SOL     OW39811   1.425   3.416   3.267 -0.1011  0.1680 -0.2813
 9393SOL    HW139812   1.398   3.326   3.288 -1.6130  0.7052  0.0821
 9393SOL    HW239813   1.342   3.461   3.281  1.4338  2.7144  0.5053
 9394SOL     OW39814   3.894   0.410   5.850 -0.1917  0.0824  0.2745
 9394SOL    HW139815   3.824   0.376   5.906  0.3862  0.9768  1.5220
 9394SOL    HW239816   3.876   0.363   5.768 -0.9894 -1.2802  1.2178
 9395SOL     OW39817   0.236   3.190   7.083 -0.4595 -0.3632  0.0466
 9395SOL    HW139818   0.291   3.208   7.007  0.3534 -1.7565  0.3170
 9395SOL    HW239819   0.172   3.128   7.047 -0.6603  0.0841 -0.3751
 9396SOL     OW39820   4.136   1.559   2.582  0.1311  0.2843  0.1919
 9396SOL    HW139821   4.100   1.480   2.623 -0.1747  1.3975  2.0601
 9396SOL    HW239822   4.122   1.536   2.490 -0.3105 -0.2956  0.4044
 9397SOL     OW39823   2.259   1.119   4.490  0.0458 -0.0866 -0.4049
 9397SOL    HW139824   2.345   1.078   4.503  0.1761  0.2643 -0.1444
 9397SOL    HW239825   2.278   1.195   4.434 -0.0620  0.0939 -0.1983
 9398SOL     OW39826   1.781   0.030   8.794  0.5028 -0.1738  0.0279
 9398SOL    HW139827   1.762   4.681   8.832  2.8149 -0.0044  1.5644
 9398SOL    HW239828   1.798   0.003   8.704  0.7414  0.1687 -0.0306
 9399SOL     OW39829   3.275   0.356   6.646 -0.0864  0.3316 -0.6050
 9399SOL    HW139830   3.193   0.396   6.676  0.6601  0.7853  0.8399
 9399SOL    HW239831   3.284   0.279   6.702  1.5993  0.7520 -0.2996
 9400SOL     OW39832   0.855   3.926   8.596  0.2088 -0.7788  0.4398
 9400SOL    HW139833   0.804   3.862   8.547 -0.4784  0.4884 -0.4828
 9400SOL    HW239834   0.867   3.999   8.536  1.3049  0.1156  1.7651
 9401SOL     OW39835   1.965   2.236   3.526 -0.4874  0.0922 -0.0718
 9401SOL    HW139836   2.022   2.252   3.451 -1.5056  0.4997 -0.7591
 9401SOL    HW239837   2.029   2.189   3.579  1.0472  0.7061 -1.3481
 9402SOL     OW39838   1.713   2.449   2.212 -0.6515  0.3403 -0.3401
 9402SOL    HW139839   1.737   2.496   2.292 -1.9640  1.3248 -0.5263
 9402SOL    HW239840   1.790   2.441   2.157  0.3759  0.8219  1.0226
 9403SOL     OW39841   1.534   2.372   6.921  0.1019  0.0163 -0.2511
 9403SOL    HW139842   1.508   2.326   7.001  1.5552 -3.0659 -1.5737
 9403SOL    HW239843   1.629   2.372   6.923  0.0783 -0.8880  0.8870
 9404SOL     OW39844   3.518   3.468   4.808  0.1164  0.2699  0.4065
 9404SOL    HW139845   3.571   3.526   4.753  0.4822 -2.0163 -1.6355
 9404SOL    HW239846   3.559   3.457   4.894  0.8415  1.5341  0.2248
 9405SOL     OW39847   2.843   1.469  10.626  0.0704 -0.3987 -0.0517
 9405SOL    HW139848   2.776   1.423  10.676 -0.5833 -1.2418 -1.6894
 9405SOL    HW239849   2.879   1.531  10.689  0.5400  0.0896 -0.7995
 9406SOL     OW39850   2.170   1.827   1.913  0.5818 -0.1295 -0.0005
 9406SOL    HW139851   2.206   1.760   1.855  0.8542 -0.1654  0.2104
 9406SOL    HW239852   2.090   1.849   1.865 -0.4792 -2.1023  0.8403
 9407SOL     OW39853   0.835   2.088   2.977  0.1625 -0.6025 -0.1995
 9407SOL    HW139854   0.856   2.130   2.894  2.5320 -0.7080  0.3471
 9407SOL    HW239855   0.832   1.994   2.957  0.5592 -0.8296  0.7957
 9408SOL     OW39856   0.649   0.287   6.999 -0.0604  0.2186  0.0871
 9408SOL    HW139857   0.563   0.273   7.038  0.1977  0.8966  0.9155
 9408SOL    HW239858   0.626   0.293   6.906  0.4053  0.1662 -0.0315
 9409SOL     OW39859   0.493   2.292   3.128 -0.3121 -0.2464 -0.2982
 9409SOL    HW139860   0.555   2.335   3.186  0.0079 -1.2476  0.1139
 9409SOL    HW239861   0.513   2.340   3.048  0.1237 -1.0269 -0.6649
 9410SOL     OW39862   2.395   2.841   4.615 -0.2506 -0.7041  0.0716
 9410SOL    HW139863   2.490   2.838   4.606 -0.4039  0.1372 -1.7055
 9410SOL    HW239864   2.372   2.766   4.561  0.0308 -0.9723  0.3230
 9411SOL     OW39865   2.497   0.142  12.425 -0.1173 -0.7469 -0.3297
 9411SOL    HW139866   2.559   0.182  12.487  1.2697 -0.8000 -1.6854
 9411SOL    HW239867   2.541   0.060  12.404  2.1029  0.1445  0.7362
 9412SOL     OW39868   2.676   3.269   0.613 -0.5429 -0.2971 -0.3080
 9412SOL    HW139869   2.631   3.254   0.696  2.9663 -0.5223  1.5355
 9412SOL    HW239870   2.745   3.203   0.621  0.5086  0.8473 -0.1360
 9413SOL     OW39871   3.385   4.735   3.251  0.4179 -0.1973 -0.0676
 9413SOL    HW139872   3.481   4.737   3.260  0.2393 -0.0331  1.8024
 9413SOL    HW239873   3.353   4.667   3.309  1.3849  0.0880  0.8009
 9414SOL     OW39874   2.270   1.250   7.865 -0.9719  0.3241  0.2713
 9414SOL    HW139875   2.267   1.317   7.934 -0.6253  0.6052  0.0081
 9414SOL    HW239876   2.177   1.250   7.842 -1.2859 -1.8505  1.4521
 9415SOL     OW39877   3.837   1.678  16.254  0.0629 -0.0983  0.4802
 9415SOL    HW139878   3.814   1.604  16.198  0.8471  2.2114 -2.9548
 9415SOL    HW239879   3.823   1.751  16.194 -1.5206 -0.1966  0.7356
 9416SOL     OW39880   1.629   1.676   5.439  0.2858 -0.0588  0.0026
 9416SOL    HW139881   1.712   1.716   5.466 -0.3551  3.1349 -2.7851
 9416SOL    HW239882   1.630   1.598   5.493 -0.1570  0.1771  0.3525
 9417SOL     OW39883   0.548   1.137   5.073 -0.0399  0.4364 -0.0870
 9417SOL    HW139884   0.485   1.142   5.002 -0.6542  1.0593  0.5018
 9417SOL    HW239885   0.632   1.141   5.028  0.0330  4.2062  0.3945
 9418SOL     OW39886   1.926   2.996  16.040  0.4713  0.0465 -0.1524
 9418SOL    HW139887   1.947   3.084  16.009  0.7478  0.9155  2.4758
 9418SOL    HW239888   1.998   2.945  16.003 -0.0508 -0.9091  0.1343
 9419SOL     OW39889   3.216   0.750   6.760  0.3401  0.1052 -0.2847
 9419SOL    HW139890   3.185   0.709   6.841 -0.0878 -2.1357 -1.5848
 9419SOL    HW239891   3.144   0.759   6.698 -1.8590  0.1600  2.2391
 9420SOL     OW39892   2.971   0.979   0.309  0.1524  0.4586 -0.0842
 9420SOL    HW139893   3.030   1.053   0.325 -0.5002  0.3771  2.7377
 9420SOL    HW239894   2.958   0.984   0.215 -0.6209  0.3653  0.0178
 9421SOL     OW39895   2.591   1.474  11.061  0.1887 -0.1751 -0.4329
 9421SOL    HW139896   2.656   1.486  11.131  0.9399 -0.8464 -1.0147
 9421SOL    HW239897   2.642   1.429  10.993 -1.3371 -1.3210 -0.8208
 9422SOL     OW39898   3.288   3.486   4.217  0.7373  0.1452  0.0412
 9422SOL    HW139899   3.218   3.489   4.151 -0.2932  2.4087  1.2259
 9422SOL    HW239900   3.277   3.400   4.256  4.1745 -1.1017 -1.7511
 9423SOL     OW39901   3.690   2.619  10.384  0.2419 -0.0582  0.1178
 9423SOL    HW139902   3.734   2.552  10.436  1.5032  1.3751  0.8792
 9423SOL    HW239903   3.645   2.560  10.324 -1.7106  0.8073  0.7044
 9424SOL     OW39904   2.106   2.661   9.421 -0.4106  0.0453 -0.1124
 9424SOL    HW139905   2.091   2.753   9.396  0.6224 -0.5838 -3.0657
 9424SOL    HW239906   2.200   2.669   9.439 -1.1068  1.8302  2.7063
 9425SOL     OW39907   2.615   3.313   1.200  0.4446 -0.4250 -0.6049
 9425SOL    HW139908   2.660   3.383   1.154  3.8906 -0.8279  2.1543
 9425SOL    HW239909   2.682   3.289   1.264 -1.5502 -0.3588  1.5373
 9426SOL     OW39910   4.382   0.970   3.420 -0.3107 -0.5629  0.1446
 9426SOL    HW139911   4.359   0.903   3.485 -0.3895 -2.6356 -2.0386
 9426SOL    HW239912   4.359   0.923   3.340  0.3765 -0.5937 -0.0313
 9427SOL     OW39913   2.973   3.104   3.276 -0.1986 -0.7402  0.2294
 9427SOL    HW139914   3.040   3.170   3.255 -0.5351  0.0293  1.6070
 9427SOL    HW239915   3.024   3.027   3.300  1.6352  0.5756  0.5808
 9428SOL     OW39916   2.069   1.550   0.408 -0.0719 -0.3910  0.6168
 9428SOL    HW139917   2.010   1.596   0.468 -0.2896  0.3270 -0.1405
 9428SOL    HW239918   2.031   1.602   0.337  0.6679 -1.4248 -0.5306
 9429SOL     OW39919   1.073   4.222   8.163 -0.3362  0.1950 -0.2555
 9429SOL    HW139920   1.149   4.278   8.180 -1.5773  1.1564  2.0419
 9429SOL    HW239921   1.000   4.272   8.199  1.0153  1.1629  1.1665
 9430SOL     OW39922   1.977   2.694   4.059 -0.5274  0.6988 -1.0564
 9430SOL    HW139923   1.903   2.671   4.115  1.5474 -0.3638  1.2166
 9430SOL    HW239924   1.935   2.770   4.018 -1.7733 -0.1188 -1.3188
 9431SOL     OW39925   2.445   2.243   5.014 -0.3516  0.4340 -0.3012
 9431SOL    HW139926   2.480   2.220   4.928  0.1049  0.4269 -0.1161
 9431SOL    HW239927   2.374   2.302   4.991 -0.0550  0.7539 -0.3930
 9432SOL     OW39928   0.501   4.076  15.897 -0.4659  0.4293 -0.3419
 9432SOL    HW139929   0.527   4.162  15.863 -1.5051  0.8199 -0.1256
 9432SOL    HW239930   0.407   4.090  15.899 -0.7020 -1.3606  0.3710
 9433SOL     OW39931   1.145   3.197   5.749  0.2093  0.3031 -0.1592
 9433SOL    HW139932   1.121   3.155   5.832  1.4924 -0.6169 -0.2485
 9433SOL    HW239933   1.229   3.153   5.736  0.2431  0.2239  0.3229
 9434SOL     OW39934   0.507   0.395   4.335 -0.6342 -0.5002  0.1420
 9434SOL    HW139935   0.585   0.342   4.321 -0.4117 -0.1415  0.0024
 9434SOL    HW239936   0.445   0.366   4.268  2.0615 -0.0789 -2.5602
 9435SOL     OW39937   1.663   0.685  14.734  0.3417 -0.0115 -0.4039
 9435SOL    HW139938   1.738   0.653  14.686  1.5998 -0.2514  1.7272
 9435SOL    HW239939   1.706   0.756  14.781 -1.0873 -1.0955  2.5311
 9436SOL     OW39940   0.194   4.587   9.955  0.2867  0.5465 -0.1788
 9436SOL    HW139941   0.210   4.543   9.872 -1.5013  0.0130 -0.2417
 9436SOL    HW239942   0.234   4.673   9.943  1.2300 -0.1278 -1.8127
 9437SOL     OW39943   3.544   0.252  15.366 -0.2880  0.0876 -0.2115
 9437SOL    HW139944   3.623   0.294  15.400  0.6356  0.4589 -2.8416
 9437SOL    HW239945   3.524   0.199  15.444 -1.7826 -0.3093 -0.8678
 9438SOL     OW39946   3.110   3.828   4.598 -0.7690  0.3226  0.3121
 9438SOL    HW139947   3.050   3.778   4.543 -0.0844  1.4992 -1.5124
 9438SOL    HW239948   3.141   3.758   4.656 -0.3328  0.7226  0.5677
 9439SOL     OW39949   4.171   4.648   8.289  0.0074 -0.7999 -0.4982
 9439SOL    HW139950   4.184   4.626   8.197 -0.2278  0.2516 -0.7806
 9439SOL    HW239951   4.165   0.006   8.282 -1.6987 -0.8653  0.0878
 9440SOL     OW39952   2.572   0.937   4.006 -0.2602 -0.8032 -0.3763
 9440SOL    HW139953   2.562   0.842   4.000 -3.4760 -0.4624 -0.2896
 9440SOL    HW239954   2.491   0.960   4.051 -0.1255 -0.2137 -0.4450
 9441SOL     OW39955   0.679   3.214   9.641  0.5174 -0.0059 -0.7961
 9441SOL    HW139956   0.675   3.128   9.683  2.0992 -0.0968 -0.8069
 9441SOL    HW239957   0.747   3.262   9.688 -0.9590  1.0799  0.2366
 9442SOL     OW39958   2.535   1.810   6.168  0.3276  0.0830 -0.5797
 9442SOL    HW139959   2.600   1.880   6.166  0.2120  0.2111  0.1370
 9442SOL    HW239960   2.460   1.840   6.220  0.5226  0.2972 -0.4232
 9443SOL     OW39961   2.065   0.491   2.521 -0.4225  0.0257  0.5139
 9443SOL    HW139962   2.026   0.514   2.437 -0.3404 -0.5240  0.3302
 9443SOL    HW239963   2.033   0.564   2.575 -0.6591 -0.5342  1.1239
 9444SOL     OW39964   4.258   2.521  13.521 -0.1776 -0.6209 -0.6375
 9444SOL    HW139965   4.245   2.521  13.426  0.2819 -0.9204 -0.7051
 9444SOL    HW239966   4.170   2.522  13.558 -1.1244  1.5707 -2.9209
 9445SOL     OW39967   0.585   1.071   4.223  0.0179  0.5231 -0.6340
 9445SOL    HW139968   0.499   1.083   4.182  0.2042 -0.8914 -1.4304
 9445SOL    HW239969   0.591   0.978   4.201  0.3865  0.1699  0.9945
 9446SOL     OW39970   2.009   0.949   4.398 -0.3523  0.0686  0.1661
 9446SOL    HW139971   2.086   0.983   4.444  0.3439 -1.3351  0.0385
 9446SOL    HW239972   1.981   0.869   4.443  0.3786  0.7428  1.8221
 9447SOL     OW39973   0.013   1.354  16.026  0.5184 -0.7829  0.4481
 9447SOL    HW139974   4.732   1.397  15.942  0.4207  1.8635  1.8596
 9447SOL    HW239975   0.052   1.424  16.078  1.3384 -0.0812 -1.0878
 9448SOL     OW39976   0.079   2.294   2.874  0.1910  0.3765 -0.3569
 9448SOL    HW139977   4.721   2.283   2.877  0.2496 -0.0137  0.1346
 9448SOL    HW239978   0.099   2.225   2.937 -1.6548  1.4181  1.3409
 9449SOL     OW39979   1.992   0.995   8.893 -0.3494  0.6026 -0.1486
 9449SOL    HW139980   2.016   0.997   8.986  0.8559  1.2916 -0.4759
 9449SOL    HW239981   2.072   0.954   8.863 -0.6282  0.3624 -0.5656
 9450SOL     OW39982   0.753   2.683   2.421 -0.1539 -0.4224  0.8241
 9450SOL    HW139983   0.731   2.657   2.332  2.2564  0.3181 -0.0029
 9450SOL    HW239984   0.666   2.671   2.458  0.2267 -0.8081  1.5855
 9451SOL     OW39985   3.538   1.449   8.390  0.0630  0.0473  0.4788
 9451SOL    HW139986   3.584   1.369   8.364  0.7726  0.7318 -0.3536
 9451SOL    HW239987   3.507   1.419   8.476  1.6062 -1.7656  0.3902
 9452SOL     OW39988   1.194   3.096   0.340  0.1460  0.1212 -0.6658
 9452SOL    HW139989   1.199   3.102   0.244 -1.2707 -0.0773 -0.7528
 9452SOL    HW239990   1.221   3.004   0.349 -0.7684  0.2471  3.0968
 9453SOL     OW39991   3.918   0.433  10.067  0.3534  0.4917 -0.0240
 9453SOL    HW139992   3.980   0.469  10.131  0.5991  2.8216 -1.6061
 9453SOL    HW239993   3.863   0.506  10.040 -0.9981 -0.7407 -0.6192
 9454SOL     OW39994   4.219   1.292   2.334 -0.1018  0.2323 -0.2337
 9454SOL    HW139995   4.150   1.354   2.355  1.0197  1.7963 -1.2026
 9454SOL    HW239996   4.189   1.254   2.251 -0.9708 -2.1643  1.1511
 9455SOL     OW39997   0.471   0.494   3.893  0.1316 -0.0428 -0.1239
 9455SOL    HW139998   0.437   0.580   3.867  1.1678  1.0026  1.9563
 9455SOL    HW239999   0.456   0.444   3.813 -0.6142 -0.0200  0.0046
 9456SOL     OW40000   4.129   3.604   8.461 -0.0522 -0.3736  0.0441
 9456SOL    HW140001   4.209   3.657   8.454 -1.2468  1.4838  0.2542
 9456SOL    HW240002   4.061   3.661   8.497  0.3699  0.0678  0.1509
 9457SOL     OW40003   1.404   3.092   8.797 -0.6408 -0.1335  0.2845
 9457SOL    HW140004   1.396   3.094   8.893  1.2949 -2.4706  0.4897
 9457SOL    HW240005   1.378   3.181   8.771 -1.0370 -0.6343 -1.0093
 9458SOL     OW40006   0.087   2.641   4.821 -0.0877  0.3298  0.2328
 9458SOL    HW140007   0.129   2.579   4.762 -2.2155 -0.1495 -0.7911
 9458SOL    HW240008   0.144   2.717   4.807  0.7800 -0.2082  0.8437
 9459SOL     OW40009   1.228   3.087   4.079 -0.0248 -0.1750 -0.6314
 9459SOL    HW140010   1.135   3.066   4.082  0.1881 -1.1766 -1.2160
 9459SOL    HW240011   1.220   3.129   3.993  0.6265 -2.4567 -1.8033
 9460SOL     OW40012   0.475   1.157   5.827 -0.3577 -0.4199 -0.0675
 9460SOL    HW140013   0.424   1.221   5.876  1.3288  0.0667  1.0525
 9460SOL    HW240014   0.424   1.084   5.861  1.7488 -1.9728 -0.1907
 9461SOL     OW40015   3.969   0.656   8.839 -0.2651 -0.3758  0.0197
 9461SOL    HW140016   3.933   0.599   8.771  0.8002 -0.7545 -0.2288
 9461SOL    HW240017   3.964   0.745   8.803  4.5827  0.4757  1.4741
 9462SOL     OW40018   0.950   1.332  13.550  0.3933  0.6198 -0.5099
 9462SOL    HW140019   0.918   1.405  13.497 -1.4314 -1.1651 -1.9187
 9462SOL    HW240020   0.894   1.351  13.625  0.3187  0.5712 -0.5520
 9463SOL     OW40021   4.731   0.860   5.179 -0.2736  0.1462 -0.0542
 9463SOL    HW140022   0.043   0.836   5.101 -2.0261 -2.3658 -0.3923
 9463SOL    HW240023   4.676   0.781   5.177 -0.0585  0.0194 -0.8382
 9464SOL     OW40024   2.688   1.316   6.653  0.2545 -0.1196 -0.0267
 9464SOL    HW140025   2.680   1.411   6.652 -0.2045 -0.1433  1.1429
 9464SOL    HW240026   2.636   1.298   6.732  1.4419 -1.2437  0.5090
 9465SOL     OW40027   0.129   3.138  16.935 -0.1296 -0.2404  0.3319
 9465SOL    HW140028   0.186   3.148  17.011  1.7484 -1.0495 -0.9811
 9465SOL    HW240029   0.137   3.228  16.903  0.4197 -0.1777  0.6506
 9466SOL     OW40030   3.941   3.586   2.129 -0.2239 -0.2426 -0.1484
 9466SOL    HW140031   3.863   3.529   2.131 -1.5273  1.5525  0.1688
 9466SOL    HW240032   3.956   3.601   2.222  3.7847 -2.8749 -0.3850
 9467SOL     OW40033   3.515   4.201  14.240 -0.5638  0.0592  0.3702
 9467SOL    HW140034   3.467   4.282  14.220 -2.0138 -0.3931  2.0587
 9467SOL    HW240035   3.544   4.171  14.154  0.6931 -1.1918  1.2406
 9468SOL     OW40036   3.979   3.194  12.277  0.1521  0.3324  1.0386
 9468SOL    HW140037   3.968   3.286  12.299 -0.7889  0.1865  1.1674
 9468SOL    HW240038   4.026   3.157  12.351 -1.2448 -3.7432 -0.0841
 9469SOL     OW40039   1.922   0.403   1.526 -0.0254 -0.3745 -1.1565
 9469SOL    HW140040   2.007   0.414   1.569  0.5516 -2.3942 -1.7850
 9469SOL    HW240041   1.880   0.487   1.548 -1.2926 -1.4314  0.5165
 9470SOL     OW40042   1.152   3.394   6.155  0.2431 -0.5726 -0.5387
 9470SOL    HW140043   1.174   3.309   6.193  0.9166  0.2085  0.8210
 9470SOL    HW240044   1.067   3.376   6.115 -0.5058  2.1117 -0.2002
 9471SOL     OW40045   2.957   3.776   7.434 -0.4237 -0.2296  0.2459
 9471SOL    HW140046   2.934   3.700   7.487 -1.7833 -0.4600 -0.6644
 9471SOL    HW240047   3.050   3.761   7.416 -0.4601 -0.5346  0.3099
 9472SOL     OW40048   4.424   0.410   2.257 -0.2112 -0.0210 -0.3710
 9472SOL    HW140049   4.402   0.321   2.230  2.7190 -0.2986 -1.8989
 9472SOL    HW240050   4.360   0.450   2.198  2.5830  2.5730 -1.7134
 9473SOL     OW40051   0.061   1.571   9.212  0.4493 -0.0442  0.4788
 9473SOL    HW140052   0.001   1.578   9.138 -0.0567  0.4756  0.9355
 9473SOL    HW240053   0.069   1.479   9.240 -2.0397 -0.4633 -0.1801
 9474SOL     OW40054   0.973   2.597   7.433  0.0007 -0.1454  0.0259
 9474SOL    HW140055   0.952   2.504   7.435  0.7036 -0.3262 -1.0698
 9474SOL    HW240056   1.005   2.594   7.343  0.2216  0.7980  0.0736
 9475SOL     OW40057   2.694   4.614   3.240 -0.5820  0.0491  0.0920
 9475SOL    HW140058   2.616   4.584   3.287  0.5441 -1.2815  1.0890
 9475SOL    HW240059   2.658   4.685   3.186 -3.3209 -1.3746  0.0463
 9476SOL     OW40060   4.675   0.022  11.198 -0.7834  0.1264 -0.0447
 9476SOL    HW140061   4.714   4.722  11.277  1.2077 -1.4898 -1.7870
 9476SOL    HW240062   4.611   0.083  11.236  1.1614  2.3607 -0.3578
 9477SOL     OW40063   3.443   0.535  15.656  0.3499 -0.1165 -0.3598
 9477SOL    HW140064   3.446   0.530  15.560  2.9379 -1.9448 -0.2102
 9477SOL    HW240065   3.387   0.611  15.667 -0.8329 -1.0627  0.1838
 9478SOL     OW40066   1.172   1.374   5.638  0.1441  0.0734 -0.3254
 9478SOL    HW140067   1.189   1.374   5.732 -1.3467 -0.5713 -0.0582
 9478SOL    HW240068   1.126   1.457   5.620 -2.2608 -1.0698  0.5690
 9479SOL     OW40069   2.231   0.470   7.117 -0.0930  0.3289  0.0163
 9479SOL    HW140070   2.272   0.525   7.183 -0.6381  0.8868 -0.1178
 9479SOL    HW240071   2.192   0.402   7.172 -0.3529 -1.1566 -2.0016
 9480SOL     OW40072   1.828   1.337   6.123  0.3998 -0.2919  0.3479
 9480SOL    HW140073   1.775   1.343   6.044  0.7596  0.0220  0.1348
 9480SOL    HW240074   1.905   1.289   6.092  0.8720  0.5097  0.2958
 9481SOL     OW40075   4.488   1.949   4.822  0.1323  0.0255 -0.4757
 9481SOL    HW140076   4.521   1.956   4.912  0.3145 -0.8292 -0.4690
 9481SOL    HW240077   4.413   2.008   4.828  0.2216 -0.0788  1.7776
 9482SOL     OW40078   0.638   3.028   4.219  0.2491 -0.5103  0.5282
 9482SOL    HW140079   0.687   3.071   4.289  0.4872 -0.2120  0.1791
 9482SOL    HW240080   0.712   2.990   4.172 -2.2121 -1.4929 -2.4969
 9483SOL     OW40081   2.589   3.042   7.448  0.1886 -0.3346  0.0079
 9483SOL    HW140082   2.520   2.981   7.421  0.6386 -1.2249  0.8654
 9483SOL    HW240083   2.580   3.022   7.541 -2.3919 -1.1329 -0.4270
 9484SOL     OW40084   1.820   1.775   4.782 -0.7148  0.3959  0.4993
 9484SOL    HW140085   1.817   1.781   4.878 -0.8930  0.1656  0.5072
 9484SOL    HW240086   1.749   1.714   4.761 -0.4660 -0.8450  3.1420
 9485SOL     OW40087   3.610   0.505   8.289 -0.5601  0.0083 -0.3537
 9485SOL    HW140088   3.670   0.439   8.323 -1.5708 -1.4185 -1.3386
 9485SOL    HW240089   3.531   0.471   8.331 -0.0147 -0.4148  0.3293
 9486SOL     OW40090   1.894   3.750   2.592 -0.1585 -0.0291 -0.4880
 9486SOL    HW140091   1.910   3.674   2.536 -2.6998 -0.3704 -0.7191
 9486SOL    HW240092   1.954   3.732   2.665  0.7064  2.1695 -0.6517
 9487SOL     OW40093   0.543   0.442  14.066  0.4648  0.3476 -0.1167
 9487SOL    HW140094   0.589   0.510  14.016  0.9492  0.4228  0.4311
 9487SOL    HW240095   0.474   0.485  14.117 -1.4937 -2.5315 -0.3467
 9488SOL     OW40096   3.542   3.573   9.510  0.0884 -0.2062  0.0455
 9488SOL    HW140097   3.533   3.618   9.426  1.3343  1.1175  0.6074
 9488SOL    HW240098   3.613   3.625   9.548 -1.9214  1.9324  0.9414
 9489SOL     OW40099   1.592   4.528  15.337  0.8486  0.0118 -0.0169
 9489SOL    HW140100   1.555   4.589  15.274  0.2814  0.5602  0.8618
 9489SOL    HW240101   1.578   4.568  15.423  0.4898  4.5972 -2.2376
 9490SOL     OW40102   1.957   3.166  11.482 -0.1503 -0.0428 -0.2498
 9490SOL    HW140103   1.971   3.163  11.387  1.2663 -0.8489 -0.0151
 9490SOL    HW240104   1.874   3.122  11.498  0.0785  0.0766  1.2193
 9491SOL     OW40105   3.832   3.716   7.262 -0.1895  0.1791 -0.0962
 9491SOL    HW140106   3.918   3.679   7.283 -0.7793 -0.7575  0.7143
 9491SOL    HW240107   3.857   3.800   7.225 -0.4940  0.2424 -0.1560
 9492SOL     OW40108   2.671   1.971   8.285 -0.1330 -0.2103 -0.0706
 9492SOL    HW140109   2.656   1.985   8.192 -1.4701  0.3647  0.2386
 9492SOL    HW240110   2.765   1.985   8.290 -0.1555 -0.4822  1.1372
 9493SOL     OW40111   4.699   0.291   6.209 -0.4841  0.2906  0.2457
 9493SOL    HW140112   4.650   0.213   6.234 -1.6013  0.7167 -0.5916
 9493SOL    HW240113   4.633   0.348   6.170 -0.8199 -0.1024  0.2385
 9494SOL     OW40114   1.144   2.447   3.236  0.3548  0.5282  0.0952
 9494SOL    HW140115   1.222   2.394   3.216 -0.1269  0.6062 -2.0113
 9494SOL    HW240116   1.086   2.380   3.272  0.2465  0.4327 -0.2506
 9495SOL     OW40117   1.624   3.050   7.030  0.3852 -0.2356 -0.2793
 9495SOL    HW140118   1.578   3.025   7.110  0.8408  0.0160  0.0622
 9495SOL    HW240119   1.563   3.034   6.958  3.2215 -1.5381 -2.4253
 9496SOL     OW40120   4.084   2.445  14.688 -0.0837  0.7331  0.0650
 9496SOL    HW140121   3.996   2.429  14.655 -0.0343  0.2916  0.1548
 9496SOL    HW240122   4.080   2.387  14.764  0.7674 -0.8582 -1.1231
 9497SOL     OW40123   2.935   1.022   3.868  0.3840  0.1452  0.0596
 9497SOL    HW140124   2.926   1.097   3.809 -1.0623  0.9970  1.3733
 9497SOL    HW240125   2.971   0.954   3.811  2.6439  2.4674 -1.2978
 9498SOL     OW40126   4.014   4.532   7.455 -0.2576  0.2520  0.2609
 9498SOL    HW140127   3.942   4.525   7.517 -0.0429  1.5196  0.6396
 9498SOL    HW240128   4.085   4.585   7.491  0.1677  0.2235 -0.5189
 9499SOL     OW40129   0.275   4.608   6.676 -0.2273 -0.0855 -0.3965
 9499SOL    HW140130   0.287   4.659   6.756  0.1292  0.0698 -0.5500
 9499SOL    HW240131   0.365   4.594   6.648 -1.9158  0.1259 -5.9460
 9500SOL     OW40132   4.425   3.008   3.621  0.5400  0.2340  0.7231
 9500SOL    HW140133   4.349   2.998   3.678  0.9347  1.5641  1.4768
 9500SOL    HW240134   4.441   3.100   3.640 -0.9420  0.6476 -0.0134
 9501SOL     OW40135   3.596   4.082   7.616 -0.3882 -0.1030  0.4309
 9501SOL    HW140136   3.523   4.092   7.677  0.5255 -0.1706  1.5591
 9501SOL    HW240137   3.638   4.001   7.646 -0.9945 -1.0046 -1.1845
 9502SOL     OW40138   0.326   3.223   3.245 -0.1584  0.0667 -0.5046
 9502SOL    HW140139   0.359   3.168   3.174  2.3062 -1.5113  1.8986
 9502SOL    HW240140   0.393   3.292   3.248 -0.9554  0.7123  2.3301
 9503SOL     OW40141   2.783   4.079   7.318  0.1017  0.6138  0.2049
 9503SOL    HW140142   2.878   4.074   7.311  0.0970  0.2051  0.4559
 9503SOL    HW240143   2.779   4.175   7.321 -0.3858  0.5395  2.6103
 9504SOL     OW40144   1.649   0.681  15.127 -0.8839  0.4229  0.0746
 9504SOL    HW140145   1.574   0.625  15.147 -1.6609  0.6302 -2.3322
 9504SOL    HW240146   1.730   0.634  15.146 -1.0911 -0.5848 -1.5824
 9505SOL     OW40147   2.256   0.451   2.268 -0.4309 -0.5063  0.1960
 9505SOL    HW140148   2.164   0.427   2.260 -0.5490  0.4277 -1.2896
 9505SOL    HW240149   2.284   0.368   2.306  0.8650 -1.6449 -3.2768
 9506SOL     OW40150   0.208   1.003   3.688  0.3982  0.0285  0.4903
 9506SOL    HW140151   0.127   0.954   3.677  0.2296 -0.4367  3.7328
 9506SOL    HW240152   0.173   1.086   3.718  1.5215  0.2081  1.3021
 9507SOL     OW40153   3.039   3.540   6.465 -0.6090  0.1087 -0.3212
 9507SOL    HW140154   3.033   3.450   6.433  1.6386  0.2878 -1.2457
 9507SOL    HW240155   2.955   3.576   6.437 -0.3880  0.8508 -0.0293
 9508SOL     OW40156   1.997   1.068   2.728 -0.5262 -0.3339  0.4126
 9508SOL    HW140157   1.970   1.038   2.641  2.7067 -1.9708 -0.0059
 9508SOL    HW240158   2.004   1.160   2.702  0.0982 -0.5249 -0.1041
 9509SOL     OW40159   1.420   1.941   7.547 -0.3004 -0.0478 -0.2512
 9509SOL    HW140160   1.489   1.881   7.519 -1.3499 -1.4489  0.1993
 9509SOL    HW240161   1.480   1.987   7.606  0.5843  1.3648 -2.2404
 9510SOL     OW40162   0.150   2.000  10.541  0.4320  0.2021  0.2399
 9510SOL    HW140163   0.191   1.953  10.613  1.2457  0.1493 -0.2518
 9510SOL    HW240164   0.192   1.959  10.465 -1.8416 -0.1035 -0.8687
 9511SOL     OW40165   2.012   2.494   6.704 -0.3707 -0.1771  0.2455
 9511SOL    HW140166   1.976   2.581   6.723  1.1863  0.8035 -1.2119
 9511SOL    HW240167   2.084   2.474   6.762  0.4234  0.1370 -0.6279
 9512SOL     OW40168   1.817   2.324   1.080 -0.2246  0.1403  0.6546
 9512SOL    HW140169   1.735   2.340   1.032  2.1220  1.1377 -3.0745
 9512SOL    HW240170   1.849   2.413   1.092  1.4292 -0.4221  0.4360
 9513SOL     OW40171   3.087   0.501   5.998 -0.2441  0.7773 -0.0500
 9513SOL    HW140172   3.107   0.571   6.061  1.6260 -0.2476  0.5102
 9513SOL    HW240173   3.147   0.431   6.024 -0.3611  0.6290 -0.1831
 9514SOL     OW40174   4.512   0.666   7.854 -0.0299  0.1437  0.0846
 9514SOL    HW140175   4.539   0.621   7.774  0.8632 -0.6004  0.7974
 9514SOL    HW240176   4.479   0.591   7.904  0.9904 -0.4069 -0.0690
 9515SOL     OW40177   0.572   3.873  10.313  0.0246  0.1377 -0.0565
 9515SOL    HW140178   0.615   3.950  10.276 -0.9000  1.1697  1.0253
 9515SOL    HW240179   0.613   3.803  10.261 -1.5406  0.0867 -1.2270
 9516SOL     OW40180   1.304   1.637  13.316 -0.0802 -0.4017  0.0896
 9516SOL    HW140181   1.312   1.543  13.307  0.3413 -0.2607 -1.0784
 9516SOL    HW240182   1.275   1.679  13.234 -1.7219  1.3419  1.5535
 9517SOL     OW40183   4.563   4.054   3.000  0.3796 -0.6835  0.7271
 9517SOL    HW140184   4.474   4.053   3.034  0.8436  1.0828  2.0132
 9517SOL    HW240185   4.610   4.034   3.081 -1.5803  0.3409  2.0986
 9518SOL     OW40186   3.415   1.391   5.869 -0.0422 -0.1080  0.1474
 9518SOL    HW140187   3.465   1.358   5.943  0.7377  1.5645  0.3547
 9518SOL    HW240188   3.397   1.307   5.826  2.2179  0.1663 -1.2905
 9519SOL     OW40189   2.967   2.531   1.215  0.2843 -0.3273  0.2757
 9519SOL    HW140190   2.921   2.500   1.293  3.0500  0.0178  2.0622
 9519SOL    HW240191   3.032   2.462   1.201  0.5201 -0.3890  1.6716
 9520SOL     OW40192   1.974   3.552   5.719 -0.5548 -0.5469  0.0983
 9520SOL    HW140193   2.066   3.579   5.729 -0.2313 -0.9798 -1.5929
 9520SOL    HW240194   1.968   3.522   5.628  0.8737  0.7770 -0.4483
 9521SOL     OW40195   4.662   4.092   4.949 -0.3128  0.2152 -0.5290
 9521SOL    HW140196   4.596   4.024   4.963  0.3518 -0.2101  0.5173
 9521SOL    HW240197   4.684   4.100   5.041 -0.3060 -1.5906 -0.3786
 9522SOL     OW40198   3.100   1.116   2.958  0.2317  0.1322  0.3567
 9522SOL    HW140199   3.075   1.208   2.942  0.3684  0.5422  2.5583
 9522SOL    HW240200   3.125   1.118   3.050  1.0898  1.9303  0.0918
 9523SOL     OW40201   3.001   0.513   6.456 -0.5995  0.4336  0.0869
 9523SOL    HW140202   3.012   0.504   6.551 -2.4463 -1.1067  0.1494
 9523SOL    HW240203   2.907   0.499   6.450 -0.5941 -1.1959  3.2305
 9524SOL     OW40204   1.128   2.544   7.991 -0.0779  0.1854 -0.8608
 9524SOL    HW140205   1.048   2.554   8.043  2.0262 -0.2157  2.3899
 9524SOL    HW240206   1.084   2.530   7.906 -0.4195  0.0402 -0.6610
 9525SOL     OW40207   4.490   0.684   5.992  0.0922 -0.3567 -0.2873
 9525SOL    HW140208   4.448   0.733   6.062 -3.0160 -2.9801 -0.3049
 9525SOL    HW240209   4.487   0.592   6.019  0.2512 -0.3026 -0.0881
 9526SOL     OW40210   3.723   3.710   5.685 -0.1596 -0.5088  0.1188
 9526SOL    HW140211   3.755   3.627   5.649  0.9702 -1.2148  2.7818
 9526SOL    HW240212   3.646   3.713   5.628 -0.1702 -0.1366  0.1501
 9527SOL     OW40213   3.322   0.890  10.730 -0.1459 -0.8308 -0.6068
 9527SOL    HW140214   3.262   0.888  10.655 -2.7099 -0.1378  1.4058
 9527SOL    HW240215   3.373   0.968  10.709 -0.9248 -0.0116  0.5353
 9528SOL     OW40216   2.314   2.636   4.465 -0.1649 -0.0603 -0.3311
 9528SOL    HW140217   2.228   2.656   4.500 -0.6505 -1.9265 -0.4550
 9528SOL    HW240218   2.286   2.617   4.376  1.4802 -1.1487 -0.6260
 9529SOL     OW40219   2.440   4.647   8.321  0.3287  0.5572  0.0019
 9529SOL    HW140220   2.488   4.650   8.238  0.3229  0.1119 -0.0176
 9529SOL    HW240221   2.376   4.577   8.312  1.9493 -1.2308  2.4164
 9530SOL     OW40222   1.931   4.134   8.492  0.6507  0.8280  0.0218
 9530SOL    HW140223   1.874   4.101   8.423 -0.3786  0.8757  0.8560
 9530SOL    HW240224   1.873   4.137   8.568 -0.5245  0.2645 -0.8574
 9531SOL     OW40225   0.012   2.063   2.679 -0.3070  0.3740 -0.4921
 9531SOL    HW140226   0.074   2.012   2.732  2.0797 -0.0641 -3.6652
 9531SOL    HW240227   0.052   2.150   2.686 -2.4907  1.2590  1.0798
 9532SOL     OW40228   4.244   1.684   4.152 -0.2405 -0.7807  0.5055
 9532SOL    HW140229   4.222   1.609   4.206 -0.6713  0.3340  1.8878
 9532SOL    HW240230   4.291   1.630   4.088  1.9738  2.0374 -0.2674
 9533SOL     OW40231   1.243   3.281   8.620 -0.3543 -0.2562  0.3742
 9533SOL    HW140232   1.263   3.253   8.530 -1.1688  1.2443 -0.2688
 9533SOL    HW240233   1.166   3.227   8.638  0.3653 -1.6575 -0.7771
 9534SOL     OW40234   3.418   4.144  10.823  0.0845  0.1559  0.1360
 9534SOL    HW140235   3.364   4.100  10.889  1.1333 -0.7912  0.3595
 9534SOL    HW240236   3.378   4.231  10.825  0.8911  0.5449 -0.9638
 9535SOL     OW40237   0.801   2.090   7.365  0.9341  0.0972  0.0677
 9535SOL    HW140238   0.825   2.155   7.432 -2.4802  0.9436  0.4669
 9535SOL    HW240239   0.824   2.136   7.284  1.6494 -0.0317  0.1974
 9536SOL     OW40240   1.199   3.086   9.320 -0.3311  0.6118  0.3291
 9536SOL    HW140241   1.132   3.151   9.343  2.1852  3.4959 -0.4756
 9536SOL    HW240242   1.270   3.100   9.383  0.7614 -0.6189 -0.6520
 9537SOL     OW40243   3.460   0.834   6.660  0.0211  0.0359 -0.4226
 9537SOL    HW140244   3.495   0.745   6.650 -0.3042 -0.0898 -0.4288
 9537SOL    HW240245   3.381   0.811   6.707 -0.5311 -1.1439 -1.9229
 9538SOL     OW40246   3.285   2.929   9.049  0.3049  0.1183  0.2614
 9538SOL    HW140247   3.291   2.959   9.140  0.8164 -0.7733  0.5237
 9538SOL    HW240248   3.229   3.000   9.017  0.6128 -0.6702 -2.0273
 9539SOL     OW40249   1.522   0.562   9.536  0.1151  0.2770  0.3373
 9539SOL    HW140250   1.443   0.521   9.502  2.6997 -4.7063  0.3750
 9539SOL    HW240251   1.487   0.611   9.611  0.5089  0.8440  0.1476
 9540SOL     OW40252   3.869   1.640   5.856 -0.1101  0.0855  0.2415
 9540SOL    HW140253   3.880   1.547   5.879 -0.4033 -0.2572 -1.0096
 9540SOL    HW240254   3.872   1.634   5.761 -1.1456  1.0771  0.1443
 9541SOL     OW40255   4.658   2.366  16.778  0.4105  0.0317 -0.3269
 9541SOL    HW140256   4.688   2.439  16.831  0.7480  1.9181 -3.1079
 9541SOL    HW240257   4.571   2.345  16.814  0.0644  2.9811  0.5262
 9542SOL     OW40258   0.822   1.817  12.159 -1.3950  0.6711 -0.2335
 9542SOL    HW140259   0.757   1.777  12.217 -0.5854 -0.7015 -0.2681
 9542SOL    HW240260   0.890   1.837  12.224 -1.0283  2.8165 -1.3098
 9543SOL     OW40261   2.816   3.141   5.202  0.5412 -0.3750 -0.3738
 9543SOL    HW140262   2.892   3.144   5.259  0.8264 -1.6758 -0.6922
 9543SOL    HW240263   2.840   3.059   5.160  0.8676  0.1600 -1.2391
 9544SOL     OW40264   1.531   4.111   9.849 -0.2493 -0.6927 -0.3283
 9544SOL    HW140265   1.604   4.142   9.903 -1.4640  0.2440  0.7753
 9544SOL    HW240266   1.452   4.123   9.902  0.4223  0.0311  0.5143
 9545SOL     OW40267   1.204   1.592   3.212 -0.5879  0.3504 -0.6263
 9545SOL    HW140268   1.222   1.680   3.245  1.7682 -0.2097 -0.4183
 9545SOL    HW240269   1.223   1.612   3.121  2.0507  1.5973  0.1761
 9546SOL     OW40270   4.573   3.626   6.015  0.4688  0.1345  0.4099
 9546SOL    HW140271   4.485   3.617   6.049  0.8435  0.1491  1.3829
 9546SOL    HW240272   4.560   3.606   5.922  2.4667 -0.3814  0.2311
 9547SOL     OW40273   0.095   1.454   3.416  0.1410 -0.4014 -0.1126
 9547SOL    HW140274   0.013   1.405   3.422  0.8502 -1.4052  1.4253
 9547SOL    HW240275   0.129   1.419   3.334 -1.3238 -0.5242 -0.6633
 9548SOL     OW40276   0.535   0.773   4.190 -0.1718  0.6915  0.0751
 9548SOL    HW140277   0.504   0.757   4.280 -2.5774 -2.9216 -1.4309
 9548SOL    HW240278   0.577   0.691   4.166 -2.2386 -0.4377  0.3585
 9549SOL     OW40279   4.579   0.018   8.920  0.4574 -0.2308  0.4130
 9549SOL    HW140280   4.565   4.722   9.009 -0.4204  2.0453  1.1139
 9549SOL    HW240281   4.565   4.685   8.856 -1.8744  0.1736  0.4693
 9550SOL     OW40282   1.258   1.061  10.704 -0.3169  0.1256  0.0995
 9550SOL    HW140283   1.255   0.975  10.747 -0.3164  0.2391  0.3288
 9550SOL    HW240284   1.280   1.118  10.778  0.4470 -1.6192  1.2059
 9551SOL     OW40285   2.781   3.566   9.508  0.6373  0.7155  0.0435
 9551SOL    HW140286   2.803   3.475   9.491 -0.4477  0.4724 -0.0871
 9551SOL    HW240287   2.693   3.551   9.543  0.5389 -0.9279 -0.9314
 9552SOL     OW40288   4.249   0.711   7.447 -0.2235  0.6054  0.0954
 9552SOL    HW140289   4.323   0.651   7.432 -1.6643 -1.0418 -0.3632
 9552SOL    HW240290   4.277   0.787   7.396  1.1318  0.4730  0.6407
 9553SOL     OW40291   2.751   1.009  10.566  0.5323  0.6523 -0.4624
 9553SOL    HW140292   2.770   1.085  10.511  1.4441 -0.6605 -1.9914
 9553SOL    HW240293   2.665   0.994  10.526  0.9578  1.9137 -1.8417
 9554SOL     OW40294   4.167   2.946   8.038  0.0021 -0.2232  0.0964
 9554SOL    HW140295   4.171   2.952   8.133  0.2801 -3.3657  0.2824
 9554SOL    HW240296   4.250   2.982   8.008 -0.7776 -0.3003 -2.2213
 9555SOL     OW40297   2.105   2.624  12.597 -0.4311 -0.6271  0.2245
 9555SOL    HW140298   2.101   2.528  12.595 -2.0042 -0.4917 -2.9792
 9555SOL    HW240299   2.071   2.651  12.512 -3.1235  0.4682  1.6409
 9556SOL     OW40300   0.133   0.688   2.727  0.3385 -0.1098 -0.2360
 9556SOL    HW140301   0.093   0.719   2.645  0.9339 -1.0278 -0.8685
 9556SOL    HW240302   0.141   0.775   2.767 -0.4249 -0.3630  0.4729
 9557SOL     OW40303   0.803   1.154  11.044  0.1221  0.1067 -0.1436
 9557SOL    HW140304   0.886   1.182  11.005 -0.4651  0.9847 -0.7433
 9557SOL    HW240305   0.829   1.203  11.122  1.6602  1.9742 -1.8588
 9558SOL     OW40306   0.543   2.121   9.296 -0.0763 -0.2298  0.1472
 9558SOL    HW140307   0.563   2.028   9.306 -1.9077 -0.7638 -1.1184
 9558SOL    HW240308   0.475   2.119   9.228 -1.5221 -0.1304  1.6051
 9559SOL     OW40309   2.947   0.027   7.026  0.2667  0.9413  0.4181
 9559SOL    HW140310   2.978   4.674   7.039 -2.0875  0.1172  0.3073
 9559SOL    HW240311   2.865   0.025   7.076 -0.5416 -2.9778 -1.0206
 9560SOL     OW40312   2.024   0.194   6.264  0.0677 -0.1184 -0.5624
 9560SOL    HW140313   2.093   0.221   6.325 -0.8182 -1.9290  1.2208
 9560SOL    HW240314   1.955   0.183   6.330  0.5903  1.5587  0.2814
 9561SOL     OW40315   1.596   0.998   4.815 -0.3716  0.0812 -0.0392
 9561SOL    HW140316   1.641   0.915   4.833 -0.5882 -0.2322 -0.9262
 9561SOL    HW240317   1.641   1.052   4.879  1.3076  0.0010 -1.1429
 9562SOL     OW40318   1.019   3.797   8.780 -0.7252  0.3308 -0.4199
 9562SOL    HW140319   0.973   3.754   8.852  0.3194 -3.6637 -2.1397
 9562SOL    HW240320   0.953   3.858   8.749 -1.1527 -1.0116 -2.1940
 9563SOL     OW40321   0.310   1.505   4.909 -0.2568  0.1210  0.2790
 9563SOL    HW140322   0.395   1.470   4.935  0.3796  1.1451 -0.4628
 9563SOL    HW240323   0.283   1.542   4.994 -1.8651 -0.5858  0.0875
 9564SOL     OW40324   2.567   4.685   2.686 -0.4158  0.0174  0.5769
 9564SOL    HW140325   2.589   4.681   2.593 -2.0266 -2.0422  0.2920
 9564SOL    HW240326   2.602   0.031   2.718  1.0335 -1.3894  2.6497
 9565SOL     OW40327   1.690   4.502  14.823 -0.2221  0.0231  0.0977
 9565SOL    HW140328   1.627   4.465  14.762  1.7554 -1.0402 -1.3028
 9565SOL    HW240329   1.690   4.597  14.806 -0.4579  0.1817  0.9655
 9566SOL     OW40330   1.652   4.026   4.974  0.2045  0.1493  0.2181
 9566SOL    HW140331   1.625   4.079   5.049  0.2408  0.5785 -0.0706
 9566SOL    HW240332   1.667   4.098   4.913 -1.9753 -0.2196 -0.7672
 9567SOL     OW40333   3.293   4.030   6.342  0.2792  1.2134  0.4368
 9567SOL    HW140334   3.249   3.966   6.397  0.7275 -1.1764 -1.9928
 9567SOL    HW240335   3.353   3.978   6.288  2.1502  3.3246  0.4556
 9568SOL     OW40336   0.965   1.137   5.266  0.5650 -0.9934  0.1080
 9568SOL    HW140337   0.970   1.230   5.242 -2.0598 -1.3425 -1.7601
 9568SOL    HW240338   0.888   1.135   5.323  0.4958 -3.3351 -0.0581
 9569SOL     OW40339   3.819   4.340  13.915 -0.0877 -0.3008 -0.3409
 9569SOL    HW140340   3.896   4.332  13.859 -0.9219  0.6663 -1.6184
 9569SOL    HW240341   3.853   4.388  13.990 -0.3586  0.9206 -1.0037
 9570SOL     OW40342   1.311   4.543  11.584 -0.5050  1.1679 -0.1833
 9570SOL    HW140343   1.333   4.629  11.548  2.8293  0.8419  0.9991
 9570SOL    HW240344   1.382   4.491  11.546 -0.3179 -0.1213  1.9028
 9571SOL     OW40345   3.903   4.318  13.506 -0.0269 -0.2647  0.2868
 9571SOL    HW140346   3.827   4.341  13.560  0.2202 -0.7731  0.8520
 9571SOL    HW240347   3.896   4.365  13.423  0.9085  0.5095  0.6366
   4.73711   4.73711  17.74677
